<event>
11    1  0.7157190E-009  0.1342946E+03  0.7561462E-02  0.1114102E+00
         22   -1    0    0    0    0  0.00000000000E+00  0.00000000000E+00  0.71471565263E+03  0.71471565263E+03  0.00000000000E+00 0. -1.
         22   -1    0    0    0    0 -0.00000000000E+00 -0.00000000000E+00 -0.10012935759E+03  0.10012935759E+03  0.00000000000E+00 0. -1.
        -24    2    1    2    0    0 -0.48826795765E+02 -0.42947618952E+01 -0.42364017551E+02  0.10319956964E+03  0.80330194981E+02 0.  0.
         25    2    1    2    0    0  0.48681293335E+02 -0.10902308254E+02  0.16454913847E+03  0.21263425186E+03  0.12509267543E+03 0.  0.
         24    2    1    2    0    0  0.14550242957E+00  0.15197070149E+02  0.49240117413E+03  0.49901118872E+03  0.79512754152E+02 0.  0.
        -11    1    5    5    0    0 -0.15289431917E+02 -0.15309717563E+02  0.41374129805E+02  0.46690178810E+02  0.00000000000E+00 0.  1.
         12    1    5    5    0    0  0.15434934346E+02  0.30506787712E+02  0.45102704432E+03  0.45232100991E+03  0.00000000000E+00 0. -1.
         11    1    3    3    0    0 -0.46225407551E+02 -0.19181531925E+02 -0.61195208525E+02  0.79054240978E+02  0.00000000000E+00 0. -1.
        -12    1    3    3    0    0 -0.26013882139E+01  0.14886770029E+02  0.18831190973E+02  0.24145328658E+02  0.00000000000E+00 0.  1.
          5    1    4    4  501    0  0.61320003748E+02 -0.19328793612E+02  0.20336004131E+02  0.67563085973E+02  0.41800000000E+01 0. -1.
         -5    1    4    4    0  501 -0.12638710413E+02  0.84264853575E+01  0.14421313434E+03  0.14507116589E+03  0.41800000000E+01 0. -1.
</event>
<event>
11    1  0.7157190E-009  0.1415246E+03  0.7561462E-02  0.1105868E+00
         22   -1    0    0    0    0  0.00000000000E+00  0.00000000000E+00  0.39283026535E+03  0.39283026535E+03  0.00000000000E+00 0.  1.
         22   -1    0    0    0    0 -0.00000000000E+00 -0.00000000000E+00 -0.87457361875E+03  0.87457361875E+03  0.00000000000E+00 0.  1.
         24    2    1    2    0    0 -0.39018463972E+02 -0.32728472498E+02 -0.82850856797E+03  0.83402767117E+03  0.81130238752E+02 0.  0.
         25    2    1    2    0    0 -0.26158193325E+02  0.61971896809E+02  0.13659703608E+03  0.19705551935E+03  0.12508940950E+03 0.  0.
        -24    2    1    2    0    0  0.65176657297E+02 -0.29243424311E+02  0.21016817849E+03  0.23632069357E+03  0.81077940515E+02 0.  0.
        -11    1    3    3    0    0 -0.48317083452E+02 -0.36138857763E+02 -0.81524221000E+03  0.81747196805E+03  0.00000000000E+00 0.  1.
         12    1    3    3    0    0  0.92986194798E+01  0.34103852653E+01 -0.13266357973E+02  0.16555703118E+02  0.00000000000E+00 0. -1.
         11    1    5    5    0    0  0.36313838076E+02 -0.28569567633E+02  0.32911234285E+02  0.56727985798E+02  0.00000000000E+00 0. -1.
        -12    1    5    5    0    0  0.28862819221E+02 -0.67385667764E+00  0.17725694421E+03  0.17959270777E+03  0.00000000000E+00 0.  1.
          5    1    4    4  501    0  0.28778305136E+02  0.58795109470E+02  0.12425474041E+03  0.14050540438E+03  0.41800000000E+01 0. -1.
         -5    1    4    4    0  501 -0.54936498461E+02  0.31767873392E+01  0.12342295666E+02  0.56550114971E+02  0.41800000000E+01 0. -1.
</event>
<event>
11    1  0.7157190E-009  0.1450394E+03  0.7561462E-02  0.1102058E+00
         22   -1    0    0    0    0  0.00000000000E+00  0.00000000000E+00  0.62148252825E+03  0.62148252825E+03  0.00000000000E+00 0. -1.
         22   -1    0    0    0    0 -0.00000000000E+00 -0.00000000000E+00 -0.31814234446E+03  0.31814234446E+03  0.00000000000E+00 0.  1.
        -24    2    1    2    0    0  0.65470584744E+02  0.57950409544E+02 -0.22536190145E+03  0.25456497409E+03  0.79816614679E+02 0.  0.
         25    2    1    2    0    0 -0.15819927035E+02 -0.13384435839E+02 -0.18498132670E+02  0.12814150768E+03  0.12509457168E+03 0.  0.
         24    2    1    2    0    0 -0.49650657709E+02 -0.44565973706E+02  0.54720021790E+03  0.55691839094E+03  0.79238260171E+02 0.  0.
        -13    1    5    5    0    0  0.14490438829E+02 -0.95755468146E+01  0.30672163425E+02  0.35248340718E+02  0.00000000000E+00 0.  1.
         14    1    5    5    0    0 -0.64141096537E+02 -0.34990426891E+02  0.51652805448E+03  0.52167005022E+03  0.00000000000E+00 0. -1.
         13    1    3    3    0    0  0.60633967559E+02  0.89718983554E+01 -0.78001264729E+02  0.99202672753E+02  0.00000000000E+00 0. -1.
        -14    1    3    3    0    0  0.48366171846E+01  0.48978511189E+02 -0.14736063672E+03  0.15536230134E+03  0.00000000000E+00 0.  1.
          5    1    4    4  501    0  0.34420109881E+02  0.11594065763E+02  0.34921617479E+02  0.50558462126E+02  0.41800000000E+01 0.  1.
         -5    1    4    4    0  501 -0.50240036915E+02 -0.24978501602E+02 -0.53419750149E+02  0.77583045555E+02  0.41800000000E+01 0.  1.
</event>
<event>
11    1  0.7157190E-009  0.1709138E+03  0.7561462E-02  0.1077239E+00
         22   -1    0    0    0    0  0.00000000000E+00  0.00000000000E+00  0.69634541866E+03  0.69634541866E+03  0.00000000000E+00 0.  1.
         22   -1    0    0    0    0 -0.00000000000E+00 -0.00000000000E+00 -0.14283935892E+04  0.14283935892E+04  0.00000000000E+00 0.  1.
         24    2    1    2    0    0 -0.31155085321E+02 -0.16732156319E+02 -0.12608829164E+04  0.12639210582E+04  0.80125576930E+02 0.  0.
         25    2    1    2    0    0 -0.81954632481E+02  0.49058293254E+02 -0.11913463524E+03  0.19739327552E+03  0.12509103080E+03 0.  0.
        -24    2    1    2    0    0  0.11310971780E+03 -0.32326136935E+02  0.64796938105E+03  0.66342467420E+03  0.80182243535E+02 0.  0.
        -13    1    3    3    0    0 -0.36105404251E+02 -0.45509742161E+02 -0.88622330402E+03  0.88812526224E+03  0.00000000000E+00 0.  1.
         14    1    3    3    0    0  0.49503189298E+01  0.28777585842E+02 -0.37465961237E+03  0.37579579594E+03  0.00000000000E+00 0. -1.
         13    1    5    5    0    0  0.14529324455E+02 -0.40892481733E+02  0.19287966000E+03  0.19770144050E+03  0.00000000000E+00 0. -1.
        -14    1    5    5    0    0  0.98580393347E+02  0.85663447980E+01  0.45508972104E+03  0.46572323371E+03  0.00000000000E+00 0.  1.
          5    1    4    4  501    0 -0.11010352114E+03  0.30624029466E+02 -0.11671139288E+03  0.16340023922E+03  0.41800000000E+01 0. -1.
         -5    1    4    4    0  501  0.28148888655E+02  0.18434263788E+02 -0.24232423578E+01  0.33993036308E+02  0.41800000000E+01 0. -1.
</event>
<event>
11    1  0.7157190E-009  0.1688377E+03  0.7561462E-02  0.1079048E+00
         22   -1    0    0    0    0  0.00000000000E+00  0.00000000000E+00  0.21744362751E+03  0.21744362751E+03  0.00000000000E+00 0. -1.
         22   -1    0    0    0    0 -0.00000000000E+00 -0.00000000000E+00 -0.27148655353E+04  0.27148655353E+04  0.00000000000E+00 0.  1.
        -24    2    1    2    0    0 -0.12880343489E+02 -0.60912737106E+02 -0.24213952111E+04  0.24235596649E+04  0.81304465005E+02 0.  0.
         25    2    1    2    0    0 -0.10149242884E+03  0.61995988300E+02 -0.23795735620E+03  0.29396340674E+03  0.12508623205E+03 0.  0.
         24    2    1    2    0    0  0.11437277233E+03 -0.10832511939E+01  0.16193065955E+03  0.21478609116E+03  0.82639106781E+02 0.  0.
        -13    1    5    5    0    0  0.61640128175E+02  0.31580123859E+02  0.45514443736E+02  0.82875655128E+02  0.00000000000E+00 0.  1.
         14    1    5    5    0    0  0.52732644159E+02 -0.32663375053E+02  0.11641621582E+03  0.13191043604E+03  0.00000000000E+00 0. -1.
         13    1    3    3    0    0  0.28067575704E+02 -0.79580889298E+01 -0.40293381452E+03  0.40398858754E+03  0.00000000000E+00 0. -1.
        -14    1    3    3    0    0 -0.40947919193E+02 -0.52954648176E+02 -0.20184613966E+04  0.20195710773E+04  0.00000000000E+00 0.  1.
          5    1    4    4  501    0 -0.11287102837E+03  0.86013019009E+01 -0.18986386567E+03  0.22108733869E+03  0.41800000000E+01 0. -1.
         -5    1    4    4    0  501  0.11378599522E+02  0.53394686399E+02 -0.48093490530E+02  0.72876068048E+02  0.41800000000E+01 0. -1.
</event>
<event>
11    1  0.7157190E-009  0.1417074E+03  0.7561462E-02  0.1105667E+00
         22   -1    0    0    0    0  0.00000000000E+00  0.00000000000E+00  0.12336588631E+04  0.12336588631E+04  0.00000000000E+00 0.  1.
         22   -1    0    0    0    0 -0.00000000000E+00 -0.00000000000E+00 -0.96083516380E+03  0.96083516380E+03  0.00000000000E+00 0. -1.
         24    2    1    2    0    0  0.68908525310E+01  0.30456253572E+02 -0.93028721031E+03  0.93432280823E+03  0.80930520030E+02 0.  0.
         25    2    1    2    0    0  0.23641816603E+02  0.31833302882E+02  0.14022298801E+03  0.19204714879E+03  0.12508927343E+03 0.  0.
        -24    2    1    2    0    0 -0.30532669134E+02 -0.62289556454E+02  0.10628879216E+04  0.10681240699E+04  0.79662174508E+02 0.  0.
        -11    1    3    3    0    0  0.41690101043E+02  0.12476949642E+02 -0.34631029176E+03  0.34903374762E+03  0.00000000000E+00 0.  1.
         12    1    3    3    0    0 -0.34799248512E+02  0.17979303929E+02 -0.58397691856E+03  0.58528906061E+03  0.00000000000E+00 0. -1.
         13    1    5    5    0    0 -0.95215054355E+01  0.10354798842E+02  0.39214326887E+02  0.41661065253E+02  0.00000000000E+00 0. -1.
        -14    1    5    5    0    0 -0.21011163699E+02 -0.72644355295E+02  0.10236735948E+04  0.10264630047E+04  0.00000000000E+00 0.  1.
          5    1    4    4  501    0  0.13150952816E+02  0.59539202921E+02  0.14500969337E+02  0.62814128635E+02  0.41800000000E+01 0. -1.
         -5    1    4    4    0  501  0.10490863787E+02 -0.27705900039E+02  0.12572201867E+03  0.12923302016E+03  0.41800000000E+01 0. -1.
</event>
<event>
11    1  0.7157190E-009  0.2539859E+03  0.7561462E-02  0.1021797E+00
         22   -1    0    0    0    0  0.00000000000E+00  0.00000000000E+00  0.33099323566E+03  0.33099323566E+03  0.00000000000E+00 0. -1.
         22   -1    0    0    0    0 -0.00000000000E+00 -0.00000000000E+00 -0.11434314657E+04  0.11434314657E+04  0.00000000000E+00 0. -1.
        -24    2    1    2    0    0  0.52945344027E+02  0.18566075006E+03 -0.61720953980E+03  0.65171971704E+03  0.80733202552E+02 0.  0.
         25    2    1    2    0    0  0.15024960027E+03 -0.67184243776E+02 -0.43210932490E+03  0.47901409301E+03  0.12508943857E+03 0.  0.
         24    2    1    2    0    0 -0.20319494429E+03 -0.11847650629E+03  0.23688063468E+03  0.34369089129E+03  0.81768733249E+02 0.  0.
        -11    1    5    5    0    0 -0.27829311984E+02 -0.55881327626E+02  0.68008167939E+02  0.92316327316E+02  0.00000000000E+00 0.  1.
         12    1    5    5    0    0 -0.17536563231E+03 -0.62595178660E+02  0.16887246674E+03  0.25137456397E+03  0.00000000000E+00 0. -1.
         11    1    3    3    0    0  0.23451135291E+02  0.14851211761E+03 -0.35938515887E+03  0.38956834733E+03  0.00000000000E+00 0. -1.
        -12    1    3    3    0    0  0.29494208736E+02  0.37148632454E+02 -0.25782438093E+03  0.26215136971E+03  0.00000000000E+00 0.  1.
          5    1    4    4  501    0 -0.18793756725E+02 -0.22088061503E+02 -0.91484007758E+02  0.96061874998E+02  0.41800000000E+01 0. -1.
         -5    1    4    4    0  501  0.16904335699E+03 -0.45096182273E+02 -0.34062531714E+03  0.38295221801E+03  0.41800000000E+01 0. -1.
</event>
<event>
11    1  0.7157190E-009  0.1366652E+03  0.7561462E-02  0.1111340E+00
         22   -1    0    0    0    0  0.00000000000E+00  0.00000000000E+00  0.85644570280E+02  0.85644570280E+02  0.00000000000E+00 0. -1.
         22   -1    0    0    0    0 -0.00000000000E+00 -0.00000000000E+00 -0.68903888092E+03  0.68903888092E+03  0.00000000000E+00 0.  1.
         24    2    1    2    0    0 -0.20446352271E+02  0.10828768698E+03 -0.13569761267E+03  0.19148772454E+03  0.78162843417E+02 0.  0.
         25    2    1    2    0    0  0.51445383381E+02  0.71041581151E+01 -0.40577626790E+03  0.42778328143E+03  0.12508820785E+03 0.  0.
        -24    2    1    2    0    0 -0.30999031109E+02 -0.11539184510E+03 -0.61920430065E+02  0.15541244523E+03  0.77734616671E+02 0.  0.
        -11    1    3    3    0    0  0.29459107985E+02  0.49139130483E+02 -0.65282593261E+02  0.86857988526E+02  0.00000000000E+00 0.  1.
         12    1    3    3    0    0 -0.49905460257E+02  0.59148556500E+02 -0.70415019408E+02  0.10462973601E+03  0.00000000000E+00 0. -1.
         11    1    5    5    0    0 -0.20116977981E+02 -0.81450327489E+02  0.78657484682E-01  0.83897883395E+02  0.00000000000E+00 0. -1.
        -12    1    5    5    0    0 -0.10882053128E+02 -0.33941517609E+02 -0.61999087550E+02  0.71514561838E+02  0.00000000000E+00 0.  1.
          5    1    4    4  501    0  0.15545682656E+01 -0.50271720137E+02 -0.92366895154E+02  0.10525577537E+03  0.41800000000E+01 0. -1.
         -5    1    4    4    0  501  0.49890815115E+02  0.57375878252E+02 -0.31340937275E+03  0.32252750606E+03  0.41800000000E+01 0. -1.
</event>
<event>
11    1  0.7239213E-009  0.1680963E+03  0.7561462E-02  0.1079700E+00
         22   -1    0    0    0    0  0.00000000000E+00  0.00000000000E+00  0.13827701798E+03  0.13827701798E+03  0.00000000000E+00 0. -1.
         22   -1    0    0    0    0 -0.00000000000E+00 -0.00000000000E+00 -0.28667323911E+04  0.28667323911E+04  0.00000000000E+00 0.  1.
         24    2    1    2    0    0  0.56790986588E+02  0.28000859172E+02 -0.20934486903E+04  0.20955586814E+04  0.69494632845E+02 0.  0.
         25    2    1    2    0    0 -0.23795006838E+02  0.81500623347E+02 -0.72692965039E+03  0.74248428483E+03  0.12509053777E+03 0.  0.
        -24    2    1    2    0    0 -0.32995979750E+02 -0.10950148252E+03  0.91922967612E+02  0.16696644281E+03  0.79678426786E+02 0.  0.
        -11    1    3    3    0    0  0.51434763450E+02 -0.12464014149E+02 -0.11019132981E+04  0.11031834857E+04  0.00000000000E+00 0.  1.
         12    1    3    3    0    0  0.53562231387E+01  0.40464873321E+02 -0.99153539224E+03  0.99237519577E+03  0.00000000000E+00 0. -1.
         13    1    5    5    0    0 -0.43687640383E+02 -0.53289043288E+02  0.84856924489E+02  0.10931161736E+03  0.00000000000E+00 0. -1.
        -14    1    5    5    0    0  0.10691660633E+02 -0.56212439231E+02  0.70660431232E+01  0.57654825443E+02  0.00000000000E+00 0.  1.
          5    1    4    4  501    0  0.32812591590E+02 -0.12129946356E+02 -0.99051771176E+02  0.10513100180E+03  0.41800000000E+01 0.  1.
         -5    1    4    4    0  501 -0.56607598429E+02  0.93630569704E+02 -0.62787787922E+03  0.63735328303E+03  0.41800000000E+01 0.  1.
</event>
<event>
11    1  0.7157190E-009  0.1339897E+03  0.7561462E-02  0.1114462E+00
         22   -1    0    0    0    0  0.00000000000E+00  0.00000000000E+00  0.99442647032E+03  0.99442647032E+03  0.00000000000E+00 0.  1.
         22   -1    0    0    0    0 -0.00000000000E+00 -0.00000000000E+00 -0.23933516797E+03  0.23933516797E+03  0.00000000000E+00 0.  1.
         24    2    1    2    0    0 -0.41101820064E+02 -0.29112846525E+02 -0.15876828625E+03  0.18422875751E+03  0.78714350202E+02 0.  0.
         25    2    1    2    0    0  0.38223720281E+02  0.74688790122E+01 -0.39885839574E+00  0.13101452010E+03  0.12509120050E+03 0.  0.
        -24    2    1    2    0    0  0.28780997827E+01  0.21643967513E+02  0.91425844701E+03  0.91851836069E+03  0.85619660151E+02 0.  0.
        -13    1    3    3    0    0  0.78062817907E+01  0.16720403295E+02 -0.73438382767E+02  0.75721238667E+02  0.00000000000E+00 0.  1.
         14    1    3    3    0    0 -0.48908101855E+02 -0.45833249820E+02 -0.85329903486E+02  0.10850751884E+03  0.00000000000E+00 0. -1.
         11    1    5    5    0    0  0.40373217501E+02 -0.61951106713E+01  0.36506085978E+03  0.36733881831E+03  0.00000000000E+00 0. -1.
        -12    1    5    5    0    0 -0.37495117718E+02  0.27839078185E+02  0.54919758722E+03  0.55117954238E+03  0.00000000000E+00 0.  1.
          5    1    4    4  501    0  0.25886619577E+02 -0.55370026533E+02 -0.19094603621E+02  0.64171903500E+02  0.41800000000E+01 0. -1.
         -5    1    4    4    0  501  0.12337100704E+02  0.62838905545E+02  0.18695745225E+02  0.66842616596E+02  0.41800000000E+01 0. -1.
</event>
<event>
11    1  0.7157190E-009  0.1502149E+03  0.7561462E-02  0.1096659E+00
         22   -1    0    0    0    0  0.00000000000E+00  0.00000000000E+00  0.18082493367E+03  0.18082493367E+03  0.00000000000E+00 0.  1.
         22   -1    0    0    0    0 -0.00000000000E+00 -0.00000000000E+00 -0.44214235652E+03  0.44214235652E+03  0.00000000000E+00 0.  1.
         24    2    1    2    0    0  0.13066314307E+02 -0.12446495273E+02 -0.30165488958E+03  0.31263774106E+03  0.80131397783E+02 0.  0.
         25    2    1    2    0    0 -0.91979776471E+02 -0.65283391392E+01 -0.52283636100E+02  0.16396411092E+03  0.12509097719E+03 0.  0.
        -24    2    1    2    0    0  0.78913462164E+02  0.18974834412E+02  0.92621102835E+02  0.14636543820E+03  0.79099898595E+02 0.  0.
        -11    1    3    3    0    0  0.33426394081E+02 -0.31496451297E+02 -0.24751273869E+03  0.25173777245E+03  0.00000000000E+00 0.  1.
         12    1    3    3    0    0 -0.20360079774E+02  0.19049956024E+02 -0.54142150898E+02  0.60899968611E+02  0.00000000000E+00 0. -1.
         11    1    5    5    0    0 -0.14026078796E+02 -0.45198928009E+01  0.28054801531E+01  0.15001034505E+02  0.00000000000E+00 0. -1.
        -12    1    5    5    0    0  0.92939540960E+02  0.23494727213E+02  0.89815622682E+02  0.13136440370E+03  0.00000000000E+00 0.  1.
          5    1    4    4  501    0 -0.82915689572E+02 -0.53237207425E+02 -0.60205440881E+02  0.11554816893E+03  0.41800000000E+01 0.  1.
         -5    1    4    4    0  501 -0.90640868982E+01  0.46708868286E+02  0.79218047809E+01  0.48415941991E+02  0.41800000000E+01 0.  1.
</event>
<event>
11    1  0.7157190E-009  0.1318428E+03  0.7561462E-02  0.1117025E+00
         22   -1    0    0    0    0  0.00000000000E+00  0.00000000000E+00  0.52000903452E+03  0.52000903452E+03  0.00000000000E+00 0. -1.
         22   -1    0    0    0    0 -0.00000000000E+00 -0.00000000000E+00 -0.13636171027E+03  0.13636171027E+03  0.00000000000E+00 0. -1.
         24    2    1    2    0    0  0.59386197887E+01 -0.49843643986E+02 -0.65100637059E+02  0.11523429734E+03  0.80753911906E+02 0.  0.
         25    2    1    2    0    0  0.25624655139E+02  0.86072409476E+01  0.60595670268E+02  0.14159868793E+03  0.12509054969E+03 0.  0.
        -24    2    1    2    0    0 -0.31563274928E+02  0.41236403039E+02  0.38815229104E+03  0.39953775952E+03  0.79193048809E+02 0.  0.
        -13    1    3    3    0    0  0.26195031160E+02 -0.35564045094E+02  0.14757526089E+01  0.44194556302E+02  0.00000000000E+00 0.  1.
         14    1    3    3    0    0 -0.20256411371E+02 -0.14279598892E+02 -0.66576389668E+02  0.71039741043E+02  0.00000000000E+00 0. -1.
         13    1    5    5    0    0  0.35804310801E+01  0.23435959351E+02  0.31955503412E+03  0.32043327466E+03  0.00000000000E+00 0. -1.
        -14    1    5    5    0    0 -0.35143706008E+02  0.17800443688E+02  0.68597256919E+02  0.79104484856E+02  0.00000000000E+00 0.  1.
          5    1    4    4  501    0 -0.17295904146E+02  0.52519153147E+02  0.57638506032E+02  0.79981744949E+02  0.41800000000E+01 0.  1.
         -5    1    4    4    0  501  0.42920559285E+02 -0.43911912199E+02  0.29571642360E+01  0.61616942983E+02  0.41800000000E+01 0.  1.
</event>
<event>
11    1  0.7157190E-009  0.1507955E+03  0.7561462E-02  0.1096069E+00
         22   -1    0    0    0    0  0.00000000000E+00  0.00000000000E+00  0.42745181735E+02  0.42745181735E+02  0.00000000000E+00 0.  1.
         22   -1    0    0    0    0 -0.00000000000E+00 -0.00000000000E+00 -0.19386591541E+04  0.19386591541E+04  0.00000000000E+00 0.  1.
         24    2    1    2    0    0  0.19250507761E+01 -0.11361878613E+02 -0.11895362508E+04  0.11920553528E+04  0.76594216112E+02 0.  0.
         25    2    1    2    0    0 -0.46421404430E+00 -0.74426099218E+02 -0.63573572355E+03  0.65218554957E+03  0.12508645462E+03 0.  0.
        -24    2    1    2    0    0 -0.14608367318E+01  0.85787977831E+02 -0.70641997934E+02  0.13716343344E+03  0.80385349508E+02 0.  0.
        -13    1    3    3    0    0 -0.15908293465E+02 -0.40083611876E+02 -0.59715731952E+03  0.59871248024E+03  0.00000000000E+00 0.  1.
         14    1    3    3    0    0  0.17833344241E+02  0.28721733264E+02 -0.59237893133E+03  0.59334287255E+03  0.00000000000E+00 0. -1.
         13    1    5    5    0    0  0.21697606383E+02  0.56349472112E+02 -0.78354742162E+02  0.98921760747E+02  0.00000000000E+00 0. -1.
        -14    1    5    5    0    0 -0.23158443115E+02  0.29438505719E+02  0.77127442284E+01  0.38241672689E+02  0.00000000000E+00 0.  1.
          5    1    4    4  501    0 -0.49646125117E+01  0.25800317514E+02 -0.31445545310E+03  0.31557884617E+03  0.41800000000E+01 0. -1.
         -5    1    4    4    0  501  0.45003984674E+01 -0.10022641673E+03 -0.32128027044E+03  0.33660670340E+03  0.41800000000E+01 0. -1.
</event>
<event>
11    1  0.7157190E-009  0.1562448E+03  0.7561462E-02  0.1090663E+00
         22   -1    0    0    0    0  0.00000000000E+00  0.00000000000E+00  0.48429457498E+03  0.48429457498E+03  0.00000000000E+00 0.  1.
         22   -1    0    0    0    0 -0.00000000000E+00 -0.00000000000E+00 -0.13992434670E+03  0.13992434670E+03  0.00000000000E+00 0. -1.
         24    2    1    2    0    0 -0.93507226396E+01 -0.64356236602E+01 -0.79169224399E+02  0.11261802815E+03  0.79285565566E+02 0.  0.
         25    2    1    2    0    0  0.48803038841E+02 -0.79092582685E+02  0.17673921271E+03  0.23562920483E+03  0.12508796753E+03 0.  0.
        -24    2    1    2    0    0 -0.39452316201E+02  0.85528206345E+02  0.24680023997E+03  0.27597168871E+03  0.79865231399E+02 0.  0.
        -13    1    3    3    0    0  0.29442535081E+02 -0.59813315278E+01 -0.72566143229E+01  0.30907889773E+02  0.00000000000E+00 0.  1.
         14    1    3    3    0    0 -0.38793257720E+02 -0.45429213236E+00 -0.71912610076E+02  0.81710138378E+02  0.00000000000E+00 0. -1.
         11    1    5    5    0    0  0.23270733585E+02  0.37107114167E+02  0.99414956320E+02  0.10863608288E+03  0.00000000000E+00 0. -1.
        -12    1    5    5    0    0 -0.62723049786E+02  0.48421092178E+02  0.14738528365E+03  0.16733560583E+03  0.00000000000E+00 0.  1.
          5    1    4    4  501    0  0.41732291170E+02 -0.24257569635E+02  0.17344446042E+03  0.18008461084E+03  0.41800000000E+01 0. -1.
         -5    1    4    4    0  501  0.70707476704E+01 -0.54835013050E+02  0.32947522953E+01  0.55544593990E+02  0.41800000000E+01 0. -1.
</event>
<event>
11    1  0.7157190E-009  0.1555380E+03  0.7561462E-02  0.1091351E+00
         22   -1    0    0    0    0  0.00000000000E+00  0.00000000000E+00  0.77515245101E+03  0.77515245101E+03  0.00000000000E+00 0. -1.
         22   -1    0    0    0    0 -0.00000000000E+00 -0.00000000000E+00 -0.13597293387E+03  0.13597293387E+03  0.00000000000E+00 0. -1.
        -24    2    1    2    0    0 -0.13655178605E+02  0.88068094699E+02 -0.46464544356E+02  0.12953165763E+03  0.81713176652E+02 0.  0.
         25    2    1    2    0    0  0.46293275409E+02 -0.97181568476E+02  0.10600828121E+03  0.19617085317E+03  0.12513162410E+03 0.  0.
         24    2    1    2    0    0 -0.32638096803E+02  0.91134737771E+01  0.57963578029E+03  0.58542287408E+03  0.74793067401E+02 0.  0.
        -11    1    5    5    0    0  0.20311194315E+02 -0.78157763884E+01  0.87863915459E+02  0.90519051115E+02  0.00000000000E+00 0.  1.
         12    1    5    5    0    0 -0.52949291118E+02  0.16929250165E+02  0.49177186483E+03  0.49490382296E+03  0.00000000000E+00 0. -1.
         11    1    3    3    0    0  0.70704398056E+01  0.97339227081E+02 -0.42653349365E+02  0.10650926936E+03  0.00000000000E+00 0. -1.
        -12    1    3    3    0    0 -0.20725618411E+02 -0.92711323823E+01 -0.38111949912E+01  0.23022388265E+02  0.00000000000E+00 0.  1.
          5    1    4    4  501    0  0.25468446709E+02  0.10010488089E+01  0.91009298733E+02  0.94603428756E+02  0.41800000000E+01 0. -1.
         -5    1    4    4    0  501  0.20824828700E+02 -0.98182617285E+02  0.14998982472E+02  0.10156742442E+03  0.41800000000E+01 0. -1.
</event>
<event>
11    1  0.7157190E-009  0.1544168E+03  0.7561462E-02  0.1092449E+00
         22   -1    0    0    0    0  0.00000000000E+00  0.00000000000E+00  0.96722411351E+02  0.96722411351E+02  0.00000000000E+00 0.  1.
         22   -1    0    0    0    0 -0.00000000000E+00 -0.00000000000E+00 -0.24905122444E+04  0.24905122444E+04  0.00000000000E+00 0.  1.
        -24    2    1    2    0    0  0.51472541966E+01  0.91201042594E+02 -0.23291605423E+04  0.23323016624E+04  0.79360495677E+02 0.  0.
         25    2    1    2    0    0 -0.60464577332E+02 -0.57270205309E+02 -0.41013561199E+02  0.15577259827E+03  0.12508856319E+03 0.  0.
         24    2    1    2    0    0  0.55317323135E+02 -0.33930837286E+02 -0.23615729602E+02  0.99160395123E+02  0.71160194762E+02 0.  0.
        -11    1    5    5    0    0  0.71326189718E+02 -0.36347400394E+02 -0.18285112113E+02  0.82115188485E+02  0.00000000000E+00 0.  1.
         12    1    5    5    0    0 -0.16008866583E+02  0.24165631080E+01 -0.53306174890E+01  0.17045206638E+02  0.00000000000E+00 0. -1.
         13    1    3    3    0    0  0.85438013149E+01 -0.96717608035E+01 -0.63895255649E+03  0.63908286548E+03  0.00000000000E+00 0. -1.
        -14    1    3    3    0    0 -0.33965471183E+01  0.10087280340E+03 -0.16902079858E+04  0.16932187969E+04  0.00000000000E+00 0.  1.
          5    1    4    4  501    0 -0.53412236178E+02 -0.96404631928E+02 -0.30363557314E+02  0.11439465916E+03  0.41800000000E+01 0.  1.
         -5    1    4    4    0  501 -0.70523411534E+01  0.39134426620E+02 -0.10650003885E+02  0.41377939114E+02  0.41800000000E+01 0.  1.
</event>
<event>
11    1  0.7157190E-009  0.1835037E+03  0.7561462E-02  0.1066843E+00
         22   -1    0    0    0    0  0.00000000000E+00  0.00000000000E+00  0.32670179614E+04  0.32670179614E+04  0.00000000000E+00 0. -1.
         22   -1    0    0    0    0 -0.00000000000E+00 -0.00000000000E+00 -0.10039735657E+03  0.10039735657E+03  0.00000000000E+00 0. -1.
         24    2    1    2    0    0  0.21859109758E+02  0.89437458594E+02 -0.43126376045E+02  0.12945209654E+03  0.80131649851E+02 0.  0.
         25    2    1    2    0    0  0.66800422488E+02 -0.17743211692E+03  0.11045406255E+04  0.11276529022E+04  0.12508645750E+03 0.  0.
        -24    2    1    2    0    0 -0.88659532245E+02  0.87994658322E+02  0.21052063554E+04  0.21103103192E+04  0.76891301729E+02 0.  0.
        -13    1    3    3    0    0  0.43854384126E+02  0.35474458642E+02  0.90613483781E+00  0.56413343309E+02  0.00000000000E+00 0.  1.
         14    1    3    3    0    0 -0.21995274369E+02  0.53962999952E+02 -0.44032510883E+02  0.73038753227E+02  0.00000000000E+00 0. -1.
         13    1    5    5    0    0 -0.82079178332E+02  0.58753626263E+02  0.19236561796E+04  0.19263026962E+04  0.00000000000E+00 0. -1.
        -14    1    5    5    0    0 -0.65803539133E+01  0.29241032059E+02  0.18155017574E+03  0.18400762301E+03  0.00000000000E+00 0.  1.
          5    1    4    4  501    0  0.47152010819E+02 -0.92426411483E+02  0.88962780979E+03  0.89566794406E+03  0.41800000000E+01 0.  1.
         -5    1    4    4    0  501  0.19648411669E+02 -0.85005705432E+02  0.21491281575E+03  0.23198495815E+03  0.41800000000E+01 0.  1.
</event>
<event>
11    1  0.7157190E-009  0.1396275E+03  0.7561462E-02  0.1107975E+00
         22   -1    0    0    0    0  0.00000000000E+00  0.00000000000E+00  0.24506902078E+03  0.24506902078E+03  0.00000000000E+00 0. -1.
         22   -1    0    0    0    0 -0.00000000000E+00 -0.00000000000E+00 -0.26223160927E+04  0.26223160927E+04  0.00000000000E+00 0. -1.
        -24    2    1    2    0    0  0.42888739062E+02  0.13427714139E+02 -0.17730200007E+04  0.17750307840E+04  0.71516528772E+02 0.  0.
         25    2    1    2    0    0  0.16432577760E+02 -0.33110862261E+02 -0.83232735119E+03  0.84248605202E+03  0.12509024542E+03 0.  0.
         24    2    1    2    0    0 -0.59321316823E+02  0.19683148123E+02  0.22810028000E+03  0.24986827741E+03  0.80610007889E+02 0.  0.
        -11    1    5    5    0    0 -0.12556072061E+02  0.31481682584E+02  0.27779040845E+02  0.43822669866E+02  0.00000000000E+00 0.  1.
         12    1    5    5    0    0 -0.46765244761E+02 -0.11798534461E+02  0.20032123915E+03  0.20604560754E+03  0.00000000000E+00 0. -1.
         13    1    3    3    0    0  0.55044742143E+02  0.27897066194E+02 -0.15438800199E+04  0.15451128392E+04  0.00000000000E+00 0. -1.
        -14    1    3    3    0    0 -0.12156003081E+02 -0.14469352056E+02 -0.22913998079E+03  0.22991794483E+03  0.00000000000E+00 0.  1.
          5    1    4    4  501    0  0.36767799661E+01  0.47692934866E+02 -0.27252496330E+03  0.27672271820E+03  0.41800000000E+01 0. -1.
         -5    1    4    4    0  501  0.12755797794E+02 -0.80803797127E+02 -0.55980238789E+03  0.56576333382E+03  0.41800000000E+01 0. -1.
</event>
<event>
11    1  0.7157190E-009  0.1463339E+03  0.7561462E-02  0.1100685E+00
         22   -1    0    0    0    0  0.00000000000E+00  0.00000000000E+00  0.86420625385E+03  0.86420625385E+03  0.00000000000E+00 0. -1.
         22   -1    0    0    0    0 -0.00000000000E+00 -0.00000000000E+00 -0.12613642210E+03  0.12613642210E+03  0.00000000000E+00 0.  1.
         24    2    1    2    0    0  0.96618053699E+00 -0.30117478257E+02 -0.48633734889E+02  0.99754634235E+02  0.81717506574E+02 0.  0.
         25    2    1    2    0    0 -0.57511743303E+02  0.78249546585E+02  0.84008085927E+02  0.17925101428E+03  0.12507188117E+03 0.  0.
        -24    2    1    2    0    0  0.56545562766E+02 -0.48132068328E+02  0.70269548071E+03  0.71133702744E+03  0.81886087525E+02 0.  0.
        -13    1    3    3    0    0 -0.14616581092E+02 -0.12037756029E+02 -0.67008600863E+02  0.69632640354E+02  0.00000000000E+00 0.  1.
         14    1    3    3    0    0  0.15582761629E+02 -0.18079722229E+02  0.18374865973E+02  0.30121993881E+02  0.00000000000E+00 0. -1.
         13    1    5    5    0    0  0.75535426238E+02 -0.51096319279E+02  0.56690357237E+03  0.57419168823E+03  0.00000000000E+00 0. -1.
        -14    1    5    5    0    0 -0.18989863472E+02  0.29642509511E+01  0.13579190833E+03  0.13714533921E+03  0.00000000000E+00 0.  1.
          5    1    4    4  501    0  0.77356083022E+01  0.71781997040E+02 -0.35927011672E+00  0.72319404103E+02  0.41800000000E+01 0. -1.
         -5    1    4    4    0  501 -0.65247351605E+02  0.64675495455E+01  0.84367356044E+02  0.10693161017E+03  0.41800000000E+01 0. -1.
</event>
<event>
11    1  0.7157190E-009  0.1476014E+03  0.7561462E-02  0.1099355E+00
         22   -1    0    0    0    0  0.00000000000E+00  0.00000000000E+00  0.13543090495E+04  0.13543090495E+04  0.00000000000E+00 0. -1.
         22   -1    0    0    0    0 -0.00000000000E+00 -0.00000000000E+00 -0.67073536310E+02  0.67073536310E+02  0.00000000000E+00 0. -1.
        -24    2    1    2    0    0 -0.40144069836E+02  0.73308702714E+02  0.21041178802E+02  0.11785818843E+03  0.80387244867E+02 0.  0.
         25    2    1    2    0    0 -0.23685140961E+01 -0.63981600696E+02  0.27725127252E+03  0.31082512334E+03  0.12507891149E+03 0.  0.
         24    2    1    2    0    0  0.42512583932E+02 -0.93271020175E+01  0.98894306183E+03  0.99269927400E+03  0.74492646893E+02 0.  0.
        -11    1    5    5    0    0 -0.26144608284E+01 -0.16645050653E+01  0.43234003333E+00  0.31293610275E+01  0.00000000000E+00 0.  1.
         12    1    5    5    0    0  0.45127044761E+02 -0.76625969522E+01  0.98851072179E+03  0.98956991297E+03  0.00000000000E+00 0. -1.
         13    1    3    3    0    0  0.38082728324E+00  0.44805914073E+02 -0.24060979626E+02  0.50859076927E+02  0.00000000000E+00 0. -1.
        -14    1    3    3    0    0 -0.40524897120E+02  0.28502788641E+02  0.45102158429E+02  0.66999111500E+02  0.00000000000E+00 0.  1.
          5    1    4    4  501    0 -0.13746070438E+02 -0.13098505708E+02 -0.78486215109E+01  0.20966605922E+02  0.41800000000E+01 0. -1.
         -5    1    4    4    0  501  0.11377556342E+02 -0.50883094988E+02  0.28509989403E+03  0.28985851742E+03  0.41800000000E+01 0. -1.
</event>
<event>
11    1  0.8616939E-009  0.2640478E+03  0.7561462E-02  0.1016671E+00
         22   -1    0    0    0    0  0.00000000000E+00  0.00000000000E+00  0.16557712268E+04  0.16557712268E+04  0.00000000000E+00 0.  1.
         22   -1    0    0    0    0 -0.00000000000E+00 -0.00000000000E+00 -0.16856560714E+04  0.16856560714E+04  0.00000000000E+00 0.  1.
        -24    2    1    2    0    0 -0.36276647775E+02 -0.83972649655E+02 -0.13821860328E+04  0.13875236449E+04  0.80101402984E+02 0.  0.
         25    2    1    2    0    0 -0.16519872583E+03  0.19939753903E+03 -0.22029962081E+03  0.36225488778E+03  0.12508670276E+03 0.  0.
         24    2    1    2    0    0  0.20147537360E+03 -0.11542488938E+03  0.15726008090E+04  0.15916487656E+04  0.79732410362E+02 0.  0.
        -11    1    5    5    0    0  0.37280430586E+02 -0.62704759929E+02  0.44664740378E+03  0.45256559825E+03  0.00000000000E+00 0.  1.
         12    1    5    5    0    0  0.16419494302E+03 -0.52720129449E+02  0.11259534052E+04  0.11390831673E+04  0.00000000000E+00 0. -1.
         11    1    3    3    0    0  0.14377757602E+02  0.78394199395E+01 -0.22587614496E+03  0.22646900292E+03  0.00000000000E+00 0. -1.
        -12    1    3    3    0    0 -0.50654405377E+02 -0.91812069595E+02 -0.11563098879E+04  0.11610546420E+04  0.00000000000E+00 0.  1.
          5    1    4    4  501    0 -0.17897787393E+03  0.14231944945E+03 -0.17540742062E+03  0.28822411533E+03  0.41800000000E+01 0.  1.
         -5    1    4    4    0  501  0.13779148103E+02  0.57078089578E+02 -0.44892200184E+02  0.74030772451E+02  0.41800000000E+01 0.  1.
</event>
<event>
11    1  0.7157190E-009  0.1688831E+03  0.7561462E-02  0.1079008E+00
         22   -1    0    0    0    0  0.00000000000E+00  0.00000000000E+00  0.63188716226E+03  0.63188716226E+03  0.00000000000E+00 0.  1.
         22   -1    0    0    0    0 -0.00000000000E+00 -0.00000000000E+00 -0.29311297728E+03  0.29311297728E+03  0.00000000000E+00 0. -1.
        -24    2    1    2    0    0  0.99009778932E+02  0.50723995701E+02 -0.22670577755E+03  0.26403153736E+03  0.77079719031E+02 0.  0.
         25    2    1    2    0    0 -0.11056570492E+03 -0.85695790843E+02  0.16071124716E+03  0.24706954344E+03  0.12508681250E+03 0.  0.
         24    2    1    2    0    0  0.11555925985E+02  0.34971795142E+02  0.40476871536E+03  0.41389905873E+03  0.78218616702E+02 0.  0.
        -11    1    5    5    0    0 -0.23404432240E+02  0.54058413968E+01  0.27940844636E+03  0.28043906730E+03  0.00000000000E+00 0.  1.
         12    1    5    5    0    0  0.34960358225E+02  0.29565953745E+02  0.12536026900E+03  0.13345999143E+03  0.00000000000E+00 0. -1.
         13    1    3    3    0    0  0.76054224502E+02  0.65194054647E+02 -0.20861344672E+03  0.23141754467E+03  0.00000000000E+00 0. -1.
        -14    1    3    3    0    0  0.22955554430E+02 -0.14470058946E+02 -0.18092330825E+02  0.32613992699E+02  0.00000000000E+00 0.  1.
          5    1    4    4  501    0 -0.84631867357E+02 -0.68994292745E+02  0.17991179075E+03  0.21049582004E+03  0.41800000000E+01 0. -1.
         -5    1    4    4    0  501 -0.25933837559E+02 -0.16701498098E+02 -0.19200543590E+02  0.36573723401E+02  0.41800000000E+01 0. -1.
</event>
<event>
11    1  0.7157190E-009  0.1328133E+03  0.7561462E-02  0.1115860E+00
         22   -1    0    0    0    0  0.00000000000E+00  0.00000000000E+00  0.11517509728E+03  0.11517509728E+03  0.00000000000E+00 0.  1.
         22   -1    0    0    0    0 -0.00000000000E+00 -0.00000000000E+00 -0.75320477437E+03  0.75320477437E+03  0.00000000000E+00 0.  1.
         24    2    1    2    0    0 -0.27457252407E+01  0.45420515671E+02 -0.64908876848E+03  0.65567498655E+03  0.80764449868E+02 0.  0.
         25    2    1    2    0    0  0.18510187142E+00 -0.29188346021E+02 -0.13330421933E+02  0.12914261173E+03  0.12509244665E+03 0.  0.
        -24    2    1    2    0    0  0.25606233693E+01 -0.16232169650E+02  0.24389513317E+02  0.83562273373E+02  0.78216143141E+02 0.  0.
        -11    1    3    3    0    0 -0.28869730569E+02  0.52493528127E+02 -0.53851815865E+03  0.54184023386E+03  0.00000000000E+00 0.  1.
         12    1    3    3    0    0  0.26124005329E+02 -0.70730124562E+01 -0.11057060983E+03  0.11383475268E+03  0.00000000000E+00 0. -1.
         13    1    5    5    0    0 -0.75618670671E+01  0.13500234211E+02 -0.22390091367E+02  0.27216802691E+02  0.00000000000E+00 0. -1.
        -14    1    5    5    0    0  0.10122490436E+02 -0.29732403861E+02  0.46779604684E+02  0.56345470682E+02  0.00000000000E+00 0.  1.
          5    1    4    4  501    0  0.51540433317E+02  0.10796330936E+02 -0.31417325508E+02  0.61461351842E+02  0.41800000000E+01 0. -1.
         -5    1    4    4    0  501 -0.51355331446E+02 -0.39984676957E+02  0.18086903576E+02  0.67681259890E+02  0.41800000000E+01 0. -1.
</event>
<event>
11    1  0.7157190E-009  0.1948041E+03  0.7561462E-02  0.1058260E+00
         22   -1    0    0    0    0  0.00000000000E+00  0.00000000000E+00  0.16718879853E+04  0.16718879853E+04  0.00000000000E+00 0. -1.
         22   -1    0    0    0    0 -0.00000000000E+00 -0.00000000000E+00 -0.13560022367E+04  0.13560022367E+04  0.00000000000E+00 0. -1.
         24    2    1    2    0    0 -0.52456121220E+02 -0.11219899038E+03 -0.13139368959E+04  0.13223374920E+04  0.82498594116E+02 0.  0.
         25    2    1    2    0    0 -0.73210310479E+02  0.18716047001E+03  0.40235700961E+03  0.46683901424E+03  0.12513477111E+03 0.  0.
        -24    2    1    2    0    0  0.12566643170E+03 -0.74961479628E+02  0.12274656349E+04  0.12387137158E+04  0.79551928419E+02 0.  0.
        -13    1    3    3    0    0  0.18574023004E+02 -0.37736159266E+02 -0.25895531621E+03  0.26234875231E+03  0.00000000000E+00 0.  1.
         14    1    3    3    0    0 -0.71030144225E+02 -0.74462831117E+02 -0.10549815797E+04  0.10599887397E+04  0.00000000000E+00 0. -1.
         11    1    5    5    0    0  0.12138550783E+03 -0.34967873070E+02  0.93643430364E+03  0.94491608023E+03  0.00000000000E+00 0. -1.
        -12    1    5    5    0    0  0.42809238677E+01 -0.39993606558E+02  0.29103133124E+03  0.29379763552E+03  0.00000000000E+00 0.  1.
          5    1    4    4  501    0 -0.19505085274E+02  0.17784295465E+03  0.33754193793E+03  0.38204789900E+03  0.41800000000E+01 0.  1.
         -5    1    4    4    0  501 -0.53705225206E+02  0.93175153646E+01  0.64815071679E+02  0.84791115241E+02  0.41800000000E+01 0.  1.
</event>
<event>
11    1  0.7157190E-009  0.2141486E+03  0.7561462E-02  0.1044946E+00
         22   -1    0    0    0    0  0.00000000000E+00  0.00000000000E+00  0.31357195126E+03  0.31357195126E+03  0.00000000000E+00 0.  1.
         22   -1    0    0    0    0 -0.00000000000E+00 -0.00000000000E+00 -0.45135897917E+03  0.45135897917E+03  0.00000000000E+00 0.  1.
        -24    2    1    2    0    0  0.12865231949E+03 -0.11367413891E+03 -0.32178883179E+03  0.37338628776E+03  0.79975236527E+02 0.  0.
         25    2    1    2    0    0 -0.16721550498E+03  0.90027401381E+02  0.53860147251E+02  0.23369690240E+03  0.12508944250E+03 0.  0.
         24    2    1    2    0    0  0.38563185497E+02  0.23646737524E+02  0.13014165663E+03  0.15784774027E+03  0.77024482110E+02 0.  0.
        -11    1    5    5    0    0  0.32227366950E+02  0.41176634573E+02  0.12897518557E+03  0.13917153771E+03  0.00000000000E+00 0.  1.
         12    1    5    5    0    0  0.63358185468E+01 -0.17529897048E+02  0.11664710625E+01  0.18676202556E+02  0.00000000000E+00 0. -1.
         13    1    3    3    0    0  0.61130651144E+01 -0.23311669741E+02 -0.93978565241E+01  0.25867416153E+02  0.00000000000E+00 0. -1.
        -14    1    3    3    0    0  0.12253925437E+03 -0.90362469164E+02 -0.31239097527E+03  0.34751887161E+03  0.00000000000E+00 0.  1.
          5    1    4    4  501    0 -0.16386973046E+03  0.38875995923E+02  0.65858265252E+02  0.18088508817E+03  0.41800000000E+01 0.  1.
         -5    1    4    4    0  501 -0.33457745247E+01  0.51151405458E+02 -0.11998118001E+02  0.52811814237E+02  0.41800000000E+01 0.  1.
</event>
<event>
11    1  0.7157190E-009  0.1437614E+03  0.7561462E-02  0.1103429E+00
         22   -1    0    0    0    0  0.00000000000E+00  0.00000000000E+00  0.23835872880E+04  0.23835872880E+04  0.00000000000E+00 0.  1.
         22   -1    0    0    0    0 -0.00000000000E+00 -0.00000000000E+00 -0.43549258823E+02  0.43549258823E+02  0.00000000000E+00 0.  1.
        -24    2    1    2    0    0  0.50354059454E+02 -0.54071780955E+02  0.84811452613E+02  0.13947559634E+03  0.82469210502E+02 0.  0.
         25    2    1    2    0    0 -0.86128478309E+02 -0.82778020791E+01  0.37910497083E+03  0.40848178270E+03  0.12510056400E+03 0.  0.
         24    2    1    2    0    0  0.35774418855E+02  0.62349583034E+02  0.18761216057E+04  0.18791791678E+04  0.79465624935E+02 0.  0.
        -11    1    5    5    0    0 -0.17768389187E+02  0.12645332758E+02  0.92455452237E+03  0.92481170242E+03  0.00000000000E+00 0.  1.
         12    1    5    5    0    0  0.53542808042E+02  0.49704250276E+02  0.95156708338E+03  0.95436746537E+03  0.00000000000E+00 0. -1.
         11    1    3    3    0    0 -0.11595561154E+02  0.13554894032E+02  0.21968057202E+02  0.28298193015E+02  0.00000000000E+00 0. -1.
        -12    1    3    3    0    0  0.61949620608E+02 -0.67626674986E+02  0.62843395410E+02  0.11117740332E+03  0.00000000000E+00 0.  1.
          5    1    4    4  501    0 -0.11460829141E+03  0.45225262360E+01  0.33621580621E+03  0.35526617408E+03  0.41800000000E+01 0. -1.
         -5    1    4    4    0  501  0.28479813102E+02 -0.12800328315E+02  0.42889164617E+02  0.53215608620E+02  0.41800000000E+01 0. -1.
</event>
<event>
11    1  0.7157190E-009  0.1591922E+03  0.7561462E-02  0.1087840E+00
         22   -1    0    0    0    0  0.00000000000E+00  0.00000000000E+00  0.38320072815E+03  0.38320072815E+03  0.00000000000E+00 0. -1.
         22   -1    0    0    0    0 -0.00000000000E+00 -0.00000000000E+00 -0.34885598826E+03  0.34885598826E+03  0.00000000000E+00 0. -1.
         24    2    1    2    0    0  0.44228046552E+01 -0.84532502972E+01 -0.25363738758E+03  0.26647484355E+03  0.81153553345E+02 0.  0.
         25    2    1    2    0    0 -0.96557650323E+02 -0.25713290561E+02  0.10471259846E+02  0.16044013982E+03  0.12508732164E+03 0.  0.
        -24    2    1    2    0    0  0.92134845668E+02  0.34166540858E+02  0.27751086762E+03  0.30514173304E+03  0.80268382908E+02 0.  0.
        -13    1    3    3    0    0 -0.19446724596E+02 -0.38585809022E+02 -0.12903442909E+03  0.13607690343E+03  0.00000000000E+00 0.  1.
         14    1    3    3    0    0  0.23869529251E+02  0.30132558724E+02 -0.12460295849E+03  0.13039794012E+03  0.00000000000E+00 0. -1.
         13    1    5    5    0    0  0.83033074950E+02  0.11013541685E+02  0.26370961898E+03  0.27669216248E+03  0.00000000000E+00 0. -1.
        -14    1    5    5    0    0  0.91017707181E+01  0.23152999173E+02  0.13801248640E+02  0.28449570558E+02  0.00000000000E+00 0.  1.
          5    1    4    4  501    0 -0.12023446396E+03  0.11882481488E+01 -0.66652903211E+01  0.12049745538E+03  0.41800000000E+01 0. -1.
         -5    1    4    4    0  501  0.23676813636E+02 -0.26901538710E+02  0.17136550168E+02  0.39942684443E+02  0.41800000000E+01 0. -1.
</event>
<event>
11    1  0.7157190E-009  0.1473359E+03  0.7561462E-02  0.1099632E+00
         22   -1    0    0    0    0  0.00000000000E+00  0.00000000000E+00  0.89179817400E+03  0.89179817400E+03  0.00000000000E+00 0. -1.
         22   -1    0    0    0    0 -0.00000000000E+00 -0.00000000000E+00 -0.31441648862E+03  0.31441648862E+03  0.00000000000E+00 0. -1.
         24    2    1    2    0    0 -0.47492929394E+02  0.65920483021E+02 -0.24437159452E+03  0.27042965118E+03  0.82544724861E+02 0.  0.
         25    2    1    2    0    0  0.26564371690E+02 -0.49176743072E+02  0.30961540718E+02  0.14046525564E+03  0.12509137915E+03 0.  0.
        -24    2    1    2    0    0  0.20928557703E+02 -0.16743739949E+02  0.79079173918E+03  0.79531975581E+03  0.80396404511E+02 0.  0.
        -11    1    3    3    0    0 -0.45529451483E+02  0.44622719130E+02 -0.69715586289E+02  0.94468941915E+02  0.00000000000E+00 0.  1.
         12    1    3    3    0    0 -0.19634779111E+01  0.21297763892E+02 -0.17465600823E+03  0.17596070926E+03  0.00000000000E+00 0. -1.
         13    1    5    5    0    0  0.45820760626E+02 -0.24623133376E+02  0.65352589652E+03  0.65559281434E+03  0.00000000000E+00 0. -1.
        -14    1    5    5    0    0 -0.24892202923E+02  0.78793934265E+01  0.13726584267E+03  0.13972694146E+03  0.00000000000E+00 0.  1.
          5    1    4    4  501    0 -0.14214115404E+02  0.33830086257E+02 -0.11407070693E+02  0.38653712301E+02  0.41800000000E+01 0. -1.
         -5    1    4    4    0  501  0.40778487094E+02 -0.83006829329E+02  0.42368611410E+02  0.10181154334E+03  0.41800000000E+01 0. -1.
</event>
<event>
11    1  0.7157190E-009  0.1815576E+03  0.7561462E-02  0.1068390E+00
         22   -1    0    0    0    0  0.00000000000E+00  0.00000000000E+00  0.56325801033E+03  0.56325801033E+03  0.00000000000E+00 0. -1.
         22   -1    0    0    0    0 -0.00000000000E+00 -0.00000000000E+00 -0.85743238349E+03  0.85743238349E+03  0.00000000000E+00 0. -1.
        -24    2    1    2    0    0 -0.13220678804E+03  0.16017184436E+02 -0.73671773479E+03  0.75275643040E+03  0.78447675277E+02 0.  0.
         25    2    1    2    0    0  0.11864803021E+03 -0.52545611474E+01 -0.41015596656E+02  0.17727313263E+03  0.12505406390E+03 0.  0.
         24    2    1    2    0    0  0.13558757828E+02 -0.10762623289E+02  0.48355895828E+03  0.49066083079E+03  0.81357917659E+02 0.  0.
        -11    1    5    5    0    0  0.98442652579E+01 -0.22504481473E+02  0.40061360220E+02  0.46992274126E+02  0.00000000000E+00 0.  1.
         12    1    5    5    0    0  0.37144925700E+01  0.11741858184E+02  0.44349759806E+03  0.44366855667E+03  0.00000000000E+00 0. -1.
         11    1    3    3    0    0 -0.92580507025E+02  0.26354980639E+02 -0.64715905692E+03  0.65427867170E+03  0.00000000000E+00 0. -1.
        -12    1    3    3    0    0 -0.39626281015E+02 -0.10337796203E+02 -0.89558677864E+02  0.98477758698E+02  0.00000000000E+00 0.  1.
          5    1    4    4  501    0  0.91771754243E+02  0.52351489545E+01 -0.84494954832E+02  0.12492530350E+03  0.41800000000E+01 0.  1.
         -5    1    4    4    0  501  0.26876275969E+02 -0.10489710102E+02  0.43479358176E+02  0.52347829137E+02  0.41800000000E+01 0.  1.
</event>
<event>
11    1  0.7157190E-009  0.1621356E+03  0.7561462E-02  0.1085086E+00
         22   -1    0    0    0    0  0.00000000000E+00  0.00000000000E+00  0.87817341035E+03  0.87817341035E+03  0.00000000000E+00 0. -1.
         22   -1    0    0    0    0 -0.00000000000E+00 -0.00000000000E+00 -0.12959981665E+03  0.12959981665E+03  0.00000000000E+00 0. -1.
         24    2    1    2    0    0 -0.50193950174E+02 -0.83981723074E+02 -0.48602796325E+02  0.13416151850E+03  0.77876304427E+02 0.  0.
         25    2    1    2    0    0  0.40011347010E+02  0.13192846263E+03  0.21835346426E+03  0.28693433485E+03  0.12508816898E+03 0.  0.
        -24    2    1    2    0    0  0.10182603165E+02 -0.47946739554E+02  0.57882292577E+03  0.58667737365E+03  0.82169252873E+02 0.  0.
        -13    1    3    3    0    0 -0.60620406685E+02 -0.50094324065E+02 -0.61931772935E+01  0.78883651381E+02  0.00000000000E+00 0.  1.
         14    1    3    3    0    0  0.10426456510E+02 -0.33887399008E+02 -0.42409619032E+02  0.55277867120E+02  0.00000000000E+00 0. -1.
         13    1    5    5    0    0 -0.48978895620E+01 -0.34671008757E+02  0.55227474206E+03  0.55338364530E+03  0.00000000000E+00 0. -1.
        -14    1    5    5    0    0  0.15080492727E+02 -0.13275730797E+02  0.26548183704E+02  0.33293728344E+02  0.00000000000E+00 0.  1.
          5    1    4    4  501    0  0.37526449702E+02  0.10347792386E+03  0.58940464594E+02  0.12492944377E+03  0.41800000000E+01 0. -1.
         -5    1    4    4    0  501  0.24848973074E+01  0.28450538769E+02  0.15941299967E+03  0.16200489108E+03  0.41800000000E+01 0. -1.
</event>
<event>
11    1  0.7157190E-009  0.1343234E+03  0.7561462E-02  0.1114068E+00
         22   -1    0    0    0    0  0.00000000000E+00  0.00000000000E+00  0.61562993938E+03  0.61562993938E+03  0.00000000000E+00 0. -1.
         22   -1    0    0    0    0 -0.00000000000E+00 -0.00000000000E+00 -0.15305192706E+04  0.15305192706E+04  0.00000000000E+00 0. -1.
        -24    2    1    2    0    0 -0.12214408160E+02  0.43940593345E+02 -0.11787172067E+04  0.11825580398E+04  0.83602012898E+02 0.  0.
         25    2    1    2    0    0 -0.17366488878E+02 -0.83515233181E+02 -0.32952567870E+03  0.36264821787E+03  0.12510063107E+03 0.  0.
         24    2    1    2    0    0  0.29580897039E+02  0.39574639836E+02  0.59335355419E+03  0.60094295232E+03  0.81380649282E+02 0.  0.
        -13    1    5    5    0    0  0.40930010593E+02  0.79294465743E+01  0.13341424357E+03  0.13977661564E+03  0.00000000000E+00 0.  1.
         14    1    5    5    0    0 -0.11349113554E+02  0.31645193262E+02  0.45993931062E+03  0.46116633668E+03  0.00000000000E+00 0. -1.
         13    1    3    3    0    0 -0.11873567785E+02 -0.14801866757E+02 -0.69900042345E+03  0.69925794158E+03  0.00000000000E+00 0. -1.
        -14    1    3    3    0    0 -0.34084037519E+00  0.58742460102E+02 -0.47971678322E+03  0.48330009817E+03  0.00000000000E+00 0.  1.
          5    1    4    4  501    0 -0.62235139936E+02 -0.12049343812E+02 -0.18030938657E+03  0.19117360334E+03  0.41800000000E+01 0. -1.
         -5    1    4    4    0  501  0.44868651058E+02 -0.71465889369E+02 -0.14921629213E+03  0.17147461453E+03  0.41800000000E+01 0. -1.
</event>
<event>
11    1  0.7157190E-009  0.1425946E+03  0.7561462E-02  0.1104695E+00
         22   -1    0    0    0    0  0.00000000000E+00  0.00000000000E+00  0.87595502141E+03  0.87595502141E+03  0.00000000000E+00 0.  1.
         22   -1    0    0    0    0 -0.00000000000E+00 -0.00000000000E+00 -0.50939681154E+03  0.50939681154E+03  0.00000000000E+00 0. -1.
         24    2    1    2    0    0 -0.51106110995E+01  0.19604522106E+02 -0.37346296576E+03  0.38240834347E+03  0.79693780996E+02 0.  0.
         25    2    1    2    0    0  0.48280261321E+01  0.49582721256E+02 -0.90706128609E+02  0.16234827129E+03  0.12509038068E+03 0.  0.
        -24    2    1    2    0    0  0.28258496734E+00 -0.69187243363E+02  0.83072730424E+03  0.84059521819E+03  0.10819201604E+03 0.  0.
        -11    1    3    3    0    0 -0.13534659802E+02 -0.24429150289E+02 -0.23993837985E+03  0.24155826735E+03  0.00000000000E+00 0.  1.
         12    1    3    3    0    0  0.84240487021E+01  0.44033672395E+02 -0.13352458591E+03  0.14085007612E+03  0.00000000000E+00 0. -1.
         13    1    5    5    0    0  0.53895330038E+02 -0.29128578022E+02  0.37173173227E+03  0.37674614986E+03  0.00000000000E+00 0. -1.
        -14    1    5    5    0    0 -0.53612745071E+02 -0.40058665341E+02  0.45899557197E+03  0.46384906833E+03  0.00000000000E+00 0.  1.
          5    1    4    4  501    0 -0.24072355169E+02  0.37717187972E+02 -0.11440391647E+03  0.12291376268E+03  0.41800000000E+01 0.  1.
         -5    1    4    4    0  501  0.28900381302E+02  0.11865533284E+02  0.23697787864E+02  0.39434508608E+02  0.41800000000E+01 0.  1.
</event>
<event>
11    1  0.7157190E-009  0.1546969E+03  0.7561462E-02  0.1092174E+00
         22   -1    0    0    0    0  0.00000000000E+00  0.00000000000E+00  0.11200823030E+03  0.11200823030E+03  0.00000000000E+00 0.  1.
         22   -1    0    0    0    0 -0.00000000000E+00 -0.00000000000E+00 -0.31849174268E+04  0.31849174268E+04  0.00000000000E+00 0. -1.
         24    2    1    2    0    0  0.11734719955E+02  0.89274480985E+01 -0.27336086260E+04  0.27348787987E+04  0.82027558166E+02 0.  0.
         25    2    1    2    0    0 -0.88497556422E+02  0.39140796789E+02 -0.39694450317E+03  0.42728737667E+03  0.12508294927E+03 0.  0.
        -24    2    1    2    0    0  0.76762836468E+02 -0.48068244887E+02  0.57643932680E+02  0.13475948175E+03  0.81450633615E+02 0.  0.
        -13    1    3    3    0    0  0.32303657582E+02 -0.20148774272E+02 -0.76386837981E+03  0.76481658002E+03  0.00000000000E+00 0.  1.
         14    1    3    3    0    0 -0.20568937627E+02  0.29076222370E+02 -0.19697402462E+04  0.19700622187E+04  0.00000000000E+00 0. -1.
         13    1    5    5    0    0  0.39548900237E+02 -0.37480287698E+02 -0.11350271069E+02  0.55657130085E+02  0.00000000000E+00 0. -1.
        -14    1    5    5    0    0  0.37213936231E+02 -0.10587957189E+02  0.68994203749E+02  0.79102351660E+02  0.00000000000E+00 0.  1.
          5    1    4    4  501    0 -0.64627391948E+02 -0.38260411495E+02 -0.22345003831E+03  0.23577097128E+03  0.41800000000E+01 0.  1.
         -5    1    4    4    0  501 -0.23870164474E+02  0.77401208284E+02 -0.17349446486E+03  0.19151640539E+03  0.41800000000E+01 0.  1.
</event>
<event>
11    1  0.7157190E-009  0.1610394E+03  0.7561462E-02  0.1086104E+00
         22   -1    0    0    0    0  0.00000000000E+00  0.00000000000E+00  0.21345544820E+04  0.21345544820E+04  0.00000000000E+00 0.  1.
         22   -1    0    0    0    0 -0.00000000000E+00 -0.00000000000E+00 -0.69244235244E+03  0.69244235244E+03  0.00000000000E+00 0. -1.
         24    2    1    2    0    0 -0.88740476530E+01 -0.33308836131E+02 -0.60263749830E+03  0.60905768292E+03  0.81185463444E+02 0.  0.
         25    2    1    2    0    0 -0.90333522378E+02  0.54575386127E+02 -0.53785952167E+01  0.16375049935E+03  0.12508668480E+03 0.  0.
        -24    2    1    2    0    0  0.99207570031E+02 -0.21266549995E+02  0.20501282231E+04  0.20541886521E+04  0.79817789669E+02 0.  0.
        -11    1    3    3    0    0  0.27912759771E+02  0.96273863621E+01 -0.14788400482E+03  0.15080281034E+03  0.00000000000E+00 0.  1.
         12    1    3    3    0    0 -0.36786807424E+02 -0.42936222493E+02 -0.45475349349E+03  0.45825487258E+03  0.00000000000E+00 0. -1.
         11    1    5    5    0    0 -0.22933949181E+01 -0.15113253215E+02  0.80578807517E+02  0.82015939328E+02  0.00000000000E+00 0. -1.
        -12    1    5    5    0    0  0.10150096495E+03 -0.61532967808E+01  0.19695494155E+04  0.19721727128E+04  0.00000000000E+00 0.  1.
          5    1    4    4  501    0 -0.28599163212E+02  0.66299460530E+02 -0.48805540672E+02  0.87252414312E+02  0.41800000000E+01 0.  1.
         -5    1    4    4    0  501 -0.61734359166E+02 -0.11724074404E+02  0.43426945455E+02  0.76498085034E+02  0.41800000000E+01 0.  1.
</event>
<event>
11    1  0.7157190E-009  0.1470944E+03  0.7561462E-02  0.1099885E+00
         22   -1    0    0    0    0  0.00000000000E+00  0.00000000000E+00  0.17924501747E+04  0.17924501747E+04  0.00000000000E+00 0. -1.
         22   -1    0    0    0    0 -0.00000000000E+00 -0.00000000000E+00 -0.15765156830E+03  0.15765156830E+03  0.00000000000E+00 0.  1.
         24    2    1    2    0    0  0.77256412938E+02 -0.16120987213E+02 -0.11640003060E+03  0.16169083282E+03  0.79790467628E+02 0.  0.
         25    2    1    2    0    0 -0.60733831503E+02 -0.58490355108E+01  0.26150895947E+03  0.29624101474E+03  0.12509593688E+03 0.  0.
        -24    2    1    2    0    0 -0.16522581435E+02  0.21970022724E+02  0.14896896775E+04  0.14921698954E+04  0.81486096643E+02 0.  0.
        -13    1    3    3    0    0  0.54569920501E+02 -0.29821531340E+02 -0.11979259018E+03  0.13497208829E+03  0.00000000000E+00 0.  1.
         14    1    3    3    0    0  0.22686492437E+02  0.13700544126E+02  0.33925595832E+01  0.26718744525E+02  0.00000000000E+00 0. -1.
         11    1    5    5    0    0  0.12144799055E-01 -0.70549227460E+01  0.12641713295E+04  0.12641910150E+04  0.00000000000E+00 0. -1.
        -12    1    5    5    0    0 -0.16534726234E+02  0.29024945470E+02  0.22551834803E+03  0.22797888044E+03  0.00000000000E+00 0.  1.
          5    1    4    4  501    0 -0.70250529429E+02 -0.47724647142E+02  0.11194002164E+03  0.14057318263E+03  0.41800000000E+01 0. -1.
         -5    1    4    4    0  501  0.95166979258E+01  0.41875611631E+02  0.14956893784E+03  0.15566783211E+03  0.41800000000E+01 0. -1.
</event>
<event>
11    1  0.7157190E-009  0.1357143E+03  0.7561462E-02  0.1112441E+00
         22   -1    0    0    0    0  0.00000000000E+00  0.00000000000E+00  0.16008708776E+03  0.16008708776E+03  0.00000000000E+00 0. -1.
         22   -1    0    0    0    0 -0.00000000000E+00 -0.00000000000E+00 -0.16806797690E+04  0.16806797690E+04  0.00000000000E+00 0. -1.
         24    2    1    2    0    0  0.53451875567E+02  0.18051438481E+02 -0.14370501106E+04  0.14403604411E+04  0.79638071572E+02 0.  0.
         25    2    1    2    0    0 -0.48164610309E+01 -0.22061348887E+02 -0.20809701508E+03  0.24384618350E+03  0.12508673834E+03 0.  0.
        -24    2    1    2    0    0 -0.48635414536E+02  0.40099104060E+01  0.12455444448E+03  0.15656023214E+03  0.81337652522E+02 0.  0.
        -13    1    3    3    0    0  0.56197835261E+02 -0.19846801403E+02 -0.87731040215E+03  0.87933249339E+03  0.00000000000E+00 0.  1.
         14    1    3    3    0    0 -0.27459596933E+01  0.37898239884E+02 -0.55973970847E+03  0.56102794772E+03  0.00000000000E+00 0. -1.
         11    1    5    5    0    0 -0.61059437941E+02  0.19139125849E+02  0.55239594841E+02  0.84533862672E+02  0.00000000000E+00 0. -1.
        -12    1    5    5    0    0  0.12424023405E+02 -0.15129215443E+02  0.69314849641E+02  0.72026369465E+02  0.00000000000E+00 0.  1.
          5    1    4    4  501    0  0.19535315337E+02 -0.23206568188E+02  0.34891911650E+01  0.30819153255E+02  0.41800000000E+01 0.  1.
         -5    1    4    4    0  501 -0.24351776368E+02  0.11452193005E+01 -0.21158620625E+03  0.21302703024E+03  0.41800000000E+01 0.  1.
</event>
<event>
11    1  0.7157190E-009  0.1392660E+03  0.7561462E-02  0.1108381E+00
         22   -1    0    0    0    0  0.00000000000E+00  0.00000000000E+00  0.12390995474E+03  0.12390995474E+03  0.00000000000E+00 0.  1.
         22   -1    0    0    0    0 -0.00000000000E+00 -0.00000000000E+00 -0.16048245786E+04  0.16048245786E+04  0.00000000000E+00 0. -1.
        -24    2    1    2    0    0  0.56208191682E+02 -0.21063273484E+02 -0.11700938675E+04  0.11744936335E+04  0.81930543920E+02 0.  0.
         25    2    1    2    0    0 -0.64552609435E+02  0.20991372890E+02 -0.40530916673E+03  0.42956956709E+03  0.12508723042E+03 0.  0.
         24    2    1    2    0    0  0.83444177535E+01  0.71900594287E-01  0.94488410313E+02  0.12467133282E+03  0.80902701224E+02 0.  0.
        -13    1    5    5    0    0  0.74103250322E+01 -0.23054942516E+00  0.10943834808E+03  0.10968918863E+03  0.00000000000E+00 0.  1.
         14    1    5    5    0    0  0.93409272135E+00  0.30245001945E+00 -0.14949937770E+02  0.14982144191E+02  0.00000000000E+00 0. -1.
         13    1    3    3    0    0  0.42817975146E+02  0.15116247940E+02 -0.94706155054E+03  0.94814949268E+03  0.00000000000E+00 0. -1.
        -14    1    3    3    0    0  0.13390216536E+02 -0.36179521424E+02 -0.22303231693E+03  0.22634414078E+03  0.00000000000E+00 0.  1.
          5    1    4    4  501    0 -0.88878591485E+02  0.51448682814E+02 -0.27980122513E+03  0.29808148043E+03  0.41800000000E+01 0.  1.
         -5    1    4    4    0  501  0.24325982050E+02 -0.30457309924E+02 -0.12550794160E+03  0.13148808666E+03  0.41800000000E+01 0.  1.
</event>
<event>
11    1  0.7157190E-009  0.1512220E+03  0.7561462E-02  0.1095637E+00
         22   -1    0    0    0    0  0.00000000000E+00  0.00000000000E+00  0.28991093801E+03  0.28991093801E+03  0.00000000000E+00 0. -1.
         22   -1    0    0    0    0 -0.00000000000E+00 -0.00000000000E+00 -0.45860018911E+03  0.45860018911E+03  0.00000000000E+00 0. -1.
        -24    2    1    2    0    0  0.31014450597E+02  0.30533418241E+02 -0.34153209665E+03  0.35340733139E+03  0.79739469935E+02 0.  0.
         25    2    1    2    0    0 -0.87466149915E+02 -0.85671270551E+02 -0.15572179181E+02  0.17572680060E+03  0.12509005438E+03 0.  0.
         24    2    1    2    0    0  0.56451699318E+02  0.55137852311E+02  0.18841502473E+03  0.21937699514E+03  0.79994170639E+02 0.  0.
        -11    1    5    5    0    0 -0.18055633983E+02  0.12236991290E+02  0.17162474435E+02  0.27754286211E+02  0.00000000000E+00 0.  1.
         12    1    5    5    0    0  0.74507333301E+02  0.42900861021E+02  0.17125255030E+03  0.19162270892E+03  0.00000000000E+00 0. -1.
         13    1    3    3    0    0  0.39331741697E+02 -0.13752976804E+02 -0.11212505641E+03  0.11961671518E+03  0.00000000000E+00 0. -1.
        -14    1    3    3    0    0 -0.83172910992E+01  0.44286395045E+02 -0.22940704024E+03  0.23379061621E+03  0.00000000000E+00 0.  1.
          5    1    4    4  501    0 -0.18011179474E+02  0.28941833091E+02 -0.23173451247E+02  0.41430828274E+02  0.41800000000E+01 0. -1.
         -5    1    4    4    0  501 -0.69454970442E+02 -0.11461310364E+03  0.76012720662E+01  0.13429597232E+03  0.41800000000E+01 0. -1.
</event>
<event>
11    1  0.7157190E-009  0.1705033E+03  0.7561462E-02  0.1077595E+00
         22   -1    0    0    0    0  0.00000000000E+00  0.00000000000E+00  0.57793636425E+03  0.57793636425E+03  0.00000000000E+00 0.  1.
         22   -1    0    0    0    0 -0.00000000000E+00 -0.00000000000E+00 -0.10662588311E+04  0.10662588311E+04  0.00000000000E+00 0.  1.
        -24    2    1    2    0    0  0.11816805545E+03  0.11115020728E+02 -0.83626008441E+03  0.84842846292E+03  0.80079303780E+02 0.  0.
         25    2    1    2    0    0 -0.10233540274E+03 -0.24057096269E+01 -0.19138577333E+03  0.25050591055E+03  0.12508547036E+03 0.  0.
         24    2    1    2    0    0 -0.15832652713E+02 -0.87093111008E+01  0.53932339094E+03  0.54526082185E+03  0.78186436394E+02 0.  0.
        -13    1    5    5    0    0 -0.42684483211E+02 -0.49642401230E+01  0.44638630062E+03  0.44844992827E+03  0.00000000000E+00 0.  1.
         14    1    5    5    0    0  0.26851830498E+02 -0.37450709777E+01  0.92937090323E+02  0.96810893578E+02  0.00000000000E+00 0. -1.
         13    1    3    3    0    0  0.20225797912E+01  0.12388737613E+02 -0.17878174810E+02  0.21844925800E+02  0.00000000000E+00 0. -1.
        -14    1    3    3    0    0  0.11614547566E+03 -0.12737168857E+01 -0.81838190960E+03  0.82658353712E+03  0.00000000000E+00 0.  1.
          5    1    4    4  501    0 -0.11806426691E+03 -0.36020531676E+02 -0.15683313139E+03  0.19962653463E+03  0.41800000000E+01 0. -1.
         -5    1    4    4    0  501  0.15728864175E+02  0.33614822049E+02 -0.34552641936E+02  0.50879375924E+02  0.41800000000E+01 0. -1.
</event>
<event>
11    1  0.7157190E-009  0.1333620E+03  0.7561462E-02  0.1115206E+00
         22   -1    0    0    0    0  0.00000000000E+00  0.00000000000E+00  0.20485995143E+03  0.20485995143E+03  0.00000000000E+00 0.  1.
         22   -1    0    0    0    0 -0.00000000000E+00 -0.00000000000E+00 -0.49827121724E+03  0.49827121724E+03  0.00000000000E+00 0.  1.
        -24    2    1    2    0    0  0.12313651708E+01 -0.13810682992E+02 -0.22264732087E+03  0.23580867990E+03  0.76430705874E+02 0.  0.
         25    2    1    2    0    0 -0.44642572162E+02  0.28934397051E+02 -0.23888832182E+03  0.27485598701E+03  0.12509206495E+03 0.  0.
         24    2    1    2    0    0  0.43411206991E+02 -0.15123714060E+02  0.16812437687E+03  0.19246650177E+03  0.81635094076E+02 0.  0.
        -13    1    5    5    0    0  0.24570826250E+02  0.28389913549E+02  0.11635805538E+03  0.12226573415E+03  0.00000000000E+00 0.  1.
         14    1    5    5    0    0  0.18840380741E+02 -0.43513627608E+02  0.51766321487E+02  0.70200767620E+02  0.00000000000E+00 0. -1.
         11    1    3    3    0    0  0.64437425922E+01 -0.42935299980E+01  0.41274074041E+01  0.87744920261E+01  0.00000000000E+00 0. -1.
        -12    1    3    3    0    0 -0.52123774213E+01 -0.95171529937E+01 -0.22677472827E+03  0.22703418787E+03  0.00000000000E+00 0.  1.
          5    1    4    4  501    0  0.32532595991E+02  0.45671736340E+02 -0.86479771878E+02  0.10315280242E+03  0.41800000000E+01 0.  1.
         -5    1    4    4    0  501 -0.77175168153E+02 -0.16737339289E+02 -0.15240854994E+03  0.17170318460E+03  0.41800000000E+01 0.  1.
</event>
<event>
11    1  0.7157190E-009  0.3009434E+03  0.7561462E-02  0.9997928E-01
         22   -1    0    0    0    0  0.00000000000E+00  0.00000000000E+00  0.10173934570E+03  0.10173934570E+03  0.00000000000E+00 0.  1.
         22   -1    0    0    0    0 -0.00000000000E+00 -0.00000000000E+00 -0.50978447060E+03  0.50978447060E+03  0.00000000000E+00 0. -1.
         24    2    1    2    0    0  0.66512090591E+02  0.97032606475E+02 -0.19966830051E+03  0.24548036837E+03  0.80956754577E+02 0.  0.
         25    2    1    2    0    0 -0.97270828088E+01 -0.30862709582E+01 -0.11785026027E+02  0.12606179093E+03  0.12509415289E+03 0.  0.
        -24    2    1    2    0    0 -0.56785007782E+02 -0.93946335516E+02 -0.19659179836E+03  0.23998165699E+03  0.83020536263E+02 0.  0.
        -13    1    3    3    0    0  0.51077606514E+01  0.31669351481E+02 -0.68149225136E+01  0.32794514952E+02  0.00000000000E+00 0.  1.
         14    1    3    3    0    0  0.61404329940E+02  0.65363254994E+02 -0.19285337800E+03  0.21268585341E+03  0.00000000000E+00 0. -1.
         11    1    5    5    0    0  0.15495380771E+02 -0.22069701109E+02 -0.83423145766E+02  0.87673255796E+02  0.00000000000E+00 0. -1.
        -12    1    5    5    0    0 -0.72280388554E+02 -0.71876634408E+02 -0.11316865260E+03  0.15230840119E+03  0.00000000000E+00 0.  1.
          5    1    4    4  501    0  0.42285298771E+02  0.18732629712E+02 -0.41406002007E+02  0.62216455302E+02  0.41800000000E+01 0.  1.
         -5    1    4    4    0  501 -0.52012381580E+02 -0.21818900670E+02  0.29620975980E+02  0.63845335633E+02  0.41800000000E+01 0.  1.
</event>
<event>
11    1  0.7157190E-009  0.1919703E+03  0.7561462E-02  0.1060352E+00
         22   -1    0    0    0    0  0.00000000000E+00  0.00000000000E+00  0.45376660037E+02  0.45376660037E+02  0.00000000000E+00 0.  1.
         22   -1    0    0    0    0 -0.00000000000E+00 -0.00000000000E+00 -0.20933617310E+04  0.20933617310E+04  0.00000000000E+00 0.  1.
         24    2    1    2    0    0  0.94229998844E+02  0.12683194765E+03 -0.15904351565E+04  0.16002466294E+04  0.79621932753E+02 0.  0.
         25    2    1    2    0    0 -0.95429632053E+02 -0.45895197477E+02 -0.31773277516E+03  0.35751226227E+03  0.12509083674E+03 0.  0.
        -24    2    1    2    0    0  0.11996332092E+01 -0.80936750173E+02 -0.13981713933E+03  0.18097949942E+03  0.81563166391E+02 0.  0.
        -13    1    3    3    0    0  0.40853698935E+02  0.11524606183E+03 -0.10833406905E+04  0.10902191207E+04  0.00000000000E+00 0.  1.
         14    1    3    3    0    0  0.53376299909E+02  0.11585885819E+02 -0.50709446601E+03  0.51002750867E+03  0.00000000000E+00 0. -1.
         13    1    5    5    0    0  0.65698610058E+01 -0.37458802067E+02 -0.13084763452E+03  0.13626235132E+03  0.00000000000E+00 0. -1.
        -14    1    5    5    0    0 -0.53702277966E+01 -0.43477948107E+02 -0.89695048073E+01  0.44717148105E+02  0.00000000000E+00 0.  1.
          5    1    4    4  501    0 -0.10895015082E+03 -0.76633874345E+01 -0.15441519388E+03  0.18918347542E+03  0.41800000000E+01 0. -1.
         -5    1    4    4    0  501  0.13520518765E+02 -0.38231810043E+02 -0.16331758128E+03  0.16832878685E+03  0.41800000000E+01 0. -1.
</event>
<event>
11    1  0.7157190E-009  0.2513309E+03  0.7561462E-02  0.1023193E+00
         22   -1    0    0    0    0  0.00000000000E+00  0.00000000000E+00  0.60302492124E+03  0.60302492124E+03  0.00000000000E+00 0. -1.
         22   -1    0    0    0    0 -0.00000000000E+00 -0.00000000000E+00 -0.51227673589E+03  0.51227673589E+03  0.00000000000E+00 0. -1.
         24    2    1    2    0    0 -0.20209647352E+03 -0.81434455010E+02 -0.43589710594E+03  0.49402968075E+03  0.81144829871E+02 0.  0.
         25    2    1    2    0    0  0.19672926684E+03  0.99458810864E+02  0.44816858330E+03  0.51487613832E+03  0.12509156354E+03 0.  0.
        -24    2    1    2    0    0  0.53672066859E+01 -0.18024355854E+02  0.78476707989E+02  0.10639583806E+03  0.69338274765E+02 0.  0.
        -13    1    3    3    0    0 -0.12664156903E+03 -0.13296592866E+02 -0.19920490380E+03  0.23642647924E+03  0.00000000000E+00 0.  1.
         14    1    3    3    0    0 -0.75454904489E+02 -0.68137862144E+02 -0.23669220214E+03  0.25760320150E+03  0.00000000000E+00 0. -1.
         13    1    5    5    0    0  0.24967903131E+02 -0.36187239448E+02  0.57732311860E+02  0.72566743886E+02  0.00000000000E+00 0. -1.
        -14    1    5    5    0    0 -0.19600696445E+02  0.18162883594E+02  0.20744396130E+02  0.33829094170E+02  0.00000000000E+00 0.  1.
          5    1    4    4  501    0  0.14297330447E+03  0.47293603538E+02  0.39547502112E+03  0.42319737175E+03  0.41800000000E+01 0. -1.
         -5    1    4    4    0  501  0.53755962369E+02  0.52165207325E+02  0.52693562185E+02  0.91678766578E+02  0.41800000000E+01 0. -1.
</event>
<event>
11    1  0.7157190E-009  0.1402106E+03  0.7561462E-02  0.1107323E+00
         22   -1    0    0    0    0  0.00000000000E+00  0.00000000000E+00  0.32774305847E+04  0.32774305847E+04  0.00000000000E+00 0. -1.
         22   -1    0    0    0    0 -0.00000000000E+00 -0.00000000000E+00 -0.74894966168E+02  0.74894966168E+02  0.00000000000E+00 0. -1.
        -24    2    1    2    0    0 -0.23106539172E+02 -0.60376244842E+02 -0.29217475318E+02  0.10534338261E+03  0.77874028414E+02 0.  0.
         25    2    1    2    0    0  0.56578248698E+02  0.19749601464E+02  0.71296071774E+03  0.72632340737E+03  0.12506623075E+03 0.  0.
         24    2    1    2    0    0 -0.33471709526E+02  0.40626643379E+02  0.25187923761E+04  0.25206587609E+04  0.81453516761E+02 0.  0.
        -13    1    5    5    0    0 -0.12831829329E+01  0.10280760921E+02  0.35715866825E+02  0.37188220536E+02  0.00000000000E+00 0.  1.
         14    1    5    5    0    0 -0.32188526593E+02  0.30345882457E+02  0.24830765093E+04  0.24834705404E+04  0.00000000000E+00 0. -1.
         11    1    3    3    0    0  0.62543599041E+01 -0.48925962510E+01 -0.40752550511E+02  0.41518970231E+02  0.00000000000E+00 0. -1.
        -12    1    3    3    0    0 -0.29360899076E+02 -0.55483648592E+02  0.11535075192E+02  0.63824412377E+02  0.00000000000E+00 0.  1.
          5    1    4    4  501    0  0.51624361198E+02  0.42027095817E+02  0.16639540125E+03  0.17926587352E+03  0.41800000000E+01 0. -1.
         -5    1    4    4    0  501  0.49538875004E+01 -0.22277494354E+02  0.54656531648E+03  0.54705753385E+03  0.41800000000E+01 0. -1.
</event>
<event>
11    1  0.7157190E-009  0.1479883E+03  0.7561462E-02  0.1098952E+00
         22   -1    0    0    0    0  0.00000000000E+00  0.00000000000E+00  0.33343073926E+03  0.33343073926E+03  0.00000000000E+00 0. -1.
         22   -1    0    0    0    0 -0.00000000000E+00 -0.00000000000E+00 -0.41087312338E+03  0.41087312338E+03  0.00000000000E+00 0. -1.
         24    2    1    2    0    0 -0.13275062150E+02 -0.26164918005E+02 -0.26554856940E+03  0.27860967192E+03  0.79034652922E+02 0.  0.
         25    2    1    2    0    0  0.87765124694E+02  0.47281509324E+02 -0.77174902131E+02  0.17759755871E+03  0.12508664638E+03 0.  0.
        -24    2    1    2    0    0 -0.74490062544E+02 -0.21116591319E+02  0.26528108742E+03  0.28809663202E+03  0.81430548253E+02 0.  0.
        -11    1    3    3    0    0 -0.31112637389E-01  0.22187466839E+02 -0.27476624645E+02  0.35316420467E+02  0.00000000000E+00 0.  1.
         12    1    3    3    0    0 -0.13243949513E+02 -0.48352384844E+02 -0.23807194476E+03  0.24329325145E+03  0.00000000000E+00 0. -1.
         11    1    5    5    0    0 -0.82123449132E+02 -0.36636297671E+02  0.24732547812E+03  0.26316605277E+03  0.00000000000E+00 0. -1.
        -12    1    5    5    0    0  0.76333865882E+01  0.15519706353E+02  0.17955609304E+02  0.24930579246E+02  0.00000000000E+00 0.  1.
          5    1    4    4  501    0  0.10461866337E+03  0.96429902212E+01 -0.20084579534E+02  0.10704632044E+03  0.41800000000E+01 0. -1.
         -5    1    4    4    0  501 -0.16853538675E+02  0.37638519103E+02 -0.57090322597E+02  0.70551238262E+02  0.41800000000E+01 0. -1.
</event>
<event>
11    1  0.7157190E-009  0.1704164E+03  0.7561462E-02  0.1077670E+00
         22   -1    0    0    0    0  0.00000000000E+00  0.00000000000E+00  0.27202977307E+03  0.27202977307E+03  0.00000000000E+00 0.  1.
         22   -1    0    0    0    0 -0.00000000000E+00 -0.00000000000E+00 -0.97890059553E+03  0.97890059553E+03  0.00000000000E+00 0. -1.
        -24    2    1    2    0    0 -0.11789861107E+03  0.27284230226E+02 -0.84526687632E+03  0.85818013174E+03  0.85746921763E+02 0.  0.
         25    2    1    2    0    0  0.81669122499E+02  0.22856281369E+02 -0.65867122436E+02  0.16485919243E+03  0.12509124806E+03 0.  0.
         24    2    1    2    0    0  0.36229488571E+02 -0.50140511595E+02  0.20426317631E+03  0.22789104444E+03  0.79901415472E+02 0.  0.
        -13    1    5    5    0    0  0.46606927292E+02 -0.62623331288E+02  0.19284101778E+03  0.20804217225E+03  0.00000000000E+00 0.  1.
         14    1    5    5    0    0 -0.10377438721E+02  0.12482819693E+02  0.11422158521E+02  0.19848872189E+02  0.00000000000E+00 0. -1.
         13    1    3    3    0    0 -0.83826807551E+02  0.36547333087E+01 -0.74453794084E+03  0.74925098337E+03  0.00000000000E+00 0. -1.
        -14    1    3    3    0    0 -0.34071803520E+02  0.23629496917E+02 -0.10072893549E+03  0.10892914837E+03  0.00000000000E+00 0.  1.
          5    1    4    4  501    0  0.87376154876E+02  0.31854189198E+02 -0.95332995500E+02  0.13324839302E+03  0.41800000000E+01 0. -1.
         -5    1    4    4    0  501 -0.57070323770E+01 -0.89979078289E+01  0.29465873064E+02  0.31610799409E+02  0.41800000000E+01 0. -1.
</event>
<event>
11    1  0.7157190E-009  0.1847331E+03  0.7561462E-02  0.1065877E+00
         22   -1    0    0    0    0  0.00000000000E+00  0.00000000000E+00  0.10505928694E+04  0.10505928694E+04  0.00000000000E+00 0. -1.
         22   -1    0    0    0    0 -0.00000000000E+00 -0.00000000000E+00 -0.43552812233E+03  0.43552812233E+03  0.00000000000E+00 0. -1.
         24    2    1    2    0    0 -0.27039924152E+02  0.12721442983E+03 -0.33727840209E+03  0.37450859879E+03  0.97904552493E+02 0.  0.
         25    2    1    2    0    0  0.40575382952E+02 -0.18423919687E+03  0.90152891540E+02  0.24365091268E+03  0.12509108694E+03 0.  0.
        -24    2    1    2    0    0 -0.13535458800E+02  0.57024767047E+02  0.86219025760E+03  0.86796148025E+03  0.80932429752E+02 0.  0.
        -13    1    3    3    0    0 -0.52997496352E+02  0.29130318447E+02 -0.10789018897E+03  0.12368347888E+03  0.00000000000E+00 0.  1.
         14    1    3    3    0    0  0.25957572199E+02  0.98084111380E+02 -0.22938821312E+03  0.25082511991E+03  0.00000000000E+00 0. -1.
         13    1    5    5    0    0 -0.13663246151E+02  0.53567367847E+02  0.86269555275E+03  0.86446501603E+03  0.00000000000E+00 0. -1.
        -14    1    5    5    0    0  0.12778735106E+00  0.34573992009E+01 -0.50529515228E+00  0.34964642187E+01  0.00000000000E+00 0.  1.
          5    1    4    4  501    0 -0.38512927241E+02 -0.94587589581E+02  0.17521935519E+02  0.10370413826E+03  0.41800000000E+01 0. -1.
         -5    1    4    4    0  501  0.79088310194E+02 -0.89651607293E+02  0.72630956021E+02  0.13994677443E+03  0.41800000000E+01 0. -1.
</event>
<event>
11    1  0.7157190E-009  0.1372559E+03  0.7561462E-02  0.1110662E+00
         22   -1    0    0    0    0  0.00000000000E+00  0.00000000000E+00  0.76212059358E+02  0.76212059358E+02  0.00000000000E+00 0.  1.
         22   -1    0    0    0    0 -0.00000000000E+00 -0.00000000000E+00 -0.18237327883E+04  0.18237327883E+04  0.00000000000E+00 0. -1.
        -24    2    1    2    0    0  0.33892168569E+02  0.32432642556E+02 -0.14744412906E+04  0.14773228340E+04  0.79404540782E+02 0.  0.
         25    2    1    2    0    0 -0.78213709660E+02  0.62589969217E+00 -0.28810429856E+03  0.32367889206E+03  0.12508462011E+03 0.  0.
         24    2    1    2    0    0  0.44321541091E+02 -0.33058542248E+02  0.15024860229E+02  0.98943121568E+02  0.80664296070E+02 0.  0.
        -11    1    5    5    0    0  0.17208954739E+01 -0.45795461714E+02  0.26611974561E+02  0.52994178783E+02  0.00000000000E+00 0.  1.
         12    1    5    5    0    0  0.42600645617E+02  0.12736919466E+02 -0.11587114332E+02  0.45948942785E+02  0.00000000000E+00 0. -1.
         11    1    3    3    0    0 -0.21790426194E+00  0.12091147312E+02 -0.11962345703E+04  0.11962956953E+04  0.00000000000E+00 0. -1.
        -12    1    3    3    0    0  0.34110072831E+02  0.20341495244E+02 -0.27820672028E+03  0.28102713874E+03  0.00000000000E+00 0.  1.
          5    1    4    4  501    0 -0.10613869346E+03 -0.16675711458E+02 -0.25551915968E+03  0.27722015613E+03  0.41800000000E+01 0.  1.
         -5    1    4    4    0  501  0.27924983797E+02  0.17301611150E+02 -0.32585138885E+02  0.46458735934E+02  0.41800000000E+01 0.  1.
</event>
<event>
11    1  0.7157190E-009  0.1284989E+03  0.7561462E-02  0.1121127E+00
         22   -1    0    0    0    0  0.00000000000E+00  0.00000000000E+00  0.23818565292E+03  0.23818565292E+03  0.00000000000E+00 0.  1.
         22   -1    0    0    0    0 -0.00000000000E+00 -0.00000000000E+00 -0.42158043945E+03  0.42158043945E+03  0.00000000000E+00 0.  1.
         24    2    1    2    0    0  0.26984012099E+02  0.11580616838E+02 -0.35379015741E+03  0.36433024245E+03  0.81895069988E+02 0.  0.
         25    2    1    2    0    0 -0.25379232981E+02 -0.16489273342E+02  0.28519729277E+02  0.13182304817E+03  0.12509172422E+03 0.  0.
        -24    2    1    2    0    0 -0.16047791178E+01  0.49086565035E+01  0.14187564161E+03  0.16361280175E+03  0.81325155935E+02 0.  0.
        -11    1    3    3    0    0  0.20027244038E+02  0.26404511751E+02 -0.34327210092E+03  0.34486812555E+03  0.00000000000E+00 0.  1.
         12    1    3    3    0    0  0.69567680605E+01 -0.14823894913E+02 -0.10518056490E+02  0.19462116909E+02  0.00000000000E+00 0. -1.
         11    1    5    5    0    0 -0.12484779509E+02 -0.10429991657E+02 -0.38182280326E+01  0.16710275601E+02  0.00000000000E+00 0. -1.
        -12    1    5    5    0    0  0.10880000391E+02  0.15338648160E+02  0.14569386965E+03  0.14690252615E+03  0.00000000000E+00 0.  1.
          5    1    4    4  501    0  0.16474569095E+02 -0.50477814160E+02  0.50548371911E+02  0.73430453166E+02  0.41800000000E+01 0.  1.
         -5    1    4    4    0  501 -0.41853802076E+02  0.33988540818E+02 -0.22028642635E+02  0.58392595005E+02  0.41800000000E+01 0.  1.
</event>
<event>
11    1  0.7157190E-009  0.1421452E+03  0.7561462E-02  0.1105186E+00
         22   -1    0    0    0    0  0.00000000000E+00  0.00000000000E+00  0.26823243996E+03  0.26823243996E+03  0.00000000000E+00 0.  1.
         22   -1    0    0    0    0 -0.00000000000E+00 -0.00000000000E+00 -0.39267436361E+03  0.39267436361E+03  0.00000000000E+00 0. -1.
        -24    2    1    2    0    0  0.16858940384E+01  0.27369402242E+02 -0.31179966694E+03  0.32298163632E+03  0.79662906565E+02 0.  0.
         25    2    1    2    0    0  0.31443760767E+02 -0.80722323107E+02  0.37203579251E+02  0.15664372614E+03  0.12509335350E+03 0.  0.
         24    2    1    2    0    0 -0.33129654806E+02  0.53352920865E+02  0.15015416403E+03  0.18128144111E+03  0.79828439303E+02 0.  0.
        -11    1    5    5    0    0 -0.55255038811E+02  0.19012508026E+02  0.10661360032E+03  0.12157736034E+03  0.00000000000E+00 0.  1.
         12    1    5    5    0    0  0.22125384006E+02  0.34340412838E+02  0.43540563716E+02  0.59704080765E+02  0.00000000000E+00 0. -1.
         11    1    3    3    0    0 -0.24648930149E+02  0.13208092188E+02 -0.27078241139E+03  0.27222258866E+03  0.00000000000E+00 0. -1.
        -12    1    3    3    0    0  0.26334824187E+02  0.14161310055E+02 -0.41017255546E+02  0.50759047667E+02  0.00000000000E+00 0.  1.
          5    1    4    4  501    0 -0.46043848304E+02 -0.31790415553E+02  0.32371774241E+02  0.64777084337E+02  0.41800000000E+01 0. -1.
         -5    1    4    4    0  501  0.77487609072E+02 -0.48931907555E+02  0.48318050107E+01  0.91866641803E+02  0.41800000000E+01 0. -1.
</event>
<event>
11    1  0.7157190E-009  0.3303100E+03  0.7561462E-02  0.9881212E-01
         22   -1    0    0    0    0  0.00000000000E+00  0.00000000000E+00  0.10709272954E+04  0.10709272954E+04  0.00000000000E+00 0.  1.
         22   -1    0    0    0    0 -0.00000000000E+00 -0.00000000000E+00 -0.75777330127E+03  0.75777330127E+03  0.00000000000E+00 0. -1.
         24    2    1    2    0    0 -0.42160659207E+02  0.44619814000E+02 -0.36386627443E+03  0.37787092020E+03  0.81359189276E+02 0.  0.
         25    2    1    2    0    0 -0.28340424638E+02 -0.33981586647E+03 -0.27047329134E+03  0.45285837664E+03  0.12508759007E+03 0.  0.
        -24    2    1    2    0    0  0.70501083846E+02  0.29519605247E+03  0.94749355993E+03  0.99797129986E+03  0.78048427362E+02 0.  0.
        -13    1    3    3    0    0 -0.57759848239E+02  0.66923516320E+01 -0.16861218382E+03  0.17835654228E+03  0.00000000000E+00 0.  1.
         14    1    3    3    0    0  0.15599189031E+02  0.37927462368E+02 -0.19525409061E+03  0.19951437793E+03  0.00000000000E+00 0. -1.
         13    1    5    5    0    0  0.55176911251E+02  0.11119040418E+03  0.30000687316E+03  0.32467202137E+03  0.00000000000E+00 0. -1.
        -14    1    5    5    0    0  0.15324172595E+02  0.18400564829E+03  0.64748668677E+03  0.67329927849E+03  0.00000000000E+00 0.  1.
          5    1    4    4  501    0  0.18680996555E+02 -0.15301754049E+03 -0.18832062382E+03  0.24340393810E+03  0.41800000000E+01 0.  1.
         -5    1    4    4    0  501 -0.47021421193E+02 -0.18679832598E+03 -0.82152667524E+02  0.20945443853E+03  0.41800000000E+01 0.  1.
</event>
<event>
11    1  0.7157190E-009  0.1366128E+03  0.7561462E-02  0.1111401E+00
         22   -1    0    0    0    0  0.00000000000E+00  0.00000000000E+00  0.11230784122E+04  0.11230784122E+04  0.00000000000E+00 0. -1.
         22   -1    0    0    0    0 -0.00000000000E+00 -0.00000000000E+00 -0.34196339008E+03  0.34196339008E+03  0.00000000000E+00 0. -1.
        -24    2    1    2    0    0  0.10670345734E+02  0.51229618729E+02 -0.26334970814E+03  0.28031923073E+03  0.80544846077E+02 0.  0.
         25    2    1    2    0    0  0.28267906949E+02 -0.87818592270E+02  0.20114926447E+02  0.15672632096E+03  0.12508936687E+03 0.  0.
         24    2    1    2    0    0 -0.38938252684E+02  0.36588973541E+02  0.10243498038E+04  0.10279962506E+04  0.68035506595E+02 0.  0.
        -11    1    5    5    0    0 -0.34112630144E+01 -0.66331335902E+01  0.12187801043E+02  0.14289075227E+02  0.00000000000E+00 0.  1.
         12    1    5    5    0    0 -0.35526989669E+02  0.43222107132E+02  0.10121620028E+04  0.10137071754E+04  0.00000000000E+00 0. -1.
         11    1    3    3    0    0 -0.77108323478E+01  0.52298402405E+02 -0.79020363465E+02  0.95072591591E+02  0.00000000000E+00 0. -1.
        -12    1    3    3    0    0  0.18381178082E+02 -0.10687836765E+01 -0.18432934467E+03  0.18524663914E+03  0.00000000000E+00 0.  1.
          5    1    4    4  501    0  0.71849754446E+02 -0.23340204073E+02  0.21903459673E+02  0.78767926758E+02  0.41800000000E+01 0. -1.
         -5    1    4    4    0  501 -0.43581847497E+02 -0.64478388198E+02 -0.17885332256E+01  0.77958394204E+02  0.41800000000E+01 0. -1.
</event>
<event>
11    1  0.7157190E-009  0.1525674E+03  0.7561462E-02  0.1094284E+00
         22   -1    0    0    0    0  0.00000000000E+00  0.00000000000E+00  0.63760856948E+03  0.63760856948E+03  0.00000000000E+00 0. -1.
         22   -1    0    0    0    0 -0.00000000000E+00 -0.00000000000E+00 -0.16618799956E+03  0.16618799956E+03  0.00000000000E+00 0.  1.
        -24    2    1    2    0    0  0.33410716231E+02  0.74880990373E+02 -0.99555239168E+02  0.15110582183E+03  0.78729188143E+02 0.  0.
         25    2    1    2    0    0 -0.51319743854E+02 -0.13561304728E+03  0.24332449334E+03  0.30964169645E+03  0.12508619597E+03 0.  0.
         24    2    1    2    0    0  0.17909027624E+02  0.60732056911E+02  0.32765131576E+03  0.34304905076E+03  0.79486794527E+02 0.  0.
        -13    1    5    5    0    0 -0.28650244692E+01 -0.78758046152E+01  0.16606013105E+03  0.16627147617E+03  0.00000000000E+00 0.  1.
         14    1    5    5    0    0  0.20774052093E+02  0.68607861526E+02  0.16159118471E+03  0.17677757460E+03  0.00000000000E+00 0. -1.
         13    1    3    3    0    0  0.25393886495E+02  0.48373175892E+02 -0.77082110463E+01  0.55174542452E+02  0.00000000000E+00 0. -1.
        -14    1    3    3    0    0  0.80168297354E+01  0.26507814480E+02 -0.91847028121E+02  0.95931279373E+02  0.00000000000E+00 0.  1.
          5    1    4    4  501    0  0.67111581119E+01 -0.12186961404E+03  0.20502890475E+03  0.23864527369E+03  0.41800000000E+01 0.  1.
         -5    1    4    4    0  501 -0.58030901966E+02 -0.13743433246E+02  0.38295588582E+02  0.70996422764E+02  0.41800000000E+01 0.  1.
</event>
<event>
11    1  0.7157190E-009  0.1343924E+03  0.7561462E-02  0.1113987E+00
         22   -1    0    0    0    0  0.00000000000E+00  0.00000000000E+00  0.17782704435E+04  0.17782704435E+04  0.00000000000E+00 0.  1.
         22   -1    0    0    0    0 -0.00000000000E+00 -0.00000000000E+00 -0.15879629355E+03  0.15879629355E+03  0.00000000000E+00 0.  1.
        -24    2    1    2    0    0 -0.36430394010E+02  0.15737879556E+02 -0.13534603680E+03  0.16084051800E+03  0.77306326354E+02 0.  0.
         25    2    1    2    0    0  0.77899190568E+02 -0.25728102496E+02  0.61730142048E+03  0.63516807290E+03  0.12508884021E+03 0.  0.
         24    2    1    2    0    0 -0.41468796558E+02  0.99902229395E+01  0.11375187662E+04  0.11410581461E+04  0.79027107185E+02 0.  0.
        -11    1    5    5    0    0  0.30843204334E+01 -0.23998141900E+01  0.83640263931E+03  0.83641176892E+03  0.00000000000E+00 0.  1.
         12    1    5    5    0    0 -0.44553116991E+02  0.12390037130E+02  0.30111612694E+03  0.30464637723E+03  0.00000000000E+00 0. -1.
         11    1    3    3    0    0 -0.42850717047E-01 -0.18612001760E+02 -0.23716732530E+01  0.18762549925E+02  0.00000000000E+00 0. -1.
        -12    1    3    3    0    0 -0.36387543293E+02  0.34349881316E+02 -0.13297436354E+03  0.14207796808E+03  0.00000000000E+00 0.  1.
          5    1    4    4  501    0  0.57973789212E+02 -0.37374280952E+02  0.12933574455E+03  0.14663902731E+03  0.41800000000E+01 0. -1.
         -5    1    4    4    0  501  0.19925401356E+02  0.11646178456E+02  0.48796567593E+03  0.48852904558E+03  0.41800000000E+01 0. -1.
</event>
<event>
11    1  0.7157190E-009  0.1881854E+03  0.7561462E-02  0.1063208E+00
         22   -1    0    0    0    0  0.00000000000E+00  0.00000000000E+00  0.43131589825E+02  0.43131589825E+02  0.00000000000E+00 0. -1.
         22   -1    0    0    0    0 -0.00000000000E+00 -0.00000000000E+00 -0.16673094092E+04  0.16673094092E+04  0.00000000000E+00 0.  1.
         24    2    1    2    0    0 -0.46526710150E+02  0.41327382503E+02 -0.56317065659E+03  0.57294412401E+03  0.85035836487E+02 0.  0.
         25    2    1    2    0    0  0.14010969792E+03 -0.12655273936E+03 -0.83656432044E+03  0.86667968229E+03  0.12508991229E+03 0.  0.
        -24    2    1    2    0    0 -0.93582987775E+02  0.85225356857E+02 -0.22444284229E+03  0.27081719268E+03  0.83344018045E+02 0.  0.
        -13    1    3    3    0    0 -0.64612733826E+02  0.23906883654E+02 -0.50369368476E+03  0.50838339128E+03  0.00000000000E+00 0.  1.
         14    1    3    3    0    0  0.18086023676E+02  0.17420498849E+02 -0.59476971834E+02  0.64560732733E+02  0.00000000000E+00 0. -1.
         13    1    5    5    0    0 -0.82396202701E+02  0.19697433428E+02 -0.11648920838E+03  0.14403769913E+03  0.00000000000E+00 0. -1.
        -14    1    5    5    0    0 -0.11186785074E+02  0.65527923429E+02 -0.10795363391E+03  0.12677949355E+03  0.00000000000E+00 0.  1.
          5    1    4    4  501    0  0.14678165784E+01  0.45047248126E+01  0.20386652784E+01  0.66389447401E+01  0.41800000000E+01 0. -1.
         -5    1    4    4    0  501  0.13864188135E+03 -0.13105746417E+03 -0.83860298572E+03  0.86004073755E+03  0.41800000000E+01 0. -1.
</event>
<event>
11    1  0.7157190E-009  0.1692900E+03  0.7561462E-02  0.1078651E+00
         22   -1    0    0    0    0  0.00000000000E+00  0.00000000000E+00  0.46743942058E+03  0.46743942058E+03  0.00000000000E+00 0. -1.
         22   -1    0    0    0    0 -0.00000000000E+00 -0.00000000000E+00 -0.13866683730E+03  0.13866683730E+03  0.00000000000E+00 0. -1.
        -24    2    1    2    0    0 -0.74450463905E+02  0.66072732094E+02  0.86064892969E+01  0.12971779349E+03  0.82729419117E+02 0.  0.
         25    2    1    2    0    0  0.23506285933E+02  0.60246430146E+02  0.26920661555E+02  0.14336513028E+03  0.12508661295E+03 0.  0.
         24    2    1    2    0    0  0.50944177972E+02 -0.12631916224E+03  0.29324543243E+03  0.33302333410E+03  0.79748463302E+02 0.  0.
        -13    1    5    5    0    0 -0.77892134156E+01 -0.83623482193E+02  0.17785401317E+03  0.19668657458E+03  0.00000000000E+00 0.  1.
         14    1    5    5    0    0  0.58733391388E+02 -0.42695680048E+02  0.11539141925E+03  0.13633675952E+03  0.00000000000E+00 0. -1.
         11    1    3    3    0    0 -0.28816426252E+02  0.76362296843E+02 -0.24266039353E+01  0.81654609225E+02  0.00000000000E+00 0. -1.
        -12    1    3    3    0    0 -0.45634037653E+02 -0.10289564749E+02  0.11033093232E+02  0.48063184263E+02  0.00000000000E+00 0.  1.
          5    1    4    4  501    0  0.53643926965E+02  0.71483065356E+02  0.50985300211E+02  0.10297802081E+03  0.41800000000E+01 0.  1.
         -5    1    4    4    0  501 -0.30137641032E+02 -0.11236635209E+02 -0.24064638656E+02  0.40387109471E+02  0.41800000000E+01 0.  1.
</event>
<event>
11    1  0.7157190E-009  0.1456357E+03  0.7561462E-02  0.1101424E+00
         22   -1    0    0    0    0  0.00000000000E+00  0.00000000000E+00  0.25209376888E+03  0.25209376888E+03  0.00000000000E+00 0. -1.
         22   -1    0    0    0    0 -0.00000000000E+00 -0.00000000000E+00 -0.69642679384E+03  0.69642679384E+03  0.00000000000E+00 0. -1.
         24    2    1    2    0    0 -0.62839079105E+02  0.28553011137E+02 -0.48626692351E+03  0.49884345807E+03  0.87322680036E+02 0.  0.
         25    2    1    2    0    0  0.88012309942E+02 -0.60330157529E+02 -0.15873703449E+03  0.22854046007E+03  0.12508957255E+03 0.  0.
        -24    2    1    2    0    0 -0.25173230837E+02  0.31777146392E+02  0.20067093304E+03  0.22113664459E+03  0.83600918820E+02 0.  0.
        -13    1    3    3    0    0  0.15811803074E+02 -0.11798160256E+02 -0.14401480439E+03  0.14535980732E+03  0.00000000000E+00 0.  1.
         14    1    3    3    0    0 -0.78650882179E+02  0.40351171393E+02 -0.34225211913E+03  0.35348365075E+03  0.00000000000E+00 0. -1.
         13    1    5    5    0    0 -0.50431495771E+02  0.41681906207E+02  0.15031581151E+03  0.16393767188E+03  0.00000000000E+00 0. -1.
        -14    1    5    5    0    0  0.25258264934E+02 -0.99047598149E+01  0.50355121534E+02  0.57198972711E+02  0.00000000000E+00 0.  1.
          5    1    4    4  501    0  0.39343940473E+02 -0.53064599299E+02 -0.42224507788E+01  0.66325702720E+02  0.41800000000E+01 0.  1.
         -5    1    4    4    0  501  0.48668369469E+02 -0.72655582291E+01 -0.15451458371E+03  0.16221475735E+03  0.41800000000E+01 0.  1.
</event>
<event>
11    1  0.7157190E-009  0.1379591E+03  0.7561462E-02  0.1109859E+00
         22   -1    0    0    0    0  0.00000000000E+00  0.00000000000E+00  0.45758307233E+03  0.45758307233E+03  0.00000000000E+00 0.  1.
         22   -1    0    0    0    0 -0.00000000000E+00 -0.00000000000E+00 -0.94634745900E+03  0.94634745900E+03  0.00000000000E+00 0.  1.
        -24    2    1    2    0    0 -0.27351195249E+02  0.51852486271E+02 -0.89262629998E+03  0.89809719106E+03  0.79750140821E+02 0.  0.
         25    2    1    2    0    0  0.52597953226E+01 -0.45018855778E+02  0.53238244996E+02  0.14330435204E+03  0.12508982277E+03 0.  0.
         24    2    1    2    0    0  0.22091399927E+02 -0.68336304929E+01  0.35062366831E+03  0.36252898824E+03  0.89194069733E+02 0.  0.
        -11    1    5    5    0    0  0.53806237432E+02 -0.55778121057E+01  0.15098438811E+03  0.16038238254E+03  0.00000000000E+00 0.  1.
         12    1    5    5    0    0 -0.31714837505E+02 -0.12558183871E+01  0.19963928020E+03  0.20214660570E+03  0.00000000000E+00 0. -1.
         11    1    3    3    0    0 -0.14351639030E+02 -0.16748919773E+02 -0.10010555761E+03  0.10250667549E+03  0.00000000000E+00 0. -1.
        -12    1    3    3    0    0 -0.12999556220E+02  0.68601406044E+02 -0.79252074237E+03  0.79559051556E+03  0.00000000000E+00 0.  1.
          5    1    4    4  501    0 -0.16602032645E+01 -0.82891105581E+02  0.61987027891E+02  0.10360287489E+03  0.41800000000E+01 0. -1.
         -5    1    4    4    0  501  0.69199985871E+01  0.37872249803E+02 -0.87487828942E+01  0.39701477148E+02  0.41800000000E+01 0. -1.
</event>
<event>
11    1  0.7157190E-009  0.1407805E+03  0.7561462E-02  0.1106690E+00
         22   -1    0    0    0    0  0.00000000000E+00  0.00000000000E+00  0.26470219663E+04  0.26470219663E+04  0.00000000000E+00 0.  1.
         22   -1    0    0    0    0 -0.00000000000E+00 -0.00000000000E+00 -0.87201038092E+02  0.87201038092E+02  0.00000000000E+00 0.  1.
         24    2    1    2    0    0  0.26592674772E+02  0.28852299299E+02 -0.43587894872E+02  0.98482636035E+02  0.79115734811E+02 0.  0.
         25    2    1    2    0    0 -0.89509882748E+02 -0.27977511975E+02  0.38839986482E+03  0.41868107154E+03  0.12507847290E+03 0.  0.
        -24    2    1    2    0    0  0.62917207976E+02 -0.87478732396E+00  0.22150089582E+04  0.22170592968E+04  0.71609357926E+02 0.  0.
        -13    1    3    3    0    0 -0.10972985007E+02 -0.16689177574E+02 -0.32898655982E+02  0.38487096714E+02  0.00000000000E+00 0.  1.
         14    1    3    3    0    0  0.37565659779E+02  0.45541476873E+02 -0.10689238889E+02  0.59995539321E+02  0.00000000000E+00 0. -1.
         11    1    5    5    0    0  0.14713778038E+02 -0.11178462549E+02  0.11525941654E+03  0.11673125712E+03  0.00000000000E+00 0. -1.
        -12    1    5    5    0    0  0.48203429938E+02  0.10303675225E+02  0.20997495417E+04  0.21003280397E+04  0.00000000000E+00 0.  1.
          5    1    4    4  501    0 -0.10370987337E+03 -0.60522258636E+02  0.31177797012E+03  0.33412820395E+03  0.41800000000E+01 0.  1.
         -5    1    4    4    0  501  0.14199990624E+02  0.32544746661E+02  0.76621894704E+02  0.84552867586E+02  0.41800000000E+01 0.  1.
</event>
<event>
11    1  0.7157190E-009  0.1267683E+03  0.7561462E-02  0.1123305E+00
         22   -1    0    0    0    0  0.00000000000E+00  0.00000000000E+00  0.75039872906E+03  0.75039872906E+03  0.00000000000E+00 0. -1.
         22   -1    0    0    0    0 -0.00000000000E+00 -0.00000000000E+00 -0.94074660536E+03  0.94074660536E+03  0.00000000000E+00 0. -1.
         24    2    1    2    0    0 -0.12347294665E+01  0.20477261315E+02 -0.92200091097E+03  0.92572970009E+03  0.80429814166E+02 0.  0.
         25    2    1    2    0    0  0.23855031459E+02 -0.27787623212E+02  0.31791375809E+03  0.34359527649E+03  0.12508933572E+03 0.  0.
        -24    2    1    2    0    0 -0.22620301992E+02  0.73103618975E+01  0.41373927658E+03  0.42182035785E+03  0.78658158242E+02 0.  0.
        -11    1    3    3    0    0 -0.10668122114E+02  0.11292356073E+02 -0.31411319147E+02  0.35042789639E+02  0.00000000000E+00 0.  1.
         12    1    3    3    0    0  0.94333926473E+01  0.91849052417E+01 -0.89058959182E+03  0.89068691045E+03  0.00000000000E+00 0. -1.
         13    1    5    5    0    0 -0.49061977103E+02  0.17652735204E+02  0.22534667683E+03  0.23130028409E+03  0.00000000000E+00 0. -1.
        -14    1    5    5    0    0  0.26441675111E+02 -0.10342373307E+02  0.18839259974E+03  0.19052007376E+03  0.00000000000E+00 0.  1.
          5    1    4    4  501    0 -0.38384417120E+02 -0.50831468274E+02  0.15391745001E+03  0.16662909549E+03  0.41800000000E+01 0.  1.
         -5    1    4    4    0  501  0.62239448579E+02  0.23043845061E+02  0.16399630808E+03  0.17696618100E+03  0.41800000000E+01 0.  1.
</event>
<event>
11    1  0.7157190E-009  0.1702362E+03  0.7561462E-02  0.1077826E+00
         22   -1    0    0    0    0  0.00000000000E+00  0.00000000000E+00  0.12806841906E+03  0.12806841906E+03  0.00000000000E+00 0.  1.
         22   -1    0    0    0    0 -0.00000000000E+00 -0.00000000000E+00 -0.35765546028E+04  0.35765546028E+04  0.00000000000E+00 0.  1.
        -24    2    1    2    0    0  0.11709328964E+03 -0.10461257637E+02 -0.31420554127E+04  0.31452687823E+04  0.79895054753E+02 0.  0.
         25    2    1    2    0    0 -0.94292057414E+02  0.21492239469E+02 -0.40188267678E+03  0.43186939085E+03  0.12509427008E+03 0.  0.
         24    2    1    2    0    0 -0.22801232228E+02 -0.11030981832E+02  0.95451905805E+02  0.12748484870E+03  0.80620974779E+02 0.  0.
        -13    1    5    5    0    0 -0.49046427972E+01 -0.43682348119E+02  0.33751073960E+02  0.55419654019E+02  0.00000000000E+00 0.  1.
         14    1    5    5    0    0 -0.17896589430E+02  0.32651366287E+02  0.61700831845E+02  0.72065194678E+02  0.00000000000E+00 0. -1.
         13    1    3    3    0    0  0.11471451672E+03  0.15420351280E+02 -0.26519164530E+04  0.26544411995E+04  0.00000000000E+00 0. -1.
        -14    1    3    3    0    0  0.23787729238E+01 -0.25881608917E+02 -0.49013895969E+03  0.49082758281E+03  0.00000000000E+00 0.  1.
          5    1    4    4  501    0  0.18559099682E+02 -0.28694825370E+02 -0.81015872358E+02  0.88027706763E+02  0.41800000000E+01 0. -1.
         -5    1    4    4    0  501 -0.11285115710E+03  0.50187064839E+02 -0.32086680442E+03  0.34384168408E+03  0.41800000000E+01 0. -1.
</event>
<event>
11    1  0.7157190E-009  0.1559350E+03  0.7561462E-02  0.1090964E+00
         22   -1    0    0    0    0  0.00000000000E+00  0.00000000000E+00  0.85537771114E+03  0.85537771114E+03  0.00000000000E+00 0.  1.
         22   -1    0    0    0    0 -0.00000000000E+00 -0.00000000000E+00 -0.14297209606E+04  0.14297209606E+04  0.00000000000E+00 0.  1.
         24    2    1    2    0    0  0.10657391212E+02 -0.88514967804E+01 -0.13765369562E+04  0.13788987449E+04  0.79472183569E+02 0.  0.
         25    2    1    2    0    0 -0.73328533357E+02 -0.59861099236E+02  0.87756861075E+02  0.17975534973E+03  0.12510113543E+03 0.  0.
        -24    2    1    2    0    0  0.62671142145E+02  0.68712596017E+02  0.71443684565E+03  0.72644457710E+03  0.93019483307E+02 0.  0.
        -13    1    3    3    0    0 -0.27489957135E+02 -0.17844238441E+02 -0.94993493349E+03  0.95050012754E+03  0.00000000000E+00 0.  1.
         14    1    3    3    0    0  0.38147348348E+02  0.89927416604E+01 -0.42660202266E+03  0.42839861733E+03  0.00000000000E+00 0. -1.
         13    1    5    5    0    0  0.14351148409E+02  0.27346336743E+02  0.48640192177E+02  0.57616368239E+02  0.00000000000E+00 0. -1.
        -14    1    5    5    0    0  0.48319993735E+02  0.41366259273E+02  0.66579665347E+03  0.66882820886E+03  0.00000000000E+00 0.  1.
          5    1    4    4  501    0  0.16385001158E+02 -0.43160831987E+02 -0.84156063190E+01  0.47112848677E+02  0.41800000000E+01 0. -1.
         -5    1    4    4    0  501 -0.89713534516E+02 -0.16700267249E+02  0.96172467394E+02  0.13264250106E+03  0.41800000000E+01 0. -1.
</event>
<event>
11    1  0.7157190E-009  0.1508482E+03  0.7561462E-02  0.1096015E+00
         22   -1    0    0    0    0  0.00000000000E+00  0.00000000000E+00  0.30484749555E+04  0.30484749555E+04  0.00000000000E+00 0. -1.
         22   -1    0    0    0    0 -0.00000000000E+00 -0.00000000000E+00 -0.34505562845E+03  0.34505562845E+03  0.00000000000E+00 0. -1.
        -24    2    1    2    0    0 -0.29985541774E+02  0.82631090127E+02 -0.24849143301E+03  0.27809745990E+03  0.88674546236E+02 0.  0.
         25    2    1    2    0    0  0.77209977015E+01 -0.70125888833E+02 -0.17684613383E+02  0.14469934562E+03  0.12509157039E+03 0.  0.
         24    2    1    2    0    0  0.22264544073E+02 -0.12505201295E+02  0.29695953734E+04  0.29707337784E+04  0.78169113688E+02 0.  0.
        -11    1    5    5    0    0  0.40429614018E+02 -0.33908270165E+02  0.16632172338E+04  0.16640540530E+04  0.00000000000E+00 0.  1.
         12    1    5    5    0    0 -0.18165069945E+02  0.21403068871E+02  0.13063781396E+04  0.13066797254E+04  0.00000000000E+00 0. -1.
         11    1    3    3    0    0 -0.22975997898E+02  0.21809415155E+02 -0.19263350582E+03  0.19522093800E+03  0.00000000000E+00 0. -1.
        -12    1    3    3    0    0 -0.70095438758E+01  0.60821674973E+02 -0.55857927190E+02  0.82876521898E+02  0.00000000000E+00 0.  1.
          5    1    4    4  501    0  0.27076398345E+02  0.50627157350E+01 -0.52556817987E+02  0.59484905269E+02  0.41800000000E+01 0. -1.
         -5    1    4    4    0  501 -0.19355400644E+02 -0.75188604568E+02  0.34872204605E+02  0.85214440354E+02  0.41800000000E+01 0. -1.
</event>
<event>
11    1  0.7157190E-009  0.1549305E+03  0.7561462E-02  0.1091945E+00
         22   -1    0    0    0    0  0.00000000000E+00  0.00000000000E+00  0.14776373100E+04  0.14776373100E+04  0.00000000000E+00 0. -1.
         22   -1    0    0    0    0 -0.00000000000E+00 -0.00000000000E+00 -0.39340275330E+03  0.39340275330E+03  0.00000000000E+00 0.  1.
        -24    2    1    2    0    0 -0.15177378017E+02 -0.47467317438E+01 -0.36330103897E+03  0.37212115520E+03  0.78953308792E+02 0.  0.
         25    2    1    2    0    0 -0.61902697009E+02  0.56185066802E+02  0.22995414769E+03  0.27480046157E+03  0.12509067915E+03 0.  0.
         24    2    1    2    0    0  0.77080075027E+02 -0.51438335058E+02  0.12175814480E+04  0.12241184465E+04  0.85872861737E+02 0.  0.
        -11    1    5    5    0    0  0.56185332998E+01 -0.92151366732E+01  0.13995151633E+02  0.17673452678E+02  0.00000000000E+00 0.  1.
         12    1    5    5    0    0  0.71461541727E+02 -0.42223198385E+02  0.12035862963E+04  0.12064449938E+04  0.00000000000E+00 0. -1.
         13    1    3    3    0    0 -0.42132426950E+01  0.37044831953E+02 -0.17479590811E+03  0.17872795103E+03  0.00000000000E+00 0. -1.
        -14    1    3    3    0    0 -0.10964135322E+02 -0.41791563697E+02 -0.18850513086E+03  0.19339320417E+03  0.00000000000E+00 0.  1.
          5    1    4    4  501    0 -0.52938199736E+02  0.83468556144E+02  0.96401403920E+02  0.13813093764E+03  0.41800000000E+01 0. -1.
         -5    1    4    4    0  501 -0.89644972733E+01 -0.27283489341E+02  0.13355274377E+03  0.13666952393E+03  0.41800000000E+01 0. -1.
</event>
<event>
11    1  0.7157190E-009  0.2158868E+03  0.7561462E-02  0.1043825E+00
         22   -1    0    0    0    0  0.00000000000E+00  0.00000000000E+00  0.17185127234E+03  0.17185127234E+03  0.00000000000E+00 0. -1.
         22   -1    0    0    0    0 -0.00000000000E+00 -0.00000000000E+00 -0.12758075659E+04  0.12758075659E+04  0.00000000000E+00 0.  1.
        -24    2    1    2    0    0  0.82994636588E+02  0.10833222939E+03 -0.95895005504E+03  0.97190983283E+03  0.79997084095E+02 0.  0.
         25    2    1    2    0    0  0.11581583320E+03 -0.10757900302E+03 -0.16538816954E+03  0.26074447893E+03  0.12509151675E+03 0.  0.
         24    2    1    2    0    0 -0.19881046978E+03 -0.75322636702E+00  0.20381930976E+02  0.21500452651E+03  0.79280218629E+02 0.  0.
        -13    1    5    5    0    0  0.69368974980E+01 -0.18646285259E+01  0.48532425965E+01  0.86689878382E+01  0.00000000000E+00 0.  1.
         14    1    5    5    0    0 -0.20574736728E+03  0.11114021589E+01  0.15528688380E+02  0.20633553868E+03  0.00000000000E+00 0. -1.
         11    1    3    3    0    0  0.66023742409E+02  0.43475689135E+02 -0.32726875914E+03  0.33668102236E+03  0.00000000000E+00 0. -1.
        -12    1    3    3    0    0  0.16970894180E+02  0.64856540255E+02 -0.63168129590E+03  0.63522881047E+03  0.00000000000E+00 0.  1.
          5    1    4    4  501    0  0.42726451954E+02  0.15678327828E+02 -0.84683631827E+02  0.96229670889E+02  0.41800000000E+01 0.  1.
         -5    1    4    4    0  501  0.73089381241E+02 -0.12325733085E+03 -0.80704537709E+02  0.16451480804E+03  0.41800000000E+01 0.  1.
</event>
<event>
11    1  0.7157190E-009  0.1878599E+03  0.7561462E-02  0.1063457E+00
         22   -1    0    0    0    0  0.00000000000E+00  0.00000000000E+00  0.10111794731E+04  0.10111794731E+04  0.00000000000E+00 0. -1.
         22   -1    0    0    0    0 -0.00000000000E+00 -0.00000000000E+00 -0.10772085301E+04  0.10772085301E+04  0.00000000000E+00 0. -1.
        -24    2    1    2    0    0 -0.49045145986E+02 -0.14438688794E+02 -0.94246437118E+03  0.94707792774E+03  0.78125592410E+02 0.  0.
         25    2    1    2    0    0  0.53250605492E+02  0.15358990790E+03 -0.40569616631E+02  0.20909048640E+03  0.12508977143E+03 0.  0.
         24    2    1    2    0    0 -0.42054595066E+01 -0.13915121911E+03  0.91700493075E+03  0.93221958905E+03  0.93565867285E+02 0.  0.
        -11    1    5    5    0    0  0.39810874563E+01 -0.13020058696E+03  0.55772120906E+03  0.57273116637E+03  0.00000000000E+00 0.  1.
         12    1    5    5    0    0 -0.81865469630E+01 -0.89506321541E+01  0.35928372169E+03  0.35948842268E+03  0.00000000000E+00 0. -1.
         13    1    3    3    0    0 -0.51934324999E+02 -0.39403978043E+02 -0.55847385627E+03  0.56226585859E+03  0.00000000000E+00 0. -1.
        -14    1    3    3    0    0  0.28891790130E+01  0.24965289249E+02 -0.38399051491E+03  0.38481206915E+03  0.00000000000E+00 0.  1.
          5    1    4    4  501    0 -0.10584046853E+02  0.24204253620E+01 -0.43385583091E+02  0.44918389629E+02  0.41800000000E+01 0.  1.
         -5    1    4    4    0  501  0.63834652345E+02  0.15116948254E+03  0.28159664603E+01  0.16417209677E+03  0.41800000000E+01 0.  1.
</event>
<event>
11    1  0.7157190E-009  0.2151627E+03  0.7561462E-02  0.1044291E+00
         22   -1    0    0    0    0  0.00000000000E+00  0.00000000000E+00  0.46115420562E+03  0.46115420562E+03  0.00000000000E+00 0. -1.
         22   -1    0    0    0    0 -0.00000000000E+00 -0.00000000000E+00 -0.26075154682E+04  0.26075154682E+04  0.00000000000E+00 0. -1.
         24    2    1    2    0    0 -0.10105998486E+03  0.14130505630E+03 -0.23449823862E+04  0.23528908797E+04  0.83503656479E+02 0.  0.
         25    2    1    2    0    0  0.11241163903E+03 -0.15648687092E+03 -0.20239498986E+03  0.30616148123E+03  0.12508638339E+03 0.  0.
        -24    2    1    2    0    0 -0.11351654163E+02  0.15181814612E+02  0.40101611347E+03  0.40961731292E+03  0.81320798311E+02 0.  0.
        -11    1    3    3    0    0 -0.25738476651E+02  0.11519130559E+02 -0.14019186287E+03  0.14299971316E+03  0.00000000000E+00 0.  1.
         12    1    3    3    0    0 -0.75321508212E+02  0.12978592575E+03 -0.22047905233E+04  0.22098911665E+04  0.00000000000E+00 0. -1.
         13    1    5    5    0    0 -0.92030466390E+01  0.36681515961E+02  0.36935534099E+03  0.37128640912E+03  0.00000000000E+00 0. -1.
        -14    1    5    5    0    0 -0.21486075241E+01 -0.21499701349E+02  0.31660772484E+02  0.38330903807E+02  0.00000000000E+00 0.  1.
          5    1    4    4  501    0  0.32156627027E+02  0.14227548145E+02 -0.60406624951E+02  0.70020743541E+02  0.41800000000E+01 0.  1.
         -5    1    4    4    0  501  0.80255012000E+02 -0.17071441906E+03 -0.14198836491E+03  0.23614073769E+03  0.41800000000E+01 0.  1.
</event>
<event>
11    1  0.7157190E-009  0.1459802E+03  0.7561462E-02  0.1101058E+00
         22   -1    0    0    0    0  0.00000000000E+00  0.00000000000E+00  0.26745473814E+04  0.26745473814E+04  0.00000000000E+00 0.  1.
         22   -1    0    0    0    0 -0.00000000000E+00 -0.00000000000E+00 -0.74265736146E+03  0.74265736146E+03  0.00000000000E+00 0. -1.
        -24    2    1    2    0    0 -0.22393581931E+02 -0.25727995877E+02 -0.71970824119E+03  0.72499477400E+03  0.80461590861E+02 0.  0.
         25    2    1    2    0    0  0.85845734819E+02 -0.13969992652E+02  0.28787895216E+03  0.32570982196E+03  0.12509175090E+03 0.  0.
         24    2    1    2    0    0 -0.63452152888E+02  0.39697988529E+02  0.23637193090E+04  0.23665001469E+04  0.86901482361E+02 0.  0.
        -13    1    5    5    0    0 -0.46514020754E+02  0.57967634534E+02  0.10870464003E+04  0.10895841762E+04  0.00000000000E+00 0.  1.
         14    1    5    5    0    0 -0.16938132134E+02 -0.18269646005E+02  0.12766729087E+04  0.12769159707E+04  0.00000000000E+00 0. -1.
         13    1    3    3    0    0 -0.18943808603E+02 -0.20402693347E+02 -0.71784094938E+03  0.71838065564E+03  0.00000000000E+00 0. -1.
        -14    1    3    3    0    0 -0.34497733278E+01 -0.53253025299E+01 -0.18672918101E+01  0.66141183654E+01  0.00000000000E+00 0.  1.
          5    1    4    4  501    0  0.30130785159E+02 -0.45603255752E+02  0.35539504676E+02  0.65330314113E+02  0.41800000000E+01 0.  1.
         -5    1    4    4    0  501  0.55714949660E+02  0.31633263100E+02  0.25233944748E+03  0.26037950785E+03  0.41800000000E+01 0.  1.
</event>
<event>
11    1  0.7157190E-009  0.1779785E+03  0.7561462E-02  0.1071290E+00
         22   -1    0    0    0    0  0.00000000000E+00  0.00000000000E+00  0.85539612250E+02  0.85539612250E+02  0.00000000000E+00 0.  1.
         22   -1    0    0    0    0 -0.00000000000E+00 -0.00000000000E+00 -0.22425313891E+04  0.22425313891E+04  0.00000000000E+00 0.  1.
         24    2    1    2    0    0  0.80225955788E+02 -0.94392049685E+02 -0.18184416657E+04  0.18244496913E+04  0.80873491050E+02 0.  0.
         25    2    1    2    0    0 -0.79468219917E+02  0.12781883417E+03 -0.36314106987E+03  0.41251671326E+03  0.12508297143E+03 0.  0.
        -24    2    1    2    0    0 -0.75773587100E+00 -0.33426784487E+02  0.24590958757E+02  0.91104596746E+02  0.81101222005E+02 0.  0.
        -11    1    3    3    0    0  0.92638818606E+02 -0.84851299018E+02 -0.17356755488E+04  0.17402158786E+04  0.00000000000E+00 0.  1.
         12    1    3    3    0    0 -0.12412862818E+02 -0.95407506664E+01 -0.82766116941E+02  0.84233812688E+02  0.00000000000E+00 0. -1.
         11    1    5    5    0    0 -0.16479993306E+02 -0.55124156992E+02  0.46860511855E+01  0.57725401161E+02  0.00000000000E+00 0. -1.
        -12    1    5    5    0    0  0.15722257435E+02  0.21697372505E+02  0.19904907571E+02  0.33379195585E+02  0.00000000000E+00 0.  1.
          5    1    4    4  501    0 -0.31802310417E+02  0.13449538971E+03 -0.31640993834E+03  0.34530148896E+03  0.41800000000E+01 0.  1.
         -5    1    4    4    0  501 -0.47665909500E+02 -0.66765555392E+01 -0.46731131538E+02  0.67215224296E+02  0.41800000000E+01 0.  1.
</event>
<event>
11    1  0.7157190E-009  0.1374398E+03  0.7561462E-02  0.1110451E+00
         22   -1    0    0    0    0  0.00000000000E+00  0.00000000000E+00  0.80858808802E+03  0.80858808802E+03  0.00000000000E+00 0.  1.
         22   -1    0    0    0    0 -0.00000000000E+00 -0.00000000000E+00 -0.63286375184E+02  0.63286375184E+02  0.00000000000E+00 0. -1.
        -24    2    1    2    0    0 -0.82536539199E+02  0.75436524991E+02  0.11059119076E+03  0.17661185351E+03  0.80364082283E+02 0.  0.
         25    2    1    2    0    0  0.14975604207E+02  0.28494437113E+02  0.37919248823E+03  0.40058735416E+03  0.12508830286E+03 0.  0.
         24    2    1    2    0    0  0.67560934991E+02 -0.10393096210E+03  0.25551803384E+03  0.29467525553E+03  0.78599718728E+02 0.  0.
        -13    1    5    5    0    0  0.83331535641E+02 -0.83688552168E+02  0.22965202849E+03  0.25824014557E+03  0.00000000000E+00 0.  1.
         14    1    5    5    0    0 -0.15770600650E+02 -0.20242409936E+02  0.25866005352E+02  0.36435109960E+02  0.00000000000E+00 0. -1.
         11    1    3    3    0    0 -0.39143599553E+02  0.83099622245E+02  0.60972535980E+02  0.11025161562E+03  0.00000000000E+00 0. -1.
        -12    1    3    3    0    0 -0.43392939645E+02 -0.76630972544E+01  0.49618654778E+02  0.66360237888E+02  0.00000000000E+00 0.  1.
          5    1    4    4  501    0 -0.11057105477E+01  0.66652351689E+02  0.11381513522E+03  0.13196634414E+03  0.41800000000E+01 0. -1.
         -5    1    4    4    0  501  0.16081314755E+02 -0.38157914576E+02  0.26537735301E+03  0.26862101001E+03  0.41800000000E+01 0. -1.
</event>
<event>
11    1  0.7157190E-009  0.1373828E+03  0.7561462E-02  0.1110517E+00
         22   -1    0    0    0    0  0.00000000000E+00  0.00000000000E+00  0.18968268228E+03  0.18968268228E+03  0.00000000000E+00 0.  1.
         22   -1    0    0    0    0 -0.00000000000E+00 -0.00000000000E+00 -0.20321098586E+03  0.20321098586E+03  0.00000000000E+00 0. -1.
        -24    2    1    2    0    0 -0.12709671904E+02  0.27031440986E+02 -0.90121730434E+02  0.12449893014E+03  0.80534605903E+02 0.  0.
         25    2    1    2    0    0  0.39293168693E+02 -0.69361047125E+02  0.55122426028E+00  0.14833584824E+03  0.12509321349E+03 0.  0.
         24    2    1    2    0    0 -0.26583496789E+02  0.42329606139E+02  0.76042202597E+02  0.12005888975E+03  0.78315021392E+02 0.  0.
        -13    1    5    5    0    0 -0.34497612659E+02  0.49368447038E+02  0.86350407012E+02  0.10527925547E+03  0.00000000000E+00 0.  1.
         14    1    5    5    0    0  0.79141158696E+01 -0.70388408986E+01 -0.10308204415E+02  0.14779634280E+02  0.00000000000E+00 0. -1.
         13    1    3    3    0    0 -0.66764748257E+01  0.31172775743E+02 -0.10401798130E+03  0.10879364732E+03  0.00000000000E+00 0. -1.
        -14    1    3    3    0    0 -0.60331970787E+01 -0.41413347571E+01  0.13896250862E+02  0.15705282824E+02  0.00000000000E+00 0.  1.
          5    1    4    4  501    0 -0.24538640359E+01 -0.46465470904E+02 -0.56887313466E+02  0.73611821526E+02  0.41800000000E+01 0.  1.
         -5    1    4    4    0  501  0.41747032729E+02 -0.22895576222E+02  0.57438537727E+02  0.74724026714E+02  0.41800000000E+01 0.  1.
</event>
<event>
11    1  0.7157190E-009  0.2526379E+03  0.7561462E-02  0.1022503E+00
         22   -1    0    0    0    0  0.00000000000E+00  0.00000000000E+00  0.11450779413E+04  0.11450779413E+04  0.00000000000E+00 0. -1.
         22   -1    0    0    0    0 -0.00000000000E+00 -0.00000000000E+00 -0.10601920543E+04  0.10601920543E+04  0.00000000000E+00 0. -1.
         24    2    1    2    0    0  0.12092028444E+03  0.95869192978E+02 -0.73058655622E+03  0.75074346006E+03  0.77758660838E+02 0.  0.
         25    2    1    2    0    0 -0.31264164131E+03  0.56232031548E+01 -0.21420158879E+03  0.39913073895E+03  0.12508640948E+03 0.  0.
        -24    2    1    2    0    0  0.19172135687E+03 -0.10149239613E+03  0.10296740320E+04  0.10553957965E+04  0.81079528721E+02 0.  0.
        -13    1    3    3    0    0  0.24564851085E+02  0.23560468638E+02 -0.56373451370E+02  0.65852058515E+02  0.00000000000E+00 0.  1.
         14    1    3    3    0    0  0.96355433359E+02  0.72308724339E+02 -0.67421310485E+03  0.68489140154E+03  0.00000000000E+00 0. -1.
         13    1    5    5    0    0  0.18795723047E+03 -0.90293896022E+02  0.10166398993E+04  0.10378042170E+04  0.00000000000E+00 0. -1.
        -14    1    5    5    0    0  0.37641264029E+01 -0.11198500111E+02  0.13034132762E+02  0.17591579496E+02  0.00000000000E+00 0.  1.
          5    1    4    4  501    0 -0.76680273431E+02 -0.50392640610E+02 -0.38349793711E+02  0.99536232794E+02  0.41800000000E+01 0. -1.
         -5    1    4    4    0  501 -0.23596136788E+03  0.56015843764E+02 -0.17585179508E+03  0.29959450615E+03  0.41800000000E+01 0. -1.
</event>
<event>
11    1  0.7157190E-009  0.1641449E+03  0.7561462E-02  0.1083242E+00
         22   -1    0    0    0    0  0.00000000000E+00  0.00000000000E+00  0.47127103660E+03  0.47127103660E+03  0.00000000000E+00 0.  1.
         22   -1    0    0    0    0 -0.00000000000E+00 -0.00000000000E+00 -0.95296652293E+03  0.95296652293E+03  0.00000000000E+00 0.  1.
         24    2    1    2    0    0  0.73099549523E+02 -0.86547748168E+02 -0.84976393253E+03  0.86095456704E+03  0.79435310978E+02 0.  0.
         25    2    1    2    0    0 -0.53769962244E+02  0.79999184099E+01 -0.37912465970E+02  0.14156327223E+03  0.12509035708E+03 0.  0.
        -24    2    1    2    0    0 -0.19329587279E+02  0.78547829758E+02  0.40598091217E+03  0.42171972026E+03  0.80520971819E+02 0.  0.
        -11    1    3    3    0    0  0.60808926399E+02 -0.10188284018E+03 -0.71995125931E+03  0.72966269908E+03  0.00000000000E+00 0.  1.
         12    1    3    3    0    0  0.12290623124E+02  0.15335092009E+02 -0.12981267322E+03  0.13129186796E+03  0.00000000000E+00 0. -1.
         11    1    5    5    0    0 -0.20089594043E+02  0.40939162180E+02  0.69391346666E+02  0.83034726356E+02  0.00000000000E+00 0. -1.
        -12    1    5    5    0    0  0.76000676461E+00  0.37608667578E+02  0.33658956551E+03  0.33868499390E+03  0.00000000000E+00 0.  1.
          5    1    4    4  501    0 -0.75551479929E+02  0.48563330614E+02 -0.20952109197E+02  0.92319480499E+02  0.41800000000E+01 0.  1.
         -5    1    4    4    0  501  0.21781517685E+02 -0.40563412204E+02 -0.16960356773E+02  0.49243791732E+02  0.41800000000E+01 0.  1.
</event>
<event>
11    1  0.7157190E-009  0.1448390E+03  0.7561462E-02  0.1102272E+00
         22   -1    0    0    0    0  0.00000000000E+00  0.00000000000E+00  0.11642192904E+04  0.11642192904E+04  0.00000000000E+00 0. -1.
         22   -1    0    0    0    0 -0.00000000000E+00 -0.00000000000E+00 -0.40415620493E+03  0.40415620493E+03  0.00000000000E+00 0. -1.
        -24    2    1    2    0    0  0.45265805316E+02  0.30786268879E+02 -0.34406444535E+03  0.35771788938E+03  0.81147756261E+02 0.  0.
         25    2    1    2    0    0 -0.11259369347E+03 -0.50741338591E+02  0.10276119784E+03  0.20361847345E+03  0.12509434718E+03 0.  0.
         24    2    1    2    0    0  0.67327888159E+02  0.19955069711E+02  0.10013663330E+04  0.10070391325E+04  0.80386766424E+02 0.  0.
        -13    1    5    5    0    0  0.44862878731E+01  0.22698640414E+01  0.17956096691E+01  0.53388459175E+01  0.00000000000E+00 0.  1.
         14    1    5    5    0    0  0.62841600286E+02  0.17685205670E+02  0.99957072331E+03  0.10017002866E+04  0.00000000000E+00 0. -1.
         13    1    3    3    0    0  0.20502324427E+02 -0.24721454170E+02 -0.17812130134E+03  0.18099362860E+03  0.00000000000E+00 0. -1.
        -14    1    3    3    0    0  0.24763480889E+02  0.55507723050E+02 -0.16594314401E+03  0.17672426078E+03  0.00000000000E+00 0.  1.
          5    1    4    4  501    0 -0.94606194031E+02  0.15403127892E+02  0.23565950663E+02  0.98794811243E+02  0.41800000000E+01 0.  1.
         -5    1    4    4    0  501 -0.17987499444E+02 -0.66144466482E+02  0.79195247178E+02  0.10482366220E+03  0.41800000000E+01 0.  1.
</event>
<event>
11    1  0.7157190E-009  0.1493105E+03  0.7561462E-02  0.1097585E+00
         22   -1    0    0    0    0  0.00000000000E+00  0.00000000000E+00  0.72568480613E+03  0.72568480613E+03  0.00000000000E+00 0. -1.
         22   -1    0    0    0    0 -0.00000000000E+00 -0.00000000000E+00 -0.15060879392E+04  0.15060879392E+04  0.00000000000E+00 0. -1.
        -24    2    1    2    0    0  0.26594221446E+02 -0.21204858003E+02 -0.12765385787E+04  0.12795112301E+04  0.80257999017E+02 0.  0.
         25    2    1    2    0    0  0.39232745820E+02  0.69675693709E+02 -0.19737061881E+03  0.24697498045E+03  0.12509024406E+03 0.  0.
         24    2    1    2    0    0 -0.65826967267E+02 -0.48470835706E+02  0.69350606446E+03  0.70528653477E+03  0.98973850850E+02 0.  0.
        -13    1    5    5    0    0 -0.54479718024E+01 -0.67759959822E+01  0.82906798920E+00  0.87339493954E+01  0.00000000000E+00 0.  1.
         14    1    5    5    0    0 -0.60378995464E+02 -0.41694839723E+02  0.69267699647E+03  0.69655258537E+03  0.00000000000E+00 0. -1.
         11    1    3    3    0    0  0.13232911958E+02  0.27293222524E+02 -0.26647531314E+03  0.26819605230E+03  0.00000000000E+00 0. -1.
        -12    1    3    3    0    0  0.13361309488E+02 -0.48498080527E+02 -0.10100632655E+04  0.10113151778E+04  0.00000000000E+00 0.  1.
          5    1    4    4  501    0  0.32949483985E+02 -0.30268727028E+02 -0.38727710202E+02  0.59322611779E+02  0.41800000000E+01 0. -1.
         -5    1    4    4    0  501  0.62832618352E+01  0.99944420737E+02 -0.15864290861E+03  0.18765236867E+03  0.41800000000E+01 0. -1.
</event>
<event>
11    1  0.7157190E-009  0.1536097E+03  0.7561462E-02  0.1093246E+00
         22   -1    0    0    0    0  0.00000000000E+00  0.00000000000E+00  0.15055787054E+04  0.15055787054E+04  0.00000000000E+00 0. -1.
         22   -1    0    0    0    0 -0.00000000000E+00 -0.00000000000E+00 -0.15943663994E+03  0.15943663994E+03  0.00000000000E+00 0. -1.
         24    2    1    2    0    0  0.14164265239E+02  0.54529797594E+02 -0.65478008709E+02  0.11652413707E+03  0.78207286484E+02 0.  0.
         25    2    1    2    0    0 -0.10066056812E+03 -0.33425196818E+02  0.36398631454E+02  0.16802745799E+03  0.12513421798E+03 0.  0.
        -24    2    1    2    0    0  0.86496302877E+02 -0.21104600776E+02  0.13752214427E+04  0.13804637503E+04  0.80741159188E+02 0.  0.
        -11    1    3    3    0    0 -0.14121371837E+02 -0.81775641302E+01 -0.39940239753E+02  0.43145201925E+02  0.00000000000E+00 0.  1.
         12    1    3    3    0    0  0.28285637076E+02  0.62707361724E+02 -0.25537768956E+02  0.73378935141E+02  0.00000000000E+00 0. -1.
         13    1    5    5    0    0  0.55361153304E+02  0.72150622003E+01  0.11493093514E+04  0.11506645470E+04  0.00000000000E+00 0. -1.
        -14    1    5    5    0    0  0.31135149573E+02 -0.28319662976E+02  0.22591209131E+03  0.22979920332E+03  0.00000000000E+00 0.  1.
          5    1    4    4  501    0 -0.84002950061E+02  0.36625753206E+02  0.16502581236E+02  0.93208095166E+02  0.41800000000E+01 0.  1.
         -5    1    4    4    0  501 -0.16657618055E+02 -0.70050950024E+02  0.19896050219E+02  0.74819362821E+02  0.41800000000E+01 0.  1.
</event>
<event>
11    1  0.7157190E-009  0.1655527E+03  0.7561462E-02  0.1081968E+00
         22   -1    0    0    0    0  0.00000000000E+00  0.00000000000E+00  0.48071208865E+03  0.48071208865E+03  0.00000000000E+00 0. -1.
         22   -1    0    0    0    0 -0.00000000000E+00 -0.00000000000E+00 -0.67432371555E+03  0.67432371555E+03  0.00000000000E+00 0. -1.
         24    2    1    2    0    0 -0.19250371907E+02 -0.25478699149E+02 -0.61362123178E+03  0.61974142458E+03  0.80800224742E+02 0.  0.
         25    2    1    2    0    0  0.58934682926E+02  0.11915644245E+03  0.13917583748E+03  0.22954096931E+03  0.12509032026E+03 0.  0.
        -24    2    1    2    0    0 -0.39684311019E+02 -0.93677743305E+02  0.28083376740E+03  0.30575341031E+03  0.65323647119E+02 0.  0.
        -13    1    3    3    0    0 -0.69696001440E+00  0.27122758457E+02 -0.12283049548E+03  0.12579133674E+03  0.00000000000E+00 0.  1.
         14    1    3    3    0    0 -0.18553411893E+02 -0.52601457606E+02 -0.49079073630E+03  0.49395008784E+03  0.00000000000E+00 0. -1.
         11    1    5    5    0    0 -0.46965482072E+02 -0.35911499428E+02  0.17824281013E+03  0.18779215016E+03  0.00000000000E+00 0. -1.
        -12    1    5    5    0    0  0.72811710529E+01 -0.57766243877E+02  0.10259095727E+03  0.11796126015E+03  0.00000000000E+00 0.  1.
          5    1    4    4  501    0  0.11546693085E+02  0.29979417732E+02 -0.22095675111E+02  0.39214574680E+02  0.41800000000E+01 0. -1.
         -5    1    4    4    0  501  0.47387989842E+02  0.89177024722E+02  0.16127151259E+03  0.19032639463E+03  0.41800000000E+01 0. -1.
</event>
<event>
11    1  0.7157190E-009  0.1774412E+03  0.7561462E-02  0.1071732E+00
         22   -1    0    0    0    0  0.00000000000E+00  0.00000000000E+00  0.63080239366E+03  0.63080239366E+03  0.00000000000E+00 0. -1.
         22   -1    0    0    0    0 -0.00000000000E+00 -0.00000000000E+00 -0.75217470996E+03  0.75217470996E+03  0.00000000000E+00 0. -1.
         24    2    1    2    0    0 -0.64378195370E+02  0.11286169248E+03 -0.66953824224E+03  0.68661395238E+03  0.79214570076E+02 0.  0.
         25    2    1    2    0    0  0.24359306799E+02 -0.84779219516E+02  0.13829369750E+02  0.15368094251E+03  0.12508272756E+03 0.  0.
        -24    2    1    2    0    0  0.40018888572E+02 -0.28082472965E+02  0.53433655619E+03  0.54268220873E+03  0.81229844625E+02 0.  0.
        -13    1    3    3    0    0 -0.13859049479E+02 -0.66736071442E+01 -0.26755419685E+02  0.30861995517E+02  0.00000000000E+00 0.  1.
         14    1    3    3    0    0 -0.50519145892E+02  0.11953529963E+03 -0.64278282256E+03  0.65575195686E+03  0.00000000000E+00 0. -1.
         13    1    5    5    0    0 -0.11800839977E+02 -0.35334692276E+02  0.31478020230E+03  0.31697693301E+03  0.00000000000E+00 0. -1.
        -14    1    5    5    0    0  0.51819728549E+02  0.72522193102E+01  0.21955635389E+03  0.22570527572E+03  0.00000000000E+00 0.  1.
          5    1    4    4  501    0  0.19256990190E+02 -0.22298049281E+02  0.65753212501E+02  0.72173347069E+02  0.41800000000E+01 0. -1.
         -5    1    4    4    0  501  0.51023166086E+01 -0.62481170235E+02 -0.51923842751E+02  0.81507595442E+02  0.41800000000E+01 0. -1.
</event>
<event>
11    1  0.7157190E-009  0.1368708E+03  0.7561462E-02  0.1111104E+00
         22   -1    0    0    0    0  0.00000000000E+00  0.00000000000E+00  0.89516444071E+02  0.89516444071E+02  0.00000000000E+00 0.  1.
         22   -1    0    0    0    0 -0.00000000000E+00 -0.00000000000E+00 -0.19023165708E+04  0.19023165708E+04  0.00000000000E+00 0. -1.
         24    2    1    2    0    0 -0.82623365337E+01 -0.55444038796E+02 -0.17260225639E+04  0.17288001287E+04  0.80334837552E+02 0.  0.
         25    2    1    2    0    0 -0.23777586025E+00  0.44980470246E+02 -0.11541812861E+03  0.17604709455E+03  0.12509170974E+03 0.  0.
        -24    2    1    2    0    0  0.85001123940E+01  0.10463568550E+02  0.28640565748E+02  0.86985791698E+02  0.81021650030E+02 0.  0.
        -11    1    3    3    0    0  0.53800457290E+01 -0.21422925610E+02 -0.10201042514E+03  0.10437439088E+03  0.00000000000E+00 0.  1.
         12    1    3    3    0    0 -0.13642382263E+02 -0.34021113186E+02 -0.16240121388E+04  0.16244257378E+04  0.00000000000E+00 0. -1.
         11    1    5    5    0    0  0.35726487053E+02  0.19719023487E+01 -0.11643811301E+02  0.37627763920E+02  0.00000000000E+00 0. -1.
        -12    1    5    5    0    0 -0.27226374659E+02  0.84916662013E+01  0.40284377049E+02  0.49358027778E+02  0.00000000000E+00 0.  1.
          5    1    4    4  501    0  0.54152193420E+01 -0.30326068735E+02  0.72628604586E+01  0.31925171691E+02  0.41800000000E+01 0.  1.
         -5    1    4    4    0  501 -0.56529952023E+01  0.75306538981E+02 -0.12268098907E+03  0.14412192286E+03  0.41800000000E+01 0.  1.
</event>
<event>
11    1  0.7157190E-009  0.1351734E+03  0.7561462E-02  0.1113071E+00
         22   -1    0    0    0    0  0.00000000000E+00  0.00000000000E+00  0.12531980213E+04  0.12531980213E+04  0.00000000000E+00 0.  1.
         22   -1    0    0    0    0 -0.00000000000E+00 -0.00000000000E+00 -0.31075052717E+03  0.31075052717E+03  0.00000000000E+00 0. -1.
         24    2    1    2    0    0 -0.14981903797E+02  0.44503748842E+02 -0.19292978254E+03  0.21423757197E+03  0.80441252782E+02 0.  0.
         25    2    1    2    0    0  0.38960752292E+02 -0.60752563316E+02 -0.56269649381E+02  0.15502025049E+03  0.12512469961E+03 0.  0.
        -24    2    1    2    0    0 -0.23978848496E+02  0.16248814475E+02  0.11916469260E+04  0.11946907260E+04  0.80153136682E+02 0.  0.
        -13    1    3    3    0    0  0.14188682704E+02  0.40452815275E+01  0.21581345309E+00  0.14755663149E+02  0.00000000000E+00 0.  1.
         14    1    3    3    0    0 -0.29170586501E+02  0.40458467314E+02 -0.19314559599E+03  0.19948190882E+03  0.00000000000E+00 0. -1.
         13    1    5    5    0    0  0.26470087152E+02 -0.79903291682E+01  0.29268671683E+03  0.29398983840E+03  0.00000000000E+00 0. -1.
        -14    1    5    5    0    0 -0.50448935648E+02  0.24239143643E+02  0.89896020917E+03  0.90070088757E+03  0.00000000000E+00 0.  1.
          5    1    4    4  501    0  0.50419776198E+02  0.24285184513E+02 -0.86059474970E+01  0.56775511896E+02  0.41800000000E+01 0.  1.
         -5    1    4    4    0  501 -0.11459023906E+02 -0.85037747829E+02 -0.47663701884E+02  0.98244738597E+02  0.41800000000E+01 0.  1.
</event>
<event>
11    1  0.7157190E-009  0.1700451E+03  0.7561462E-02  0.1077992E+00
         22   -1    0    0    0    0  0.00000000000E+00  0.00000000000E+00  0.24446380131E+04  0.24446380131E+04  0.00000000000E+00 0.  1.
         22   -1    0    0    0    0 -0.00000000000E+00 -0.00000000000E+00 -0.52562043136E+03  0.52562043136E+03  0.00000000000E+00 0. -1.
        -24    2    1    2    0    0 -0.53910051476E+02 -0.99908299028E+02 -0.45408843198E+03  0.47529506846E+03  0.82590169985E+02 0.  0.
         25    2    1    2    0    0  0.91998059498E+02  0.10729005745E+03  0.88164040943E+02  0.20831649731E+03  0.12509222821E+03 0.  0.
         24    2    1    2    0    0 -0.38088008022E+02 -0.73817584235E+01  0.22849419728E+04  0.22866468787E+04  0.79302851136E+02 0.  0.
        -11    1    5    5    0    0 -0.23661292136E+02 -0.18886397964E+02  0.21717296456E+04  0.21719406544E+04  0.00000000000E+00 0.  1.
         12    1    5    5    0    0 -0.14426715886E+02  0.11504639540E+02  0.11321232717E+03  0.11470622426E+03  0.00000000000E+00 0. -1.
         13    1    3    3    0    0 -0.72592813688E+02 -0.53120323517E+02 -0.28456311707E+03  0.29844204289E+03  0.00000000000E+00 0. -1.
        -14    1    3    3    0    0  0.18682762212E+02 -0.46787975511E+02 -0.16952531491E+03  0.17685302557E+03  0.00000000000E+00 0.  1.
          5    1    4    4  501    0  0.12206147027E+03  0.98007650505E+02  0.78294822342E+02  0.17507727919E+03  0.41800000000E+01 0. -1.
         -5    1    4    4    0  501 -0.30063410770E+02  0.92824069462E+01  0.98692186009E+01  0.33239218126E+02  0.41800000000E+01 0. -1.
</event>
<event>
11    1  0.7157190E-009  0.3493176E+03  0.7561462E-02  0.9812403E-01
         22   -1    0    0    0    0  0.00000000000E+00  0.00000000000E+00  0.96093417046E+03  0.96093417046E+03  0.00000000000E+00 0.  1.
         22   -1    0    0    0    0 -0.00000000000E+00 -0.00000000000E+00 -0.17145676148E+04  0.17145676148E+04  0.00000000000E+00 0. -1.
        -24    2    1    2    0    0  0.32349807000E+03  0.49144040224E+02 -0.15499323695E+04  0.15860718305E+04  0.79166682613E+02 0.  0.
         25    2    1    2    0    0 -0.31423795818E+03 -0.24967241980E+02  0.55014331273E+02  0.34357393020E+03  0.12509041263E+03 0.  0.
         24    2    1    2    0    0 -0.92601118210E+01 -0.24176798244E+02  0.74128459388E+03  0.74585602452E+03  0.78282136870E+02 0.  0.
        -11    1    5    5    0    0 -0.42788273476E+02 -0.32233670817E+01  0.39011805879E+03  0.39247079667E+03  0.00000000000E+00 0.  1.
         12    1    5    5    0    0  0.33528161655E+02 -0.20953431163E+02  0.35116653509E+03  0.35338522786E+03  0.00000000000E+00 0. -1.
         13    1    3    3    0    0  0.26124292083E+03  0.58625051086E+02 -0.13557240851E+04  0.13819090257E+04  0.00000000000E+00 0. -1.
        -14    1    3    3    0    0  0.62255149179E+02 -0.94810108620E+01 -0.19420828440E+03  0.20416280488E+03  0.00000000000E+00 0.  1.
          5    1    4    4  501    0 -0.12873806344E+03  0.50672994884E+02  0.30194433930E+02  0.14167010139E+03  0.41800000000E+01 0.  1.
         -5    1    4    4    0  501 -0.18549989475E+03 -0.75640236864E+02  0.24819897343E+02  0.20190382881E+03  0.41800000000E+01 0.  1.
</event>
<event>
11    1  0.7157190E-009  0.1806426E+03  0.7561462E-02  0.1069124E+00
         22   -1    0    0    0    0  0.00000000000E+00  0.00000000000E+00  0.16310954084E+04  0.16310954084E+04  0.00000000000E+00 0. -1.
         22   -1    0    0    0    0 -0.00000000000E+00 -0.00000000000E+00 -0.87579941328E+03  0.87579941328E+03  0.00000000000E+00 0. -1.
         24    2    1    2    0    0 -0.41614961418E+02 -0.41290303188E+01 -0.78023303733E+03  0.78561919598E+03  0.81762305787E+02 0.  0.
         25    2    1    2    0    0 -0.70085920092E+02 -0.65943302984E+02 -0.19140390992E+02  0.15897810767E+03  0.12508848367E+03 0.  0.
        -24    2    1    2    0    0  0.11170088151E+03  0.70072333303E+02  0.15546694235E+04  0.15622975181E+04  0.79933096213E+02 0.  0.
        -13    1    3    3    0    0 -0.17710998870E+02 -0.33203300463E+02 -0.16504572485E+03  0.16928151090E+03  0.00000000000E+00 0.  1.
         14    1    3    3    0    0 -0.23903962549E+02  0.29074270145E+02 -0.61518731248E+03  0.61633768508E+03  0.00000000000E+00 0. -1.
         11    1    5    5    0    0  0.79698692902E+02  0.47100253542E+02  0.62755950056E+03  0.63435104026E+03  0.00000000000E+00 0. -1.
        -12    1    5    5    0    0  0.32002188608E+02  0.22972079761E+02  0.92710992291E+03  0.92794647782E+03  0.00000000000E+00 0.  1.
          5    1    4    4  501    0 -0.14630051598E+02  0.21832269165E+02  0.33265956491E+02  0.42600265819E+02  0.41800000000E+01 0.  1.
         -5    1    4    4    0  501 -0.55455868494E+02 -0.87775572150E+02 -0.52406347482E+02  0.11637784185E+03  0.41800000000E+01 0.  1.
</event>
<event>
11    1  0.7157190E-009  0.1935025E+03  0.7561462E-02  0.1059216E+00
         22   -1    0    0    0    0  0.00000000000E+00  0.00000000000E+00  0.24261578885E+03  0.24261578885E+03  0.00000000000E+00 0. -1.
         22   -1    0    0    0    0 -0.00000000000E+00 -0.00000000000E+00 -0.18727085617E+04  0.18727085617E+04  0.00000000000E+00 0. -1.
         24    2    1    2    0    0 -0.69636744788E+02  0.45103625817E+02 -0.15437041524E+04  0.15481328882E+04  0.82518580993E+02 0.  0.
         25    2    1    2    0    0  0.18403775701E+03  0.43172701647E+02 -0.24850015436E+03  0.33635526245E+03  0.12509499465E+03 0.  0.
        -24    2    1    2    0    0 -0.11440101222E+03 -0.88276327464E+02  0.16211153391E+03  0.23083619987E+03  0.78261741336E+02 0.  0.
        -11    1    3    3    0    0  0.51219466171E+01  0.41684046444E+02 -0.51411409680E+03  0.51582661680E+03  0.00000000000E+00 0.  1.
         12    1    3    3    0    0 -0.74758691405E+02  0.34195793729E+01 -0.10295900556E+04  0.10323062714E+04  0.00000000000E+00 0. -1.
         13    1    5    5    0    0 -0.12241160175E+03 -0.64217184386E+02  0.14443976062E+03  0.19992821577E+03  0.00000000000E+00 0. -1.
        -14    1    5    5    0    0  0.80105895239E+01 -0.24059143078E+02  0.17671773293E+02  0.30907984106E+02  0.00000000000E+00 0.  1.
          5    1    4    4  501    0  0.63184306108E+02  0.78109895446E+02 -0.10249733359E+03  0.14358477669E+03  0.41800000000E+01 0.  1.
         -5    1    4    4    0  501  0.12085345090E+03 -0.34937193798E+02 -0.14600282077E+03  0.19277048576E+03  0.41800000000E+01 0.  1.
</event>
<event>
11    1  0.7157190E-009  0.1723921E+03  0.7561462E-02  0.1075968E+00
         22   -1    0    0    0    0  0.00000000000E+00  0.00000000000E+00  0.37555583368E+03  0.37555583368E+03  0.00000000000E+00 0. -1.
         22   -1    0    0    0    0 -0.00000000000E+00 -0.00000000000E+00 -0.37500590378E+03  0.37500590378E+03  0.00000000000E+00 0. -1.
        -24    2    1    2    0    0 -0.20836363519E+01  0.17132231691E+02 -0.28097570974E+03  0.29288709163E+03  0.80855699094E+02 0.  0.
         25    2    1    2    0    0 -0.81081042148E+02  0.71741042569E+02  0.31884439009E+02  0.16848796945E+03  0.12510262113E+03 0.  0.
         24    2    1    2    0    0  0.83164678499E+02 -0.88873274260E+02  0.24964120064E+03  0.28918667637E+03  0.80581524608E+02 0.  0.
        -13    1    5    5    0    0  0.53096742948E+02 -0.27706540533E+02  0.49309506128E+02  0.77577985889E+02  0.00000000000E+00 0.  1.
         14    1    5    5    0    0  0.30067935551E+02 -0.61166733727E+02  0.20033169451E+03  0.21160869048E+03  0.00000000000E+00 0. -1.
         13    1    3    3    0    0 -0.28539880159E+02  0.76705085765E+00 -0.23868814659E+03  0.24038956809E+03  0.00000000000E+00 0. -1.
        -14    1    3    3    0    0  0.26456243807E+02  0.16365180834E+02 -0.42287563153E+02  0.52497523537E+02  0.00000000000E+00 0.  1.
          5    1    4    4  501    0  0.97589407398E+01  0.34101811739E+02  0.56680065455E+02  0.66994572229E+02  0.41800000000E+01 0. -1.
         -5    1    4    4    0  501 -0.90839982887E+02  0.37639230830E+02 -0.24795626446E+02  0.10149339722E+03  0.41800000000E+01 0. -1.
</event>
<event>
11    1  0.7157190E-009  0.1480952E+03  0.7561462E-02  0.1098841E+00
         22   -1    0    0    0    0  0.00000000000E+00  0.00000000000E+00  0.17298765872E+03  0.17298765872E+03  0.00000000000E+00 0. -1.
         22   -1    0    0    0    0 -0.00000000000E+00 -0.00000000000E+00 -0.11420266969E+04  0.11420266969E+04  0.00000000000E+00 0. -1.
        -24    2    1    2    0    0 -0.29741538323E+02  0.73912650239E+02 -0.10559905207E+04  0.10620323404E+04  0.80306121308E+02 0.  0.
         25    2    1    2    0    0  0.10805731285E+02 -0.69624489842E+02  0.15315621402E+02  0.14438525985E+03  0.12509277193E+03 0.  0.
         24    2    1    2    0    0  0.18935807037E+02 -0.42881603970E+01  0.71635861146E+02  0.10859675542E+03  0.79275504269E+02 0.  0.
        -11    1    5    5    0    0  0.24876365754E+02  0.31513977979E+02  0.18393481296E+02  0.44162025943E+02  0.00000000000E+00 0.  1.
         12    1    5    5    0    0 -0.59405587172E+01 -0.35802138376E+02  0.53242379850E+02  0.64434729473E+02  0.00000000000E+00 0. -1.
         11    1    3    3    0    0  0.11994587526E+02  0.64562334616E+02 -0.77854115023E+03  0.78130563020E+03  0.00000000000E+00 0. -1.
        -12    1    3    3    0    0 -0.41736125849E+02  0.93503156228E+01 -0.27744937051E+03  0.28072671016E+03  0.00000000000E+00 0.  1.
          5    1    4    4  501    0 -0.15183013908E+02 -0.31958291836E+02 -0.51906797101E+02  0.62957480204E+02  0.41800000000E+01 0. -1.
         -5    1    4    4    0  501  0.25988745194E+02 -0.37666198006E+02  0.67222418503E+02  0.81427779648E+02  0.41800000000E+01 0. -1.
</event>
<event>
11    1  0.7157190E-009  0.1382241E+03  0.7561462E-02  0.1109558E+00
         22   -1    0    0    0    0  0.00000000000E+00  0.00000000000E+00  0.37984772380E+03  0.37984772380E+03  0.00000000000E+00 0.  1.
         22   -1    0    0    0    0 -0.00000000000E+00 -0.00000000000E+00 -0.11841772565E+03  0.11841772565E+03  0.00000000000E+00 0.  1.
         24    2    1    2    0    0  0.42520036510E+02 -0.25913080737E+02 -0.31255192498E+02  0.97176344878E+02  0.77375149032E+02 0.  0.
         25    2    1    2    0    0 -0.18860382914E+02 -0.40055710041E+02  0.80785549572E+02  0.15535231966E+03  0.12509142358E+03 0.  0.
        -24    2    1    2    0    0 -0.23659653596E+02  0.65968790778E+02  0.21189964107E+03  0.24573678491E+03  0.10282727756E+03 0.  0.
        -11    1    3    3    0    0  0.94258873306E+01  0.13763859690E+02 -0.41300033378E+02  0.44541934652E+02  0.00000000000E+00 0.  1.
         12    1    3    3    0    0  0.33094149180E+02 -0.39676940427E+02  0.10044840880E+02  0.52634410226E+02  0.00000000000E+00 0. -1.
         11    1    5    5    0    0  0.63378791520E+01 -0.21670432724E+02  0.12349112687E+02  0.25734742096E+02  0.00000000000E+00 0. -1.
        -12    1    5    5    0    0 -0.29997532748E+02  0.87639223503E+02  0.19955052838E+03  0.22000204282E+03  0.00000000000E+00 0.  1.
          5    1    4    4  501    0 -0.47902429990E+02 -0.44116719840E+02  0.10045901632E+03  0.11979321403E+03  0.41800000000E+01 0.  1.
         -5    1    4    4    0  501  0.29042047075E+02  0.40610097989E+01 -0.19673466749E+02  0.35559105625E+02  0.41800000000E+01 0.  1.
</event>
<event>
11    1  0.7157190E-009  0.1571719E+03  0.7561462E-02  0.1089768E+00
         22   -1    0    0    0    0  0.00000000000E+00  0.00000000000E+00  0.64585759255E+03  0.64585759255E+03  0.00000000000E+00 0. -1.
         22   -1    0    0    0    0 -0.00000000000E+00 -0.00000000000E+00 -0.32008985201E+03  0.32008985201E+03  0.00000000000E+00 0.  1.
        -24    2    1    2    0    0  0.91187879499E+02  0.65300596869E+01 -0.25584664347E+03  0.28369799538E+03  0.81665026562E+02 0.  0.
         25    2    1    2    0    0 -0.15811289502E+03 -0.20894743102E+01  0.19008787439E+03  0.27710089556E+03  0.12508977918E+03 0.  0.
         24    2    1    2    0    0  0.66925015521E+02 -0.44405853767E+01  0.39152650962E+03  0.40514855363E+03  0.79709888135E+02 0.  0.
        -11    1    5    5    0    0  0.13150335334E+02  0.25030853620E+02  0.24036873005E+03  0.24202603442E+03  0.00000000000E+00 0.  1.
         12    1    5    5    0    0  0.53774680187E+02 -0.29471438997E+02  0.15115777957E+03  0.16312251920E+03  0.00000000000E+00 0. -1.
         13    1    3    3    0    0 -0.76560815876E+01  0.70312270190E+01 -0.11074509768E+01  0.10453716389E+02  0.00000000000E+00 0. -1.
        -14    1    3    3    0    0  0.98843961086E+02 -0.50116733215E+00 -0.25473919249E+03  0.27324427899E+03  0.00000000000E+00 0.  1.
          5    1    4    4  501    0 -0.12501730217E+03 -0.54054877813E+02  0.10530975226E+03  0.17221751356E+03  0.41800000000E+01 0. -1.
         -5    1    4    4    0  501 -0.33095592853E+02  0.51965403503E+02  0.84778122130E+02  0.10488338200E+03  0.41800000000E+01 0. -1.
</event>
<event>
11    1  0.7157190E-009  0.1496894E+03  0.7561462E-02  0.1097197E+00
         22   -1    0    0    0    0  0.00000000000E+00  0.00000000000E+00  0.10810041910E+03  0.10810041910E+03  0.00000000000E+00 0.  1.
         22   -1    0    0    0    0 -0.00000000000E+00 -0.00000000000E+00 -0.13722680819E+04  0.13722680819E+04  0.00000000000E+00 0. -1.
         24    2    1    2    0    0  0.48658803550E+02  0.76351470941E+02 -0.80050554979E+03  0.80977209713E+03  0.82002974064E+02 0.  0.
         25    2    1    2    0    0 -0.74420805628E+02 -0.22808515588E+02 -0.53013591078E+03  0.55022733231E+03  0.12508936257E+03 0.  0.
        -24    2    1    2    0    0  0.25762002078E+02 -0.53542955353E+02  0.66473797783E+02  0.12036907156E+03  0.80866672849E+02 0.  0.
        -13    1    3    3    0    0  0.40383251914E+01 -0.59094581191E+01 -0.48825602916E+01  0.86642461076E+01  0.00000000000E+00 0.  1.
         14    1    3    3    0    0  0.44620478358E+02  0.82260929060E+02 -0.79562298950E+03  0.80110785102E+03  0.00000000000E+00 0. -1.
         13    1    5    5    0    0 -0.27106341669E+01 -0.47677390541E+02 -0.67844173379E-01  0.47754431304E+02  0.00000000000E+00 0. -1.
        -14    1    5    5    0    0  0.28472636245E+02 -0.58655648121E+01  0.66541641956E+02  0.72614640256E+02  0.00000000000E+00 0.  1.
          5    1    4    4  501    0 -0.10543370985E+03 -0.30968839551E+01 -0.32290040800E+03  0.33971753523E+03  0.41800000000E+01 0.  1.
         -5    1    4    4    0  501  0.31012904219E+02 -0.19711631633E+02 -0.20723550279E+03  0.21050979708E+03  0.41800000000E+01 0.  1.
</event>
<event>
11    1  0.7157190E-009  0.1482044E+03  0.7561462E-02  0.1098728E+00
         22   -1    0    0    0    0  0.00000000000E+00  0.00000000000E+00  0.29385796948E+04  0.29385796948E+04  0.00000000000E+00 0. -1.
         22   -1    0    0    0    0 -0.00000000000E+00 -0.00000000000E+00 -0.79521598075E+03  0.79521598075E+03  0.00000000000E+00 0. -1.
         24    2    1    2    0    0 -0.14883920742E+02  0.19154864121E+02 -0.78224920811E+03  0.78652989655E+03  0.78275249308E+02 0.  0.
         25    2    1    2    0    0 -0.51134843150E+02 -0.63675612162E+02  0.58045551562E+03  0.59937080344E+03  0.12508956242E+03 0.  0.
        -24    2    1    2    0    0  0.66018763892E+02  0.44520748040E+02  0.23451574066E+04  0.23478949756E+04  0.80665858087E+02 0.  0.
        -11    1    3    3    0    0 -0.25469942005E+02  0.32509391572E+02 -0.20974831512E+03  0.21377542933E+03  0.00000000000E+00 0.  1.
         12    1    3    3    0    0  0.10586021263E+02 -0.13354527451E+02 -0.57250089299E+03  0.57275446722E+03  0.00000000000E+00 0. -1.
         11    1    5    5    0    0  0.36365452937E+02  0.54961446499E+02  0.20517519302E+04  0.20528100716E+04  0.00000000000E+00 0. -1.
        -12    1    5    5    0    0  0.29653310955E+02 -0.10440698459E+02  0.29340547634E+03  0.29508490403E+03  0.00000000000E+00 0.  1.
          5    1    4    4  501    0 -0.90417603868E+02 -0.57273839242E+02  0.46495897279E+03  0.47713724916E+03  0.41800000000E+01 0. -1.
         -5    1    4    4    0  501  0.39282760719E+02 -0.64017729202E+01  0.11549654283E+03  0.12223355428E+03  0.41800000000E+01 0. -1.
</event>
<event>
11    1  0.7157190E-009  0.1302501E+03  0.7561462E-02  0.1118962E+00
         22   -1    0    0    0    0  0.00000000000E+00  0.00000000000E+00  0.17995052255E+03  0.17995052255E+03  0.00000000000E+00 0. -1.
         22   -1    0    0    0    0 -0.00000000000E+00 -0.00000000000E+00 -0.22374823649E+03  0.22374823649E+03  0.00000000000E+00 0. -1.
        -24    2    1    2    0    0 -0.38328131807E+02 -0.89762003280E+01 -0.93949937243E+02  0.13040765045E+03  0.81424484810E+02 0.  0.
         25    2    1    2    0    0 -0.38287851170E+01  0.13802918224E+02 -0.50188165631E+02  0.13554436386E+03  0.12509293528E+03 0.  0.
         24    2    1    2    0    0  0.42156916924E+02 -0.48267178960E+01  0.10034038894E+03  0.13774674474E+03  0.84293945127E+02 0.  0.
        -13    1    5    5    0    0  0.29530842543E+02  0.74278855813E+01 -0.50770036609E+01  0.30871023820E+02  0.00000000000E+00 0.  1.
         14    1    5    5    0    0  0.12626074380E+02 -0.12254603477E+02  0.10541739260E+03  0.10687572092E+03  0.00000000000E+00 0. -1.
         11    1    3    3    0    0 -0.37139122052E+02 -0.29148327933E+02 -0.98910711649E+02  0.10960049401E+03  0.00000000000E+00 0. -1.
        -12    1    3    3    0    0 -0.11890097543E+01  0.20172127605E+02  0.49607744054E+01  0.20807156437E+02  0.00000000000E+00 0.  1.
          5    1    4    4  501    0  0.36468389768E+02  0.24543086786E+02 -0.74857475530E+02  0.86910417120E+02  0.41800000000E+01 0.  1.
         -5    1    4    4    0  501 -0.40297174885E+02 -0.10740168562E+02  0.24669309900E+02  0.48633946738E+02  0.41800000000E+01 0.  1.
</event>
<event>
11    1  0.7157190E-009  0.1591595E+03  0.7561462E-02  0.1087870E+00
         22   -1    0    0    0    0  0.00000000000E+00  0.00000000000E+00  0.17673034729E+04  0.17673034729E+04  0.00000000000E+00 0.  1.
         22   -1    0    0    0    0 -0.00000000000E+00 -0.00000000000E+00 -0.76686153406E+03  0.76686153406E+03  0.00000000000E+00 0.  1.
        -24    2    1    2    0    0  0.55792701196E+02  0.25289745992E+02 -0.73219524504E+03  0.73912363145E+03  0.80258762416E+02 0.  0.
         25    2    1    2    0    0 -0.14896891230E+03 -0.32450086096E+02  0.31235968460E+03  0.36940559527E+03  0.12508867389E+03 0.  0.
         24    2    1    2    0    0  0.93176211103E+02  0.71603401035E+01  0.14202774992E+04  0.14256357802E+04  0.80722525650E+02 0.  0.
        -11    1    5    5    0    0  0.49833610589E+02  0.16330956063E+02  0.11888498352E+04  0.11900058905E+04  0.00000000000E+00 0.  1.
         12    1    5    5    0    0  0.43342600514E+02 -0.91706159596E+01  0.23142766408E+03  0.23562988969E+03  0.00000000000E+00 0. -1.
         13    1    3    3    0    0  0.86774245226E+00  0.20234195264E+02 -0.40982600084E+02  0.45713774123E+02  0.00000000000E+00 0. -1.
        -14    1    3    3    0    0  0.54924958744E+02  0.50555507285E+01 -0.69121264496E+03  0.69340985733E+03  0.00000000000E+00 0.  1.
          5    1    4    4  501    0  0.77644682990E+00 -0.22139947277E+02  0.13566455889E+03  0.13752499800E+03  0.41800000000E+01 0. -1.
         -5    1    4    4    0  501 -0.14974535913E+03 -0.10310138819E+02  0.17669512570E+03  0.23188059727E+03  0.41800000000E+01 0. -1.
</event>
<event>
11    1  0.7157190E-009  0.1846196E+03  0.7561462E-02  0.1065966E+00
         22   -1    0    0    0    0  0.00000000000E+00  0.00000000000E+00  0.74532870022E+03  0.74532870022E+03  0.00000000000E+00 0.  1.
         22   -1    0    0    0    0 -0.00000000000E+00 -0.00000000000E+00 -0.63789142231E+03  0.63789142231E+03  0.00000000000E+00 0.  1.
        -24    2    1    2    0    0  0.15382027447E+02 -0.48476577789E+02 -0.54269775607E+03  0.55202368573E+03  0.87308131376E+02 0.  0.
         25    2    1    2    0    0 -0.73686823120E+02 -0.78698845927E+02  0.41961585124E+01  0.16519123244E+03  0.12508908536E+03 0.  0.
         24    2    1    2    0    0  0.58304795673E+02  0.12717542372E+03  0.64593887546E+03  0.66600520436E+03  0.82175810343E+02 0.  0.
        -11    1    5    5    0    0  0.74229666057E+02  0.10594342810E+03  0.59099558686E+03  0.60498746844E+03  0.00000000000E+00 0.  1.
         12    1    5    5    0    0 -0.15924870384E+02  0.21231995613E+02  0.54943288607E+02  0.61017735925E+02  0.00000000000E+00 0. -1.
         11    1    3    3    0    0  0.26660587720E+02  0.19045080377E+01 -0.50605102896E+02  0.57230154006E+02  0.00000000000E+00 0. -1.
        -12    1    3    3    0    0 -0.11278560273E+02 -0.50381085826E+02 -0.49209265317E+03  0.49479353172E+03  0.00000000000E+00 0.  1.
          5    1    4    4  501    0 -0.91722672973E+02 -0.89762789323E+02  0.29695083695E+02  0.13179407225E+03  0.41800000000E+01 0. -1.
         -5    1    4    4    0  501  0.18035849853E+02  0.11063943396E+02 -0.25498925183E+02  0.33397160191E+02  0.41800000000E+01 0. -1.
</event>
<event>
11    1  0.7157190E-009  0.1393819E+03  0.7561462E-02  0.1108251E+00
         22   -1    0    0    0    0  0.00000000000E+00  0.00000000000E+00  0.14242576654E+04  0.14242576654E+04  0.00000000000E+00 0.  1.
         22   -1    0    0    0    0 -0.00000000000E+00 -0.00000000000E+00 -0.63992174217E+02  0.63992174217E+02  0.00000000000E+00 0. -1.
         24    2    1    2    0    0  0.59189057636E+02 -0.19382582155E+02 -0.38138404804E+01  0.10126443317E+03  0.79755319647E+02 0.  0.
         25    2    1    2    0    0 -0.27614960102E+02  0.71965774056E+02  0.65454708306E+03  0.67083572689E+03  0.12508808850E+03 0.  0.
        -24    2    1    2    0    0 -0.31574097534E+02 -0.52583191901E+02  0.70953224861E+03  0.71614967955E+03  0.75315576066E+02 0.  0.
        -13    1    3    3    0    0 -0.19079737735E+02 -0.31963373649E+01 -0.86540400715E+01  0.21193050138E+02  0.00000000000E+00 0.  1.
         14    1    3    3    0    0  0.78268795371E+02 -0.16186244790E+02  0.48401995912E+01  0.80071383036E+02  0.00000000000E+00 0. -1.
         13    1    5    5    0    0  0.11608200439E+02  0.13580411936E+02  0.15224439822E+03  0.15328905602E+03  0.00000000000E+00 0. -1.
        -14    1    5    5    0    0 -0.43182297974E+02 -0.66163603837E+02  0.55728785039E+03  0.56286062353E+03  0.00000000000E+00 0.  1.
          5    1    4    4  501    0  0.10019172715E+02  0.70033852243E+01  0.97869052058E+00  0.12956136061E+02  0.41800000000E+01 0. -1.
         -5    1    4    4    0  501 -0.37634132816E+02  0.64962388832E+02  0.65356839253E+03  0.65787959083E+03  0.41800000000E+01 0. -1.
</event>
<event>
11    1  0.7157190E-009  0.2417455E+03  0.7561462E-02  0.1028391E+00
         22   -1    0    0    0    0  0.00000000000E+00  0.00000000000E+00  0.24324907654E+03  0.24324907654E+03  0.00000000000E+00 0.  1.
         22   -1    0    0    0    0 -0.00000000000E+00 -0.00000000000E+00 -0.10933856219E+04  0.10933856219E+04  0.00000000000E+00 0.  1.
         24    2    1    2    0    0  0.21417057580E+03 -0.51175260179E+02 -0.80029069398E+03  0.83394735689E+03  0.80715899290E+02 0.  0.
         25    2    1    2    0    0 -0.17882980101E+03 -0.50432639125E+02 -0.20070914585E+03  0.30075851157E+03  0.12509185518E+03 0.  0.
        -24    2    1    2    0    0 -0.35340774787E+02  0.10160789930E+03  0.15086329448E+03  0.20192882998E+03  0.80264457854E+02 0.  0.
        -13    1    3    3    0    0  0.21065648479E+03 -0.64471555675E+02 -0.73930760881E+03  0.77143274270E+03  0.00000000000E+00 0.  1.
         14    1    3    3    0    0  0.35140910107E+01  0.13296295496E+02 -0.60983085175E+02  0.62514614188E+02  0.00000000000E+00 0. -1.
         13    1    5    5    0    0 -0.34307776530E+02  0.82738810227E+02  0.56969065568E+02  0.10615181901E+03  0.00000000000E+00 0. -1.
        -14    1    5    5    0    0 -0.10329982574E+01  0.18869089077E+02  0.93894228908E+02  0.95777010970E+02  0.00000000000E+00 0.  1.
          5    1    4    4  501    0 -0.17150713936E+03 -0.18271472301E+02 -0.11116372635E+03  0.20523984021E+03  0.41800000000E+01 0. -1.
         -5    1    4    4    0  501 -0.73226616483E+01 -0.32161166824E+02 -0.89545419494E+02  0.95518671355E+02  0.41800000000E+01 0. -1.
</event>
<event>
11    1  0.7157190E-009  0.1593730E+03  0.7561462E-02  0.1087668E+00
         22   -1    0    0    0    0  0.00000000000E+00  0.00000000000E+00  0.21567959587E+04  0.21567959587E+04  0.00000000000E+00 0.  1.
         22   -1    0    0    0    0 -0.00000000000E+00 -0.00000000000E+00 -0.43255243044E+03  0.43255243044E+03  0.00000000000E+00 0.  1.
        -24    2    1    2    0    0  0.33782083724E+02 -0.13995189098E+02 -0.37991129458E+03  0.39000178542E+03  0.80197920079E+02 0.  0.
         25    2    1    2    0    0 -0.96175068074E+02 -0.61944462240E+02  0.11219052797E+03  0.20327534787E+03  0.12508953739E+03 0.  0.
         24    2    1    2    0    0  0.62392984349E+02  0.75939651338E+02  0.19919642949E+04  0.19960712559E+04  0.81969452818E+02 0.  0.
        -13    1    5    5    0    0  0.77598480786E+00  0.28253097650E+02  0.11889496065E+04  0.11892855025E+04  0.00000000000E+00 0.  1.
         14    1    5    5    0    0  0.61616999541E+02  0.47686553687E+02  0.80301468847E+03  0.80678575342E+03  0.00000000000E+00 0. -1.
         11    1    3    3    0    0  0.15505358777E+02 -0.10102781834E+02 -0.13002422089E+02  0.22617367923E+02  0.00000000000E+00 0. -1.
        -12    1    3    3    0    0  0.18276724947E+02 -0.38924072642E+01 -0.36690887249E+03  0.36738441750E+03  0.00000000000E+00 0.  1.
          5    1    4    4  501    0 -0.69628420419E+02  0.12454595281E+02  0.10101121892E+03  0.12338546357E+03  0.41800000000E+01 0. -1.
         -5    1    4    4    0  501 -0.26546647654E+02 -0.74399057521E+02  0.11179309047E+02  0.79889884293E+02  0.41800000000E+01 0. -1.
</event>
<event>
11    1  0.7157190E-009  0.1332037E+03  0.7561462E-02  0.1115394E+00
         22   -1    0    0    0    0  0.00000000000E+00  0.00000000000E+00  0.44961242532E+03  0.44961242532E+03  0.00000000000E+00 0.  1.
         22   -1    0    0    0    0 -0.00000000000E+00 -0.00000000000E+00 -0.11244667692E+04  0.11244667692E+04  0.00000000000E+00 0. -1.
         24    2    1    2    0    0  0.44963202874E+02 -0.19131396307E+02 -0.88116092612E+03  0.88710634370E+03  0.90140930625E+02 0.  0.
         25    2    1    2    0    0 -0.18477972910E+02  0.25961975386E+02 -0.21843311439E+03  0.25372070803E+03  0.12508282285E+03 0.  0.
        -24    2    1    2    0    0 -0.26485229964E+02 -0.68305790782E+01  0.42473969661E+03  0.43325214281E+03  0.80965950629E+02 0.  0.
        -11    1    3    3    0    0  0.19412467585E+02 -0.54505931872E+02 -0.56337905802E+03  0.56634239071E+03  0.00000000000E+00 0.  1.
         12    1    3    3    0    0  0.25550735290E+02  0.35374535564E+02 -0.31778186810E+03  0.32076395299E+03  0.00000000000E+00 0. -1.
         11    1    5    5    0    0 -0.24872263367E+02 -0.19973012000E+02  0.57354559492E+02  0.65628470864E+02  0.00000000000E+00 0. -1.
        -12    1    5    5    0    0 -0.16129665970E+01  0.13142432922E+02  0.36738513712E+03  0.36762367195E+03  0.00000000000E+00 0.  1.
          5    1    4    4  501    0  0.38176716022E+02 -0.16860491535E+02 -0.27991949857E+02  0.50425781877E+02  0.41800000000E+01 0. -1.
         -5    1    4    4    0  501 -0.56654688932E+02  0.42822466921E+02 -0.19044116454E+03  0.20329492616E+03  0.41800000000E+01 0. -1.
</event>
<event>
11    1  0.7157190E-009  0.1398779E+03  0.7561462E-02  0.1107695E+00
         22   -1    0    0    0    0  0.00000000000E+00  0.00000000000E+00  0.12470108985E+03  0.12470108985E+03  0.00000000000E+00 0. -1.
         22   -1    0    0    0    0 -0.00000000000E+00 -0.00000000000E+00 -0.12276136330E+04  0.12276136330E+04  0.00000000000E+00 0.  1.
         24    2    1    2    0    0  0.55206524682E+01 -0.40801914688E+02 -0.65462886026E+03  0.66094597849E+03  0.81334912261E+02 0.  0.
         25    2    1    2    0    0  0.57292179705E+02  0.40396227219E+02 -0.53684476061E+03  0.55566528407E+03  0.12508941559E+03 0.  0.
        -24    2    1    2    0    0 -0.62812832173E+02  0.40568746829E+00  0.88561077745E+02  0.13570346027E+03  0.81404841192E+02 0.  0.
        -11    1    3    3    0    0 -0.92800878154E+01 -0.47542449861E+02 -0.62712901788E+03  0.62899698699E+03  0.00000000000E+00 0.  1.
         12    1    3    3    0    0  0.14800740284E+02  0.67405351734E+01 -0.27499842380E+02  0.31948991507E+02  0.00000000000E+00 0. -1.
         11    1    5    5    0    0 -0.64780129565E+02  0.28466266292E+02  0.78852345641E+02  0.10594567436E+03  0.00000000000E+00 0. -1.
        -12    1    5    5    0    0  0.19672973915E+01 -0.28060578824E+02  0.97087321039E+01  0.29757785906E+02  0.00000000000E+00 0.  1.
          5    1    4    4  501    0  0.43348199293E+02 -0.24910249603E+02 -0.83526748840E+02  0.97436015359E+02  0.41800000000E+01 0. -1.
         -5    1    4    4    0  501  0.13943980412E+02  0.65306476822E+02 -0.45331801177E+03  0.45822926871E+03  0.41800000000E+01 0. -1.
</event>
<event>
11    1  0.7157190E-009  0.1647165E+03  0.7561462E-02  0.1082723E+00
         22   -1    0    0    0    0  0.00000000000E+00  0.00000000000E+00  0.16073757410E+04  0.16073757410E+04  0.00000000000E+00 0. -1.
         22   -1    0    0    0    0 -0.00000000000E+00 -0.00000000000E+00 -0.85389152973E+03  0.85389152973E+03  0.00000000000E+00 0. -1.
         24    2    1    2    0    0  0.29683094737E+02  0.95693476993E+01 -0.73996333258E+03  0.74468098911E+03  0.77661981976E+02 0.  0.
         25    2    1    2    0    0 -0.33815394509E+02 -0.11637172110E+03 -0.38883859280E+02  0.17845254419E+03  0.12508995818E+03 0.  0.
        -24    2    1    2    0    0  0.41322997723E+01  0.10680237340E+03  0.15323314031E+04  0.15381337374E+04  0.79950249043E+02 0.  0.
        -13    1    3    3    0    0  0.16382538958E+02 -0.33625604520E+02 -0.39561146503E+03  0.39737576691E+03  0.00000000000E+00 0.  1.
         14    1    3    3    0    0  0.13300555779E+02  0.43194952219E+02 -0.34435186755E+03  0.34730522220E+03  0.00000000000E+00 0. -1.
         11    1    5    5    0    0 -0.30943112994E+02  0.54753683531E+02  0.50749239924E+03  0.51137459595E+03  0.00000000000E+00 0. -1.
        -12    1    5    5    0    0  0.35075412767E+02  0.52048689869E+02  0.10248390039E+04  0.10267591415E+04  0.00000000000E+00 0.  1.
          5    1    4    4  501    0 -0.49459807323E+02  0.64329649991E+01 -0.15505284754E+02  0.52397918226E+02  0.41800000000E+01 0. -1.
         -5    1    4    4    0  501  0.15644412814E+02 -0.12280468610E+03 -0.23378574525E+02  0.12605462596E+03  0.41800000000E+01 0. -1.
</event>
<event>
11    1  0.7157190E-009  0.1437753E+03  0.7561462E-02  0.1103414E+00
         22   -1    0    0    0    0  0.00000000000E+00  0.00000000000E+00  0.25201811149E+03  0.25201811149E+03  0.00000000000E+00 0. -1.
         22   -1    0    0    0    0 -0.00000000000E+00 -0.00000000000E+00 -0.10705394038E+04  0.10705394038E+04  0.00000000000E+00 0. -1.
        -24    2    1    2    0    0 -0.98348855310E+01 -0.31197625160E+02 -0.90909376299E+03  0.91287490483E+03  0.76283059488E+02 0.  0.
         25    2    1    2    0    0  0.21952530476E+02 -0.41170546019E+02 -0.11525980437E+03  0.17637851541E+03  0.12509049020E+03 0.  0.
         24    2    1    2    0    0 -0.12117644945E+02  0.72368171178E+02  0.20583227504E+03  0.23330409506E+03  0.81730568365E+02 0.  0.
        -13    1    5    5    0    0 -0.83467015265E+01 -0.67731716603E+01 -0.19532651676E+01  0.10925132746E+02  0.00000000000E+00 0.  1.
         14    1    5    5    0    0 -0.37709434188E+01  0.79141342839E+02  0.20778554021E+03  0.22237896232E+03  0.00000000000E+00 0. -1.
         11    1    3    3    0    0 -0.92722128896E+01 -0.32088838596E+02 -0.91050281643E+03  0.91111527603E+03  0.00000000000E+00 0. -1.
        -12    1    3    3    0    0 -0.56267264134E+00  0.89121343621E+00  0.14090534402E+01  0.17596287925E+01  0.00000000000E+00 0.  1.
          5    1    4    4  501    0  0.43616836951E+02 -0.11287773544E+02  0.94763706504E+01  0.46228955190E+02  0.41800000000E+01 0.  1.
         -5    1    4    4    0  501 -0.21664306475E+02 -0.29882772475E+02 -0.12473617502E+03  0.13014956022E+03  0.41800000000E+01 0.  1.
</event>
<event>
11    1  0.7157190E-009  0.2659499E+03  0.7561462E-02  0.1015730E+00
         22   -1    0    0    0    0  0.00000000000E+00  0.00000000000E+00  0.21974713773E+03  0.21974713773E+03  0.00000000000E+00 0. -1.
         22   -1    0    0    0    0 -0.00000000000E+00 -0.00000000000E+00 -0.17189661157E+04  0.17189661157E+04  0.00000000000E+00 0.  1.
         24    2    1    2    0    0 -0.10434948248E+02 -0.16969875182E+02 -0.13818482501E+04  0.13842953158E+04  0.79825247341E+02 0.  0.
         25    2    1    2    0    0 -0.22563174924E+03 -0.19577955004E+02 -0.15147003321E+03  0.29980633298E+03  0.12509070208E+03 0.  0.
        -24    2    1    2    0    0  0.23606669749E+03  0.36547830186E+02  0.34099305326E+02  0.25461160470E+03  0.81247012697E+02 0.  0.
        -11    1    3    3    0    0 -0.39969415499E+02 -0.27398925868E+02 -0.99586502666E+03  0.99704333238E+03  0.00000000000E+00 0.  1.
         12    1    3    3    0    0  0.29534467251E+02  0.10429050686E+02 -0.38598322345E+03  0.38725198339E+03  0.00000000000E+00 0. -1.
         13    1    5    5    0    0  0.96553559394E+02 -0.15878095187E+02  0.39385930502E+02  0.10547964382E+03  0.00000000000E+00 0. -1.
        -14    1    5    5    0    0  0.13951313809E+03  0.52425925374E+02 -0.52866251763E+01  0.14913196089E+03  0.00000000000E+00 0.  1.
          5    1    4    4  501    0 -0.89894936362E+02 -0.68862112561E+02 -0.79357983070E+02  0.13834107129E+03  0.41800000000E+01 0.  1.
         -5    1    4    4    0  501 -0.13573681288E+03  0.49284157556E+02 -0.72112050143E+02  0.16146526169E+03  0.41800000000E+01 0.  1.
</event>
<event>
11    1  0.7157190E-009  0.1283504E+03  0.7561462E-02  0.1121313E+00
         22   -1    0    0    0    0  0.00000000000E+00  0.00000000000E+00  0.78903716985E+03  0.78903716985E+03  0.00000000000E+00 0. -1.
         22   -1    0    0    0    0 -0.00000000000E+00 -0.00000000000E+00 -0.23806434446E+03  0.23806434446E+03  0.00000000000E+00 0.  1.
        -24    2    1    2    0    0 -0.19777406268E+02 -0.21844228336E+02 -0.21040397490E+03  0.22687722003E+03  0.79593493462E+02 0.  0.
         25    2    1    2    0    0 -0.10196609549E+01  0.10898230049E+02  0.22671813651E+03  0.25916884635E+03  0.12509023291E+03 0.  0.
         24    2    1    2    0    0  0.20797067223E+02  0.10945998287E+02  0.53465866379E+03  0.54105544793E+03  0.79553617710E+02 0.  0.
        -13    1    5    5    0    0 -0.23265707425E+02 -0.13833056233E+01  0.35136668992E+03  0.35213883266E+03  0.00000000000E+00 0.  1.
         14    1    5    5    0    0  0.44062774648E+02  0.12329303911E+02  0.18329197386E+03  0.18891661528E+03  0.00000000000E+00 0. -1.
         13    1    3    3    0    0 -0.20370348341E+02 -0.23827835913E+02 -0.21617286442E+02  0.38079179730E+02  0.00000000000E+00 0. -1.
        -14    1    3    3    0    0  0.59294207265E+00  0.19836075765E+01 -0.18878668846E+03  0.18879804030E+03  0.00000000000E+00 0.  1.
          5    1    4    4  501    0  0.17517727746E+02 -0.38300057421E+02  0.21868742111E+02  0.47639053993E+02  0.41800000000E+01 0. -1.
         -5    1    4    4    0  501 -0.18537388701E+02  0.49198287470E+02  0.20484939440E+03  0.21152979236E+03  0.41800000000E+01 0. -1.
</event>
<event>
11    1  0.7157190E-009  0.1490649E+03  0.7561462E-02  0.1097838E+00
         22   -1    0    0    0    0  0.00000000000E+00  0.00000000000E+00  0.41206861613E+03  0.41206861613E+03  0.00000000000E+00 0. -1.
         22   -1    0    0    0    0 -0.00000000000E+00 -0.00000000000E+00 -0.69175368890E+03  0.69175368890E+03  0.00000000000E+00 0. -1.
        -24    2    1    2    0    0  0.37025750685E+02 -0.43882823449E+02 -0.59825565879E+03  0.60653853462E+03  0.81746879384E+02 0.  0.
         25    2    1    2    0    0 -0.11331433114E+03  0.28392793397E+02  0.12635668987E+02  0.17161762115E+03  0.12508660760E+03 0.  0.
         24    2    1    2    0    0  0.76288580451E+02  0.15490030051E+02  0.30593491705E+03  0.32566614926E+03  0.80014865929E+02 0.  0.
        -11    1    5    5    0    0  0.22010839638E+01 -0.20850349805E+02  0.23833238070E+02  0.31742795946E+02  0.00000000000E+00 0.  1.
         12    1    5    5    0    0  0.74087496487E+02  0.36340379856E+02  0.28210167898E+03  0.29392335332E+03  0.00000000000E+00 0. -1.
         13    1    3    3    0    0  0.17622370124E+02 -0.60258400224E+02 -0.53014201977E+03  0.53384659206E+03  0.00000000000E+00 0. -1.
        -14    1    3    3    0    0  0.19403380561E+02  0.16375576776E+02 -0.68113639026E+02  0.72691942561E+02  0.00000000000E+00 0.  1.
          5    1    4    4  501    0  0.18135645768E+02  0.33656870058E+01  0.31175077428E+02  0.36463507087E+02  0.41800000000E+01 0. -1.
         -5    1    4    4    0  501 -0.13144997690E+03  0.25027106392E+02 -0.18539408441E+02  0.13515411406E+03  0.41800000000E+01 0. -1.
</event>
<event>
11    1  0.7157190E-009  0.1364126E+03  0.7561462E-02  0.1111632E+00
         22   -1    0    0    0    0  0.00000000000E+00  0.00000000000E+00  0.73673349196E+03  0.73673349196E+03  0.00000000000E+00 0.  1.
         22   -1    0    0    0    0 -0.00000000000E+00 -0.00000000000E+00 -0.17789285808E+04  0.17789285808E+04  0.00000000000E+00 0. -1.
        -24    2    1    2    0    0 -0.24256426630E+02  0.33500366892E+02 -0.10081961656E+04  0.10121383495E+04  0.79081485233E+02 0.  0.
         25    2    1    2    0    0 -0.27266346705E+02 -0.15537427009E+02 -0.75997414466E+03  0.77083904073E+03  0.12508901172E+03 0.  0.
         24    2    1    2    0    0  0.51522773334E+02 -0.17962939883E+02  0.72597522149E+03  0.73268468250E+03  0.82520048244E+02 0.  0.
        -11    1    5    5    0    0  0.29528929814E+02 -0.22586607442E+02  0.68452301071E+03  0.68553181161E+03  0.00000000000E+00 0.  1.
         12    1    5    5    0    0  0.21993843520E+02  0.46236675588E+01  0.41452210783E+02  0.47152870891E+02  0.00000000000E+00 0. -1.
         11    1    3    3    0    0 -0.13227217936E+02  0.49292276833E+02 -0.93680820458E+03  0.93819736730E+03  0.00000000000E+00 0. -1.
        -12    1    3    3    0    0 -0.11029208693E+02 -0.15791909941E+02 -0.71387961070E+02  0.73940982207E+02  0.00000000000E+00 0.  1.
          5    1    4    4  501    0 -0.69102821027E+02  0.14784093031E+02 -0.55112563330E+03  0.55565340399E+03  0.41800000000E+01 0. -1.
         -5    1    4    4    0  501  0.41836474322E+02 -0.30321520040E+02 -0.20884851136E+03  0.21518563674E+03  0.41800000000E+01 0. -1.
</event>
<event>
11    1  0.7157190E-009  0.1584044E+03  0.7561462E-02  0.1088588E+00
         22   -1    0    0    0    0  0.00000000000E+00  0.00000000000E+00  0.35653313757E+02  0.35653313757E+02  0.00000000000E+00 0. -1.
         22   -1    0    0    0    0 -0.00000000000E+00 -0.00000000000E+00 -0.29634181245E+04  0.29634181245E+04  0.00000000000E+00 0.  1.
        -24    2    1    2    0    0  0.21323984420E+02 -0.66965441015E+02 -0.13918411700E+04  0.13958820255E+04  0.79534293757E+02 0.  0.
         25    2    1    2    0    0  0.77503921613E+02  0.68142542932E+02 -0.14242024266E+04  0.14334052254E+04  0.12509086366E+03 0.  0.
         24    2    1    2    0    0 -0.98827906032E+02 -0.11771019176E+01 -0.11172121410E+03  0.16978418739E+03  0.81096855836E+02 0.  0.
        -11    1    5    5    0    0 -0.28705395044E+02  0.15788348738E+02 -0.87901558715E+02  0.93808078997E+02  0.00000000000E+00 0.  1.
         12    1    5    5    0    0 -0.70122510989E+02 -0.16965450656E+02 -0.23819655387E+02  0.75976108390E+02  0.00000000000E+00 0. -1.
         11    1    3    3    0    0  0.42859152923E+02 -0.57011543952E+02 -0.69784883529E+03  0.70148429780E+03  0.00000000000E+00 0. -1.
        -12    1    3    3    0    0 -0.21535168503E+02 -0.99538970630E+01 -0.69399233474E+03  0.69439772770E+03  0.00000000000E+00 0.  1.
          5    1    4    4  501    0  0.45943355361E+02 -0.25490399285E+02 -0.76637048853E+03  0.76818080583E+03  0.41800000000E+01 0.  1.
         -5    1    4    4    0  501  0.31560566252E+02  0.93632942217E+02 -0.65783193807E+03  0.66522441954E+03  0.41800000000E+01 0.  1.
</event>
<event>
11    1  0.7157190E-009  0.1561135E+03  0.7561462E-02  0.1090791E+00
         22   -1    0    0    0    0  0.00000000000E+00  0.00000000000E+00  0.13764812635E+03  0.13764812635E+03  0.00000000000E+00 0.  1.
         22   -1    0    0    0    0 -0.00000000000E+00 -0.00000000000E+00 -0.18329315669E+04  0.18329315669E+04  0.00000000000E+00 0.  1.
         24    2    1    2    0    0  0.82458808518E+02 -0.50461767374E+02 -0.16867366276E+04  0.16914369627E+04  0.80825137060E+02 0.  0.
         25    2    1    2    0    0  0.10792983158E+02  0.62679304719E+02 -0.49561588979E+02  0.14882405004E+03  0.12508822104E+03 0.  0.
        -24    2    1    2    0    0 -0.93251791676E+02 -0.12217537345E+02  0.41014776109E+02  0.13031868045E+03  0.80346634934E+02 0.  0.
        -13    1    3    3    0    0  0.14544388205E+02 -0.54062144968E+02 -0.91415499779E+03  0.91586768408E+03  0.00000000000E+00 0.  1.
         14    1    3    3    0    0  0.67914420312E+02  0.36003775937E+01 -0.77258162985E+03  0.77556927865E+03  0.00000000000E+00 0. -1.
         11    1    5    5    0    0  0.97044807513E+00 -0.11718209500E+02 -0.16250333931E+02  0.20058204212E+02  0.00000000000E+00 0. -1.
        -12    1    5    5    0    0 -0.94222239751E+02 -0.49932784566E+00  0.57265110041E+02  0.11026047624E+03  0.00000000000E+00 0.  1.
          5    1    4    4  501    0 -0.18002127836E+01  0.90158484577E+02  0.40758491673E+00  0.90274202477E+02  0.41800000000E+01 0.  1.
         -5    1    4    4    0  501  0.12593195942E+02 -0.27479179858E+02 -0.49969173896E+02  0.58549847562E+02  0.41800000000E+01 0. -1.
</event>
<event>
11    1  0.7157190E-009  0.1406556E+03  0.7561462E-02  0.1106829E+00
         22   -1    0    0    0    0  0.00000000000E+00  0.00000000000E+00  0.28211030449E+03  0.28211030449E+03  0.00000000000E+00 0.  1.
         22   -1    0    0    0    0 -0.00000000000E+00 -0.00000000000E+00 -0.81602226935E+03  0.81602226935E+03  0.00000000000E+00 0. -1.
         24    2    1    2    0    0 -0.12736956135E+01 -0.41654039200E+02 -0.74209896058E+03  0.74917809541E+03  0.93916292847E+02 0.  0.
         25    2    1    2    0    0  0.26334234239E+02 -0.25854316528E+02  0.19407434531E+02  0.13185411123E+03  0.12508765150E+03 0.  0.
        -24    2    1    2    0    0 -0.25060538625E+02  0.67508355728E+02  0.18877956119E+03  0.21710036720E+03  0.79431971069E+02 0.  0.
        -13    1    3    3    0    0  0.13761448331E+02  0.27879791096E+02 -0.19264529676E+03  0.19513808079E+03  0.00000000000E+00 0.  1.
         14    1    3    3    0    0 -0.15035143944E+02 -0.69533830296E+02 -0.54945366382E+03  0.55404001462E+03  0.00000000000E+00 0. -1.
         11    1    5    5    0    0 -0.36501338684E+02  0.23594701534E+01  0.39567085029E+02  0.53883847699E+02  0.00000000000E+00 0. -1.
        -12    1    5    5    0    0  0.11440800058E+02  0.65148885575E+02  0.14921247616E+03  0.16321651950E+03  0.00000000000E+00 0.  1.
          5    1    4    4  501    0 -0.30791313440E+02 -0.42226926835E+02  0.42973933684E+02  0.67789746345E+02  0.41800000000E+01 0. -1.
         -5    1    4    4    0  501  0.57125547678E+02  0.16372610307E+02 -0.23566499153E+02  0.64064364885E+02  0.41800000000E+01 0. -1.
</event>
<event>
11    1  0.7157190E-009  0.1832152E+03  0.7561462E-02  0.1067071E+00
         22   -1    0    0    0    0  0.00000000000E+00  0.00000000000E+00  0.40535408940E+03  0.40535408940E+03  0.00000000000E+00 0. -1.
         22   -1    0    0    0    0 -0.00000000000E+00 -0.00000000000E+00 -0.98320999224E+03  0.98320999224E+03  0.00000000000E+00 0.  1.
         24    2    1    2    0    0  0.67064356463E+02 -0.12268480726E+03 -0.89405618688E+03  0.90846714224E+03  0.80167907458E+02 0.  0.
         25    2    1    2    0    0 -0.86354945882E+02  0.21165930242E+02  0.21065988496E+02  0.15490656598E+03  0.12508834890E+03 0.  0.
        -24    2    1    2    0    0  0.19290589419E+02  0.10151887702E+03  0.29513429555E+03  0.32519037342E+03  0.89254228602E+02 0.  0.
        -13    1    3    3    0    0  0.18021630352E+02 -0.27873019046E+02 -0.47041947998E+03  0.47158898577E+03  0.00000000000E+00 0.  1.
         14    1    3    3    0    0  0.49042726111E+02 -0.94811788213E+02 -0.42363670690E+03  0.43687815648E+03  0.00000000000E+00 0. -1.
         11    1    5    5    0    0 -0.30463045479E+02  0.65153972110E+02  0.19222080250E+03  0.20523614237E+03  0.00000000000E+00 0. -1.
        -12    1    5    5    0    0  0.49753634898E+02  0.36364904908E+02  0.10291349305E+03  0.11995423104E+03  0.00000000000E+00 0.  1.
          5    1    4    4  501    0 -0.10880171121E+03  0.35099941539E+02 -0.88920575872E+01  0.11474475738E+03  0.41800000000E+01 0.  1.
         -5    1    4    4    0  501  0.22446765328E+02 -0.13934011298E+02  0.29958046083E+02  0.40161808595E+02  0.41800000000E+01 0.  1.
</event>
<event>
11    1  0.7157190E-009  0.2248217E+03  0.7561462E-02  0.1038238E+00
         22   -1    0    0    0    0  0.00000000000E+00  0.00000000000E+00  0.49395914777E+03  0.49395914777E+03  0.00000000000E+00 0.  1.
         22   -1    0    0    0    0 -0.00000000000E+00 -0.00000000000E+00 -0.53476165265E+03  0.53476165265E+03  0.00000000000E+00 0.  1.
         24    2    1    2    0    0  0.13870992208E+03 -0.12621355850E+03 -0.39234703539E+03  0.44246732036E+03  0.81675140501E+02 0.  0.
         25    2    1    2    0    0 -0.13527047540E+03  0.12424647734E+03 -0.34840261315E+01  0.22224260727E+03  0.12507737365E+03 0.  0.
        -24    2    1    2    0    0 -0.34394466824E+01  0.19670811567E+01  0.35502855664E+03  0.36401087279E+03  0.80267928094E+02 0.  0.
        -13    1    3    3    0    0  0.11658252238E+03 -0.12173668576E+03 -0.27178601712E+03  0.31981079451E+03  0.00000000000E+00 0.  1.
         14    1    3    3    0    0  0.22127399699E+02 -0.44768727398E+01 -0.12056101828E+03  0.12265652586E+03  0.00000000000E+00 0. -1.
         13    1    5    5    0    0  0.31759100701E+02 -0.34862099278E+01  0.72265227893E+02  0.79013019810E+02  0.00000000000E+00 0. -1.
        -14    1    5    5    0    0 -0.35198547384E+02  0.54532910845E+01  0.28276332874E+03  0.28499785298E+03  0.00000000000E+00 0.  1.
          5    1    4    4  501    0 -0.14501365924E+03  0.11600933119E+03 -0.34058084781E+02  0.18885060717E+03  0.41800000000E+01 0. -1.
         -5    1    4    4    0  501  0.97431838415E+01  0.82371461456E+01  0.30574058649E+02  0.33392000094E+02  0.41800000000E+01 0. -1.
</event>
<event>
11    1  0.7157190E-009  0.1330062E+03  0.7561462E-02  0.1115630E+00
         22   -1    0    0    0    0  0.00000000000E+00  0.00000000000E+00  0.12177557278E+03  0.12177557278E+03  0.00000000000E+00 0.  1.
         22   -1    0    0    0    0 -0.00000000000E+00 -0.00000000000E+00 -0.24808831159E+04  0.24808831159E+04  0.00000000000E+00 0.  1.
         24    2    1    2    0    0  0.43369147744E+02  0.98006918776E+01 -0.22927682168E+04  0.22946931404E+04  0.82786329042E+02 0.  0.
         25    2    1    2    0    0 -0.72269758524E+02  0.63388538425E+01 -0.13516458600E+03  0.19793974793E+03  0.12509028514E+03 0.  0.
        -24    2    1    2    0    0  0.28900610780E+02 -0.16139545720E+02  0.68825259652E+02  0.11002580033E+03  0.79202462923E+02 0.  0.
        -13    1    3    3    0    0  0.55333845767E+02  0.34952490938E+02 -0.17270744108E+04  0.17283140720E+04  0.00000000000E+00 0.  1.
         14    1    3    3    0    0 -0.11964698023E+02 -0.25151799061E+02 -0.56569380599E+03  0.56637906841E+03  0.00000000000E+00 0. -1.
         13    1    5    5    0    0  0.29997947485E+02 -0.41757361450E+02  0.20563228605E+02  0.55375088797E+02  0.00000000000E+00 0. -1.
        -14    1    5    5    0    0 -0.10973367052E+01  0.25617815730E+02  0.48262031046E+02  0.54650711535E+02  0.00000000000E+00 0.  1.
          5    1    4    4  501    0 -0.94534744934E+02  0.29561702648E+02 -0.59521207324E+02  0.11563286204E+03  0.41800000000E+01 0.  1.
         -5    1    4    4    0  501  0.22264986410E+02 -0.23222848805E+02 -0.75643378680E+02  0.82306885888E+02  0.41800000000E+01 0.  1.
</event>
<event>
11    1  0.7157190E-009  0.1510819E+03  0.7561462E-02  0.1095778E+00
         22   -1    0    0    0    0  0.00000000000E+00  0.00000000000E+00  0.11072792083E+04  0.11072792083E+04  0.00000000000E+00 0. -1.
         22   -1    0    0    0    0 -0.00000000000E+00 -0.00000000000E+00 -0.10413506124E+04  0.10413506124E+04  0.00000000000E+00 0. -1.
        -24    2    1    2    0    0 -0.54242309407E+02 -0.76707092125E+02 -0.57182615936E+03  0.58478664058E+03  0.78511479136E+02 0.  0.
         25    2    1    2    0    0  0.37663436009E+02  0.57819028911E+02 -0.45036138219E+03  0.47247800088E+03  0.12509401358E+03 0.  0.
         24    2    1    2    0    0  0.16578873397E+02  0.18888063214E+02  0.10881161374E+04  0.10913651793E+04  0.80309452255E+02 0.  0.
        -11    1    5    5    0    0 -0.16346951584E+02  0.29852442553E+02  0.22576730517E+03  0.22831834625E+03  0.00000000000E+00 0.  1.
         12    1    5    5    0    0  0.32925824981E+02 -0.10964379339E+02  0.86234883227E+03  0.86304683307E+03  0.00000000000E+00 0. -1.
         13    1    3    3    0    0 -0.11594150724E+02 -0.78599621757E+02 -0.39088068186E+03  0.39887345402E+03  0.00000000000E+00 0. -1.
        -14    1    3    3    0    0 -0.42648158682E+02  0.18925296326E+01 -0.18094547750E+03  0.18591318656E+03  0.00000000000E+00 0.  1.
          5    1    4    4  501    0  0.44117140311E+02  0.76567310570E+02 -0.44164631258E+03  0.45041959653E+03  0.41800000000E+01 0. -1.
         -5    1    4    4    0  501 -0.64537043019E+01 -0.18748281659E+02 -0.87150696039E+01  0.22058404353E+02  0.41800000000E+01 0. -1.
</event>
<event>
11    1  0.7157190E-009  0.1683611E+03  0.7561462E-02  0.1079467E+00
         22   -1    0    0    0    0  0.00000000000E+00  0.00000000000E+00  0.37010517368E+04  0.37010517368E+04  0.00000000000E+00 0.  1.
         22   -1    0    0    0    0 -0.00000000000E+00 -0.00000000000E+00 -0.28431821227E+03  0.28431821227E+03  0.00000000000E+00 0.  1.
        -24    2    1    2    0    0  0.10329551764E+03  0.21766204573E+02 -0.15475417604E+03  0.20398880332E+03  0.80739366169E+02 0.  0.
         25    2    1    2    0    0 -0.14993770008E+03  0.57944993568E+02 -0.41037511867E+01  0.20372470380E+03  0.12509187815E+03 0.  0.
         24    2    1    2    0    0  0.46642182442E+02 -0.79711198141E+02  0.35755914517E+04  0.35776564419E+04  0.79006445936E+02 0.  0.
        -13    1    5    5    0    0  0.20710252255E+02 -0.76687281377E+02  0.32660838548E+04  0.32670496783E+04  0.00000000000E+00 0.  1.
         14    1    5    5    0    0  0.25931930187E+02 -0.30239167645E+01  0.30950759696E+03  0.31060676369E+03  0.00000000000E+00 0. -1.
         13    1    3    3    0    0 -0.99180215068E+01 -0.69763242372E+01 -0.30072412691E+01  0.12493188165E+02  0.00000000000E+00 0. -1.
        -14    1    3    3    0    0  0.11321353915E+03  0.28742528810E+02 -0.15174693478E+03  0.19149561515E+03  0.00000000000E+00 0.  1.
          5    1    4    4  501    0 -0.15266555453E+03  0.74903815347E+01 -0.67241713316E+00  0.15290782158E+03  0.41800000000E+01 0.  1.
         -5    1    4    4    0  501  0.27278544440E+01  0.50454612034E+02 -0.34313340535E+01  0.50816882222E+02  0.41800000000E+01 0.  1.
</event>
<event>
11    1  0.7157190E-009  0.1407203E+03  0.7561462E-02  0.1106757E+00
         22   -1    0    0    0    0  0.00000000000E+00  0.00000000000E+00  0.92461112217E+03  0.92461112217E+03  0.00000000000E+00 0. -1.
         22   -1    0    0    0    0 -0.00000000000E+00 -0.00000000000E+00 -0.26166319144E+03  0.26166319144E+03  0.00000000000E+00 0.  1.
         24    2    1    2    0    0  0.25247993549E+02 -0.59974216786E+02 -0.22761545093E+03  0.25052983990E+03  0.81988043762E+02 0.  0.
         25    2    1    2    0    0 -0.29112308575E+01  0.54929813942E+02  0.21221806843E+03  0.25240918753E+03  0.12509248442E+03 0.  0.
        -24    2    1    2    0    0 -0.22336762692E+02  0.50444028448E+01  0.67834531323E+03  0.68333528618E+03  0.79185683007E+02 0.  0.
        -11    1    3    3    0    0  0.54360712657E+02 -0.50103935778E+02 -0.15983273136E+03  0.17610222450E+03  0.00000000000E+00 0.  1.
         12    1    3    3    0    0 -0.29112719108E+02 -0.98702810086E+01 -0.67782719568E+02  0.74427615393E+02  0.00000000000E+00 0. -1.
         11    1    5    5    0    0 -0.39633435789E+02  0.72828261088E+00  0.63795975929E+03  0.63919010795E+03  0.00000000000E+00 0. -1.
        -12    1    5    5    0    0  0.17296673098E+02  0.43161202339E+01  0.40385553941E+02  0.44145178233E+02  0.00000000000E+00 0.  1.
          5    1    4    4  501    0 -0.86741741199E+01 -0.33215438901E+00 -0.15347862637E+02  0.18121283363E+02  0.41800000000E+01 0. -1.
         -5    1    4    4    0  501  0.57629432624E+01  0.55261968331E+02  0.22756593107E+03  0.23428790417E+03  0.41800000000E+01 0. -1.
</event>
<event>
11    1  0.7157190E-009  0.1256303E+03  0.7561462E-02  0.1124758E+00
         22   -1    0    0    0    0  0.00000000000E+00  0.00000000000E+00  0.32640233316E+03  0.32640233316E+03  0.00000000000E+00 0. -1.
         22   -1    0    0    0    0 -0.00000000000E+00 -0.00000000000E+00 -0.21832987893E+03  0.21832987893E+03  0.00000000000E+00 0.  1.
        -24    2    1    2    0    0 -0.66927287186E+01  0.12191608888E+02 -0.16858115688E+03  0.18842838550E+03  0.83019407745E+02 0.  0.
         25    2    1    2    0    0 -0.25081793774E+02  0.88845086132E+01  0.10523706712E+03  0.16561934770E+03  0.12508755799E+03 0.  0.
         24    2    1    2    0    0  0.31774522493E+02 -0.21076117501E+02  0.17141654399E+03  0.19068447889E+03  0.74317669023E+02 0.  0.
        -11    1    5    5    0    0 -0.18220425133E+02 -0.26217850329E+02  0.83807778509E+02  0.89683350219E+02  0.00000000000E+00 0.  1.
         12    1    5    5    0    0  0.49994947625E+02  0.51417328272E+01  0.87608765476E+02  0.10100112867E+03  0.00000000000E+00 0. -1.
         13    1    3    3    0    0  0.30763948001E+02 -0.12983885134E+02 -0.39710957425E+02  0.51884120012E+02  0.00000000000E+00 0. -1.
        -14    1    3    3    0    0 -0.37456676720E+02  0.25175494023E+02 -0.12887019945E+03  0.13654426549E+03  0.00000000000E+00 0.  1.
          5    1    4    4  501    0  0.14752696913E+02 -0.46333342662E+02  0.12293090378E+02  0.50329049062E+02  0.41800000000E+01 0. -1.
         -5    1    4    4    0  501 -0.39834490687E+02  0.55217851276E+02  0.92943976743E+02  0.11529029864E+03  0.41800000000E+01 0. -1.
</event>
<event>
11    1  0.7157190E-009  0.1492179E+03  0.7561462E-02  0.1097681E+00
         22   -1    0    0    0    0  0.00000000000E+00  0.00000000000E+00  0.29043287009E+03  0.29043287009E+03  0.00000000000E+00 0.  1.
         22   -1    0    0    0    0 -0.00000000000E+00 -0.00000000000E+00 -0.21607609046E+04  0.21607609046E+04  0.00000000000E+00 0. -1.
        -24    2    1    2    0    0 -0.34936619426E+02  0.13805096621E+02 -0.19411520125E+04  0.19431622129E+04  0.79981885184E+02 0.  0.
         25    2    1    2    0    0  0.11352901644E+03 -0.24033737880E+02 -0.17067167039E+03  0.24133452062E+03  0.12508826339E+03 0.  0.
         24    2    1    2    0    0 -0.78592397012E+02  0.10228641258E+02  0.24149564840E+03  0.26669704114E+03  0.80782260333E+02 0.  0.
        -13    1    5    5    0    0 -0.38895279529E+02 -0.57174748924E+01  0.20980790789E+03  0.21345934157E+03  0.00000000000E+00 0.  1.
         14    1    5    5    0    0 -0.39697117483E+02  0.15946116151E+02  0.31687740509E+02  0.53237699568E+02  0.00000000000E+00 0. -1.
         11    1    3    3    0    0 -0.40648928131E+02  0.42353345018E+02 -0.13952182427E+04  0.13964526795E+04  0.00000000000E+00 0. -1.
        -12    1    3    3    0    0  0.57123087052E+01 -0.28548248396E+02 -0.54593376977E+03  0.54670953342E+03  0.00000000000E+00 0.  1.
          5    1    4    4  501    0  0.13651514089E+03 -0.18845877839E+02 -0.11086838640E+03  0.17692038408E+03  0.41800000000E+01 0.  1.
         -5    1    4    4    0  501 -0.22986124448E+02 -0.51878600405E+01 -0.59803283992E+02  0.64414136532E+02  0.41800000000E+01 0.  1.
</event>
<event>
11    1  0.7157190E-009  0.1854597E+03  0.7561462E-02  0.1065310E+00
         22   -1    0    0    0    0  0.00000000000E+00  0.00000000000E+00  0.36315999341E+03  0.36315999341E+03  0.00000000000E+00 0.  1.
         22   -1    0    0    0    0 -0.00000000000E+00 -0.00000000000E+00 -0.18923847856E+04  0.18923847856E+04  0.00000000000E+00 0. -1.
        -24    2    1    2    0    0  0.10570422225E+03 -0.33327431292E+02 -0.12421368764E+04  0.12508206297E+04  0.96768423123E+02 0.  0.
         25    2    1    2    0    0 -0.22837012292E+03  0.86747567853E+02 -0.59755481746E+03  0.65756896484E+03  0.12508848900E+03 0.  0.
         24    2    1    2    0    0  0.12266590066E+03 -0.53420136561E+02  0.31046690161E+03  0.34715518452E+03  0.78907483583E+02 0.  0.
        -11    1    5    5    0    0  0.11207573580E+03 -0.68637955382E+02  0.29521761550E+03  0.32314947002E+03  0.00000000000E+00 0.  1.
         12    1    5    5    0    0  0.10590164867E+02  0.15217818821E+02  0.15249286113E+02  0.24005714497E+02  0.00000000000E+00 0. -1.
         11    1    3    3    0    0  0.10386311752E+03 -0.25855283383E+02 -0.12368765522E+04  0.12414989522E+04  0.00000000000E+00 0. -1.
        -12    1    3    3    0    0  0.18411047290E+01 -0.74721479088E+01 -0.52603241469E+01  0.93216774845E+01  0.00000000000E+00 0.  1.
          5    1    4    4  501    0 -0.10928596261E+03  0.67753748099E+01 -0.13848961038E+03  0.17659606992E+03  0.41800000000E+01 0. -1.
         -5    1    4    4    0  501 -0.11908416031E+03  0.79972193043E+02 -0.45906520708E+03  0.48097289492E+03  0.41800000000E+01 0. -1.
</event>
<event>
11    1  0.7157190E-009  0.1548872E+03  0.7561462E-02  0.1091987E+00
         22   -1    0    0    0    0  0.00000000000E+00  0.00000000000E+00  0.41195193800E+03  0.41195193800E+03  0.00000000000E+00 0.  1.
         22   -1    0    0    0    0 -0.00000000000E+00 -0.00000000000E+00 -0.77246141994E+03  0.77246141994E+03  0.00000000000E+00 0. -1.
        -24    2    1    2    0    0 -0.13238273384E+02 -0.12886194024E+02 -0.69054237235E+03  0.69497422263E+03  0.76151797216E+02 0.  0.
         25    2    1    2    0    0 -0.66092503314E+02  0.59493627900E+02  0.18049512123E+02  0.15453211770E+03  0.12508668897E+03 0.  0.
         24    2    1    2    0    0  0.79330776698E+02 -0.46607433876E+02  0.31198337830E+03  0.33490701761E+03  0.79771279841E+02 0.  0.
        -13    1    5    5    0    0  0.89569618036E+02 -0.49878862258E+02  0.30575242854E+03  0.32248281339E+03  0.00000000000E+00 0.  1.
         14    1    5    5    0    0 -0.10238841338E+02  0.32714283818E+01  0.62309497576E+01  0.12424204219E+02  0.00000000000E+00 0. -1.
         13    1    3    3    0    0 -0.19090092485E+02  0.12632761942E+02 -0.60686550320E+03  0.60729709145E+03  0.00000000000E+00 0. -1.
        -14    1    3    3    0    0  0.58518191000E+01 -0.25518955966E+02 -0.83676869151E+02  0.87677131176E+02  0.00000000000E+00 0.  1.
          5    1    4    4  501    0  0.28056798210E+02  0.51599299850E+02  0.57184402768E+01  0.59159484700E+02  0.41800000000E+01 0.  1.
         -5    1    4    4    0  501 -0.94149301524E+02  0.78943280506E+01  0.12331071846E+02  0.95372633002E+02  0.41800000000E+01 0.  1.
</event>
<event>
11    1  0.7157190E-009  0.1592353E+03  0.7561462E-02  0.1087799E+00
         22   -1    0    0    0    0  0.00000000000E+00  0.00000000000E+00  0.10534664977E+04  0.10534664977E+04  0.00000000000E+00 0.  1.
         22   -1    0    0    0    0 -0.00000000000E+00 -0.00000000000E+00 -0.12159387232E+03  0.12159387232E+03  0.00000000000E+00 0.  1.
        -24    2    1    2    0    0  0.15568042418E+02 -0.80509631889E+01 -0.69422831942E+02  0.10791070105E+03  0.80734180204E+02 0.  0.
         25    2    1    2    0    0  0.72965050408E+02 -0.40646447912E+02  0.17220484371E+03  0.22864147045E+03  0.12508549677E+03 0.  0.
         24    2    1    2    0    0 -0.88533092826E+02  0.48697411101E+02  0.82909061356E+03  0.83850819847E+03  0.74129663708E+02 0.  0.
        -13    1    5    5    0    0 -0.46118717842E+01 -0.16653597697E+02  0.75769898131E+02  0.77715436951E+02  0.00000000000E+00 0.  1.
         14    1    5    5    0    0 -0.83921221042E+02  0.65351008799E+02  0.75332071543E+03  0.76079276152E+03  0.00000000000E+00 0. -1.
         13    1    3    3    0    0  0.25585513676E+02  0.25906637025E+02 -0.84101379336E+01  0.37369810972E+02  0.00000000000E+00 0. -1.
        -14    1    3    3    0    0 -0.10017471258E+02 -0.33957600214E+02 -0.61012694008E+02  0.70540890077E+02  0.00000000000E+00 0.  1.
          5    1    4    4  501    0  0.61378895793E+02 -0.61687336543E+02  0.18245923361E+03  0.20219184125E+03  0.41800000000E+01 0.  1.
         -5    1    4    4    0  501  0.11586154614E+02  0.21040888630E+02 -0.10254389892E+02  0.26449629206E+02  0.41800000000E+01 0.  1.
</event>
<event>
11    1  0.7157190E-009  0.2805739E+03  0.7561462E-02  0.1008765E+00
         22   -1    0    0    0    0  0.00000000000E+00  0.00000000000E+00  0.75039288391E+03  0.75039288391E+03  0.00000000000E+00 0. -1.
         22   -1    0    0    0    0 -0.00000000000E+00 -0.00000000000E+00 -0.35873211095E+03  0.35873211095E+03  0.00000000000E+00 0.  1.
         24    2    1    2    0    0  0.15301903472E+02  0.87569150578E+02 -0.58369180041E+02  0.13366300145E+03  0.80971182492E+02 0.  0.
         25    2    1    2    0    0  0.56321063737E+02 -0.31945353699E+03 -0.10608324655E+03  0.36348854681E+03  0.12509054300E+03 0.  0.
        -24    2    1    2    0    0 -0.71622967209E+02  0.23188438641E+03  0.55611319955E+03  0.61197344660E+03  0.79683063023E+02 0.  0.
        -13    1    3    3    0    0 -0.17114550059E+02  0.85391569719E+02 -0.48619787705E+02  0.99742226561E+02  0.00000000000E+00 0.  1.
         14    1    3    3    0    0  0.32416453531E+02  0.21775808586E+01 -0.97493923360E+01  0.33920774886E+02  0.00000000000E+00 0. -1.
         11    1    5    5    0    0 -0.72299711808E+02  0.99986668856E+02  0.27936770421E+03  0.30540284287E+03  0.00000000000E+00 0. -1.
        -12    1    5    5    0    0  0.67674459939E+00  0.13189771755E+03  0.27674549535E+03  0.30657060373E+03  0.00000000000E+00 0.  1.
          5    1    4    4  501    0 -0.70512305998E+01 -0.14431570328E+03  0.84585788753E+01  0.14479558702E+03  0.41800000000E+01 0.  1.
         -5    1    4    4    0  501  0.63372294337E+02 -0.17513783371E+03 -0.11454182543E+03  0.21869295978E+03  0.41800000000E+01 0.  1.
</event>
<event>
11    1  0.7157190E-009  0.1261792E+03  0.7561462E-02  0.1124055E+00
         22   -1    0    0    0    0  0.00000000000E+00  0.00000000000E+00  0.76938439796E+03  0.76938439796E+03  0.00000000000E+00 0.  1.
         22   -1    0    0    0    0 -0.00000000000E+00 -0.00000000000E+00 -0.20657980641E+03  0.20657980641E+03  0.00000000000E+00 0. -1.
        -24    2    1    2    0    0 -0.12839669306E+02  0.10162064468E+02 -0.18381612005E+03  0.20092037465E+03  0.79451282535E+02 0.  0.
         25    2    1    2    0    0  0.16069820146E+02 -0.20580557528E+02  0.43481634034E+03  0.45320470686E+03  0.12508979986E+03 0.  0.
         24    2    1    2    0    0 -0.32301508403E+01  0.10418493060E+02  0.31180437127E+03  0.32183912286E+03  0.78990355037E+02 0.  0.
        -13    1    5    5    0    0 -0.14410994197E+02  0.27398920153E+02  0.29138270339E+03  0.29302262270E+03  0.00000000000E+00 0.  1.
         14    1    5    5    0    0  0.11180843357E+02 -0.16980427093E+02  0.20421667872E+02  0.28816500154E+02  0.00000000000E+00 0. -1.
         13    1    3    3    0    0  0.15366228076E+02  0.36290576768E+02 -0.12115760789E+03  0.12740601586E+03  0.00000000000E+00 0. -1.
        -14    1    3    3    0    0 -0.28205897382E+02 -0.26128512300E+02 -0.62658512163E+02  0.73514358792E+02  0.00000000000E+00 0.  1.
          5    1    4    4  501    0 -0.39614499837E+02 -0.24775195337E+02  0.33895509527E+03  0.34218583827E+03  0.41800000000E+01 0. -1.
         -5    1    4    4    0  501  0.55684319983E+02  0.41946378089E+01  0.95861245071E+02  0.11101886860E+03  0.41800000000E+01 0. -1.
</event>
<event>
11    1  0.7157190E-009  0.1403583E+03  0.7561462E-02  0.1107159E+00
         22   -1    0    0    0    0  0.00000000000E+00  0.00000000000E+00  0.24283915581E+04  0.24283915581E+04  0.00000000000E+00 0.  1.
         22   -1    0    0    0    0 -0.00000000000E+00 -0.00000000000E+00 -0.20258467606E+03  0.20258467606E+03  0.00000000000E+00 0. -1.
         24    2    1    2    0    0 -0.24825439566E+02 -0.57057141093E+02 -0.16064761753E+03  0.18982305054E+03  0.79707676526E+02 0.  0.
         25    2    1    2    0    0  0.17089186210E+02  0.85374563159E+02  0.19254606161E+03  0.24556535747E+03  0.12508997814E+03 0.  0.
        -24    2    1    2    0    0  0.77362533561E+01 -0.28317422067E+02  0.21939084379E+04  0.21955878261E+04  0.80684212321E+02 0.  0.
        -13    1    3    3    0    0  0.23326269549E+02 -0.36922625726E+01 -0.16690516406E+02  0.28919214925E+02  0.00000000000E+00 0.  1.
         14    1    3    3    0    0 -0.48151709115E+02 -0.53364878520E+02 -0.14395710113E+03  0.16090383561E+03  0.00000000000E+00 0. -1.
         11    1    5    5    0    0 -0.30782005156E+02 -0.33906068468E+02  0.13614932285E+04  0.13622631775E+04  0.00000000000E+00 0. -1.
        -12    1    5    5    0    0  0.38518258512E+02  0.55886464017E+01  0.83241520940E+03  0.83332464865E+03  0.00000000000E+00 0.  1.
          5    1    4    4  501    0  0.46318230725E+01  0.11724111766E+03  0.15708078802E+03  0.19610910183E+03  0.41800000000E+01 0.  1.
         -5    1    4    4    0  501  0.12457363137E+02 -0.31866554499E+02  0.35465273590E+02  0.49456255648E+02  0.41800000000E+01 0.  1.
</event>
<event>
11    1  0.7157190E-009  0.1282743E+03  0.7561462E-02  0.1121408E+00
         22   -1    0    0    0    0  0.00000000000E+00  0.00000000000E+00  0.16691474954E+04  0.16691474954E+04  0.00000000000E+00 0. -1.
         22   -1    0    0    0    0 -0.00000000000E+00 -0.00000000000E+00 -0.10420109578E+03  0.10420109578E+03  0.00000000000E+00 0.  1.
        -24    2    1    2    0    0 -0.97003450905E+01 -0.25303597334E+02 -0.62227267748E+02  0.12444948137E+03  0.10431237620E+03 0.  0.
         25    2    1    2    0    0 -0.38666337409E+02  0.74352405236E+02  0.70777973953E+03  0.72361792452E+03  0.12508946874E+03 0.  0.
         24    2    1    2    0    0  0.48366682499E+02 -0.49048807902E+02  0.91939392786E+03  0.92528118531E+03  0.78198182699E+02 0.  0.
        -13    1    5    5    0    0 -0.76119730011E+01 -0.25397102780E+02  0.94415460267E+02  0.98067497674E+02  0.00000000000E+00 0.  1.
         14    1    5    5    0    0  0.55978655500E+02 -0.23651705122E+02  0.82497846759E+03  0.82721368764E+03  0.00000000000E+00 0. -1.
         11    1    3    3    0    0 -0.28312458854E+02 -0.34354545798E+02  0.13040310804E+02  0.46388358984E+02  0.00000000000E+00 0. -1.
        -12    1    3    3    0    0  0.18612113764E+02  0.90509484633E+01 -0.75267578552E+02  0.78061122384E+02  0.00000000000E+00 0.  1.
          5    1    4    4  501    0 -0.36607465295E+02  0.48990940495E+01  0.54891502653E+03  0.55017205162E+03  0.41800000000E+01 0. -1.
         -5    1    4    4    0  501 -0.20588721133E+01  0.69453311187E+02  0.15886471300E+03  0.17344587290E+03  0.41800000000E+01 0. -1.
</event>
<event>
11    1  0.7157190E-009  0.1991261E+03  0.7561462E-02  0.1055143E+00
         22   -1    0    0    0    0  0.00000000000E+00  0.00000000000E+00  0.10409241290E+03  0.10409241290E+03  0.00000000000E+00 0. -1.
         22   -1    0    0    0    0 -0.00000000000E+00 -0.00000000000E+00 -0.90723157623E+03  0.90723157623E+03  0.00000000000E+00 0.  1.
        -24    2    1    2    0    0  0.19646274980E+02  0.49520309862E+02 -0.46949544866E+03  0.47993025137E+03  0.84076350172E+02 0.  0.
         25    2    1    2    0    0 -0.13183217913E+03 -0.13739595850E+03 -0.27632516110E+03  0.35813382590E+03  0.12508744833E+03 0.  0.
         24    2    1    2    0    0  0.11218590415E+03  0.87875648642E+02 -0.57318553574E+02  0.17325991185E+03  0.80160924126E+02 0.  0.
        -11    1    5    5    0    0  0.45209069215E+00  0.35318812600E+02  0.37247899706E+01  0.35517558612E+02  0.00000000000E+00 0.  1.
         12    1    5    5    0    0  0.11173381346E+03  0.52556836042E+02 -0.61043343544E+02  0.13774235324E+03  0.00000000000E+00 0. -1.
         11    1    3    3    0    0 -0.29805923919E+02  0.38780873523E+02 -0.22622759231E+03  0.23145468839E+03  0.00000000000E+00 0. -1.
        -12    1    3    3    0    0  0.49452198899E+02  0.10739436339E+02 -0.24326785635E+03  0.24847556299E+03  0.00000000000E+00 0.  1.
          5    1    4    4  501    0 -0.84537218305E+02 -0.33864345046E+02 -0.20338283596E+03  0.22287975572E+03  0.41800000000E+01 0.  1.
         -5    1    4    4    0  501 -0.47294960826E+02 -0.10353161346E+03 -0.72942325135E+02  0.13525407018E+03  0.41800000000E+01 0.  1.
</event>
<event>
11    1  0.7157190E-009  0.1364994E+03  0.7561462E-02  0.1111532E+00
         22   -1    0    0    0    0  0.00000000000E+00  0.00000000000E+00  0.11826403755E+04  0.11826403755E+04  0.00000000000E+00 0. -1.
         22   -1    0    0    0    0 -0.00000000000E+00 -0.00000000000E+00 -0.57535467645E+03  0.57535467645E+03  0.00000000000E+00 0. -1.
         24    2    1    2    0    0  0.39438232468E+02 -0.10835740292E+02 -0.55531872399E+03  0.56279162469E+03  0.81748028502E+02 0.  0.
         25    2    1    2    0    0  0.17236953944E+02 -0.13870014529E+02  0.28775143871E+03  0.31454482240E+03  0.12509222572E+03 0.  0.
        -24    2    1    2    0    0 -0.56675186412E+02  0.24705754822E+02  0.87485298429E+03  0.88065860483E+03  0.79808414684E+02 0.  0.
        -11    1    3    3    0    0 -0.19765830889E+02 -0.91487385597E+01 -0.29576861426E+03  0.29656948708E+03  0.00000000000E+00 0.  1.
         12    1    3    3    0    0  0.59204063357E+02 -0.16870017327E+01 -0.25955010973E+03  0.26622213761E+03  0.00000000000E+00 0. -1.
         13    1    5    5    0    0 -0.76665649735E+02  0.21486792224E+02  0.74402662663E+03  0.74827463222E+03  0.00000000000E+00 0. -1.
        -14    1    5    5    0    0  0.19990463323E+02  0.32189625976E+01  0.13082635767E+03  0.13238397261E+03  0.00000000000E+00 0.  1.
          5    1    4    4  501    0  0.32106606460E+02 -0.20981561085E+02  0.15206786523E+02  0.41470216304E+02  0.41800000000E+01 0. -1.
         -5    1    4    4    0  501 -0.14869652516E+02  0.71115465556E+01  0.27254465219E+03  0.27307460610E+03  0.41800000000E+01 0. -1.
</event>
<event>
11    1  0.7157190E-009  0.2057892E+03  0.7561462E-02  0.1050504E+00
         22   -1    0    0    0    0  0.00000000000E+00  0.00000000000E+00  0.86765537197E+03  0.86765537197E+03  0.00000000000E+00 0. -1.
         22   -1    0    0    0    0 -0.00000000000E+00 -0.00000000000E+00 -0.36954935557E+03  0.36954935557E+03  0.00000000000E+00 0.  1.
        -24    2    1    2    0    0  0.72113411597E+01  0.16317509402E+03 -0.31509374817E+03  0.36392285225E+03  0.80483895922E+02 0.  0.
         25    2    1    2    0    0 -0.23438184159E+02 -0.16375422537E+03  0.38720738274E+03  0.43925052644E+03  0.12508666164E+03 0.  0.
         24    2    1    2    0    0  0.16226843000E+02  0.57913134320E+00  0.42599238183E+03  0.43403134886E+03  0.81547879121E+02 0.  0.
        -13    1    5    5    0    0  0.44772936309E+02 -0.66173429416E+01  0.15582370284E+03  0.16226346298E+03  0.00000000000E+00 0.  1.
         14    1    5    5    0    0 -0.28546093309E+02  0.71964742848E+01  0.27016867899E+03  0.27176788587E+03  0.00000000000E+00 0. -1.
         11    1    3    3    0    0 -0.29859657438E+02  0.38427683853E+02 -0.57561765318E+02  0.75376673150E+02  0.00000000000E+00 0. -1.
        -12    1    3    3    0    0  0.37070998598E+02  0.12474741017E+03 -0.25753198285E+03  0.28854617910E+03  0.00000000000E+00 0.  1.
          5    1    4    4  501    0 -0.69404791326E+02 -0.11055119795E+03  0.29969432101E+03  0.32691398085E+03  0.41800000000E+01 0.  1.
         -5    1    4    4    0  501  0.45966607167E+02 -0.53203027418E+02  0.87513061731E+02  0.11233654559E+03  0.41800000000E+01 0.  1.
</event>
<event>
11    1  0.7157190E-009  0.1388425E+03  0.7561462E-02  0.1108858E+00
         22   -1    0    0    0    0  0.00000000000E+00  0.00000000000E+00  0.11690540206E+04  0.11690540206E+04  0.00000000000E+00 0. -1.
         22   -1    0    0    0    0 -0.00000000000E+00 -0.00000000000E+00 -0.19769649250E+03  0.19769649250E+03  0.00000000000E+00 0.  1.
        -24    2    1    2    0    0 -0.22871643224E+02 -0.54245129822E+02 -0.14158382399E+03  0.17306280900E+03  0.80244068134E+02 0.  0.
         25    2    1    2    0    0  0.18181220278E+01  0.77222647316E+02  0.10175019130E+03  0.17879348270E+03  0.12508942881E+03 0.  0.
         24    2    1    2    0    0  0.21053521196E+02 -0.22977517495E+02  0.10111911607E+04  0.10148942214E+04  0.80817695524E+02 0.  0.
        -13    1    5    5    0    0 -0.13783589086E+02  0.24068470377E+02  0.36861600151E+03  0.36965799757E+03  0.00000000000E+00 0.  1.
         14    1    5    5    0    0  0.34837110283E+02 -0.47045987871E+02  0.64257515923E+03  0.64523622379E+03  0.00000000000E+00 0. -1.
         11    1    3    3    0    0 -0.19922718261E+02  0.53593543572E+01 -0.13688284848E+01  0.20676340911E+02  0.00000000000E+00 0. -1.
        -12    1    3    3    0    0 -0.29489249629E+01 -0.59604484179E+02 -0.14021499550E+03  0.15238646809E+03  0.00000000000E+00 0.  1.
          5    1    4    4  501    0 -0.25469051807E+02 -0.27825550386E+02  0.20371765476E+02  0.43074529398E+02  0.41800000000E+01 0.  1.
         -5    1    4    4    0  501  0.27287173835E+02  0.10504819770E+03  0.81378425829E+02  0.13571895331E+03  0.41800000000E+01 0.  1.
</event>
<event>
11    1  0.7157190E-009  0.1401397E+03  0.7561462E-02  0.1107402E+00
         22   -1    0    0    0    0  0.00000000000E+00  0.00000000000E+00  0.15406479953E+03  0.15406479953E+03  0.00000000000E+00 0. -1.
         22   -1    0    0    0    0 -0.00000000000E+00 -0.00000000000E+00 -0.23063254932E+04  0.23063254932E+04  0.00000000000E+00 0.  1.
        -24    2    1    2    0    0  0.72591472160E+01 -0.64232458470E+01 -0.14073920524E+04  0.14097017894E+04  0.80079912684E+02 0.  0.
         25    2    1    2    0    0  0.55389194234E+02  0.15584473138E+02 -0.87456950361E+03  0.88534103100E+03  0.12508431513E+03 0.  0.
         24    2    1    2    0    0 -0.62648341450E+02 -0.91612272911E+01  0.12970086238E+03  0.16534747235E+03  0.80676701342E+02 0.  0.
        -11    1    5    5    0    0  0.10817574410E+02  0.14527790522E+02  0.55093068629E+02  0.57994161986E+02  0.00000000000E+00 0.  1.
         12    1    5    5    0    0 -0.73465915861E+02 -0.23689017813E+02  0.74607793750E+02  0.10735331037E+03  0.00000000000E+00 0. -1.
         11    1    3    3    0    0  0.40332503501E+02  0.17239021434E+01 -0.48361478275E+03  0.48529675537E+03  0.00000000000E+00 0. -1.
        -12    1    3    3    0    0 -0.33073356285E+02 -0.81471479904E+01 -0.92377726970E+03  0.92440503402E+03  0.00000000000E+00 0.  1.
          5    1    4    4  501    0  0.46082645289E+02 -0.51743472022E+02 -0.41932127628E+03  0.42502800171E+03  0.41800000000E+01 0. -1.
         -5    1    4    4    0  501  0.93065489448E+01  0.67327945160E+02 -0.45524822733E+03  0.46031302929E+03  0.41800000000E+01 0. -1.
</event>
<event>
11    1  0.7157190E-009  0.1701506E+03  0.7561462E-02  0.1077901E+00
         22   -1    0    0    0    0  0.00000000000E+00  0.00000000000E+00  0.84642507713E+03  0.84642507713E+03  0.00000000000E+00 0. -1.
         22   -1    0    0    0    0 -0.00000000000E+00 -0.00000000000E+00 -0.31030634234E+03  0.31030634234E+03  0.00000000000E+00 0. -1.
        -24    2    1    2    0    0  0.11273912226E+02 -0.27095650340E+02 -0.26691729941E+03  0.28010260910E+03  0.79695367104E+02 0.  0.
         25    2    1    2    0    0 -0.72378806354E+01  0.13605268854E+03  0.27667679271E+03  0.33278565075E+03  0.12503407833E+03 0.  0.
         24    2    1    2    0    0 -0.40360315905E+01 -0.10895703820E+03  0.52635924149E+03  0.54384315962E+03  0.82603906922E+02 0.  0.
        -11    1    5    5    0    0  0.91640538977E+01 -0.21108090669E+02  0.22398583007E+02  0.32112737289E+02  0.00000000000E+00 0.  1.
         12    1    5    5    0    0 -0.13200085488E+02 -0.87848947534E+02  0.50396065848E+03  0.51173042233E+03  0.00000000000E+00 0. -1.
         13    1    3    3    0    0  0.12970973016E+02 -0.41454136070E+02 -0.26081832478E+03  0.26441045758E+03  0.00000000000E+00 0. -1.
        -14    1    3    3    0    0 -0.16970607897E+01  0.14358485730E+02 -0.60989746297E+01  0.15692151520E+02  0.00000000000E+00 0.  1.
          5    1    4    4  501    0  0.30546611920E+02  0.39872373039E+02  0.19382388855E+03  0.20027000225E+03  0.41800000000E+01 0. -1.
         -5    1    4    4    0  501 -0.37784492555E+02  0.96180315503E+02  0.82852904165E+02  0.13251564850E+03  0.41800000000E+01 0. -1.
</event>
<event>
11    1  0.7157190E-009  0.1334892E+03  0.7561462E-02  0.1115055E+00
         22   -1    0    0    0    0  0.00000000000E+00  0.00000000000E+00  0.15904555683E+03  0.15904555683E+03  0.00000000000E+00 0.  1.
         22   -1    0    0    0    0 -0.00000000000E+00 -0.00000000000E+00 -0.24606746988E+04  0.24606746988E+04  0.00000000000E+00 0. -1.
        -24    2    1    2    0    0 -0.28895392987E+02  0.33158803048E+02 -0.22924801568E+04  0.22943167349E+04  0.80557811628E+02 0.  0.
         25    2    1    2    0    0  0.71672247436E+02 -0.20945764213E+02 -0.11463692197E+03  0.18537905261E+03  0.12509249849E+03 0.  0.
         24    2    1    2    0    0 -0.42776854449E+02 -0.12213038835E+02  0.10548793672E+03  0.14002446814E+03  0.80623379317E+02 0.  0.
        -11    1    5    5    0    0 -0.21164169949E+02  0.11666247108E+02  0.10507080848E+03  0.10781418369E+03  0.00000000000E+00 0.  1.
         12    1    5    5    0    0 -0.21612684500E+02 -0.23879285944E+02  0.41712823790E+00  0.32210284451E+02  0.00000000000E+00 0. -1.
         11    1    3    3    0    0 -0.11588129094E+02  0.63645461898E+01 -0.20096560641E+04  0.20096995517E+04  0.00000000000E+00 0. -1.
        -12    1    3    3    0    0 -0.17307263893E+02  0.26794256858E+02 -0.28282409263E+03  0.28461718317E+03  0.00000000000E+00 0.  1.
          5    1    4    4  501    0  0.58328570711E+02 -0.48707709663E+02 -0.10652595454E+02  0.76847988469E+02  0.41800000000E+01 0. -1.
         -5    1    4    4    0  501  0.13343676725E+02  0.27761945450E+02 -0.10398432651E+03  0.10853106414E+03  0.41800000000E+01 0. -1.
</event>
<event>
11    1  0.7157190E-009  0.1869890E+03  0.7561462E-02  0.1064126E+00
         22   -1    0    0    0    0  0.00000000000E+00  0.00000000000E+00  0.18895261383E+04  0.18895261383E+04  0.00000000000E+00 0. -1.
         22   -1    0    0    0    0 -0.00000000000E+00 -0.00000000000E+00 -0.70066384120E+03  0.70066384120E+03  0.00000000000E+00 0.  1.
         24    2    1    2    0    0 -0.19343577956E+02 -0.60921842683E+01 -0.64069511540E+03  0.64665406967E+03  0.85205435296E+02 0.  0.
         25    2    1    2    0    0  0.41928753887E+02  0.14260842230E+03  0.12405577798E+03  0.23050770972E+03  0.12509510652E+03 0.  0.
        -24    2    1    2    0    0 -0.22585175931E+02 -0.13651623803E+03  0.17055016346E+04  0.17130282002E+04  0.81135785102E+02 0.  0.
        -11    1    3    3    0    0 -0.48635115013E+01  0.35218200418E+02 -0.42956379367E+03  0.43103251411E+03  0.00000000000E+00 0.  1.
         12    1    3    3    0    0 -0.14480066455E+02 -0.41310384686E+02 -0.21113132172E+03  0.21562155556E+03  0.00000000000E+00 0. -1.
         11    1    5    5    0    0 -0.48600123006E+02 -0.12004022374E+03  0.14017540637E+04  0.14077237237E+04  0.00000000000E+00 0. -1.
        -12    1    5    5    0    0  0.26014947075E+02 -0.16476014296E+02  0.30374757085E+03  0.30530447641E+03  0.00000000000E+00 0.  1.
          5    1    4    4  501    0  0.19728204610E+02 -0.20390859819E+02  0.10357156390E+02  0.30491512094E+02  0.41800000000E+01 0.  1.
         -5    1    4    4    0  501  0.22200549277E+02  0.16299928212E+03  0.11369862159E+03  0.20001619762E+03  0.41800000000E+01 0.  1.
</event>
<event>
11    1  0.7157190E-009  0.1389280E+03  0.7561462E-02  0.1108761E+00
         22   -1    0    0    0    0  0.00000000000E+00  0.00000000000E+00  0.33672452035E+03  0.33672452035E+03  0.00000000000E+00 0. -1.
         22   -1    0    0    0    0 -0.00000000000E+00 -0.00000000000E+00 -0.13156891477E+04  0.13156891477E+04  0.00000000000E+00 0.  1.
        -24    2    1    2    0    0 -0.59788330278E+02  0.14327829422E+02 -0.12493845455E+04  0.12535543200E+04  0.81588965876E+02 0.  0.
         25    2    1    2    0    0  0.12136856017E+02 -0.38743914610E+02  0.22735129878E+02  0.13347048682E+03  0.12509632499E+03 0.  0.
         24    2    1    2    0    0  0.47651474262E+02  0.24416085188E+02  0.24768478829E+03  0.26538886129E+03  0.78845958263E+02 0.  0.
        -13    1    5    5    0    0  0.11709467382E+01  0.22859614759E+02  0.13380368909E+02  0.26513531929E+02  0.00000000000E+00 0.  1.
         14    1    5    5    0    0  0.46480527523E+02  0.15564704293E+01  0.23430441938E+03  0.23887532936E+03  0.00000000000E+00 0. -1.
         13    1    3    3    0    0 -0.48373948445E+02  0.35048385980E+02 -0.46606731519E+03  0.46987995332E+03  0.00000000000E+00 0. -1.
        -14    1    3    3    0    0 -0.11414381833E+02 -0.20720556559E+02 -0.78331723035E+03  0.78367436665E+03  0.00000000000E+00 0.  1.
          5    1    4    4  501    0 -0.10577048503E+02  0.40354578309E+02 -0.12649258977E+02  0.43793174105E+02  0.41800000000E+01 0.  1.
         -5    1    4    4    0  501  0.22713904520E+02 -0.79098492918E+02  0.35384388855E+02  0.89677312712E+02  0.41800000000E+01 0.  1.
</event>
<event>
11    1  0.7157190E-009  0.1479712E+03  0.7561462E-02  0.1098970E+00
         22   -1    0    0    0    0  0.00000000000E+00  0.00000000000E+00  0.11699096596E+03  0.11699096596E+03  0.00000000000E+00 0.  1.
         22   -1    0    0    0    0 -0.00000000000E+00 -0.00000000000E+00 -0.12236118645E+04  0.12236118645E+04  0.00000000000E+00 0.  1.
         24    2    1    2    0    0  0.21630099282E+02  0.78144408747E+02 -0.83450178804E+03  0.84225186702E+03  0.80128418396E+02 0.  0.
         25    2    1    2    0    0  0.15499309592E+02 -0.76444245915E+02 -0.34931788651E+03  0.37915071723E+03  0.12509328204E+03 0.  0.
        -24    2    1    2    0    0 -0.37129408875E+02 -0.17001628319E+01  0.77198775998E+02  0.11920024622E+03  0.82870767621E+02 0.  0.
        -13    1    3    3    0    0  0.37919422556E+02  0.85409929791E+02 -0.75574396556E+03  0.76149962587E+03  0.00000000000E+00 0.  1.
         14    1    3    3    0    0 -0.16289323273E+02 -0.72655210441E+01 -0.78757822477E+02  0.80752241145E+02  0.00000000000E+00 0. -1.
         11    1    5    5    0    0 -0.52400622017E+02 -0.12429880390E+02  0.17460707367E+02  0.56614515948E+02  0.00000000000E+00 0. -1.
        -12    1    5    5    0    0  0.15271213143E+02  0.10729717558E+02  0.59738068631E+02  0.62585730271E+02  0.00000000000E+00 0.  1.
          5    1    4    4  501    0  0.46302198886E+01 -0.10912651657E+03 -0.29601461872E+03  0.31555057035E+03  0.41800000000E+01 0. -1.
         -5    1    4    4    0  501  0.10869089704E+02  0.32682270653E+02 -0.53303267789E+02  0.63600146878E+02  0.41800000000E+01 0. -1.
</event>
<event>
11    1  0.7157190E-009  0.1338521E+03  0.7561462E-02  0.1114625E+00
         22   -1    0    0    0    0  0.00000000000E+00  0.00000000000E+00  0.85147733772E+03  0.85147733772E+03  0.00000000000E+00 0. -1.
         22   -1    0    0    0    0 -0.00000000000E+00 -0.00000000000E+00 -0.21261464362E+03  0.21261464362E+03  0.00000000000E+00 0.  1.
        -24    2    1    2    0    0 -0.41883449443E+02  0.12481175484E+02 -0.18473450175E+03  0.20479820463E+03  0.76847025992E+02 0.  0.
         25    2    1    2    0    0 -0.19948937710E+01  0.25148429528E+02  0.29473161894E+03  0.32116529633E+03  0.12507596594E+03 0.  0.
         24    2    1    2    0    0  0.43878343214E+02 -0.37629605012E+02  0.52886557691E+03  0.53812848039E+03  0.80883662063E+02 0.  0.
        -11    1    5    5    0    0  0.24895618500E+02 -0.54541458453E+02  0.21405034365E+03  0.22228835356E+03  0.00000000000E+00 0.  1.
         12    1    5    5    0    0  0.18982724714E+02  0.16911853441E+02  0.31481523326E+03  0.31584012683E+03  0.00000000000E+00 0. -1.
         13    1    3    3    0    0 -0.30898534101E+02 -0.24613116912E+02 -0.45341531960E+02  0.60136340545E+02  0.00000000000E+00 0. -1.
        -14    1    3    3    0    0 -0.10984915343E+02  0.37094292396E+02 -0.13939296979E+03  0.14466186408E+03  0.00000000000E+00 0.  1.
          5    1    4    4  501    0  0.94580362020E+01 -0.45125939615E+02  0.59684152004E+02  0.75534596546E+02  0.41800000000E+01 0.  1.
         -5    1    4    4    0  501 -0.11452929973E+02  0.70274369143E+02  0.23504746693E+03  0.24563069978E+03  0.41800000000E+01 0.  1.
</event>
<event>
11    1  0.7157190E-009  0.1921501E+03  0.7561462E-02  0.1060218E+00
         22   -1    0    0    0    0  0.00000000000E+00  0.00000000000E+00  0.75362677184E+02  0.75362677184E+02  0.00000000000E+00 0.  1.
         22   -1    0    0    0    0 -0.00000000000E+00 -0.00000000000E+00 -0.15063083404E+04  0.15063083404E+04  0.00000000000E+00 0.  1.
         24    2    1    2    0    0 -0.12985331911E+03  0.16313643605E+02 -0.78875658095E+03  0.80353277988E+03  0.79999780563E+02 0.  0.
         25    2    1    2    0    0  0.19884085746E+03  0.68036114994E+02 -0.58535927070E+03  0.63439548855E+03  0.12508221522E+03 0.  0.
        -24    2    1    2    0    0 -0.68987538346E+02 -0.84349758599E+02 -0.56829811559E+02  0.14374274915E+03  0.74553257662E+02 0.  0.
        -13    1    3    3    0    0 -0.99265615817E+02 -0.75360305200E+01 -0.69463866543E+03  0.70173594019E+03  0.00000000000E+00 0.  1.
         14    1    3    3    0    0 -0.30587703293E+02  0.23849674125E+02 -0.94117915517E+02  0.10179683968E+03  0.00000000000E+00 0. -1.
         11    1    5    5    0    0 -0.35024861288E+02 -0.78670542520E+02 -0.11593807474E+02  0.86891953254E+02  0.00000000000E+00 0. -1.
        -12    1    5    5    0    0 -0.33962677058E+02 -0.56792160795E+01 -0.45236004084E+02  0.56850795894E+02  0.00000000000E+00 0.  1.
          5    1    4    4  501    0  0.18149047338E+03  0.28120758177E+02 -0.35280689501E+03  0.39776845845E+03  0.41800000000E+01 0.  1.
         -5    1    4    4    0  501  0.17350384073E+02  0.39915356818E+02 -0.23255237569E+03  0.23662703011E+03  0.41800000000E+01 0.  1.
</event>
<event>
11    1  0.7157190E-009  0.1328534E+03  0.7561462E-02  0.1115812E+00
         22   -1    0    0    0    0  0.00000000000E+00  0.00000000000E+00  0.99021620768E+03  0.99021620768E+03  0.00000000000E+00 0.  1.
         22   -1    0    0    0    0 -0.00000000000E+00 -0.00000000000E+00 -0.65336365371E+02  0.65336365371E+02  0.00000000000E+00 0.  1.
        -24    2    1    2    0    0  0.11830954212E+02  0.12469891814E+02 -0.21132527859E+02  0.78326220831E+02  0.73436662891E+02 0.  0.
         25    2    1    2    0    0 -0.68299719250E+01  0.35179157522E+02  0.34339920461E+03  0.36722545248E+03  0.12508915853E+03 0.  0.
         24    2    1    2    0    0 -0.50009822868E+01 -0.47649049336E+02  0.60261316556E+03  0.61000089974E+03  0.81627376859E+02 0.  0.
        -11    1    5    5    0    0  0.36323225473E+02 -0.29115099748E+02  0.37892922811E+03  0.38177797954E+03  0.00000000000E+00 0.  1.
         12    1    5    5    0    0 -0.41324207760E+02 -0.18533949588E+02  0.22368393745E+03  0.22822292021E+03  0.00000000000E+00 0. -1.
         13    1    3    3    0    0  0.53457449328E+01 -0.60405779946E+01  0.26028233257E+02  0.27249486195E+02  0.00000000000E+00 0. -1.
        -14    1    3    3    0    0  0.64852092790E+01  0.18510469809E+02 -0.47160761117E+02  0.51076734636E+02  0.00000000000E+00 0.  1.
          5    1    4    4  501    0  0.51484689741E+02  0.43091892480E+02  0.13801594538E+03  0.15353650398E+03  0.41800000000E+01 0.  1.
         -5    1    4    4    0  501 -0.58314661666E+02 -0.79127349576E+01  0.20538325923E+03  0.21368894850E+03  0.41800000000E+01 0.  1.
</event>
<event>
11    1  0.7157190E-009  0.1635756E+03  0.7561462E-02  0.1083762E+00
         22   -1    0    0    0    0  0.00000000000E+00  0.00000000000E+00  0.13461130069E+04  0.13461130069E+04  0.00000000000E+00 0.  1.
         22   -1    0    0    0    0 -0.00000000000E+00 -0.00000000000E+00 -0.10034835590E+03  0.10034835590E+03  0.00000000000E+00 0. -1.
        -24    2    1    2    0    0 -0.86797499741E+02  0.66583458023E+02 -0.11620505623E+02  0.13643384141E+03  0.80696927368E+02 0.  0.
         25    2    1    2    0    0  0.97879402538E+02 -0.14442582861E+02  0.23959061084E+03  0.28781761757E+03  0.12508538899E+03 0.  0.
         24    2    1    2    0    0 -0.11081902797E+02 -0.52140875162E+02  0.10177945458E+04  0.10222099038E+04  0.78523057972E+02 0.  0.
        -11    1    5    5    0    0  0.20988138026E+02 -0.60885402358E+01  0.62968579040E+03  0.63006489102E+03  0.00000000000E+00 0.  1.
         12    1    5    5    0    0 -0.32070040823E+02 -0.46052334926E+02  0.38810875535E+03  0.39214501279E+03  0.00000000000E+00 0. -1.
         13    1    3    3    0    0 -0.62241702125E+02  0.62750807252E+02 -0.41439060195E+02  0.97616028418E+02  0.00000000000E+00 0. -1.
        -14    1    3    3    0    0 -0.24555797615E+02  0.38326507707E+01  0.29818554572E+02  0.38817812989E+02  0.00000000000E+00 0.  1.
          5    1    4    4  501    0  0.79358623075E+02  0.47726932896E+02  0.11924327093E+03  0.15103668840E+03  0.41800000000E+01 0. -1.
         -5    1    4    4    0  501  0.18520779462E+02 -0.62169515757E+02  0.12034733991E+03  0.13678092917E+03  0.41800000000E+01 0. -1.
</event>
<event>
11    1  0.7157190E-009  0.1395573E+03  0.7561462E-02  0.1108054E+00
         22   -1    0    0    0    0  0.00000000000E+00  0.00000000000E+00  0.83398909666E+03  0.83398909666E+03  0.00000000000E+00 0.  1.
         22   -1    0    0    0    0 -0.00000000000E+00 -0.00000000000E+00 -0.43964515493E+04  0.43964515493E+04  0.00000000000E+00 0. -1.
         24    2    1    2    0    0 -0.25454680805E+02 -0.72291887697E+01 -0.38847137263E+04  0.38856855438E+04  0.82772026182E+02 0.  0.
         25    2    1    2    0    0  0.86545860569E+02 -0.15545510226E+01 -0.49633988356E+03  0.51912644169E+03  0.12508549009E+03 0.  0.
        -24    2    1    2    0    0 -0.61091179764E+02  0.87837397923E+01  0.81859115726E+03  0.82562866041E+03  0.88101735572E+02 0.  0.
        -13    1    3    3    0    0 -0.23535429076E+02 -0.37905129243E+02 -0.12561720834E+04  0.12569642073E+04  0.00000000000E+00 0.  1.
         14    1    3    3    0    0 -0.19192517286E+01  0.30675940473E+02 -0.26285416429E+04  0.26287213366E+04  0.00000000000E+00 0. -1.
         13    1    5    5    0    0  0.18634168771E+02  0.10398073597E+02  0.81898317525E+02  0.84632656780E+02  0.00000000000E+00 0. -1.
        -14    1    5    5    0    0 -0.79725348536E+02 -0.16143338045E+01  0.73669283973E+03  0.74099600363E+03  0.00000000000E+00 0.  1.
          5    1    4    4  501    0  0.96230174374E+02 -0.45580978788E+02 -0.36241500574E+03  0.37775651003E+03  0.41800000000E+01 0.  1.
         -5    1    4    4    0  501 -0.96843138046E+01  0.44026427765E+02 -0.13392487783E+03  0.14136993166E+03  0.41800000000E+01 0.  1.
</event>
<event>
11    1  0.7157190E-009  0.1480839E+03  0.7561462E-02  0.1098853E+00
         22   -1    0    0    0    0  0.00000000000E+00  0.00000000000E+00  0.30339874695E+04  0.30339874695E+04  0.00000000000E+00 0.  1.
         22   -1    0    0    0    0 -0.00000000000E+00 -0.00000000000E+00 -0.16420863392E+03  0.16420863392E+03  0.00000000000E+00 0. -1.
         24    2    1    2    0    0  0.56772225777E+02 -0.56076567190E+02 -0.12444052235E+03  0.17205058144E+03  0.88024382772E+02 0.  0.
         25    2    1    2    0    0 -0.91991887614E+02  0.46852943639E+01  0.38807772016E+03  0.41801469470E+03  0.12509000252E+03 0.  0.
        -24    2    1    2    0    0  0.35219661837E+02  0.51391272826E+02  0.26061416378E+04  0.26081308273E+04  0.80564810125E+02 0.  0.
        -11    1    3    3    0    0  0.40373237443E+02 -0.40037952974E+02 -0.13070325295E+02  0.58342689202E+02  0.00000000000E+00 0.  1.
         12    1    3    3    0    0  0.16398988334E+02 -0.16038614216E+02 -0.11137019706E+03  0.11370789224E+03  0.00000000000E+00 0. -1.
         11    1    5    5    0    0  0.84136903396E+00 -0.29497276661E+01  0.33391934050E+01  0.45342042026E+01  0.00000000000E+00 0. -1.
        -12    1    5    5    0    0  0.34378292803E+02  0.54341000493E+02  0.26028024444E+04  0.26035966231E+04  0.00000000000E+00 0.  1.
          5    1    4    4  501    0 -0.85797113007E+02 -0.13186080273E+02  0.38903165801E+03  0.39862027125E+03  0.41800000000E+01 0. -1.
         -5    1    4    4    0  501 -0.61947746071E+01  0.17871374637E+02 -0.95393784687E+00  0.19394423457E+02  0.41800000000E+01 0. -1.
</event>
<event>
11    1  0.7157190E-009  0.2185169E+03  0.7561462E-02  0.1042150E+00
         22   -1    0    0    0    0  0.00000000000E+00  0.00000000000E+00  0.18974441799E+03  0.18974441799E+03  0.00000000000E+00 0. -1.
         22   -1    0    0    0    0 -0.00000000000E+00 -0.00000000000E+00 -0.77782328356E+03  0.77782328356E+03  0.00000000000E+00 0. -1.
        -24    2    1    2    0    0  0.73944601220E+02  0.19570247845E+02 -0.52488512435E+03  0.53643328225E+03  0.80034204508E+02 0.  0.
         25    2    1    2    0    0 -0.83182299140E+02 -0.18699263253E+03 -0.55090587275E+02  0.24610460362E+03  0.12508782358E+03 0.  0.
         24    2    1    2    0    0  0.92376979203E+01  0.16742238469E+03 -0.81031539365E+01  0.18502981568E+03  0.77812477333E+02 0.  0.
        -13    1    5    5    0    0  0.19594844905E+02  0.93066017760E+01 -0.15083903728E+02  0.26421486240E+02  0.00000000000E+00 0.  1.
         14    1    5    5    0    0 -0.10357146984E+02  0.15811578291E+03  0.69807497917E+01  0.15860832944E+03  0.00000000000E+00 0. -1.
         13    1    3    3    0    0 -0.10779562980E+02  0.14132503125E+02 -0.19464451915E+03  0.19545438204E+03  0.00000000000E+00 0. -1.
        -14    1    3    3    0    0  0.84724164200E+02  0.54377447208E+01 -0.33024060520E+03  0.34097890021E+03  0.00000000000E+00 0.  1.
          5    1    4    4  501    0  0.17407185640E+02 -0.34046051556E+02 -0.49793237059E+02  0.62920446560E+02  0.41800000000E+01 0. -1.
         -5    1    4    4    0  501 -0.10058948478E+03 -0.15294658098E+03 -0.52973502162E+01  0.18318415707E+03  0.41800000000E+01 0. -1.
</event>
<event>
11    1  0.7157190E-009  0.1931511E+03  0.7561462E-02  0.1059475E+00
         22   -1    0    0    0    0  0.00000000000E+00  0.00000000000E+00  0.88060038767E+03  0.88060038767E+03  0.00000000000E+00 0.  1.
         22   -1    0    0    0    0 -0.00000000000E+00 -0.00000000000E+00 -0.18205067897E+04  0.18205067897E+04  0.00000000000E+00 0. -1.
        -24    2    1    2    0    0 -0.99534835402E+01  0.14606495701E+03 -0.17644704429E+04  0.17723730428E+04  0.80723079000E+02 0.  0.
         25    2    1    2    0    0  0.66835897323E+02 -0.21248706910E+03  0.31114842784E+03  0.40258990354E+03  0.12508994595E+03 0.  0.
         24    2    1    2    0    0 -0.56882413783E+02  0.66422112091E+02  0.51341561306E+03  0.52614423100E+03  0.74730543341E+02 0.  0.
        -11    1    5    5    0    0 -0.47327741242E+02  0.15692065209E+02  0.37708863355E+03  0.38037086317E+03  0.00000000000E+00 0.  1.
         12    1    5    5    0    0 -0.95546725413E+01  0.50730046882E+02  0.13632697951E+03  0.14577336782E+03  0.00000000000E+00 0. -1.
         13    1    3    3    0    0  0.13693144857E+02  0.98137918394E+02 -0.14510065109E+04  0.14543859350E+04  0.00000000000E+00 0. -1.
        -14    1    3    3    0    0 -0.23646628397E+02  0.47927038617E+02 -0.31346393195E+03  0.31798710776E+03  0.00000000000E+00 0.  1.
          5    1    4    4  501    0  0.57684817805E+02 -0.14813845936E+03  0.29554875494E+03  0.33561746125E+03  0.41800000000E+01 0.  1.
         -5    1    4    4    0  501  0.91510795184E+01 -0.64348609741E+02  0.15599672901E+02  0.66972442292E+02  0.41800000000E+01 0.  1.
</event>
<event>
11    1  0.7157190E-009  0.1376224E+03  0.7561462E-02  0.1110243E+00
         22   -1    0    0    0    0  0.00000000000E+00  0.00000000000E+00  0.79946519203E+03  0.79946519203E+03  0.00000000000E+00 0.  1.
         22   -1    0    0    0    0 -0.00000000000E+00 -0.00000000000E+00 -0.58023503844E+03  0.58023503844E+03  0.00000000000E+00 0.  1.
        -24    2    1    2    0    0 -0.11789478773E+02  0.57726502865E+02 -0.50800839527E+03  0.51772898738E+03  0.80619065800E+02 0.  0.
         25    2    1    2    0    0 -0.99026961205E+01 -0.38597941744E+02  0.16182558761E+01  0.13130323738E+03  0.12510018744E+03 0.  0.
         24    2    1    2    0    0  0.21692174893E+02 -0.19128561121E+02  0.72562029299E+03  0.73066800570E+03  0.80712283219E+02 0.  0.
        -13    1    5    5    0    0  0.84561476133E+01 -0.25378046697E+02  0.70429409572E+03  0.70480190476E+03  0.00000000000E+00 0.  1.
         14    1    5    5    0    0  0.13236027280E+02  0.62494855768E+01  0.21326197260E+02  0.25866100938E+02  0.00000000000E+00 0. -1.
         11    1    3    3    0    0 -0.22601256283E+02 -0.14288131355E+02 -0.11953961502E+03  0.12249362042E+03  0.00000000000E+00 0. -1.
        -12    1    3    3    0    0  0.10811777511E+02  0.72014634219E+02 -0.38846878025E+03  0.39523536697E+03  0.00000000000E+00 0.  1.
          5    1    4    4  501    0  0.18893622720E+02 -0.60537312054E+02 -0.40689620278E+02  0.75464248015E+02  0.41800000000E+01 0. -1.
         -5    1    4    4    0  501 -0.28796318841E+02  0.21939370310E+02  0.42307876154E+02  0.55838989362E+02  0.41800000000E+01 0. -1.
</event>
<event>
11    1  0.7157190E-009  0.1752550E+03  0.7561462E-02  0.1073547E+00
         22   -1    0    0    0    0  0.00000000000E+00  0.00000000000E+00  0.13370078839E+03  0.13370078839E+03  0.00000000000E+00 0.  1.
         22   -1    0    0    0    0 -0.00000000000E+00 -0.00000000000E+00 -0.11320304217E+04  0.11320304217E+04  0.00000000000E+00 0. -1.
         24    2    1    2    0    0  0.46951233833E+02  0.13103003579E+03 -0.84155847821E+03  0.85681899749E+03  0.80900145700E+02 0.  0.
         25    2    1    2    0    0 -0.50017432699E+02 -0.62286912609E+02 -0.23348561404E+03  0.27666596969E+03  0.12508846375E+03 0.  0.
        -24    2    1    2    0    0  0.30661988659E+01 -0.68743123179E+02  0.76714458974E+02  0.13224624287E+03  0.82879080462E+02 0.  0.
        -11    1    3    3    0    0  0.17739988577E+02 -0.43243234596E+01 -0.49773374222E+02  0.53016938326E+02  0.00000000000E+00 0.  1.
         12    1    3    3    0    0  0.29211245256E+02  0.13535435925E+03 -0.79178510399E+03  0.80380205916E+03  0.00000000000E+00 0. -1.
         13    1    5    5    0    0 -0.13558895508E+02 -0.61648994099E+02  0.10977960022E+02  0.64069944022E+02  0.00000000000E+00 0. -1.
        -14    1    5    5    0    0  0.16625094374E+02 -0.70941290806E+01  0.65736498953E+02  0.68176298850E+02  0.00000000000E+00 0.  1.
          5    1    4    4  501    0 -0.57185945302E+02 -0.72011353044E+02 -0.77994546341E+02  0.12065027545E+03  0.41800000000E+01 0. -1.
         -5    1    4    4    0  501  0.71685126029E+01  0.97244404349E+01 -0.15549106770E+03  0.15601569424E+03  0.41800000000E+01 0. -1.
</event>
<event>
11    1  0.7157190E-009  0.1554476E+03  0.7561462E-02  0.1091439E+00
         22   -1    0    0    0    0  0.00000000000E+00  0.00000000000E+00  0.24817881434E+04  0.24817881434E+04  0.00000000000E+00 0. -1.
         22   -1    0    0    0    0 -0.00000000000E+00 -0.00000000000E+00 -0.40853745135E+03  0.40853745135E+03  0.00000000000E+00 0. -1.
        -24    2    1    2    0    0  0.38507321074E+02 -0.28021078176E+02 -0.37480976289E+03  0.38601492915E+03  0.79102291777E+02 0.  0.
         25    2    1    2    0    0 -0.41619302234E+02 -0.65811182950E+02  0.17907024844E+03  0.23189706734E+03  0.12508724093E+03 0.  0.
         24    2    1    2    0    0  0.31119811600E+01  0.93832261126E+02  0.22689902065E+04  0.22724135983E+04  0.82053803864E+02 0.  0.
        -13    1    5    5    0    0 -0.14411157838E+02  0.64459165483E+02  0.71432406215E+03  0.71737126458E+03  0.00000000000E+00 0.  1.
         14    1    5    5    0    0  0.17523138998E+02  0.29373095643E+02  0.15546661444E+04  0.15550423337E+04  0.00000000000E+00 0. -1.
         13    1    3    3    0    0 -0.64769144036E+01 -0.31574950870E+02 -0.26982367792E+03  0.27174205620E+03  0.00000000000E+00 0. -1.
        -14    1    3    3    0    0  0.44984235478E+02  0.35538726941E+01 -0.10498608497E+03  0.11427287294E+03  0.00000000000E+00 0.  1.
          5    1    4    4  501    0  0.17826048248E+02 -0.20274056875E+02 -0.95293070035E+01  0.28932429388E+02  0.41800000000E+01 0. -1.
         -5    1    4    4    0  501 -0.59445350482E+02 -0.45537126075E+02  0.18859955544E+03  0.20296463795E+03  0.41800000000E+01 0. -1.
</event>
<event>
11    1  0.7157190E-009  0.1550583E+03  0.7561462E-02  0.1091819E+00
         22   -1    0    0    0    0  0.00000000000E+00  0.00000000000E+00  0.10642116036E+04  0.10642116036E+04  0.00000000000E+00 0.  1.
         22   -1    0    0    0    0 -0.00000000000E+00 -0.00000000000E+00 -0.27881087733E+03  0.27881087733E+03  0.00000000000E+00 0.  1.
        -24    2    1    2    0    0 -0.82857174792E+02 -0.38756480173E+02 -0.24550336397E+03  0.27659871170E+03  0.88699320319E+02 0.  0.
         25    2    1    2    0    0  0.87342707337E+02  0.38990306976E+02  0.39508403328E+03  0.42530959935E+03  0.12509144408E+03 0.  0.
         24    2    1    2    0    0 -0.44855325450E+01 -0.23382680289E+00  0.63582005693E+03  0.64111416984E+03  0.82097864171E+02 0.  0.
        -11    1    5    5    0    0  0.15828233359E+02  0.19584605955E+02  0.55287814254E+03  0.55345128988E+03  0.00000000000E+00 0.  1.
         12    1    5    5    0    0 -0.20313765904E+02 -0.19818432758E+02  0.82941914389E+02  0.87662879970E+02  0.00000000000E+00 0. -1.
         11    1    3    3    0    0 -0.41924933734E+02  0.27049346585E+02 -0.93467176517E+02  0.10595036718E+03  0.00000000000E+00 0. -1.
        -12    1    3    3    0    0 -0.40932241058E+02 -0.65805826759E+02 -0.15203618745E+03  0.17064834452E+03  0.00000000000E+00 0.  1.
          5    1    4    4  501    0  0.46520448611E+02 -0.11364535054E+02  0.35124185688E+02  0.59535582774E+02  0.41800000000E+01 0. -1.
         -5    1    4    4    0  501  0.40822258726E+02  0.50354842031E+02  0.35995984759E+03  0.36577401658E+03  0.41800000000E+01 0. -1.
</event>
<event>
11    1  0.7157190E-009  0.1451761E+03  0.7561462E-02  0.1101912E+00
         22   -1    0    0    0    0  0.00000000000E+00  0.00000000000E+00  0.29670289997E+03  0.29670289997E+03  0.00000000000E+00 0.  1.
         22   -1    0    0    0    0 -0.00000000000E+00 -0.00000000000E+00 -0.50667895374E+03  0.50667895374E+03  0.00000000000E+00 0.  1.
         24    2    1    2    0    0  0.57486799597E+02  0.50168454530E+02 -0.39330200055E+03  0.40848201443E+03  0.79683665310E+02 0.  0.
         25    2    1    2    0    0 -0.79904672999E+02  0.15431688929E+02 -0.33872383861E+02  0.15302253411E+03  0.12508262775E+03 0.  0.
        -24    2    1    2    0    0  0.22417873402E+02 -0.65600143459E+02  0.21719833064E+03  0.24187730518E+03  0.80768657649E+02 0.  0.
        -13    1    3    3    0    0  0.76147347739E+02  0.32080302995E+02 -0.32674930975E+03  0.33703512551E+03  0.00000000000E+00 0.  1.
         14    1    3    3    0    0 -0.18660548142E+02  0.18088151535E+02 -0.66552690801E+02  0.71446888916E+02  0.00000000000E+00 0. -1.
         13    1    5    5    0    0  0.40426543684E+01  0.32850636769E+01 -0.57786767552E+01  0.77799616158E+01  0.00000000000E+00 0. -1.
        -14    1    5    5    0    0  0.18375219034E+02 -0.68885207135E+02  0.22297700740E+03  0.23409734357E+03  0.00000000000E+00 0.  1.
          5    1    4    4  501    0 -0.20098582579E+02 -0.39093557397E+02 -0.53770094443E+02  0.69576969667E+02  0.41800000000E+01 0. -1.
         -5    1    4    4    0  501 -0.59806090421E+02  0.54525246326E+02  0.19897710581E+02  0.83445564440E+02  0.41800000000E+01 0. -1.
</event>
<event>
11    1  0.7157190E-009  0.1789779E+03  0.7561462E-02  0.1070473E+00
         22   -1    0    0    0    0  0.00000000000E+00  0.00000000000E+00  0.87754025019E+03  0.87754025019E+03  0.00000000000E+00 0. -1.
         22   -1    0    0    0    0 -0.00000000000E+00 -0.00000000000E+00 -0.10086818973E+04  0.10086818973E+04  0.00000000000E+00 0.  1.
        -24    2    1    2    0    0 -0.53939687232E+02 -0.44810133072E+02 -0.89588131466E+03  0.90218533954E+03  0.80110043357E+02 0.  0.
         25    2    1    2    0    0  0.13970429994E+03  0.13353324756E+03  0.26945794120E+02  0.23178594907E+03  0.12510088225E+03 0.  0.
         24    2    1    2    0    0 -0.85764612705E+02 -0.88723114492E+02  0.73779387341E+03  0.75225085890E+03  0.79461910660E+02 0.  0.
        -11    1    5    5    0    0 -0.50831963256E+02 -0.76913288793E+02  0.32529467405E+03  0.33810673973E+03  0.00000000000E+00 0.  1.
         12    1    5    5    0    0 -0.34932649450E+02 -0.11809825699E+02  0.41249919935E+03  0.41414411918E+03  0.00000000000E+00 0. -1.
         11    1    3    3    0    0  0.67052876617E+01 -0.20320903446E+02 -0.59147710705E+02  0.62899536415E+02  0.00000000000E+00 0. -1.
        -12    1    3    3    0    0 -0.60644974893E+02 -0.24489229626E+02 -0.83673360395E+03  0.83928580313E+03  0.00000000000E+00 0.  1.
          5    1    4    4  501    0  0.89485690673E+02  0.45494145192E+02  0.69093285766E+02  0.12193752753E+03  0.41800000000E+01 0. -1.
         -5    1    4    4    0  501  0.50218609264E+02  0.88039102372E+02 -0.42147491646E+02  0.10984842154E+03  0.41800000000E+01 0. -1.
</event>
<event>
11    1  0.7157190E-009  0.1425381E+03  0.7561462E-02  0.1104757E+00
         22   -1    0    0    0    0  0.00000000000E+00  0.00000000000E+00  0.22593577380E+03  0.22593577380E+03  0.00000000000E+00 0.  1.
         22   -1    0    0    0    0 -0.00000000000E+00 -0.00000000000E+00 -0.22517874028E+03  0.22517874028E+03  0.00000000000E+00 0. -1.
         24    2    1    2    0    0  0.36877145722E+02 -0.85361445449E+01 -0.84818347388E+02  0.11960002493E+03  0.75347357420E+02 0.  0.
         25    2    1    2    0    0 -0.88740826539E+02 -0.30082501045E+02 -0.47275627879E+02  0.16329681655E+03  0.12510385342E+03 0.  0.
        -24    2    1    2    0    0  0.51863680817E+02  0.38618645590E+02  0.13285100879E+03  0.16821767259E+03  0.80414884567E+02 0.  0.
        -11    1    3    3    0    0  0.11423906053E+02 -0.91079228694E+01  0.12362989653E+02  0.19139054357E+02  0.00000000000E+00 0.  1.
         12    1    3    3    0    0  0.25453239668E+02  0.57177832446E+00 -0.97181337041E+02  0.10046097058E+03  0.00000000000E+00 0. -1.
         11    1    5    5    0    0 -0.37863730620E+01 -0.61379559126E+01 -0.77086983029E+01  0.10556285013E+02  0.00000000000E+00 0. -1.
        -12    1    5    5    0    0  0.55650053879E+02  0.44756601502E+02  0.14055970709E+03  0.15766138757E+03  0.00000000000E+00 0.  1.
          5    1    4    4  501    0 -0.83276710263E+02 -0.73605777931E+02 -0.25325856722E+02  0.11406880571E+03  0.41800000000E+01 0.  1.
         -5    1    4    4    0  501 -0.54641162754E+01  0.43523276887E+02 -0.21949771157E+02  0.49228010842E+02  0.41800000000E+01 0.  1.
</event>
<event>
11    1  0.7157190E-009  0.1767246E+03  0.7561462E-02  0.1072324E+00
         22   -1    0    0    0    0  0.00000000000E+00  0.00000000000E+00  0.55384536153E+03  0.55384536153E+03  0.00000000000E+00 0. -1.
         22   -1    0    0    0    0 -0.00000000000E+00 -0.00000000000E+00 -0.33592236312E+03  0.33592236312E+03  0.00000000000E+00 0.  1.
         24    2    1    2    0    0  0.74125508626E+00 -0.11016933395E+02 -0.22115660588E+03  0.23514037822E+03  0.79112773073E+02 0.  0.
         25    2    1    2    0    0 -0.88113612160E+01  0.13434899995E+03 -0.74577028592E+01  0.18393239597E+03  0.12509282585E+03 0.  0.
        -24    2    1    2    0    0  0.80701061297E+01 -0.12333206656E+03  0.44653730715E+03  0.47069495045E+03  0.82959293930E+02 0.  0.
        -11    1    3    3    0    0  0.34901183800E+02 -0.16888930131E+02 -0.69603113611E+02  0.79673847754E+02  0.00000000000E+00 0.  1.
         12    1    3    3    0    0 -0.34159928713E+02  0.58719967359E+01 -0.15155349227E+03  0.15546653047E+03  0.00000000000E+00 0. -1.
         11    1    5    5    0    0  0.74471666634E+01 -0.61376585935E+02  0.35381844609E+03  0.35917967424E+03  0.00000000000E+00 0. -1.
        -12    1    5    5    0    0  0.62293946634E+00 -0.61955480622E+02  0.92718861064E+02  0.11151527622E+03  0.00000000000E+00 0.  1.
          5    1    4    4  501    0  0.24902664870E+02 -0.23074355266E+01 -0.32173200392E+02  0.40964059855E+02  0.41800000000E+01 0.  1.
         -5    1    4    4    0  501 -0.33714026086E+02  0.13665643548E+03  0.24715497532E+02  0.14296833611E+03  0.41800000000E+01 0.  1.
</event>
<event>
11    1  0.7157190E-009  0.1936886E+03  0.7561462E-02  0.1059079E+00
         22   -1    0    0    0    0  0.00000000000E+00  0.00000000000E+00  0.43238398101E+03  0.43238398101E+03  0.00000000000E+00 0.  1.
         22   -1    0    0    0    0 -0.00000000000E+00 -0.00000000000E+00 -0.99776299903E+03  0.99776299903E+03  0.00000000000E+00 0. -1.
        -24    2    1    2    0    0 -0.44449671715E+02  0.14587324897E+03 -0.89058079493E+03  0.90743520373E+03  0.83962602254E+02 0.  0.
         25    2    1    2    0    0  0.21997597383E+02 -0.10568800485E+03 -0.19182997217E+02  0.16634251317E+03  0.12509194877E+03 0.  0.
         24    2    1    2    0    0  0.22452074331E+02 -0.40185244119E+02  0.34438477413E+03  0.35636926314E+03  0.79241589945E+02 0.  0.
        -13    1    5    5    0    0  0.12024889117E+02 -0.80836638644E+01  0.30125074272E+03  0.30159899465E+03  0.00000000000E+00 0.  1.
         14    1    5    5    0    0  0.10427185214E+02 -0.32101580255E+02  0.43134031403E+02  0.54770268498E+02  0.00000000000E+00 0. -1.
         11    1    3    3    0    0 -0.57595338676E+02  0.10163148157E+03 -0.76027630810E+03  0.76919844367E+03  0.00000000000E+00 0. -1.
        -12    1    3    3    0    0  0.13145666961E+02  0.44241767400E+02 -0.13030448684E+03  0.13823676006E+03  0.00000000000E+00 0.  1.
          5    1    4    4  501    0  0.22639623772E+02 -0.72561572134E+02 -0.71393078977E+02  0.10436559989E+03  0.41800000000E+01 0.  1.
         -5    1    4    4    0  501 -0.64202638832E+00 -0.33126432714E+02  0.52210081760E+02  0.61976913279E+02  0.41800000000E+01 0.  1.
</event>
<event>
11    1  0.7157190E-009  0.1446517E+03  0.7561462E-02  0.1102472E+00
         22   -1    0    0    0    0  0.00000000000E+00  0.00000000000E+00  0.22179091505E+03  0.22179091505E+03  0.00000000000E+00 0. -1.
         22   -1    0    0    0    0 -0.00000000000E+00 -0.00000000000E+00 -0.18307255862E+04  0.18307255862E+04  0.00000000000E+00 0.  1.
         24    2    1    2    0    0  0.11030860482E+02 -0.72518149148E+02 -0.17580459014E+04  0.17613890286E+04  0.79908427923E+02 0.  0.
         25    2    1    2    0    0  0.91875946277E+01  0.44488724738E+02  0.18993576977E+02  0.13440105642E+03  0.12505690495E+03 0.  0.
        -24    2    1    2    0    0 -0.20218455110E+02  0.28029424410E+02  0.13011765321E+03  0.15672641628E+03  0.80237966851E+02 0.  0.
        -13    1    3    3    0    0 -0.23347271201E+01 -0.70611594111E+02 -0.17106347286E+04  0.17120930532E+04  0.00000000000E+00 0.  1.
         14    1    3    3    0    0  0.13365587602E+02 -0.19065550367E+01 -0.47411172739E+02  0.49295975338E+02  0.00000000000E+00 0. -1.
         11    1    5    5    0    0 -0.30551796124E+02 -0.16900616604E+01  0.11975032231E+03  0.12359776797E+03  0.00000000000E+00 0. -1.
        -12    1    5    5    0    0  0.10333341014E+02  0.29719486071E+02  0.10367330900E+02  0.33128648309E+02  0.00000000000E+00 0.  1.
          5    1    4    4  501    0  0.19091070557E+02  0.38549329298E+02 -0.48982539733E+02  0.65324431594E+02  0.41800000000E+01 0. -1.
         -5    1    4    4    0  501 -0.99034759290E+01  0.59393954391E+01  0.67976116710E+02  0.69076624821E+02  0.41800000000E+01 0. -1.
</event>
<event>
11    1  0.7157190E-009  0.1308579E+03  0.7561462E-02  0.1118219E+00
         22   -1    0    0    0    0  0.00000000000E+00  0.00000000000E+00  0.14116813863E+04  0.14116813863E+04  0.00000000000E+00 0. -1.
         22   -1    0    0    0    0 -0.00000000000E+00 -0.00000000000E+00 -0.33604565080E+03  0.33604565080E+03  0.00000000000E+00 0. -1.
        -24    2    1    2    0    0 -0.70035457800E+01 -0.16802323491E+02 -0.31073449588E+03  0.32170985626E+03  0.81301518792E+02 0.  0.
         25    2    1    2    0    0 -0.81004588432E+01 -0.19999578654E+02  0.20125955604E+03  0.23794655120E+03  0.12509017448E+03 0.  0.
         24    2    1    2    0    0  0.15104004623E+02  0.36801902145E+02  0.11851106753E+04  0.11880706296E+04  0.73769894026E+02 0.  0.
        -11    1    5    5    0    0  0.18977283542E+02  0.31102340135E+02  0.22466311478E+03  0.22759834796E+03  0.00000000000E+00 0.  1.
         12    1    5    5    0    0 -0.38732789187E+01  0.56995620099E+01  0.96044756051E+03  0.96047228163E+03  0.00000000000E+00 0. -1.
         11    1    3    3    0    0 -0.26165190565E+02 -0.40472852205E+02 -0.23845533880E+03  0.24327683319E+03  0.00000000000E+00 0. -1.
        -12    1    3    3    0    0  0.19161644785E+02  0.23670528714E+02 -0.72279157074E+02  0.78433023069E+02  0.00000000000E+00 0.  1.
          5    1    4    4  501    0  0.15422028249E+02  0.40997237252E+02  0.14521621926E+03  0.15173607070E+03  0.41800000000E+01 0.  1.
         -5    1    4    4    0  501 -0.23522487092E+02 -0.60996815906E+02  0.56043336788E+02  0.86210480499E+02  0.41800000000E+01 0.  1.
</event>
<event>
11    1  0.7157190E-009  0.1600825E+03  0.7561462E-02  0.1087000E+00
         22   -1    0    0    0    0  0.00000000000E+00  0.00000000000E+00  0.86930906820E+03  0.86930906820E+03  0.00000000000E+00 0. -1.
         22   -1    0    0    0    0 -0.00000000000E+00 -0.00000000000E+00 -0.38381636782E+03  0.38381636782E+03  0.00000000000E+00 0. -1.
         24    2    1    2    0    0 -0.11629677014E+03 -0.32616876698E+02 -0.27815418332E+03  0.31362779208E+03  0.80024014399E+02 0.  0.
         25    2    1    2    0    0  0.18720762678E+02  0.50601755444E+02 -0.27065074996E+02  0.13889953351E+03  0.12509819150E+03 0.  0.
        -24    2    1    2    0    0  0.97576007460E+02 -0.17984878746E+02  0.79071195869E+03  0.80059811042E+03  0.76729392681E+02 0.  0.
        -13    1    3    3    0    0 -0.75672999227E+02  0.12652426827E+02 -0.10458221867E+03  0.12970708222E+03  0.00000000000E+00 0.  1.
         14    1    3    3    0    0 -0.40623770911E+02 -0.45269303525E+02 -0.17357196464E+03  0.18392070986E+03  0.00000000000E+00 0. -1.
         11    1    5    5    0    0  0.65218469139E+02 -0.41703522909E+02  0.37204724441E+03  0.38001550575E+03  0.00000000000E+00 0. -1.
        -12    1    5    5    0    0  0.32357538320E+02  0.23718644163E+02  0.41866471428E+03  0.42058260467E+03  0.00000000000E+00 0.  1.
          5    1    4    4  501    0 -0.23318998547E+02  0.10145771995E+01 -0.61000144926E+02  0.65446887941E+02  0.41800000000E+01 0. -1.
         -5    1    4    4    0  501  0.42039761225E+02  0.49587178245E+02  0.33935069930E+02  0.73452645571E+02  0.41800000000E+01 0. -1.
</event>
<event>
11    1  0.7157190E-009  0.1957215E+03  0.7561462E-02  0.1057591E+00
         22   -1    0    0    0    0  0.00000000000E+00  0.00000000000E+00  0.12371297841E+04  0.12371297841E+04  0.00000000000E+00 0.  1.
         22   -1    0    0    0    0 -0.00000000000E+00 -0.00000000000E+00 -0.79890872871E+03  0.79890872871E+03  0.00000000000E+00 0. -1.
        -24    2    1    2    0    0  0.42779673853E+02  0.14543408931E+03 -0.77011112470E+03  0.78906697301E+03  0.81082480653E+02 0.  0.
         25    2    1    2    0    0 -0.96114100055E+02 -0.64141600761E+02  0.53501111519E+03  0.56145903283E+03  0.12508911617E+03 0.  0.
         24    2    1    2    0    0  0.53334426202E+02 -0.81292488547E+02  0.67332106487E+03  0.68551250695E+03  0.84339261767E+02 0.  0.
        -11    1    5    5    0    0  0.17877971445E+02 -0.37196181087E+02  0.52728791679E+03  0.52890048681E+03  0.00000000000E+00 0.  1.
         12    1    5    5    0    0  0.35456454758E+02 -0.44096307460E+02  0.14603314807E+03  0.15661202014E+03  0.00000000000E+00 0. -1.
         11    1    3    3    0    0  0.37402499269E+02  0.15249347409E+03 -0.75777342573E+03  0.77386935030E+03  0.00000000000E+00 0. -1.
        -12    1    3    3    0    0  0.53771745834E+01 -0.70593847795E+01 -0.12337698975E+02  0.15197622708E+02  0.00000000000E+00 0.  1.
          5    1    4    4  501    0 -0.99339014934E+02  0.59872003864E+01  0.29548844310E+03  0.31182523769E+03  0.41800000000E+01 0. -1.
         -5    1    4    4    0  501  0.32249148785E+01 -0.70128801148E+02  0.23952267210E+03  0.24963379514E+03  0.41800000000E+01 0. -1.
</event>
<event>
11    1  0.7157190E-009  0.1335929E+03  0.7561462E-02  0.1114932E+00
         22   -1    0    0    0    0  0.00000000000E+00  0.00000000000E+00  0.49462357545E+03  0.49462357545E+03  0.00000000000E+00 0.  1.
         22   -1    0    0    0    0 -0.00000000000E+00 -0.00000000000E+00 -0.37954621654E+03  0.37954621654E+03  0.00000000000E+00 0. -1.
        -24    2    1    2    0    0  0.42410509973E+02  0.22044430608E+02 -0.32933580348E+03  0.34265645404E+03  0.81650264911E+02 0.  0.
         25    2    1    2    0    0 -0.17586810715E+02 -0.35772990388E+02  0.72120719930E+02  0.14978396258E+03  0.12507931264E+03 0.  0.
         24    2    1    2    0    0 -0.24823699258E+02  0.13728559780E+02  0.37229244246E+03  0.38172937538E+03  0.79441575461E+02 0.  0.
        -13    1    5    5    0    0 -0.25392966979E+02  0.38024233657E+02  0.32831651694E+03  0.33148511341E+03  0.00000000000E+00 0.  1.
         14    1    5    5    0    0  0.56926772062E+00 -0.24295673877E+02  0.43975925521E+02  0.50244261964E+02  0.00000000000E+00 0. -1.
         13    1    3    3    0    0  0.35085508239E+02 -0.26752829051E+02 -0.18223603191E+03  0.18750114153E+03  0.00000000000E+00 0. -1.
        -14    1    3    3    0    0  0.73250017345E+01  0.48797259659E+02 -0.14709977157E+03  0.15515531250E+03  0.00000000000E+00 0.  1.
          5    1    4    4  501    0 -0.45883567275E+01  0.36931731987E+02  0.65580009385E+02  0.75519639008E+02  0.41800000000E+01 0. -1.
         -5    1    4    4    0  501 -0.12998453987E+02 -0.72704722375E+02  0.65407105446E+01  0.74264323575E+02  0.41800000000E+01 0. -1.
</event>
<event>
11    1  0.7157190E-009  0.1531236E+03  0.7561462E-02  0.1093729E+00
         22   -1    0    0    0    0  0.00000000000E+00  0.00000000000E+00  0.51461098329E+03  0.51461098329E+03  0.00000000000E+00 0. -1.
         22   -1    0    0    0    0 -0.00000000000E+00 -0.00000000000E+00 -0.85979755782E+03  0.85979755782E+03  0.00000000000E+00 0.  1.
        -24    2    1    2    0    0  0.81901116461E+02 -0.24704812864E+02 -0.74237366055E+03  0.75161124090E+03  0.80515122249E+02 0.  0.
         25    2    1    2    0    0 -0.11983054921E+03  0.92223528048E+02 -0.14286235640E+02  0.19678257776E+03  0.12511893035E+03 0.  0.
         24    2    1    2    0    0  0.37929432745E+02 -0.67518715184E+02  0.41147332166E+03  0.42601472246E+03  0.78618258355E+02 0.  0.
        -11    1    5    5    0    0  0.63621626479E+01 -0.30282814250E+01 -0.11947410527E+01  0.71466781186E+01  0.00000000000E+00 0.  1.
         12    1    5    5    0    0  0.31567270097E+02 -0.64490433759E+02  0.41266806271E+03  0.41886804434E+03  0.00000000000E+00 0. -1.
         13    1    3    3    0    0  0.28383097946E+02  0.58911378459E+01 -0.61905686844E+02  0.68356563824E+02  0.00000000000E+00 0. -1.
        -14    1    3    3    0    0  0.53518018515E+02 -0.30595950710E+02 -0.68046797370E+03  0.68325467707E+03  0.00000000000E+00 0.  1.
          5    1    4    4  501    0 -0.10296672128E+02  0.50707244171E+02  0.41983484311E+02  0.66763249047E+02  0.41800000000E+01 0.  1.
         -5    1    4    4    0  501 -0.10953387708E+03  0.41516283877E+02 -0.56269719951E+02  0.13001932871E+03  0.41800000000E+01 0.  1.
</event>
<event>
11    1  0.7157190E-009  0.2038677E+03  0.7561462E-02  0.1051822E+00
         22   -1    0    0    0    0  0.00000000000E+00  0.00000000000E+00  0.19405430485E+04  0.19405430485E+04  0.00000000000E+00 0. -1.
         22   -1    0    0    0    0 -0.00000000000E+00 -0.00000000000E+00 -0.14467800884E+03  0.14467800884E+03  0.00000000000E+00 0.  1.
        -24    2    1    2    0    0  0.12830357265E+03 -0.10340089227E+03 -0.56357424049E+02  0.19203751603E+03  0.80924020180E+02 0.  0.
         25    2    1    2    0    0 -0.11562181311E+03  0.72984800107E+02  0.42769143216E+03  0.46611441565E+03  0.12508997807E+03 0.  0.
         24    2    1    2    0    0 -0.12681759538E+02  0.30416092159E+02  0.14245310315E+04  0.14270691257E+04  0.78432543448E+02 0.  0.
        -13    1    5    5    0    0 -0.16215256885E+02  0.16243332462E+02  0.10596288521E+03  0.10842007862E+03  0.00000000000E+00 0.  1.
         14    1    5    5    0    0  0.35334973474E+01  0.14172759697E+02  0.13185681463E+04  0.13186490470E+04  0.00000000000E+00 0. -1.
         13    1    3    3    0    0  0.65364127727E+01 -0.13776941420E+01 -0.30335163158E+02  0.31061951917E+02  0.00000000000E+00 0. -1.
        -14    1    3    3    0    0  0.12176715988E+03 -0.10202319812E+03 -0.26022260891E+02  0.16097556412E+03  0.00000000000E+00 0.  1.
          5    1    4    4  501    0 -0.59241246951E+02  0.67893852823E+02  0.38408374455E+03  0.39453377019E+03  0.41800000000E+01 0. -1.
         -5    1    4    4    0  501 -0.56380566164E+02  0.50909472836E+01  0.43607687615E+02  0.71580645460E+02  0.41800000000E+01 0. -1.
</event>
<event>
11    1  0.7157190E-009  0.1543978E+03  0.7561462E-02  0.1092468E+00
         22   -1    0    0    0    0  0.00000000000E+00  0.00000000000E+00  0.18304441722E+03  0.18304441722E+03  0.00000000000E+00 0.  1.
         22   -1    0    0    0    0 -0.00000000000E+00 -0.00000000000E+00 -0.83275731975E+03  0.83275731975E+03  0.00000000000E+00 0.  1.
        -24    2    1    2    0    0  0.42151749584E+02 -0.80865370064E+02 -0.70177903200E+03  0.71221006518E+03  0.80208410536E+02 0.  0.
         25    2    1    2    0    0 -0.28875316886E+02  0.79551976764E+02 -0.65986429016E+02  0.16481719494E+03  0.12509275759E+03 0.  0.
         24    2    1    2    0    0 -0.13276432698E+02  0.13133933006E+01  0.11805255848E+03  0.13877447684E+03  0.71721406792E+02 0.  0.
        -11    1    5    5    0    0  0.24505432293E+02  0.79819664831E+01  0.82632433292E+02  0.86558344673E+02  0.00000000000E+00 0.  1.
         12    1    5    5    0    0 -0.37781864991E+02 -0.66685731826E+01  0.35420125189E+02  0.52216132171E+02  0.00000000000E+00 0. -1.
         13    1    3    3    0    0  0.35876064755E+02 -0.18156005906E+02 -0.11061658415E+03  0.11769775385E+03  0.00000000000E+00 0. -1.
        -14    1    3    3    0    0  0.62756848293E+01 -0.62709364159E+02 -0.59116244785E+03  0.59451231133E+03  0.00000000000E+00 0.  1.
          5    1    4    4  501    0  0.23372558301E+02  0.17537526814E+02 -0.77384512106E+02  0.82823163682E+02  0.41800000000E+01 0.  1.
         -5    1    4    4    0  501 -0.52247875187E+02  0.62014449950E+02  0.11398083091E+02  0.81994031260E+02  0.41800000000E+01 0.  1.
</event>
<event>
11    1  0.7157190E-009  0.1345085E+03  0.7561462E-02  0.1113850E+00
         22   -1    0    0    0    0  0.00000000000E+00  0.00000000000E+00  0.23018858824E+03  0.23018858824E+03  0.00000000000E+00 0. -1.
         22   -1    0    0    0    0 -0.00000000000E+00 -0.00000000000E+00 -0.29277815180E+03  0.29277815180E+03  0.00000000000E+00 0.  1.
        -24    2    1    2    0    0  0.28177693905E+02 -0.43812794794E+02 -0.20585578862E+03  0.22647564383E+03  0.78746861015E+02 0.  0.
         25    2    1    2    0    0 -0.22491830128E+02  0.24703582406E+02 -0.77429170363E+00  0.12947445515E+03  0.12508751177E+03 0.  0.
         24    2    1    2    0    0 -0.56858637768E+01  0.19109212388E+02  0.14404051676E+03  0.16701664107E+03  0.82154713060E+02 0.  0.
        -13    1    5    5    0    0 -0.14453047313E+02 -0.27956802171E+02  0.30637359768E+02  0.43921762006E+02  0.00000000000E+00 0.  1.
         14    1    5    5    0    0  0.87671835360E+01  0.47066014559E+02  0.11340315700E+03  0.12309487906E+03  0.00000000000E+00 0. -1.
         11    1    3    3    0    0  0.10731526669E+02 -0.28932760727E+02 -0.15115493835E+02  0.34362020630E+02  0.00000000000E+00 0. -1.
        -12    1    3    3    0    0  0.17446167237E+02 -0.14880034067E+02 -0.19074029479E+03  0.19211362320E+03  0.00000000000E+00 0.  1.
          5    1    4    4  501    0 -0.12843978832E+02  0.60939248644E+02 -0.40720550548E+02  0.74526474856E+02  0.41800000000E+01 0. -1.
         -5    1    4    4    0  501 -0.96478512961E+01 -0.36235666238E+02  0.39946258844E+02  0.54947980290E+02  0.41800000000E+01 0. -1.
</event>
<event>
11    1  0.7157190E-009  0.1873570E+03  0.7561462E-02  0.1063843E+00
         22   -1    0    0    0    0  0.00000000000E+00  0.00000000000E+00  0.53852807245E+03  0.53852807245E+03  0.00000000000E+00 0.  1.
         22   -1    0    0    0    0 -0.00000000000E+00 -0.00000000000E+00 -0.38245064478E+03  0.38245064478E+03  0.00000000000E+00 0. -1.
         24    2    1    2    0    0 -0.39956556168E+02  0.39269275918E+02 -0.31563347050E+03  0.33081406506E+03  0.81699789046E+02 0.  0.
         25    2    1    2    0    0 -0.78061168153E+02 -0.11873752760E+03  0.22847157863E+03  0.29671343671E+03  0.12508978715E+03 0.  0.
        -24    2    1    2    0    0  0.11801772432E+03  0.79468251684E+02  0.24323931956E+03  0.29345121546E+03  0.81883227811E+02 0.  0.
        -13    1    3    3    0    0 -0.47334976854E+02 -0.10206165978E+02 -0.17372152128E+03  0.18034392924E+03  0.00000000000E+00 0.  1.
         14    1    3    3    0    0  0.73784206864E+01  0.49475441896E+02 -0.14191194923E+03  0.15047013583E+03  0.00000000000E+00 0. -1.
         11    1    5    5    0    0  0.93476656163E+02  0.14527020720E+02  0.13433421843E+03  0.16430034029E+03  0.00000000000E+00 0. -1.
        -12    1    5    5    0    0  0.24541068157E+02  0.64941230964E+02  0.10890510113E+03  0.12915087517E+03  0.00000000000E+00 0.  1.
          5    1    4    4  501    0 -0.69173248314E+02 -0.12507361289E+03  0.24059192366E+03  0.27987549563E+03  0.41800000000E+01 0.  1.
         -5    1    4    4    0  501 -0.88879198388E+01  0.63360852923E+01 -0.12120345037E+02  0.16837941077E+02  0.41800000000E+01 0.  1.
</event>
<event>
11    1  0.7157190E-009  0.1291511E+03  0.7561462E-02  0.1120316E+00
         22   -1    0    0    0    0  0.00000000000E+00  0.00000000000E+00  0.20319933497E+04  0.20319933497E+04  0.00000000000E+00 0. -1.
         22   -1    0    0    0    0 -0.00000000000E+00 -0.00000000000E+00 -0.33689452153E+02  0.33689452153E+02  0.00000000000E+00 0. -1.
         24    2    1    2    0    0  0.44957882698E+02  0.12248713198E+02  0.10698598124E+03  0.14270657384E+03  0.82145747565E+02 0.  0.
         25    2    1    2    0    0 -0.21768846387E+01  0.38711122288E+01  0.25276352243E+03  0.28205701829E+03  0.12508812475E+03 0.  0.
        -24    2    1    2    0    0 -0.42780998060E+02 -0.16119825427E+02  0.16385543939E+04  0.16409192098E+04  0.75268111506E+02 0.  0.
        -11    1    3    3    0    0  0.39172417099E+02 -0.23505513330E+02  0.93489867440E+02  0.10405451808E+03  0.00000000000E+00 0.  1.
         12    1    3    3    0    0  0.57854655992E+01  0.35754226528E+02  0.13496113799E+02  0.38652055760E+02  0.00000000000E+00 0. -1.
         11    1    5    5    0    0 -0.59087032474E+02  0.34004463674E+01  0.13308594727E+04  0.13321748295E+04  0.00000000000E+00 0. -1.
        -12    1    5    5    0    0  0.16306034414E+02 -0.19520271794E+02  0.30769492121E+03  0.30874438021E+03  0.00000000000E+00 0.  1.
          5    1    4    4  501    0 -0.17843712220E+02  0.61038228350E+02  0.15584713421E+03  0.16837418159E+03  0.41800000000E+01 0.  1.
         -5    1    4    4    0  501  0.15666827581E+02 -0.57167116121E+02  0.96916388227E+02  0.11368283669E+03  0.41800000000E+01 0.  1.
</event>
<event>
11    1  0.7157190E-009  0.1373605E+03  0.7561462E-02  0.1110542E+00
         22   -1    0    0    0    0  0.00000000000E+00  0.00000000000E+00  0.27202936076E+03  0.27202936076E+03  0.00000000000E+00 0.  1.
         22   -1    0    0    0    0 -0.00000000000E+00 -0.00000000000E+00 -0.28998001531E+03  0.28998001531E+03  0.00000000000E+00 0.  1.
        -24    2    1    2    0    0 -0.34513303240E+02  0.36368190933E+02 -0.17040973184E+03  0.19453046251E+03  0.79302022208E+02 0.  0.
         25    2    1    2    0    0 -0.23719662349E+02 -0.48351304037E+02 -0.47355709245E+02  0.14418742144E+03  0.12508788239E+03 0.  0.
         24    2    1    2    0    0  0.58232965589E+02  0.11983113104E+02  0.19981478653E+03  0.22329149212E+03  0.79990426006E+02 0.  0.
        -11    1    5    5    0    0  0.39445578660E+02  0.45880328325E+02  0.11182422146E+03  0.12714407068E+03  0.00000000000E+00 0.  1.
         12    1    5    5    0    0  0.18787386929E+02 -0.33897215221E+02  0.87990565071E+02  0.96147421437E+02  0.00000000000E+00 0. -1.
         11    1    3    3    0    0  0.51739761419E+01  0.49890205063E+02 -0.11109787643E+03  0.12189561411E+03  0.00000000000E+00 0. -1.
        -12    1    3    3    0    0 -0.39687279382E+02 -0.13522014130E+02 -0.59311855412E+02  0.72634848408E+02  0.00000000000E+00 0.  1.
          5    1    4    4  501    0 -0.36500133456E+02  0.29773029225E+02 -0.44390416738E+02  0.64858881502E+02  0.41800000000E+01 0.  1.
         -5    1    4    4    0  501  0.12780471106E+02 -0.78124333262E+02 -0.29652925068E+01  0.79328539940E+02  0.41800000000E+01 0.  1.
</event>
<event>
11    1  0.7157190E-009  0.1303020E+03  0.7561462E-02  0.1118898E+00
         22   -1    0    0    0    0  0.00000000000E+00  0.00000000000E+00  0.20252680609E+03  0.20252680609E+03  0.00000000000E+00 0.  1.
         22   -1    0    0    0    0 -0.00000000000E+00 -0.00000000000E+00 -0.28421814934E+03  0.28421814934E+03  0.00000000000E+00 0.  1.
        -24    2    1    2    0    0 -0.33853410355E+02  0.21378427941E+01 -0.19749761145E+03  0.21935562230E+03  0.89224204917E+02 0.  0.
         25    2    1    2    0    0  0.67073607107E+02  0.32211764730E+02  0.72983474158E+02  0.16277662495E+03  0.12503269802E+03 0.  0.
         24    2    1    2    0    0 -0.33220196752E+02 -0.34349607524E+02  0.42822794048E+02  0.10461270818E+03  0.82622938782E+02 0.  0.
        -13    1    5    5    0    0 -0.11084718854E+02 -0.59599429595E+02  0.19318942594E+02  0.63625345131E+02  0.00000000000E+00 0.  1.
         14    1    5    5    0    0 -0.22135477898E+02  0.25249822070E+02  0.23503851453E+02  0.40987363047E+02  0.00000000000E+00 0. -1.
         11    1    3    3    0    0 -0.18219887856E+02 -0.34712685485E+02 -0.36877986077E+02  0.53823049934E+02  0.00000000000E+00 0. -1.
        -12    1    3    3    0    0 -0.15633522499E+02  0.36850528280E+02 -0.16061962537E+03  0.16553257237E+03  0.00000000000E+00 0.  1.
          5    1    4    4  501    0  0.18156564724E+02 -0.47604755239E+02  0.33319366454E+02  0.61020702592E+02  0.41800000000E+01 0. -1.
         -5    1    4    4    0  501  0.48917042383E+02  0.79816519969E+02  0.39664107704E+02  0.10175592236E+03  0.41800000000E+01 0. -1.
</event>
<event>
11    1  0.7157190E-009  0.1441808E+03  0.7561462E-02  0.1102978E+00
         22   -1    0    0    0    0  0.00000000000E+00  0.00000000000E+00  0.13207393625E+04  0.13207393625E+04  0.00000000000E+00 0.  1.
         22   -1    0    0    0    0 -0.00000000000E+00 -0.00000000000E+00 -0.25863624105E+03  0.25863624105E+03  0.00000000000E+00 0.  1.
        -24    2    1    2    0    0 -0.13556289856E+02 -0.69276479358E+02 -0.22682228532E+03  0.25028190543E+03  0.78801519525E+02 0.  0.
         25    2    1    2    0    0  0.25885149550E+02  0.10409811279E+03  0.35927009194E+03  0.39525908879E+03  0.12509312631E+03 0.  0.
         24    2    1    2    0    0 -0.12328859693E+02 -0.34821633430E+02  0.92965531485E+03  0.93383460936E+03  0.80146904388E+02 0.  0.
        -11    1    5    5    0    0  0.11613400504E+02  0.22931808081E+02  0.26073719524E+03  0.26200119060E+03  0.00000000000E+00 0.  1.
         12    1    5    5    0    0 -0.23942260198E+02 -0.57753441511E+02  0.66891811960E+03  0.67183341876E+03  0.00000000000E+00 0. -1.
         13    1    3    3    0    0  0.10120384743E+02  0.79018692305E+01 -0.42555621294E+01  0.13526697073E+02  0.00000000000E+00 0. -1.
        -14    1    3    3    0    0 -0.23676674599E+02 -0.77178348588E+02 -0.22256672319E+03  0.23675520835E+03  0.00000000000E+00 0.  1.
          5    1    4    4  501    0 -0.23818540189E+01  0.52188609144E+02  0.31979124866E+03  0.32405746292E+03  0.41800000000E+01 0. -1.
         -5    1    4    4    0  501  0.28267003569E+02  0.51909503644E+02  0.39478843278E+02  0.71201625865E+02  0.41800000000E+01 0. -1.
</event>
<event>
11    1  0.7157190E-009  0.2103854E+03  0.7561462E-02  0.1047413E+00
         22   -1    0    0    0    0  0.00000000000E+00  0.00000000000E+00  0.88518172546E+03  0.88518172546E+03  0.00000000000E+00 0.  1.
         22   -1    0    0    0    0 -0.00000000000E+00 -0.00000000000E+00 -0.21607940456E+04  0.21607940456E+04  0.00000000000E+00 0.  1.
        -24    2    1    2    0    0 -0.26037871881E+02 -0.16505301665E+03 -0.20185372348E+04  0.20270942850E+04  0.81842549309E+02 0.  0.
         25    2    1    2    0    0  0.42903888291E+02  0.22678893383E+03 -0.76007334424E+01  0.26263828209E+03  0.12508849639E+03 0.  0.
         24    2    1    2    0    0 -0.16866016410E+02 -0.61735917186E+02  0.75052564807E+03  0.75624320402E+03  0.67225361614E+02 0.  0.
        -11    1    5    5    0    0 -0.30968594315E+02 -0.28920281613E+02  0.60175493306E+03  0.60324492206E+03  0.00000000000E+00 0.  1.
         12    1    5    5    0    0  0.14102577905E+02 -0.32815635572E+02  0.14877071500E+03  0.15299828196E+03  0.00000000000E+00 0. -1.
         13    1    3    3    0    0 -0.30082377488E+02 -0.44755772447E+02 -0.34030341737E+03  0.34454962556E+03  0.00000000000E+00 0. -1.
        -14    1    3    3    0    0  0.40445056068E+01 -0.12029724420E+03 -0.16782338174E+04  0.16825446594E+04  0.00000000000E+00 0.  1.
          5    1    4    4  501    0  0.82932590951E+01  0.18755755484E+03  0.39754134571E+02  0.19194915509E+03  0.41800000000E+01 0. -1.
         -5    1    4    4    0  501  0.34610629196E+02  0.39231378996E+02 -0.47354868013E+02  0.70689126999E+02  0.41800000000E+01 0. -1.
</event>
<event>
11    1  0.7157190E-009  0.1353756E+03  0.7561462E-02  0.1112835E+00
         22   -1    0    0    0    0  0.00000000000E+00  0.00000000000E+00  0.72076234767E+03  0.72076234767E+03  0.00000000000E+00 0. -1.
         22   -1    0    0    0    0 -0.00000000000E+00 -0.00000000000E+00 -0.44838215047E+03  0.44838215047E+03  0.00000000000E+00 0. -1.
         24    2    1    2    0    0  0.44660310009E+02 -0.22246007094E+02 -0.36385357014E+03  0.37593346839E+03  0.80293985026E+02 0.  0.
         25    2    1    2    0    0 -0.68474579991E+02  0.26872250448E+02 -0.53507090177E+01  0.14521516916E+03  0.12509168365E+03 0.  0.
        -24    2    1    2    0    0  0.23814269982E+02 -0.46262433539E+01  0.64158447635E+03  0.64799586059E+03  0.87632605011E+02 0.  0.
        -13    1    3    3    0    0  0.49760556267E+02 -0.14927045410E+02 -0.10720105675E+03  0.11912596784E+03  0.00000000000E+00 0.  1.
         14    1    3    3    0    0 -0.51002462574E+01 -0.73189616838E+01 -0.25665251339E+03  0.25680750055E+03  0.00000000000E+00 0. -1.
         11    1    5    5    0    0  0.17087974180E+02 -0.21994035312E+02  0.61447002980E+03  0.61510092990E+03  0.00000000000E+00 0. -1.
        -12    1    5    5    0    0  0.67262958019E+01  0.17367791958E+02  0.27114446558E+02  0.32894930687E+02  0.00000000000E+00 0.  1.
          5    1    4    4  501    0 -0.53718418697E+02 -0.45653651895E+02  0.25361285438E+01  0.70667027577E+02  0.41800000000E+01 0.  1.
         -5    1    4    4    0  501 -0.14756161294E+02  0.72525902342E+02 -0.78868375616E+01  0.74548141583E+02  0.41800000000E+01 0.  1.
</event>
<event>
11    1  0.7157190E-009  0.1500953E+03  0.7561462E-02  0.1096781E+00
         22   -1    0    0    0    0  0.00000000000E+00  0.00000000000E+00  0.23351082593E+03  0.23351082593E+03  0.00000000000E+00 0.  1.
         22   -1    0    0    0    0 -0.00000000000E+00 -0.00000000000E+00 -0.45030268213E+03  0.45030268213E+03  0.00000000000E+00 0.  1.
         24    2    1    2    0    0  0.51168536434E+02  0.21722790715E+02 -0.31742290693E+03  0.33206474950E+03  0.80122389238E+02 0.  0.
         25    2    1    2    0    0 -0.58164203350E+02 -0.10041624890E+03 -0.40488365773E+02  0.17535999081E+03  0.12508125766E+03 0.  0.
        -24    2    1    2    0    0  0.69956669165E+01  0.78693458186E+02  0.14111941650E+03  0.17638876775E+03  0.70403891637E+02 0.  0.
        -11    1    3    3    0    0  0.16742941394E+02  0.49507487778E+02 -0.19546078847E+03  0.20232705519E+03  0.00000000000E+00 0.  1.
         12    1    3    3    0    0  0.34425595040E+02 -0.27784697063E+02 -0.12196211846E+03  0.12973769430E+03  0.00000000000E+00 0. -1.
         11    1    5    5    0    0  0.35455015711E+02  0.24243787316E+02  0.44161652702E+02  0.61604147034E+02  0.00000000000E+00 0. -1.
        -12    1    5    5    0    0 -0.28459348794E+02  0.54449670870E+02  0.96957763800E+02  0.11478462072E+03  0.00000000000E+00 0.  1.
          5    1    4    4  501    0 -0.82161536131E+02 -0.10850886229E+03 -0.53840178708E+02  0.14642721215E+03  0.41800000000E+01 0.  1.
         -5    1    4    4    0  501  0.23997332780E+02  0.80926133908E+01  0.13351812934E+02  0.28932778655E+02  0.41800000000E+01 0.  1.
</event>
<event>
11    1  0.7157190E-009  0.1415534E+03  0.7561462E-02  0.1105836E+00
         22   -1    0    0    0    0  0.00000000000E+00  0.00000000000E+00  0.44289439132E+03  0.44289439132E+03  0.00000000000E+00 0.  1.
         22   -1    0    0    0    0 -0.00000000000E+00 -0.00000000000E+00 -0.33912999299E+03  0.33912999299E+03  0.00000000000E+00 0. -1.
        -24    2    1    2    0    0  0.57812718207E+01  0.47804649442E+02 -0.28399555704E+03  0.29657562775E+03  0.70603958432E+02 0.  0.
         25    2    1    2    0    0  0.42852267573E+02 -0.80739134442E+02  0.13787235494E+03  0.20739548001E+03  0.12509586007E+03 0.  0.
         24    2    1    2    0    0 -0.48633539394E+02  0.32934485000E+02  0.24988760043E+03  0.27805327655E+03  0.10686398035E+03 0.  0.
        -11    1    5    5    0    0 -0.54976833044E+02  0.48914783652E+02  0.25026133198E+03  0.26085598041E+03  0.00000000000E+00 0.  1.
         12    1    5    5    0    0  0.63432936503E+01 -0.15980298652E+02 -0.37373155041E+00  0.17197296143E+02  0.00000000000E+00 0. -1.
         11    1    3    3    0    0  0.33064434132E+02  0.15170256907E+02 -0.18931875831E+03  0.19278222363E+03  0.00000000000E+00 0. -1.
        -12    1    3    3    0    0 -0.27283162312E+02  0.32634392535E+02 -0.94676798726E+02  0.10379340412E+03  0.00000000000E+00 0.  1.
          5    1    4    4  501    0  0.40424449537E+02  0.21154107050E+02  0.16144799127E+02  0.48577353822E+02  0.41800000000E+01 0.  1.
         -5    1    4    4    0  501  0.24278180360E+01 -0.10189324149E+03  0.12172755581E+03  0.15881812619E+03  0.41800000000E+01 0.  1.
</event>
<event>
11    1  0.7157190E-009  0.1730604E+03  0.7561462E-02  0.1075399E+00
         22   -1    0    0    0    0  0.00000000000E+00  0.00000000000E+00  0.29120994899E+03  0.29120994899E+03  0.00000000000E+00 0. -1.
         22   -1    0    0    0    0 -0.00000000000E+00 -0.00000000000E+00 -0.28061357396E+03  0.28061357396E+03  0.00000000000E+00 0. -1.
         24    2    1    2    0    0  0.47648405322E+02 -0.11611597783E+02 -0.17184569446E+03  0.19444430309E+03  0.76631876966E+02 0.  0.
         25    2    1    2    0    0  0.86661315430E+02 -0.10670118835E+02  0.25769598807E+02  0.15470997578E+03  0.12508824627E+03 0.  0.
        -24    2    1    2    0    0 -0.13430972075E+03  0.22281716618E+02  0.15667247068E+03  0.22266924409E+03  0.80621046943E+02 0.  0.
        -13    1    3    3    0    0  0.20006784320E+02  0.25627824358E+02 -0.26704153311E+02  0.42073371676E+02  0.00000000000E+00 0.  1.
         14    1    3    3    0    0  0.27641621002E+02 -0.37239422141E+02 -0.14514154115E+03  0.15237093141E+03  0.00000000000E+00 0. -1.
         13    1    5    5    0    0 -0.35641947022E+02  0.28653667411E+02  0.96857013073E+02  0.10711051314E+03  0.00000000000E+00 0. -1.
        -14    1    5    5    0    0 -0.98667773729E+02 -0.63719507927E+01  0.59815457603E+02  0.11555873095E+03  0.00000000000E+00 0.  1.
          5    1    4    4  501    0  0.67959756071E+02  0.49016785961E+02 -0.66045795842E+01  0.84156203709E+02  0.41800000000E+01 0.  1.
         -5    1    4    4    0  501  0.18701559359E+02 -0.59686904796E+02  0.32374178392E+02  0.70553772069E+02  0.41800000000E+01 0.  1.
</event>
<event>
11    1  0.7157190E-009  0.1866738E+03  0.7561462E-02  0.1064369E+00
         22   -1    0    0    0    0  0.00000000000E+00  0.00000000000E+00  0.33468942210E+04  0.33468942210E+04  0.00000000000E+00 0. -1.
         22   -1    0    0    0    0 -0.00000000000E+00 -0.00000000000E+00 -0.54028114606E+02  0.54028114606E+02  0.00000000000E+00 0. -1.
         24    2    1    2    0    0 -0.99383840493E+02  0.16298269620E+02  0.67032150007E+02  0.14453084354E+03  0.79076382411E+02 0.  0.
         25    2    1    2    0    0  0.28122390556E+02 -0.14119654737E+03  0.71193838322E+03  0.73704220944E+03  0.12509045988E+03 0.  0.
        -24    2    1    2    0    0  0.71261449937E+02  0.12489827775E+03  0.25138955731E+04  0.25193492826E+04  0.82292655037E+02 0.  0.
        -11    1    3    3    0    0 -0.39824463668E+02  0.45280282409E+02  0.43027536005E+02  0.74078746859E+02  0.00000000000E+00 0.  1.
         12    1    3    3    0    0 -0.59559376825E+02 -0.28982012788E+02  0.24004614002E+02  0.70452096678E+02  0.00000000000E+00 0. -1.
         13    1    5    5    0    0 -0.11051272221E+02  0.42147554210E+02  0.43412779560E+03  0.43630893855E+03  0.00000000000E+00 0. -1.
        -14    1    5    5    0    0  0.82312722158E+02  0.82750723536E+02  0.20797677775E+04  0.20830403440E+04  0.00000000000E+00 0.  1.
          5    1    4    4  501    0 -0.35625646973E+02 -0.35911764371E+02  0.92792682744E+02  0.10576765060E+03  0.41800000000E+01 0. -1.
         -5    1    4    4    0  501  0.63748037529E+02 -0.10528478300E+03  0.61914570048E+03  0.63127455884E+03  0.41800000000E+01 0. -1.
</event>
<event>
11    1  0.7447972E-009  0.1941650E+03  0.7561462E-02  0.1058728E+00
         22   -1    0    0    0    0  0.00000000000E+00  0.00000000000E+00  0.50544436977E+03  0.50544436977E+03  0.00000000000E+00 0.  1.
         22   -1    0    0    0    0 -0.00000000000E+00 -0.00000000000E+00 -0.19946924475E+04  0.19946924475E+04  0.00000000000E+00 0. -1.
        -24    2    1    2    0    0  0.81993491410E-01  0.19113810895E+02 -0.16601759684E+04  0.16622606496E+04  0.80999238553E+02 0.  0.
         25    2    1    2    0    0 -0.56561580569E+02 -0.15561105481E+03 -0.28501588791E+03  0.35255598859E+03  0.12509059099E+03 0.  0.
         24    2    1    2    0    0  0.56479587078E+02  0.13649724392E+03  0.45594377852E+03  0.48532017914E+03  0.76351200111E+02 0.  0.
        -13    1    5    5    0    0  0.46783618204E+02  0.77929970956E+02  0.36908721561E+03  0.38011466695E+03  0.00000000000E+00 0.  1.
         14    1    5    5    0    0  0.96959688736E+01  0.58567272961E+02  0.86856562904E+02  0.10520551218E+03  0.00000000000E+00 0. -1.
         13    1    3    3    0    0 -0.34832086194E+02 -0.17048277474E+01 -0.11261286030E+04  0.11266684567E+04  0.00000000000E+00 0. -1.
        -14    1    3    3    0    0  0.34914079685E+02  0.20818638643E+02 -0.53404736534E+03  0.53559219291E+03  0.00000000000E+00 0.  1.
          5    1    4    4  501    0 -0.31015192679E+02 -0.16336248991E+03 -0.27908265943E+03  0.32489051768E+03  0.41800000000E+01 0. -1.
         -5    1    4    4    0  501 -0.25546387890E+02  0.77514351002E+01 -0.59332284804E+01  0.27665470908E+02  0.41800000000E+01 0. -1.
</event>
<event>
11    1  0.7157190E-009  0.1519564E+03  0.7561462E-02  0.1094896E+00
         22   -1    0    0    0    0  0.00000000000E+00  0.00000000000E+00  0.23206685246E+04  0.23206685246E+04  0.00000000000E+00 0.  1.
         22   -1    0    0    0    0 -0.00000000000E+00 -0.00000000000E+00 -0.10381951773E+03  0.10381951773E+03  0.00000000000E+00 0. -1.
        -24    2    1    2    0    0  0.66232141043E+02  0.14345628034E+02 -0.63532370829E+02  0.12428414284E+03  0.82569319171E+02 0.  0.
         25    2    1    2    0    0 -0.65260736620E+02 -0.95462735136E+02  0.97531364322E+03  0.99008034639E+03  0.12510112750E+03 0.  0.
         24    2    1    2    0    0 -0.97140442305E+00  0.81117107102E+02  0.13050677345E+04  0.13101235531E+04  0.81492356367E+02 0.  0.
        -11    1    5    5    0    0  0.20629628808E+02  0.89419628337E+02  0.10225487505E+04  0.10266583651E+04  0.00000000000E+00 0.  1.
         12    1    5    5    0    0 -0.21601033231E+02 -0.83025212350E+01  0.28251898399E+03  0.28346518801E+03  0.00000000000E+00 0. -1.
         11    1    3    3    0    0  0.77719146696E+02 -0.54653870974E+01 -0.64816912876E+02  0.10134775979E+03  0.00000000000E+00 0. -1.
        -12    1    3    3    0    0 -0.11487005653E+02  0.19811015132E+02  0.12845420463E+01  0.22936383056E+02  0.00000000000E+00 0.  1.
          5    1    4    4  501    0  0.20625450377E+02 -0.78962126930E+02  0.41531567685E+03  0.42327888032E+03  0.41800000000E+01 0.  1.
         -5    1    4    4    0  501 -0.85886186997E+02 -0.16500608207E+02  0.55999796638E+03  0.56680146606E+03  0.41800000000E+01 0.  1.
</event>
<event>
11    1  0.7157190E-009  0.1326454E+03  0.7561462E-02  0.1116061E+00
         22   -1    0    0    0    0  0.00000000000E+00  0.00000000000E+00  0.20705488272E+03  0.20705488272E+03  0.00000000000E+00 0. -1.
         22   -1    0    0    0    0 -0.00000000000E+00 -0.00000000000E+00 -0.18405360329E+04  0.18405360329E+04  0.00000000000E+00 0.  1.
         24    2    1    2    0    0  0.21137474387E+01  0.43379236933E+02 -0.17375373751E+04  0.17398805916E+04  0.79133540613E+02 0.  0.
         25    2    1    2    0    0  0.86122591932E+01 -0.82716236397E+02 -0.23779728011E+02  0.15208312476E+03  0.12509058558E+03 0.  0.
        -24    2    1    2    0    0 -0.10726006632E+02  0.39336999464E+02  0.12783595286E+03  0.15562719927E+03  0.78837475617E+02 0.  0.
        -13    1    3    3    0    0 -0.44968239641E+01 -0.16494365946E+02 -0.90720896430E+03  0.90737004052E+03  0.00000000000E+00 0.  1.
         14    1    3    3    0    0  0.66105714027E+01  0.59873602879E+02 -0.83032841077E+03  0.83251055111E+03  0.00000000000E+00 0. -1.
         13    1    5    5    0    0  0.10330469660E+02 -0.14550598644E+02  0.75606514946E+02  0.77683869796E+02  0.00000000000E+00 0. -1.
        -14    1    5    5    0    0 -0.21056476292E+02  0.53887598108E+02  0.52229437918E+02  0.77943329470E+02  0.00000000000E+00 0.  1.
          5    1    4    4  501    0  0.23859266150E+02  0.27485483878E+02  0.53017114525E+01  0.37017522196E+02  0.41800000000E+01 0.  1.
         -5    1    4    4    0  501 -0.15247006956E+02 -0.11020172028E+03 -0.29081439463E+02  0.11506560257E+03  0.41800000000E+01 0.  1.
</event>
<event>
11    1  0.7157190E-009  0.1358268E+03  0.7561462E-02  0.1112310E+00
         22   -1    0    0    0    0  0.00000000000E+00  0.00000000000E+00  0.57452928229E+03  0.57452928229E+03  0.00000000000E+00 0.  1.
         22   -1    0    0    0    0 -0.00000000000E+00 -0.00000000000E+00 -0.38074464413E+03  0.38074464413E+03  0.00000000000E+00 0. -1.
         24    2    1    2    0    0  0.21222941338E+01 -0.18950665672E+02 -0.34024616260E+03  0.34989735700E+03  0.79354126588E+02 0.  0.
         25    2    1    2    0    0  0.41315082236E+02 -0.14046214289E+02  0.11101771064E+03  0.17287810945E+03  0.12513063772E+03 0.  0.
        -24    2    1    2    0    0 -0.43437376369E+02  0.32996879961E+02  0.42301309013E+03  0.43249845997E+03  0.71688518625E+02 0.  0.
        -13    1    3    3    0    0  0.14722379422E+02  0.11554728273E+02 -0.18003807522E+02  0.25969160298E+02  0.00000000000E+00 0.  1.
         14    1    3    3    0    0 -0.12600085289E+02 -0.30505393945E+02 -0.32224235508E+03  0.32392819670E+03  0.00000000000E+00 0. -1.
         11    1    5    5    0    0 -0.19554871729E+02 -0.22052670578E+02  0.11682299209E+03  0.12048371163E+03  0.00000000000E+00 0. -1.
        -12    1    5    5    0    0 -0.23882504641E+02  0.55049550539E+02  0.30619009805E+03  0.31201474834E+03  0.00000000000E+00 0.  1.
          5    1    4    4  501    0 -0.36519514080E+02  0.13083816671E+01  0.79152595234E+02  0.87281111952E+02  0.41800000000E+01 0.  1.
         -5    1    4    4    0  501  0.77834596316E+02 -0.15354595957E+02  0.31865115402E+02  0.85596997495E+02  0.41800000000E+01 0.  1.
</event>
<event>
11    1  0.7157190E-009  0.1526616E+03  0.7561462E-02  0.1094190E+00
         22   -1    0    0    0    0  0.00000000000E+00  0.00000000000E+00  0.52422386654E+02  0.52422386654E+02  0.00000000000E+00 0.  1.
         22   -1    0    0    0    0 -0.00000000000E+00 -0.00000000000E+00 -0.19547224195E+04  0.19547224195E+04  0.00000000000E+00 0. -1.
        -24    2    1    2    0    0  0.34957370731E+02 -0.48273443480E+02 -0.13372359295E+04  0.13422634730E+04  0.99593959185E+02 0.  0.
         25    2    1    2    0    0  0.18528433722E+02  0.11392147090E+03 -0.50588536349E+03  0.53375035762E+03  0.12509212157E+03 0.  0.
         24    2    1    2    0    0 -0.53485804453E+02 -0.65648027421E+02 -0.59178739822E+02  0.13113097550E+03  0.80763944340E+02 0.  0.
        -11    1    5    5    0    0 -0.53284398404E+02 -0.53390613395E+01 -0.12823780443E+02  0.55065252511E+02  0.00000000000E+00 0.  1.
         12    1    5    5    0    0 -0.20140604905E+00 -0.60308966081E+02 -0.46354959379E+02  0.76065722985E+02  0.00000000000E+00 0. -1.
         13    1    3    3    0    0  0.43585708963E+02 -0.30541253154E+00 -0.10513318869E+04  0.10522350230E+04  0.00000000000E+00 0. -1.
        -14    1    3    3    0    0 -0.86283382320E+01 -0.47968030949E+02 -0.28590404262E+03  0.29002844998E+03  0.00000000000E+00 0.  1.
          5    1    4    4  501    0 -0.18264974479E+01  0.13006149506E+03 -0.31150995920E+03  0.33760221515E+03  0.41800000000E+01 0. -1.
         -5    1    4    4    0  501  0.20354931170E+02 -0.16140024163E+02 -0.19437540429E+03  0.19614814247E+03  0.41800000000E+01 0. -1.
</event>
<event>
11    1  0.7157190E-009  0.1289422E+03  0.7561462E-02  0.1120576E+00
         22   -1    0    0    0    0  0.00000000000E+00  0.00000000000E+00  0.13717313489E+03  0.13717313489E+03  0.00000000000E+00 0. -1.
         22   -1    0    0    0    0 -0.00000000000E+00 -0.00000000000E+00 -0.56286738600E+03  0.56286738600E+03  0.00000000000E+00 0. -1.
        -24    2    1    2    0    0 -0.13257799055E+02 -0.20465636728E+02 -0.45005009674E+03  0.45779052047E+03  0.80202615529E+02 0.  0.
         25    2    1    2    0    0  0.27838992756E+02  0.41880116118E+02 -0.31459519161E+02  0.13844311438E+03  0.12509133035E+03 0.  0.
         24    2    1    2    0    0 -0.14581193702E+02 -0.21414479390E+02  0.55815364794E+02  0.10380688604E+03  0.83602174043E+02 0.  0.
        -13    1    5    5    0    0  0.81323793920E+01 -0.42383527652E+02  0.38319700100E+01  0.43326470027E+02  0.00000000000E+00 0.  1.
         14    1    5    5    0    0 -0.22713573094E+02  0.20969048262E+02  0.51983394784E+02  0.60480416012E+02  0.00000000000E+00 0. -1.
         11    1    3    3    0    0 -0.31607298531E+02 -0.15210617435E+02 -0.42424928761E+03  0.42569689010E+03  0.00000000000E+00 0. -1.
        -12    1    3    3    0    0  0.18349499477E+02 -0.52550192935E+01 -0.25800809131E+02  0.32093630375E+02  0.00000000000E+00 0.  1.
          5    1    4    4  501    0 -0.27344679483E+02 -0.29092473245E+00 -0.57773675122E+02  0.64055336002E+02  0.41800000000E+01 0. -1.
         -5    1    4    4    0  501  0.55183672239E+02  0.42171040850E+02  0.26314155961E+02  0.74387778379E+02  0.41800000000E+01 0. -1.
</event>
<event>
11    1  0.7157190E-009  0.1967174E+03  0.7561462E-02  0.1056870E+00
         22   -1    0    0    0    0  0.00000000000E+00  0.00000000000E+00  0.82341202319E+03  0.82341202319E+03  0.00000000000E+00 0.  1.
         22   -1    0    0    0    0 -0.00000000000E+00 -0.00000000000E+00 -0.56250885111E+03  0.56250885111E+03  0.00000000000E+00 0. -1.
        -24    2    1    2    0    0 -0.13864258830E+03 -0.65095426432E+02 -0.47349806309E+03  0.50406942692E+03  0.80164765142E+02 0.  0.
         25    2    1    2    0    0  0.14095426053E+03  0.29592032575E+02  0.57406646144E+02  0.19921674503E+03  0.12509195228E+03 0.  0.
         24    2    1    2    0    0 -0.23116722307E+01  0.35503393856E+02  0.67699458903E+03  0.68263470236E+03  0.80016426383E+02 0.  0.
        -13    1    5    5    0    0 -0.26315058686E+02  0.51993136353E+02  0.43062907380E+03  0.43455398714E+03  0.00000000000E+00 0.  1.
         14    1    5    5    0    0  0.24003386455E+02 -0.16489742497E+02  0.24636551523E+03  0.24808071522E+03  0.00000000000E+00 0. -1.
         13    1    3    3    0    0 -0.13433415432E+03 -0.80683286611E+02 -0.42892606029E+03  0.45665416121E+03  0.00000000000E+00 0. -1.
        -14    1    3    3    0    0 -0.43084339728E+01  0.15587860179E+02 -0.44572002804E+02  0.47415265709E+02  0.00000000000E+00 0.  1.
          5    1    4    4  501    0  0.13164041914E+02 -0.39104359669E+02 -0.39016019733E+01  0.41654985807E+02  0.41800000000E+01 0.  1.
         -5    1    4    4    0  501  0.12779021861E+03  0.68696392244E+02  0.61308248117E+02  0.15756175922E+03  0.41800000000E+01 0.  1.
</event>
<event>
11    1  0.7157190E-009  0.1348078E+03  0.7561462E-02  0.1113499E+00
         22   -1    0    0    0    0  0.00000000000E+00  0.00000000000E+00  0.35997206197E+03  0.35997206197E+03  0.00000000000E+00 0.  1.
         22   -1    0    0    0    0 -0.00000000000E+00 -0.00000000000E+00 -0.92634294631E+03  0.92634294631E+03  0.00000000000E+00 0.  1.
         24    2    1    2    0    0  0.19122652050E+02 -0.38856603770E+01 -0.82310503304E+03  0.82716380578E+03  0.79481393996E+02 0.  0.
         25    2    1    2    0    0  0.44090667739E+01  0.48718887122E+02 -0.45584953041E+02  0.14184177112E+03  0.12509248682E+03 0.  0.
        -24    2    1    2    0    0 -0.23531718824E+02 -0.44833226745E+02  0.30231910175E+03  0.31730943138E+03  0.82004121548E+02 0.  0.
        -13    1    3    3    0    0 -0.13425601634E+02  0.59721699842E+01 -0.67674922129E+03  0.67690872509E+03  0.00000000000E+00 0.  1.
         14    1    3    3    0    0  0.32548253684E+02 -0.98578303613E+01 -0.14635581175E+03  0.15025508068E+03  0.00000000000E+00 0. -1.
         13    1    5    5    0    0  0.66215577338E+01 -0.38395888786E+02  0.51376347393E+02  0.64479596571E+02  0.00000000000E+00 0. -1.
        -14    1    5    5    0    0 -0.30153276558E+02 -0.64373379587E+01  0.25094275436E+03  0.25282983481E+03  0.00000000000E+00 0.  1.
          5    1    4    4  501    0 -0.14727887973E+02 -0.42967661743E+01  0.37856628532E+02  0.41060560243E+02  0.41800000000E+01 0.  1.
         -5    1    4    4    0  501  0.19136954747E+02  0.53015653296E+02 -0.83441581572E+02  0.10078121088E+03  0.41800000000E+01 0.  1.
</event>
<event>
11    1  0.7157190E-009  0.1369040E+03  0.7561462E-02  0.1111066E+00
         22   -1    0    0    0    0  0.00000000000E+00  0.00000000000E+00  0.22155665031E+04  0.22155665031E+04  0.00000000000E+00 0. -1.
         22   -1    0    0    0    0 -0.00000000000E+00 -0.00000000000E+00 -0.31374512811E+03  0.31374512811E+03  0.00000000000E+00 0.  1.
         24    2    1    2    0    0 -0.15293338904E+01  0.55845452634E+02 -0.29775867187E+03  0.31378762488E+03  0.81739790867E+02 0.  0.
         25    2    1    2    0    0 -0.11228393028E+02 -0.39553346110E+02  0.62067491728E+03  0.63448634455E+03  0.12508007227E+03 0.  0.
        -24    2    1    2    0    0  0.12757726918E+02 -0.16292106524E+02  0.15789051295E+04  0.15810376618E+04  0.79438576573E+02 0.  0.
        -13    1    3    3    0    0 -0.39064819493E+01  0.32229338074E+02 -0.28499462964E+03  0.28683781089E+03  0.00000000000E+00 0.  1.
         14    1    3    3    0    0  0.23771480589E+01  0.23616114560E+02 -0.12764042228E+02  0.26949813984E+02  0.00000000000E+00 0. -1.
         13    1    5    5    0    0  0.15835636553E+02 -0.14153494807E+01  0.15236279106E+04  0.15237108585E+04  0.00000000000E+00 0. -1.
        -14    1    5    5    0    0 -0.30779096353E+01 -0.14876757043E+02  0.55277218996E+02  0.57326803223E+02  0.00000000000E+00 0.  1.
          5    1    4    4  501    0  0.20529508761E+02  0.12687199178E+02  0.48496048452E+03  0.48557859271E+03  0.41800000000E+01 0. -1.
         -5    1    4    4    0  501 -0.31757901789E+02 -0.52240545289E+02  0.13571443276E+03  0.14890775184E+03  0.41800000000E+01 0. -1.
</event>
<event>
11    1  0.7157190E-009  0.1619394E+03  0.7561462E-02  0.1085267E+00
         22   -1    0    0    0    0  0.00000000000E+00  0.00000000000E+00  0.13344073201E+03  0.13344073201E+03  0.00000000000E+00 0.  1.
         22   -1    0    0    0    0 -0.00000000000E+00 -0.00000000000E+00 -0.69860234198E+03  0.69860234198E+03  0.00000000000E+00 0.  1.
         24    2    1    2    0    0  0.10251066634E+03 -0.61898992885E+00 -0.41363020458E+03  0.43332923263E+03  0.78584081360E+02 0.  0.
         25    2    1    2    0    0 -0.10371683277E+03  0.84424662113E+00 -0.23330652245E+03  0.28431722168E+03  0.12508579046E+03 0.  0.
        -24    2    1    2    0    0  0.12061664336E+01 -0.22525669228E+00  0.81775117059E+02  0.11439661968E+03  0.79986944222E+02 0.  0.
        -11    1    3    3    0    0  0.10003528065E+03 -0.15931163496E+02 -0.40017216201E+03  0.41279367557E+03  0.00000000000E+00 0.  1.
         12    1    3    3    0    0  0.24753856896E+01  0.15312173567E+02 -0.13458042578E+02  0.20535557058E+02  0.00000000000E+00 0. -1.
         11    1    5    5    0    0 -0.36140379058E+02  0.15685700408E+02  0.39691724405E+02  0.55924960277E+02  0.00000000000E+00 0. -1.
        -12    1    5    5    0    0  0.37346545492E+02 -0.15910957100E+02  0.42083392654E+02  0.58471659402E+02  0.00000000000E+00 0.  1.
          5    1    4    4  501    0 -0.82624170813E+02 -0.57205304263E+02 -0.14581648847E+03  0.17714152858E+03  0.41800000000E+01 0. -1.
         -5    1    4    4    0  501 -0.21092661961E+02  0.58049550884E+02 -0.87490033977E+02  0.10717569310E+03  0.41800000000E+01 0. -1.
</event>
<event>
11    1  0.7157190E-009  0.1365331E+03  0.7561462E-02  0.1111493E+00
         22   -1    0    0    0    0  0.00000000000E+00  0.00000000000E+00  0.74875065850E+03  0.74875065850E+03  0.00000000000E+00 0.  1.
         22   -1    0    0    0    0 -0.00000000000E+00 -0.00000000000E+00 -0.12507553122E+04  0.12507553122E+04  0.00000000000E+00 0.  1.
         24    2    1    2    0    0  0.45127322668E+01  0.12216952120E+02 -0.11739076061E+04  0.11770223640E+04  0.84575168482E+02 0.  0.
         25    2    1    2    0    0 -0.23733541396E+02 -0.62795695555E+02 -0.16383562487E+01  0.14197655727E+03  0.12509227888E+03 0.  0.
        -24    2    1    2    0    0  0.19220809129E+02  0.50578743435E+02  0.67354130857E+03  0.68050704947E+03  0.80649248234E+02 0.  0.
        -13    1    3    3    0    0 -0.34302865311E+02  0.16839212678E+02 -0.83390173336E+03  0.83477682440E+03  0.00000000000E+00 0.  1.
         14    1    3    3    0    0  0.38815597577E+02 -0.46222605576E+01 -0.34000587270E+03  0.34224553960E+03  0.00000000000E+00 0. -1.
         13    1    5    5    0    0 -0.13740906689E+02  0.50055300740E+02  0.23195567809E+03  0.23769262135E+03  0.00000000000E+00 0. -1.
        -14    1    5    5    0    0  0.32961715818E+02  0.52344269515E+00  0.44158563049E+03  0.44281442812E+03  0.00000000000E+00 0.  1.
          5    1    4    4  501    0 -0.65049892482E+02 -0.30371485671E+02 -0.34626826582E+02  0.79814818003E+02  0.41800000000E+01 0.  1.
         -5    1    4    4    0  501  0.41316351086E+02 -0.32424209884E+02  0.32988470333E+02  0.62161739266E+02  0.41800000000E+01 0.  1.
</event>
<event>
11    1  0.7157190E-009  0.1496969E+03  0.7561462E-02  0.1097189E+00
         22   -1    0    0    0    0  0.00000000000E+00  0.00000000000E+00  0.94257361717E+03  0.94257361717E+03  0.00000000000E+00 0.  1.
         22   -1    0    0    0    0 -0.00000000000E+00 -0.00000000000E+00 -0.20574425702E+03  0.20574425702E+03  0.00000000000E+00 0. -1.
        -24    2    1    2    0    0  0.56344813570E+02  0.56784832529E+02 -0.14058184601E+03  0.18069180655E+03  0.80542028199E+02 0.  0.
         25    2    1    2    0    0 -0.11709048703E+03 -0.24146943221E+02  0.13898804190E+03  0.22194445356E+03  0.12509359558E+03 0.  0.
         24    2    1    2    0    0  0.60745673460E+02 -0.32637889307E+02  0.73842316426E+03  0.74568161408E+03  0.77569526254E+02 0.  0.
        -13    1    5    5    0    0  0.54980416202E+02 -0.33325701349E+02  0.73687258393E+03  0.73967199047E+03  0.00000000000E+00 0.  1.
         14    1    5    5    0    0  0.57652572585E+01  0.68781204187E+00  0.15505803337E+01  0.60096236182E+01  0.00000000000E+00 0. -1.
         13    1    3    3    0    0  0.39254211317E+02  0.26479327290E+02 -0.13789237709E+03  0.14579559506E+03  0.00000000000E+00 0. -1.
        -14    1    3    3    0    0  0.17090602253E+02  0.30305505238E+02 -0.26894689150E+01  0.34896211487E+02  0.00000000000E+00 0.  1.
          5    1    4    4  501    0 -0.37613649863E+02 -0.58436105794E+02  0.11072320059E+03  0.13079244881E+03  0.41800000000E+01 0. -1.
         -5    1    4    4    0  501 -0.79476837168E+02  0.34289162573E+02  0.28264841308E+02  0.91152004752E+02  0.41800000000E+01 0. -1.
</event>
<event>
11    1  0.7157190E-009  0.1363940E+03  0.7561462E-02  0.1111653E+00
         22   -1    0    0    0    0  0.00000000000E+00  0.00000000000E+00  0.12008534020E+04  0.12008534020E+04  0.00000000000E+00 0. -1.
         22   -1    0    0    0    0 -0.00000000000E+00 -0.00000000000E+00 -0.22051158281E+03  0.22051158281E+03  0.00000000000E+00 0. -1.
        -24    2    1    2    0    0  0.26606493844E+02  0.19644161875E+02 -0.13815065663E+03  0.16358271003E+03  0.81116585733E+02 0.  0.
         25    2    1    2    0    0 -0.79959665593E+02 -0.14672899921E+02  0.15011023711E+02  0.14994137325E+03  0.12509293532E+03 0.  0.
         24    2    1    2    0    0  0.53353171749E+02 -0.49712619545E+01  0.11034814521E+04  0.11078409015E+04  0.82273164145E+02 0.  0.
        -11    1    5    5    0    0  0.15543862005E+02 -0.35883281085E+02  0.25765277720E+03  0.26060348253E+03  0.00000000000E+00 0.  1.
         12    1    5    5    0    0  0.37809309745E+02  0.30912019131E+02  0.84582867494E+03  0.84723741901E+03  0.00000000000E+00 0. -1.
         13    1    3    3    0    0  0.45315794416E+01 -0.19598556180E+02 -0.10689698858E+03  0.10877318045E+03  0.00000000000E+00 0. -1.
        -14    1    3    3    0    0  0.22074914402E+02  0.39242718055E+02 -0.31253668054E+02  0.54809529583E+02  0.00000000000E+00 0.  1.
          5    1    4    4  501    0 -0.87541502624E+02 -0.42688462050E+02  0.45552092984E+02  0.10760243979E+03  0.41800000000E+01 0.  1.
         -5    1    4    4    0  501  0.75818370310E+01  0.28015562130E+02 -0.30541069274E+02  0.42338933461E+02  0.41800000000E+01 0.  1.
</event>
<event>
11    1  0.7157190E-009  0.1424441E+03  0.7561462E-02  0.1104859E+00
         22   -1    0    0    0    0  0.00000000000E+00  0.00000000000E+00  0.34978081775E+03  0.34978081775E+03  0.00000000000E+00 0. -1.
         22   -1    0    0    0    0 -0.00000000000E+00 -0.00000000000E+00 -0.58585262597E+03  0.58585262597E+03  0.00000000000E+00 0. -1.
        -24    2    1    2    0    0 -0.55711619417E+02  0.19693049517E+02 -0.47741436927E+03  0.48793617826E+03  0.81643330010E+02 0.  0.
         25    2    1    2    0    0  0.75561434304E+02  0.45515307583E+02 -0.30639761974E+02  0.15609766873E+03  0.12508602477E+03 0.  0.
         24    2    1    2    0    0 -0.19849814887E+02 -0.65208357100E+02  0.27198232302E+03  0.29159959673E+03  0.80061200268E+02 0.  0.
        -13    1    5    5    0    0  0.18507474602E+02 -0.35292350762E+02  0.47954803681E+02  0.62351742835E+02  0.00000000000E+00 0.  1.
         14    1    5    5    0    0 -0.38357289489E+02 -0.29916006338E+02  0.22402751934E+03  0.22924785389E+03  0.00000000000E+00 0. -1.
         11    1    3    3    0    0 -0.11028448913E+02  0.44714558299E+02 -0.29071904496E+03  0.29434432474E+03  0.00000000000E+00 0. -1.
        -12    1    3    3    0    0 -0.44683170504E+02 -0.25021508781E+02 -0.18669532431E+03  0.19359185352E+03  0.00000000000E+00 0.  1.
          5    1    4    4  501    0 -0.21583043394E+00  0.25429733942E+02 -0.65359732348E+02  0.70257276945E+02  0.41800000000E+01 0.  1.
         -5    1    4    4    0  501  0.75777264738E+02  0.20085573641E+02  0.34719970374E+02  0.85840391788E+02  0.41800000000E+01 0.  1.
</event>
<event>
11    1  0.7157190E-009  0.1478424E+03  0.7561462E-02  0.1099104E+00
         22   -1    0    0    0    0  0.00000000000E+00  0.00000000000E+00  0.35915865684E+03  0.35915865684E+03  0.00000000000E+00 0. -1.
         22   -1    0    0    0    0 -0.00000000000E+00 -0.00000000000E+00 -0.26033455907E+03  0.26033455907E+03  0.00000000000E+00 0.  1.
        -24    2    1    2    0    0 -0.53893385523E+02 -0.38316969507E+02 -0.16773032149E+03  0.19685957268E+03  0.79041403398E+02 0.  0.
         25    2    1    2    0    0  0.11443739077E+03 -0.53204879377E+01  0.45042216957E+02  0.17550068336E+03  0.12508982594E+03 0.  0.
         24    2    1    2    0    0 -0.60544005247E+02  0.43637457444E+02  0.22151220231E+03  0.24713295987E+03  0.80232411267E+02 0.  0.
        -11    1    5    5    0    0 -0.17114857127E+02  0.56478800007E+02  0.86388769042E+02  0.10462214202E+03  0.00000000000E+00 0.  1.
         12    1    5    5    0    0 -0.43429148120E+02 -0.12841342563E+02  0.13512343327E+03  0.14251081785E+03  0.00000000000E+00 0. -1.
         13    1    3    3    0    0  0.11588849724E+02 -0.30657115717E+02 -0.84819205411E+02  0.90931060637E+02  0.00000000000E+00 0. -1.
        -14    1    3    3    0    0 -0.65482235247E+02 -0.76598537900E+01 -0.82911116080E+02  0.10592851204E+03  0.00000000000E+00 0.  1.
          5    1    4    4  501    0  0.62737050000E+02  0.41258541481E+02 -0.22434807028E+02  0.78479281688E+02  0.41800000000E+01 0. -1.
         -5    1    4    4    0  501  0.51700340769E+02 -0.46579029419E+02  0.67477023985E+02  0.97021401676E+02  0.41800000000E+01 0. -1.
</event>
<event>
11    1  0.7157190E-009  0.1360662E+03  0.7561462E-02  0.1112032E+00
         22   -1    0    0    0    0  0.00000000000E+00  0.00000000000E+00  0.61049629560E+03  0.61049629560E+03  0.00000000000E+00 0.  1.
         22   -1    0    0    0    0 -0.00000000000E+00 -0.00000000000E+00 -0.74517274020E+03  0.74517274020E+03  0.00000000000E+00 0. -1.
        -24    2    1    2    0    0  0.26445216264E+02 -0.23123071963E+02 -0.42522484668E+03  0.43298546211E+03  0.73662841679E+02 0.  0.
         25    2    1    2    0    0 -0.63350376106E+02  0.61310899129E+02 -0.29336090147E+03  0.33087762063E+03  0.12508830808E+03 0.  0.
         24    2    1    2    0    0  0.36905159842E+02 -0.38187827166E+02  0.58390930356E+03  0.59180595306E+03  0.80398447323E+02 0.  0.
        -11    1    5    5    0    0  0.11099588136E+02 -0.26655423896E+02  0.53130333258E+03  0.53208734592E+03  0.00000000000E+00 0.  1.
         12    1    5    5    0    0  0.25805571706E+02 -0.11532403271E+02  0.52605970979E+02  0.59718607141E+02  0.00000000000E+00 0. -1.
         11    1    3    3    0    0  0.41540566097E+02 -0.31570667119E+02 -0.18726802025E+03  0.19440071261E+03  0.00000000000E+00 0. -1.
        -12    1    3    3    0    0 -0.15095349833E+02  0.84475951555E+01 -0.23795682643E+03  0.23858474950E+03  0.00000000000E+00 0.  1.
          5    1    4    4  501    0 -0.92618273736E+02  0.41011604798E+02 -0.13684709897E+03  0.17030765472E+03  0.41800000000E+01 0.  1.
         -5    1    4    4    0  501  0.29267897630E+02  0.20299294332E+02 -0.15651380250E+03  0.16056996591E+03  0.41800000000E+01 0.  1.
</event>
<event>
11    1  0.7157190E-009  0.1530868E+03  0.7561462E-02  0.1093766E+00
         22   -1    0    0    0    0  0.00000000000E+00  0.00000000000E+00  0.10697081930E+04  0.10697081930E+04  0.00000000000E+00 0. -1.
         22   -1    0    0    0    0 -0.00000000000E+00 -0.00000000000E+00 -0.10440807634E+03  0.10440807634E+03  0.00000000000E+00 0.  1.
        -24    2    1    2    0    0  0.48015026487E+02  0.12560826833E+02 -0.48255522362E+02  0.10740094717E+03  0.82116690599E+02 0.  0.
         25    2    1    2    0    0  0.49163656233E+02 -0.92255555191E+01  0.18831484476E+03  0.23155322620E+03  0.12510891191E+03 0.  0.
         24    2    1    2    0    0 -0.97178682720E+02 -0.33352713139E+01  0.82524079423E+03  0.83516209594E+03  0.83776712965E+02 0.  0.
        -11    1    5    5    0    0 -0.29356961421E+02 -0.26065312752E+02  0.11900681457E+03  0.12531501756E+03  0.00000000000E+00 0.  1.
         12    1    5    5    0    0 -0.67821721299E+02  0.22730041438E+02  0.70623397966E+03  0.70984707838E+03  0.00000000000E+00 0. -1.
         13    1    3    3    0    0  0.11291994501E+02 -0.18794522303E+02  0.15913976501E+02  0.27092394809E+02  0.00000000000E+00 0. -1.
        -14    1    3    3    0    0  0.36723031986E+02  0.31355349136E+02 -0.64169498863E+02  0.80308552359E+02  0.00000000000E+00 0.  1.
          5    1    4    4  501    0  0.51039725554E+01 -0.12588765657E+02 -0.16619205311E+02  0.21867737464E+02  0.41800000000E+01 0.  1.
         -5    1    4    4    0  501  0.44059683677E+02  0.33632101384E+01  0.20493405007E+03  0.20968548873E+03  0.41800000000E+01 0.  1.
</event>
<event>
11    1  0.7157190E-009  0.1310114E+03  0.7561462E-02  0.1118033E+00
         22   -1    0    0    0    0  0.00000000000E+00  0.00000000000E+00  0.67474006913E+02  0.67474006913E+02  0.00000000000E+00 0. -1.
         22   -1    0    0    0    0 -0.00000000000E+00 -0.00000000000E+00 -0.38653214470E+03  0.38653214470E+03  0.00000000000E+00 0.  1.
         24    2    1    2    0    0 -0.79985412492E+01 -0.20388034597E+02 -0.15633241601E+03  0.17818964251E+03  0.82656371732E+02 0.  0.
         25    2    1    2    0    0  0.33182632165E+02  0.39710354763E+02 -0.10447572932E+03  0.17099845049E+03  0.12508913902E+03 0.  0.
        -24    2    1    2    0    0 -0.25184090916E+02 -0.19322320166E+02 -0.58249992463E+02  0.10481805861E+03  0.81155241959E+02 0.  0.
        -13    1    3    3    0    0 -0.18505359821E+02 -0.12977835630E+02 -0.16240523253E+03  0.16397052209E+03  0.00000000000E+00 0.  1.
         14    1    3    3    0    0  0.10506818572E+02 -0.74101989671E+01  0.60728165237E+01  0.14219120428E+02  0.00000000000E+00 0. -1.
         11    1    5    5    0    0 -0.95179669044E+01  0.32002839567E+02 -0.24686533107E+02  0.41523467476E+02  0.00000000000E+00 0. -1.
        -12    1    5    5    0    0 -0.15666124011E+02 -0.51325159733E+02 -0.33563459356E+02  0.63294591136E+02  0.00000000000E+00 0.  1.
          5    1    4    4  501    0  0.60101070434E+02  0.49712286232E+02 -0.11594041793E+03  0.13979664867E+03  0.41800000000E+01 0. -1.
         -5    1    4    4    0  501 -0.26918438269E+02 -0.10001931470E+02  0.11464688608E+02  0.31201801820E+02  0.41800000000E+01 0. -1.
</event>
<event>
11    1  0.7157190E-009  0.1489464E+03  0.7561462E-02  0.1097960E+00
         22   -1    0    0    0    0  0.00000000000E+00  0.00000000000E+00  0.33136486336E+04  0.33136486336E+04  0.00000000000E+00 0. -1.
         22   -1    0    0    0    0 -0.00000000000E+00 -0.00000000000E+00 -0.35626124398E+03  0.35626124398E+03  0.00000000000E+00 0. -1.
         24    2    1    2    0    0 -0.73488349442E+02 -0.42194194506E+02 -0.25338415084E+03  0.28293569489E+03  0.93103125575E+02 0.  0.
         25    2    1    2    0    0  0.81704398015E+02 -0.23021509036E+02 -0.21758004533E+02  0.15273360978E+03  0.12509414959E+03 0.  0.
        -24    2    1    2    0    0 -0.82160485725E+01  0.65215703543E+02  0.32325295450E+04  0.32342405730E+04  0.82123277854E+02 0.  0.
        -13    1    3    3    0    0  0.13954856096E+02  0.15593095045E+02 -0.47607158030E+02  0.52003116421E+02  0.00000000000E+00 0.  1.
         14    1    3    3    0    0 -0.87443205538E+02 -0.57787289551E+02 -0.20577699281E+03  0.23093257847E+03  0.00000000000E+00 0. -1.
         13    1    5    5    0    0 -0.74100684206E+01  0.84978167754E+02  0.25641467822E+04  0.25655652240E+04  0.00000000000E+00 0. -1.
        -14    1    5    5    0    0 -0.80598015197E+00 -0.19762464211E+02  0.66838276285E+03  0.66867534894E+03  0.00000000000E+00 0.  1.
          5    1    4    4  501    0  0.38890824332E+02 -0.69186461574E+02  0.13246339300E+02  0.80574193059E+02  0.41800000000E+01 0.  1.
         -5    1    4    4    0  501  0.42813573683E+02  0.46164952538E+02 -0.35004343832E+02  0.72159416720E+02  0.41800000000E+01 0.  1.
</event>
<event>
11    1  0.7157190E-009  0.1471024E+03  0.7561462E-02  0.1099877E+00
         22   -1    0    0    0    0  0.00000000000E+00  0.00000000000E+00  0.63084268595E+03  0.63084268595E+03  0.00000000000E+00 0. -1.
         22   -1    0    0    0    0 -0.00000000000E+00 -0.00000000000E+00 -0.29444144097E+03  0.29444144097E+03  0.00000000000E+00 0.  1.
         24    2    1    2    0    0 -0.32935427905E+02 -0.32712875868E+02 -0.21879748892E+03  0.23680692985E+03  0.77783714305E+02 0.  0.
         25    2    1    2    0    0 -0.26991724696E+02 -0.23734868554E+02  0.11528449891E+02  0.13066318233E+03  0.12509222547E+03 0.  0.
        -24    2    1    2    0    0  0.59927152601E+02  0.56447744422E+02  0.54367028401E+03  0.55781401473E+03  0.93816234447E+02 0.  0.
        -11    1    3    3    0    0 -0.13692790493E+02 -0.20837154619E+02 -0.21161874576E+03  0.21308254992E+03  0.00000000000E+00 0.  1.
         12    1    3    3    0    0 -0.19242637412E+02 -0.11875721248E+02 -0.71787431551E+01  0.23724379929E+02  0.00000000000E+00 0. -1.
         11    1    5    5    0    0  0.74649036617E+02  0.20374014588E+02  0.44593703870E+03  0.45260073091E+03  0.00000000000E+00 0. -1.
        -12    1    5    5    0    0 -0.14721884016E+02  0.36073729833E+02  0.97733245315E+02  0.10521328382E+03  0.00000000000E+00 0.  1.
          5    1    4    4  501    0  0.19954928889E+02 -0.56659985825E+02  0.33744030746E+02  0.69026699122E+02  0.41800000000E+01 0.  1.
         -5    1    4    4    0  501 -0.46946653585E+02  0.32925117271E+02 -0.22215580855E+02  0.61636483213E+02  0.41800000000E+01 0.  1.
</event>
<event>
11    1  0.8222226E-009  0.1513754E+03  0.7561462E-02  0.1095482E+00
         22   -1    0    0    0    0  0.00000000000E+00  0.00000000000E+00  0.64637306091E+03  0.64637306091E+03  0.00000000000E+00 0.  1.
         22   -1    0    0    0    0 -0.00000000000E+00 -0.00000000000E+00 -0.59081932652E+03  0.59081932652E+03  0.00000000000E+00 0. -1.
        -24    2    1    2    0    0 -0.53846227827E+02  0.76080301664E+02 -0.50724610392E+03  0.52198342475E+03  0.80501287028E+02 0.  0.
         25    2    1    2    0    0 -0.49580217419E+01 -0.30243773832E+02 -0.12790322155E+02  0.12943153256E+03  0.12509860688E+03 0.  0.
         24    2    1    2    0    0  0.58804249569E+02 -0.45836527831E+02  0.57559016047E+03  0.58577743013E+03  0.79197460646E+02 0.  0.
        -11    1    5    5    0    0  0.72794163984E+02 -0.14716014451E+02  0.37079041360E+03  0.37815483893E+03  0.00000000000E+00 0.  1.
         12    1    5    5    0    0 -0.13989914415E+02 -0.31120513380E+02  0.20479974687E+03  0.20762259120E+03  0.00000000000E+00 0. -1.
         13    1    3    3    0    0 -0.65613865011E+02  0.82746747476E+02 -0.39306292098E+03  0.40700204343E+03  0.00000000000E+00 0. -1.
        -14    1    3    3    0    0  0.11767637184E+02 -0.66664458128E+01 -0.11418318294E+03  0.11498138132E+03  0.00000000000E+00 0.  1.
          5    1    4    4  501    0 -0.12738772236E+02 -0.25529080319E+02 -0.67716493058E+02  0.73600313125E+02  0.41800000000E+01 0. -1.
         -5    1    4    4    0  501  0.77807504940E+01 -0.47146935136E+01  0.54926170903E+02  0.55831219432E+02  0.41800000000E+01 0. -1.
</event>
<event>
11    1  0.7157190E-009  0.1560326E+03  0.7561462E-02  0.1090869E+00
         22   -1    0    0    0    0  0.00000000000E+00  0.00000000000E+00  0.10190381840E+04  0.10190381840E+04  0.00000000000E+00 0.  1.
         22   -1    0    0    0    0 -0.00000000000E+00 -0.00000000000E+00 -0.22902750099E+03  0.22902750099E+03  0.00000000000E+00 0. -1.
         24    2    1    2    0    0 -0.65226794993E+02  0.19423416739E+02 -0.15917884626E+03  0.19148939633E+03  0.81844241751E+02 0.  0.
         25    2    1    2    0    0  0.15105068117E+03  0.14910245972E+01  0.14612645639E+03  0.24457812118E+03  0.12508790774E+03 0.  0.
        -24    2    1    2    0    0 -0.85823886180E+02 -0.20914441336E+02  0.80306307286E+03  0.81199816746E+03  0.81409899079E+02 0.  0.
        -11    1    3    3    0    0 -0.24033920757E+02 -0.12090097582E+02 -0.31752480766E+01  0.27090256677E+02  0.00000000000E+00 0.  1.
         12    1    3    3    0    0 -0.41192874236E+02  0.31513514321E+02 -0.15600359819E+03  0.16439913966E+03  0.00000000000E+00 0. -1.
         13    1    5    5    0    0 -0.20142718432E+02 -0.33443801408E+02  0.13313078342E+03  0.13873724249E+03  0.00000000000E+00 0. -1.
        -14    1    5    5    0    0 -0.65681167748E+02  0.12529360072E+02  0.66993228944E+03  0.67326092497E+03  0.00000000000E+00 0.  1.
          5    1    4    4  501    0  0.13979751661E+03 -0.97260988102E+01  0.16697906261E+03  0.21803078315E+03  0.41800000000E+01 0. -1.
         -5    1    4    4    0  501  0.11253164560E+02  0.11217123407E+02 -0.20852606222E+02  0.26547338028E+02  0.41800000000E+01 0. -1.
</event>
<event>
11    1  0.7157190E-009  0.1624911E+03  0.7561462E-02  0.1084757E+00
         22   -1    0    0    0    0  0.00000000000E+00  0.00000000000E+00  0.15535518400E+04  0.15535518400E+04  0.00000000000E+00 0.  1.
         22   -1    0    0    0    0 -0.00000000000E+00 -0.00000000000E+00 -0.40786665285E+03  0.40786665285E+03  0.00000000000E+00 0. -1.
        -24    2    1    2    0    0 -0.80630962230E+02 -0.65128590699E+02 -0.36539339995E+03  0.38923171961E+03  0.85122907741E+02 0.  0.
         25    2    1    2    0    0  0.88321572244E+02  0.57749039537E+02  0.19995624761E+03  0.25838797872E+03  0.12508475084E+03 0.  0.
         24    2    1    2    0    0 -0.76906100135E+01  0.73795511619E+01  0.13111223395E+04  0.13137987946E+04  0.83137718076E+02 0.  0.
        -11    1    5    5    0    0 -0.33427866968E+02 -0.24962489969E+02  0.74712553432E+03  0.74828945751E+03  0.00000000000E+00 0.  1.
         12    1    5    5    0    0  0.25737256954E+02  0.32342041131E+02  0.56399680520E+03  0.56550933705E+03  0.00000000000E+00 0. -1.
         13    1    3    3    0    0 -0.65584818045E+02 -0.52388528349E+02 -0.35873147093E+03  0.36842121885E+03  0.00000000000E+00 0. -1.
        -14    1    3    3    0    0 -0.15046144185E+02 -0.12740062350E+02 -0.66619290202E+01  0.20810500758E+02  0.00000000000E+00 0.  1.
          5    1    4    4  501    0  0.33493584067E+02  0.38723861481E+02  0.19308119119E+03  0.19979783886E+03  0.41800000000E+01 0. -1.
         -5    1    4    4    0  501  0.54827988176E+02  0.19025178056E+02  0.68750564243E+01  0.58590139856E+02  0.41800000000E+01 0. -1.
</event>
<event>
11    1  0.7157190E-009  0.1676236E+03  0.7561462E-02  0.1080118E+00
         22   -1    0    0    0    0  0.00000000000E+00  0.00000000000E+00  0.26014367775E+04  0.26014367775E+04  0.00000000000E+00 0. -1.
         22   -1    0    0    0    0 -0.00000000000E+00 -0.00000000000E+00 -0.26423632880E+03  0.26423632880E+03  0.00000000000E+00 0.  1.
        -24    2    1    2    0    0  0.60190073841E+02 -0.11220543920E+03 -0.19760966891E+03  0.24831124015E+03  0.79974903341E+02 0.  0.
         25    2    1    2    0    0  0.20518813046E+02  0.52353211690E+02  0.79075525403E+02  0.15830565917E+03  0.12508342234E+03 0.  0.
         24    2    1    2    0    0 -0.80708886888E+02  0.59852227512E+02  0.24557345922E+04  0.24590562070E+04  0.78922925471E+02 0.  0.
        -11    1    5    5    0    0 -0.13040187814E+02  0.44270551805E+02  0.51028515319E+03  0.51236790085E+03  0.00000000000E+00 0.  1.
         12    1    5    5    0    0 -0.67668699074E+02  0.15581675707E+02  0.19454494390E+04  0.19466883062E+04  0.00000000000E+00 0. -1.
         13    1    3    3    0    0  0.77729232378E+02 -0.73560774518E+02 -0.12870162506E+03  0.16738318137E+03  0.00000000000E+00 0. -1.
        -14    1    3    3    0    0 -0.17539158537E+02 -0.38644664685E+02 -0.68908043845E+02  0.80928058777E+02  0.00000000000E+00 0.  1.
          5    1    4    4  501    0  0.15754689899E+02 -0.40706421397E+02  0.26471590123E+02  0.51219532216E+02  0.41800000000E+01 0. -1.
         -5    1    4    4    0  501  0.47641231476E+01  0.93059633087E+02  0.52603935280E+02  0.10708612696E+03  0.41800000000E+01 0. -1.
</event>
<event>
11    1  0.7157190E-009  0.1345480E+03  0.7561462E-02  0.1113804E+00
         22   -1    0    0    0    0  0.00000000000E+00  0.00000000000E+00  0.13711476987E+04  0.13711476987E+04  0.00000000000E+00 0.  1.
         22   -1    0    0    0    0 -0.00000000000E+00 -0.00000000000E+00 -0.14845441383E+03  0.14845441383E+03  0.00000000000E+00 0. -1.
         24    2    1    2    0    0 -0.35266145981E+02  0.32876196668E+02 -0.11686632205E+03  0.14944024241E+03  0.79687536422E+02 0.  0.
         25    2    1    2    0    0  0.63172597257E+02 -0.57454075565E+02  0.41980923422E+03  0.44629409998E+03  0.12508750018E+03 0.  0.
        -24    2    1    2    0    0 -0.27906451276E+02  0.24577878897E+02  0.91975037267E+03  0.92386777011E+03  0.78791284270E+02 0.  0.
        -11    1    3    3    0    0 -0.97403981223E+01 -0.22518473921E+02 -0.10207478654E+02  0.26573476321E+02  0.00000000000E+00 0.  1.
         12    1    3    3    0    0 -0.25525747859E+02  0.55394670589E+02 -0.10665884340E+03  0.12286676608E+03  0.00000000000E+00 0. -1.
         11    1    5    5    0    0 -0.20215610743E+02  0.26115833942E+02  0.13167939658E+03  0.13575776657E+03  0.00000000000E+00 0. -1.
        -12    1    5    5    0    0 -0.76908405329E+01 -0.15379550449E+01  0.78807097609E+03  0.78811000354E+03  0.00000000000E+00 0.  1.
          5    1    4    4  501    0  0.45890315114E+02  0.34106294365E+02  0.13737203065E+03  0.14885465240E+03  0.41800000000E+01 0.  1.
         -5    1    4    4    0  501  0.17282282142E+02 -0.91560369929E+02  0.28243720357E+03  0.29743944758E+03  0.41800000000E+01 0.  1.
</event>
<event>
11    1  0.7157190E-009  0.2279684E+03  0.7561462E-02  0.1036338E+00
         22   -1    0    0    0    0  0.00000000000E+00  0.00000000000E+00  0.96101628376E+03  0.96101628376E+03  0.00000000000E+00 0.  1.
         22   -1    0    0    0    0 -0.00000000000E+00 -0.00000000000E+00 -0.60599178300E+03  0.60599178300E+03  0.00000000000E+00 0.  1.
         24    2    1    2    0    0  0.33159971957E+02  0.15834193730E+02 -0.39097187477E+03  0.40113743050E+03  0.81865290898E+02 0.  0.
         25    2    1    2    0    0  0.46536187898E+01 -0.20209389829E+03 -0.12644826263E+03  0.26925852779E+03  0.12508953502E+03 0.  0.
        -24    2    1    2    0    0 -0.37813590747E+02  0.18625970456E+03  0.87244463816E+03  0.89661210848E+03  0.81431451070E+02 0.  0.
        -13    1    3    3    0    0 -0.23160206836E+01  0.43319570296E+02 -0.22849472740E+03  0.23257641663E+03  0.00000000000E+00 0.  1.
         14    1    3    3    0    0  0.35475992641E+02 -0.27485376567E+02 -0.16247714737E+03  0.16856101387E+03  0.00000000000E+00 0. -1.
         13    1    5    5    0    0 -0.58660663500E+02  0.11766299751E+03  0.48041084994E+03  0.49807653947E+03  0.00000000000E+00 0. -1.
        -14    1    5    5    0    0  0.20847072753E+02  0.68596707046E+02  0.39203378822E+03  0.39853556901E+03  0.00000000000E+00 0.  1.
          5    1    4    4  501    0 -0.58538901259E+02 -0.73452778320E+02 -0.56902127319E+02  0.10989739804E+03  0.41800000000E+01 0.  1.
         -5    1    4    4    0  501  0.63192520049E+02 -0.12864111997E+03 -0.69546135306E+02  0.15936112974E+03  0.41800000000E+01 0.  1.
</event>
<event>
11    1  0.7157190E-009  0.2376280E+03  0.7561462E-02  0.1030704E+00
         22   -1    0    0    0    0  0.00000000000E+00  0.00000000000E+00  0.10714217684E+04  0.10714217684E+04  0.00000000000E+00 0. -1.
         22   -1    0    0    0    0 -0.00000000000E+00 -0.00000000000E+00 -0.10469651097E+04  0.10469651097E+04  0.00000000000E+00 0.  1.
         24    2    1    2    0    0  0.89900204635E+02  0.20430335793E+03 -0.71118556488E+03  0.74974527935E+03  0.80691804855E+02 0.  0.
         25    2    1    2    0    0 -0.91151503740E+02 -0.13862217640E+03 -0.27946590054E+03  0.34824469514E+03  0.12509385958E+03 0.  0.
        -24    2    1    2    0    0  0.12512991046E+01 -0.65681181528E+02  0.10151081242E+04  0.10203969036E+04  0.80310358553E+02 0.  0.
        -11    1    3    3    0    0  0.25763702681E+02  0.14902279602E+03 -0.49428586946E+03  0.51690432660E+03  0.00000000000E+00 0.  1.
         12    1    3    3    0    0  0.64136501955E+02  0.55280561909E+02 -0.21689969541E+03  0.23284095275E+03  0.00000000000E+00 0. -1.
         13    1    5    5    0    0 -0.17252735180E+02 -0.75052631262E+02  0.62317394480E+03  0.62791426151E+03  0.00000000000E+00 0. -1.
        -14    1    5    5    0    0  0.18504034285E+02  0.93714497342E+01  0.39193417939E+03  0.39248264207E+03  0.00000000000E+00 0.  1.
          5    1    4    4  501    0 -0.30986753529E+01 -0.43690278287E+01  0.12950802632E+02  0.14624837843E+02  0.41800000000E+01 0. -1.
         -5    1    4    4    0  501 -0.88052828387E+02 -0.13425314857E+03 -0.29241670317E+03  0.33361985729E+03  0.41800000000E+01 0. -1.
</event>
<event>
11    1  0.7157190E-009  0.1333812E+03  0.7561462E-02  0.1115183E+00
         22   -1    0    0    0    0  0.00000000000E+00  0.00000000000E+00  0.41240443989E+02  0.41240443989E+02  0.00000000000E+00 0.  1.
         22   -1    0    0    0    0 -0.00000000000E+00 -0.00000000000E+00 -0.11723615114E+04  0.11723615114E+04  0.00000000000E+00 0.  1.
        -24    2    1    2    0    0 -0.27784959826E+02 -0.37516092572E+02 -0.87757435338E+03  0.88242838606E+03  0.79772486616E+02 0.  0.
         25    2    1    2    0    0  0.12010359941E+02  0.43578354587E+02 -0.16266551123E+03  0.21012172172E+03  0.12509095755E+03 0.  0.
         24    2    1    2    0    0  0.15774599884E+02 -0.60622620145E+01 -0.90881202761E+02  0.12105184757E+03  0.78157326993E+02 0.  0.
        -13    1    5    5    0    0  0.45116150119E+02 -0.95250564488E+01 -0.35174758242E+02  0.57995321529E+02  0.00000000000E+00 0.  1.
         14    1    5    5    0    0 -0.29341550235E+02  0.34627944343E+01 -0.55706444519E+02  0.63056526041E+02  0.00000000000E+00 0. -1.
         13    1    3    3    0    0 -0.12723426598E+02 -0.43935019048E+02 -0.22266826631E+03  0.22731768146E+03  0.00000000000E+00 0. -1.
        -14    1    3    3    0    0 -0.15061533227E+02  0.64189264750E+01 -0.65490608707E+03  0.65511070460E+03  0.00000000000E+00 0.  1.
          5    1    4    4  501    0  0.47015023602E+02  0.58516670899E+02 -0.15324350519E+03  0.17069170308E+03  0.41800000000E+01 0.  1.
         -5    1    4    4    0  501 -0.35004663661E+02 -0.14938316312E+02 -0.94220060445E+01  0.39430018642E+02  0.41800000000E+01 0.  1.
</event>
<event>
11    1  0.7157190E-009  0.1316689E+03  0.7561462E-02  0.1117235E+00
         22   -1    0    0    0    0  0.00000000000E+00  0.00000000000E+00  0.37033257209E+03  0.37033257209E+03  0.00000000000E+00 0. -1.
         22   -1    0    0    0    0 -0.00000000000E+00 -0.00000000000E+00 -0.20424743305E+03  0.20424743305E+03  0.00000000000E+00 0. -1.
        -24    2    1    2    0    0 -0.16716499662E+02 -0.42886547554E+02 -0.13760519149E+03  0.16620419058E+03  0.81055209091E+02 0.  0.
         25    2    1    2    0    0  0.24516931737E+02 -0.17577278580E+00  0.46834780112E+02  0.13580226029E+03  0.12509055294E+03 0.  0.
         24    2    1    2    0    0 -0.78004320757E+01  0.43062320340E+02  0.25685555041E+03  0.27257355426E+03  0.80039730956E+02 0.  0.
        -13    1    5    5    0    0 -0.58879915900E+01 -0.23527506498E+02  0.58418664982E+02  0.63253082338E+02  0.00000000000E+00 0.  1.
         14    1    5    5    0    0 -0.19124404857E+01  0.66589826839E+02  0.19843688543E+03  0.20932047193E+03  0.00000000000E+00 0. -1.
         11    1    3    3    0    0 -0.25005642377E+01 -0.80468785969E+01 -0.12676599401E+03  0.12704574890E+03  0.00000000000E+00 0. -1.
        -12    1    3    3    0    0 -0.14215935424E+02 -0.34839668958E+02 -0.10839197479E+02  0.39158441683E+02  0.00000000000E+00 0.  1.
          5    1    4    4  501    0  0.67567712497E+01  0.39904386676E+02 -0.27705856885E+02  0.49225003194E+02  0.41800000000E+01 0. -1.
         -5    1    4    4    0  501  0.17760160487E+02 -0.40080159462E+02  0.74540636997E+02  0.86577257100E+02  0.41800000000E+01 0. -1.
</event>
<event>
11    1  0.7157190E-009  0.1369652E+03  0.7561462E-02  0.1110995E+00
         22   -1    0    0    0    0  0.00000000000E+00  0.00000000000E+00  0.80642904135E+03  0.80642904135E+03  0.00000000000E+00 0.  1.
         22   -1    0    0    0    0 -0.00000000000E+00 -0.00000000000E+00 -0.35449010111E+03  0.35449010111E+03  0.00000000000E+00 0.  1.
         24    2    1    2    0    0 -0.50546686352E+02 -0.18066661017E+02 -0.29879577561E+03  0.31461111262E+03  0.82582473467E+02 0.  0.
         25    2    1    2    0    0  0.79199801981E+02  0.55559380502E+02  0.96887664140E+02  0.18545346420E+03  0.12508522905E+03 0.  0.
        -24    2    1    2    0    0 -0.28653115629E+02 -0.37492719486E+02  0.65384705170E+03  0.66085456564E+03  0.83582802407E+02 0.  0.
        -13    1    3    3    0    0 -0.68254166625E+02 -0.60250794579E+01 -0.27097275853E+03  0.27950164348E+03  0.00000000000E+00 0.  1.
         14    1    3    3    0    0  0.17707480273E+02 -0.12041581559E+02 -0.27823017076E+02  0.35109469139E+02  0.00000000000E+00 0. -1.
         11    1    5    5    0    0  0.60598455280E+01  0.17059033841E+02  0.43848529738E+02  0.47438654319E+02  0.00000000000E+00 0. -1.
        -12    1    5    5    0    0 -0.34712961157E+02 -0.54551753327E+02  0.60999852196E+03  0.61341591132E+03  0.00000000000E+00 0.  1.
          5    1    4    4  501    0  0.10118630472E+03  0.76742186003E+02  0.82032749061E+02  0.15124442368E+03  0.41800000000E+01 0.  1.
         -5    1    4    4    0  501 -0.21986502737E+02 -0.21182805501E+02  0.14854915079E+02  0.34209040523E+02  0.41800000000E+01 0.  1.
</event>
<event>
11    1  0.7157190E-009  0.1533670E+03  0.7561462E-02  0.1093487E+00
         22   -1    0    0    0    0  0.00000000000E+00  0.00000000000E+00  0.14911426603E+04  0.14911426603E+04  0.00000000000E+00 0.  1.
         22   -1    0    0    0    0 -0.00000000000E+00 -0.00000000000E+00 -0.37506769553E+03  0.37506769553E+03  0.00000000000E+00 0. -1.
        -24    2    1    2    0    0 -0.29232836694E+02  0.84124517218E+02 -0.34117580482E+03  0.36189376550E+03  0.81453511771E+02 0.  0.
         25    2    1    2    0    0  0.18825855488E+02 -0.79027215806E+02  0.22972333894E+03  0.27389814646E+03  0.12509064118E+03 0.  0.
         24    2    1    2    0    0  0.10406981206E+02 -0.50973014118E+01  0.12275274307E+04  0.12304184439E+04  0.83496504600E+02 0.  0.
        -13    1    5    5    0    0  0.91622936449E+01 -0.41111612129E+02  0.88474459278E+03  0.88574663800E+03  0.00000000000E+00 0.  1.
         14    1    5    5    0    0  0.12446875609E+01  0.36014310717E+02  0.34278283790E+03  0.34467180590E+03  0.00000000000E+00 0. -1.
         11    1    3    3    0    0 -0.19594590386E+02  0.92627156473E+02 -0.33402963158E+03  0.34718803675E+03  0.00000000000E+00 0. -1.
        -12    1    3    3    0    0 -0.96382463087E+01 -0.85026392556E+01 -0.71461732339E+01  0.14705728751E+02  0.00000000000E+00 0.  1.
          5    1    4    4  501    0  0.13774851462E+02  0.31129299402E+02  0.29320086625E+02  0.45121166804E+02  0.41800000000E+01 0.  1.
         -5    1    4    4    0  501  0.50510040264E+01 -0.11015651521E+03  0.20040325231E+03  0.22877697966E+03  0.41800000000E+01 0.  1.
</event>
<event>
11    1  0.7157190E-009  0.1766064E+03  0.7561462E-02  0.1072421E+00
         22   -1    0    0    0    0  0.00000000000E+00  0.00000000000E+00  0.73482073313E+03  0.73482073313E+03  0.00000000000E+00 0.  1.
         22   -1    0    0    0    0 -0.00000000000E+00 -0.00000000000E+00 -0.70178764980E+03  0.70178764980E+03  0.00000000000E+00 0. -1.
         24    2    1    2    0    0 -0.22265196697E+02  0.18425795571E+02 -0.62797322269E+03  0.63409426063E+03  0.83005506004E+02 0.  0.
         25    2    1    2    0    0  0.92905213673E+02  0.84642083848E+02  0.65955958268E+02  0.18919041240E+03  0.12508861909E+03 0.  0.
        -24    2    1    2    0    0 -0.70640016976E+02 -0.10306787942E+03  0.59505034775E+03  0.61332370991E+03  0.80424231501E+02 0.  0.
        -13    1    3    3    0    0  0.12726981843E+02  0.41460623480E+02 -0.24214415419E+03  0.24599746091E+03  0.00000000000E+00 0.  1.
         14    1    3    3    0    0 -0.34992178540E+02 -0.23034827909E+02 -0.38582906849E+03  0.38809679972E+03  0.00000000000E+00 0. -1.
         11    1    5    5    0    0  0.14890559178E+02 -0.64677331722E+00  0.49774849213E+02  0.51958470749E+02  0.00000000000E+00 0. -1.
        -12    1    5    5    0    0 -0.85530576154E+02 -0.10242110610E+03  0.54527549853E+03  0.56136523916E+03  0.00000000000E+00 0.  1.
          5    1    4    4  501    0  0.82687563051E+02  0.74972377905E+02  0.10138262869E+03  0.15084429168E+03  0.41800000000E+01 0. -1.
         -5    1    4    4    0  501  0.10217650622E+02  0.96697059433E+01 -0.35426670419E+02  0.38346120719E+02  0.41800000000E+01 0. -1.
</event>
<event>
11    1  0.7157190E-009  0.1597484E+03  0.7561462E-02  0.1087314E+00
         22   -1    0    0    0    0  0.00000000000E+00  0.00000000000E+00  0.82134343817E+03  0.82134343817E+03  0.00000000000E+00 0.  1.
         22   -1    0    0    0    0 -0.00000000000E+00 -0.00000000000E+00 -0.26789528020E+03  0.26789528020E+03  0.00000000000E+00 0. -1.
         24    2    1    2    0    0 -0.87820362092E+02  0.38110627427E+02 -0.19529418452E+03  0.23209360740E+03  0.81011037309E+02 0.  0.
         25    2    1    2    0    0  0.12128990357E+03 -0.49088435994E+02  0.10819651055E+03  0.21088966859E+03  0.12508817755E+03 0.  0.
        -24    2    1    2    0    0 -0.33469541481E+02  0.10977808567E+02  0.64054583194E+03  0.64625544239E+03  0.78143531519E+02 0.  0.
        -13    1    3    3    0    0  0.81086908799E+00 -0.15493416246E+02 -0.58416695703E+02  0.60441821552E+02  0.00000000000E+00 0.  1.
         14    1    3    3    0    0 -0.88631231180E+02  0.53604043673E+02 -0.13687748882E+03  0.17165178584E+03  0.00000000000E+00 0. -1.
         13    1    5    5    0    0  0.10627503367E+02  0.25424030473E+02  0.10017481902E+03  0.10389571464E+03  0.00000000000E+00 0. -1.
        -14    1    5    5    0    0 -0.44097044848E+02 -0.14446221907E+02  0.54037101292E+03  0.54235972776E+03  0.00000000000E+00 0.  1.
          5    1    4    4  501    0  0.53697413066E+02  0.35204770162E+02  0.72698755159E+02  0.97084341754E+02  0.41800000000E+01 0. -1.
         -5    1    4    4    0  501  0.67592490508E+02 -0.84293206157E+02  0.35497755393E+02  0.11380532683E+03  0.41800000000E+01 0. -1.
</event>
<event>
11    1  0.7157190E-009  0.1615628E+03  0.7561462E-02  0.1085617E+00
         22   -1    0    0    0    0  0.00000000000E+00  0.00000000000E+00  0.17150729880E+03  0.17150729880E+03  0.00000000000E+00 0.  1.
         22   -1    0    0    0    0 -0.00000000000E+00 -0.00000000000E+00 -0.11717711801E+04  0.11717711801E+04  0.00000000000E+00 0. -1.
        -24    2    1    2    0    0  0.40884090661E+01 -0.11467715520E+03 -0.72049133991E+03  0.73404365105E+03  0.80899602928E+02 0.  0.
         25    2    1    2    0    0  0.29645238580E+02  0.77390378732E+02 -0.41591162700E+03  0.44215241361E+03  0.12509262366E+03 0.  0.
         24    2    1    2    0    0 -0.33733647646E+02  0.37286776471E+02  0.13613908560E+03  0.16708241426E+03  0.82791423730E+02 0.  0.
        -11    1    5    5    0    0  0.11390654874E+02  0.37773178837E+02  0.10523560345E+03  0.11238813234E+03  0.00000000000E+00 0.  1.
         12    1    5    5    0    0 -0.45124302520E+02 -0.48640236511E+00  0.30903482146E+02  0.54694281912E+02  0.00000000000E+00 0. -1.
         11    1    3    3    0    0 -0.15170359929E+00 -0.71786154314E+02 -0.62699733452E+03  0.63109344194E+03  0.00000000000E+00 0. -1.
        -12    1    3    3    0    0  0.42401126654E+01 -0.42891000890E+02 -0.93494005389E+02  0.10295020911E+03  0.00000000000E+00 0.  1.
          5    1    4    4  501    0  0.41409239351E+02  0.31573739778E+02 -0.37743686747E+03  0.38103502132E+03  0.41800000000E+01 0. -1.
         -5    1    4    4    0  501 -0.11764000771E+02  0.45816638955E+02 -0.38474759532E+02  0.61117392290E+02  0.41800000000E+01 0. -1.
</event>
<event>
11    1  0.7157190E-009  0.1533732E+03  0.7561462E-02  0.1093481E+00
         22   -1    0    0    0    0  0.00000000000E+00  0.00000000000E+00  0.59321882848E+03  0.59321882848E+03  0.00000000000E+00 0. -1.
         22   -1    0    0    0    0 -0.00000000000E+00 -0.00000000000E+00 -0.18941189790E+04  0.18941189790E+04  0.00000000000E+00 0. -1.
         24    2    1    2    0    0 -0.22455189386E+02 -0.85258993470E+02 -0.18329372781E+04  0.18368063651E+04  0.80157507456E+02 0.  0.
         25    2    1    2    0    0  0.40623608727E+02  0.13001786158E+03  0.10410945457E+03  0.21222932908E+03  0.12509031807E+03 0.  0.
        -24    2    1    2    0    0 -0.18168419341E+02 -0.44758868111E+02  0.42792767297E+03  0.43830211332E+03  0.81567159500E+02 0.  0.
        -11    1    3    3    0    0  0.16053223090E+02  0.55343332080E+01 -0.14509023682E+03  0.14608049711E+03  0.00000000000E+00 0.  1.
         12    1    3    3    0    0 -0.38508412475E+02 -0.90793326678E+02 -0.16878470412E+04  0.16907258680E+04  0.00000000000E+00 0. -1.
         13    1    5    5    0    0 -0.21084694118E+02 -0.52113944985E+02  0.42658921769E+03  0.43027757115E+03  0.00000000000E+00 0. -1.
        -14    1    5    5    0    0  0.29162747767E+01  0.73550768741E+01  0.13384552791E+01  0.80245421634E+01  0.00000000000E+00 0.  1.
          5    1    4    4  501    0 -0.41545852131E+02  0.21046007516E+02  0.39318958529E+02  0.61093740772E+02  0.41800000000E+01 0. -1.
         -5    1    4    4    0  501  0.82169460858E+02  0.10897185406E+03  0.64790496045E+02  0.15113558831E+03  0.41800000000E+01 0. -1.
</event>
<event>
11    1  0.7157190E-009  0.1330093E+03  0.7561462E-02  0.1115626E+00
         22   -1    0    0    0    0  0.00000000000E+00  0.00000000000E+00  0.74017053861E+03  0.74017053861E+03  0.00000000000E+00 0.  1.
         22   -1    0    0    0    0 -0.00000000000E+00 -0.00000000000E+00 -0.11544817470E+04  0.11544817470E+04  0.00000000000E+00 0. -1.
        -24    2    1    2    0    0 -0.26577060981E+02 -0.15901572323E+01 -0.10674700180E+04  0.10708400008E+04  0.80605205574E+02 0.  0.
         25    2    1    2    0    0  0.29333968850E+02 -0.43508798225E+02 -0.25554226003E+02  0.13804034557E+03  0.12509444947E+03 0.  0.
         24    2    1    2    0    0 -0.27569078688E+01  0.45098955457E+02  0.67871303559E+03  0.68577193928E+03  0.87122050591E+02 0.  0.
        -11    1    5    5    0    0  0.41863188597E+02  0.27688106787E+02  0.35862378744E+03  0.36211901184E+03  0.00000000000E+00 0.  1.
         12    1    5    5    0    0 -0.44620096466E+02  0.17410848670E+02  0.32008924815E+03  0.32365292744E+03  0.00000000000E+00 0. -1.
         13    1    3    3    0    0  0.26942919350E+02 -0.13076041726E+02 -0.41350918258E+03  0.41459226699E+03  0.00000000000E+00 0. -1.
        -14    1    3    3    0    0 -0.53519980331E+02  0.11485884493E+02 -0.65396083540E+03  0.65624773377E+03  0.00000000000E+00 0.  1.
          5    1    4    4  501    0 -0.37322214577E+02 -0.10341462000E+02  0.26488296500E+02  0.47106218153E+02  0.41800000000E+01 0. -1.
         -5    1    4    4    0  501  0.66656183426E+02 -0.33167336224E+02 -0.52042522503E+02  0.90934127420E+02  0.41800000000E+01 0. -1.
</event>
<event>
11    1  0.7157190E-009  0.1258079E+03  0.7561462E-02  0.1124530E+00
         22   -1    0    0    0    0  0.00000000000E+00  0.00000000000E+00  0.76887207920E+03  0.76887207920E+03  0.00000000000E+00 0. -1.
         22   -1    0    0    0    0 -0.00000000000E+00 -0.00000000000E+00 -0.16322776584E+03  0.16322776584E+03  0.00000000000E+00 0. -1.
         24    2    1    2    0    0 -0.74070251666E+00 -0.11880887637E+02 -0.12624831764E+03  0.15010110810E+03  0.80311897098E+02 0.  0.
         25    2    1    2    0    0  0.10394628133E+02  0.19799843611E+02  0.16015308017E+03  0.20443919529E+03  0.12508514453E+03 0.  0.
        -24    2    1    2    0    0 -0.96539256162E+01 -0.79189559740E+01  0.57173955082E+03  0.57755954165E+03  0.80826988290E+02 0.  0.
        -11    1    3    3    0    0 -0.30409605146E+02  0.16143488437E+02 -0.30414495773E+02  0.45939066787E+02  0.00000000000E+00 0.  1.
         12    1    3    3    0    0  0.29668902630E+02 -0.28024376075E+02 -0.95833821863E+02  0.10416204131E+03  0.00000000000E+00 0. -1.
         11    1    5    5    0    0 -0.24753045498E+02  0.15979216595E+02  0.49334551809E+03  0.49422449235E+03  0.00000000000E+00 0. -1.
        -12    1    5    5    0    0  0.15099119882E+02 -0.23898172569E+02  0.78394032734E+02  0.83335049299E+02  0.00000000000E+00 0.  1.
          5    1    4    4  501    0  0.58274001678E+02  0.13695621640E+01  0.32659397352E+02  0.66946572784E+02  0.41800000000E+01 0.  1.
         -5    1    4    4    0  501 -0.47879373545E+02  0.18430281447E+02  0.12749368281E+03  0.13749262250E+03  0.41800000000E+01 0.  1.
</event>
<event>
11    1  0.7157190E-009  0.1666717E+03  0.7561462E-02  0.1080965E+00
         22   -1    0    0    0    0  0.00000000000E+00  0.00000000000E+00  0.49364368799E+03  0.49364368799E+03  0.00000000000E+00 0. -1.
         22   -1    0    0    0    0 -0.00000000000E+00 -0.00000000000E+00 -0.78298629044E+03  0.78298629044E+03  0.00000000000E+00 0.  1.
         24    2    1    2    0    0  0.10803908402E+03  0.91805278227E+01 -0.71405865008E+03  0.72662672312E+03  0.79686342781E+02 0.  0.
         25    2    1    2    0    0 -0.18467879732E+03 -0.44139873261E+02  0.23632813532E+03  0.32794836251E+03  0.12507819288E+03 0.  0.
        -24    2    1    2    0    0  0.76639713298E+02  0.34959345439E+02  0.18838791231E+03  0.22205489280E+03  0.81991270413E+02 0.  0.
        -11    1    3    3    0    0  0.11955948981E+03  0.16518273430E+02 -0.62838457660E+03  0.63987069090E+03  0.00000000000E+00 0.  1.
         12    1    3    3    0    0 -0.11520405782E+02 -0.73377456069E+01 -0.85674073475E+02  0.86756032216E+02  0.00000000000E+00 0. -1.
         11    1    5    5    0    0  0.67366395902E+02  0.20143639442E+02  0.19176827701E+03  0.20425246529E+03  0.00000000000E+00 0. -1.
        -12    1    5    5    0    0  0.92733173968E+01  0.14815705996E+02 -0.33803647076E+01  0.17802427510E+02  0.00000000000E+00 0.  1.
          5    1    4    4  501    0 -0.17143780584E+03 -0.70094326363E+02  0.15531230895E+03  0.24175094948E+03  0.41800000000E+01 0.  1.
         -5    1    4    4    0  501 -0.13240991481E+02  0.25954453101E+02  0.81015826372E+02  0.86197413035E+02  0.41800000000E+01 0.  1.
</event>
<event>
11    1  0.7157190E-009  0.1268771E+03  0.7561462E-02  0.1123167E+00
         22   -1    0    0    0    0  0.00000000000E+00  0.00000000000E+00  0.52556878586E+03  0.52556878586E+03  0.00000000000E+00 0. -1.
         22   -1    0    0    0    0 -0.00000000000E+00 -0.00000000000E+00 -0.13685656761E+03  0.13685656761E+03  0.00000000000E+00 0. -1.
         24    2    1    2    0    0  0.12924571556E+02  0.14814138407E+02 -0.95711540543E+02  0.12749302860E+03  0.81897924892E+02 0.  0.
         25    2    1    2    0    0 -0.14321095860E+01 -0.58644986242E+02  0.24340195663E+03  0.27988037847E+03  0.12508888203E+03 0.  0.
        -24    2    1    2    0    0 -0.11492461970E+02  0.43830847835E+02  0.24102180215E+03  0.25505194641E+03  0.70048314385E+02 0.  0.
        -13    1    3    3    0    0  0.71089656114E+01  0.25482024499E+02  0.42513077172E+01  0.26794487902E+02  0.00000000000E+00 0.  1.
         14    1    3    3    0    0  0.58156059444E+01 -0.10667886092E+02 -0.99962848261E+02  0.10069854070E+03  0.00000000000E+00 0. -1.
         11    1    5    5    0    0 -0.38882043955E+02  0.39075758805E+02  0.14653906767E+03  0.15656444878E+03  0.00000000000E+00 0. -1.
        -12    1    5    5    0    0  0.27389581986E+02  0.47550890298E+01  0.94482734490E+02  0.98487497631E+02  0.00000000000E+00 0.  1.
          5    1    4    4  501    0  0.37859358608E+02 -0.81315847169E+02  0.13326798418E+03  0.16069668959E+03  0.41800000000E+01 0.  1.
         -5    1    4    4    0  501 -0.39291468193E+02  0.22670860927E+02  0.11013397245E+03  0.11918368888E+03  0.41800000000E+01 0.  1.
</event>
<event>
11    1  0.7157190E-009  0.1396664E+03  0.7561462E-02  0.1107932E+00
         22   -1    0    0    0    0  0.00000000000E+00  0.00000000000E+00  0.88999527493E+03  0.88999527493E+03  0.00000000000E+00 0.  1.
         22   -1    0    0    0    0 -0.00000000000E+00 -0.00000000000E+00 -0.32302561350E+03  0.32302561350E+03  0.00000000000E+00 0.  1.
         24    2    1    2    0    0 -0.44607607433E+02  0.31220063481E+02 -0.15068410518E+03  0.17934348027E+03  0.80584448610E+02 0.  0.
         25    2    1    2    0    0  0.60666202427E+00 -0.75318568758E+02 -0.12054805068E+03  0.18934791095E+03  0.12509014358E+03 0.  0.
        -24    2    1    2    0    0  0.44000945409E+02  0.44098505277E+02  0.83820181729E+03  0.84432949722E+03  0.80182616599E+02 0.  0.
        -13    1    3    3    0    0  0.87348939744E+01  0.32753976830E+02 -0.10059867358E+03  0.10615655654E+03  0.00000000000E+00 0.  1.
         14    1    3    3    0    0 -0.53342501408E+02 -0.15339133492E+01 -0.50085431602E+02  0.73186923732E+02  0.00000000000E+00 0. -1.
         13    1    5    5    0    0 -0.63120370720E+01  0.89072886591E+01  0.13575459928E+02  0.17420525696E+02  0.00000000000E+00 0. -1.
        -14    1    5    5    0    0  0.50312982481E+02  0.35191216618E+02  0.82462635736E+03  0.82690897152E+03  0.00000000000E+00 0.  1.
          5    1    4    4  501    0  0.23026651163E+02 -0.71463492781E+02 -0.14013666977E+03  0.15903778192E+03  0.41800000000E+01 0. -1.
         -5    1    4    4    0  501 -0.22419989139E+02 -0.38550759765E+01  0.19588619092E+02  0.30310129028E+02  0.41800000000E+01 0. -1.
</event>
<event>
11    1  0.7157190E-009  0.1325715E+03  0.7561462E-02  0.1116149E+00
         22   -1    0    0    0    0  0.00000000000E+00  0.00000000000E+00  0.85795996337E+03  0.85795996337E+03  0.00000000000E+00 0.  1.
         22   -1    0    0    0    0 -0.00000000000E+00 -0.00000000000E+00 -0.73145817271E+02  0.73145817271E+02  0.00000000000E+00 0.  1.
        -24    2    1    2    0    0 -0.37157711440E+01 -0.44059441548E+02  0.16913049775E+02  0.10322029580E+03  0.91724243618E+02 0.  0.
         25    2    1    2    0    0  0.59839613266E+02  0.28881955546E+02  0.16744668722E+03  0.21932112099E+03  0.12509362245E+03 0.  0.
         24    2    1    2    0    0 -0.56123842122E+02  0.15177486002E+02  0.60045440911E+03  0.60856436386E+03  0.80155135887E+02 0.  0.
        -11    1    5    5    0    0 -0.72269239118E+02  0.27158628586E+02  0.51637725528E+03  0.52211675304E+03  0.00000000000E+00 0.  1.
         12    1    5    5    0    0  0.16145396996E+02 -0.11981142584E+02  0.84077153823E+02  0.86447610822E+02  0.00000000000E+00 0. -1.
         11    1    3    3    0    0 -0.15741827112E+01  0.28010435191E+02  0.13248456338E+02  0.31025539900E+02  0.00000000000E+00 0. -1.
        -12    1    3    3    0    0 -0.21415884328E+01 -0.72069876739E+02  0.36645934379E+01  0.72194755898E+02  0.00000000000E+00 0.  1.
          5    1    4    4  501    0 -0.17270200581E+02  0.44481826357E+01 -0.12371042418E+02  0.22103421622E+02  0.41800000000E+01 0.  1.
         -5    1    4    4    0  501  0.77109813847E+02  0.24433772910E+02  0.17981772964E+03  0.19721769936E+03  0.41800000000E+01 0.  1.
</event>
<event>
11    1  0.7157190E-009  0.1775789E+03  0.7561462E-02  0.1071618E+00
         22   -1    0    0    0    0  0.00000000000E+00  0.00000000000E+00  0.22009458362E+03  0.22009458362E+03  0.00000000000E+00 0.  1.
         22   -1    0    0    0    0 -0.00000000000E+00 -0.00000000000E+00 -0.11617478883E+04  0.11617478883E+04  0.00000000000E+00 0. -1.
         24    2    1    2    0    0  0.42585733270E+02  0.12061447841E+03 -0.10025909648E+04  0.10139875015E+04  0.81367152753E+02 0.  0.
         25    2    1    2    0    0 -0.13300754924E+02 -0.11143146206E+03 -0.92502989230E+02  0.19182883460E+03  0.12509043908E+03 0.  0.
        -24    2    1    2    0    0 -0.29284978346E+02 -0.91830163507E+01  0.15344064932E+03  0.17602613578E+03  0.80617801184E+02 0.  0.
        -13    1    3    3    0    0 -0.15491432254E+02  0.59935408569E+02 -0.29475823748E+03  0.30118873857E+03  0.00000000000E+00 0.  1.
         14    1    3    3    0    0  0.58077165524E+02  0.60679069839E+02 -0.70783272729E+03  0.71279876297E+03  0.00000000000E+00 0. -1.
         11    1    5    5    0    0 -0.51996585485E+02  0.53464881110E+01  0.64125925666E+02  0.82730672545E+02  0.00000000000E+00 0. -1.
        -12    1    5    5    0    0  0.22711607139E+02 -0.14529504462E+02  0.89314723658E+02  0.93295463238E+02  0.00000000000E+00 0.  1.
          5    1    4    4  501    0 -0.59923610550E+00 -0.10955378697E+03 -0.11917492157E+03  0.16193370759E+03  0.41800000000E+01 0. -1.
         -5    1    4    4    0  501 -0.12701518819E+02 -0.18776750908E+01  0.26671932341E+02  0.29895127009E+02  0.41800000000E+01 0. -1.
</event>
<event>
11    1  0.7157190E-009  0.2222350E+03  0.7561462E-02  0.1039826E+00
         22   -1    0    0    0    0  0.00000000000E+00  0.00000000000E+00  0.10741775069E+04  0.10741775069E+04  0.00000000000E+00 0. -1.
         22   -1    0    0    0    0 -0.00000000000E+00 -0.00000000000E+00 -0.29140235919E+03  0.29140235919E+03  0.00000000000E+00 0. -1.
        -24    2    1    2    0    0  0.22241157653E+02  0.48668017251E+02 -0.22963450214E+03  0.24937910960E+03  0.81207701215E+02 0.  0.
         25    2    1    2    0    0  0.14401681045E+03 -0.12531750090E+03  0.30530005557E+03  0.38118294301E+03  0.12508794661E+03 0.  0.
         24    2    1    2    0    0 -0.16625796810E+03  0.76649483650E+02  0.70710959429E+03  0.73501781348E+03  0.82038725534E+02 0.  0.
        -11    1    5    5    0    0 -0.28108394496E+02  0.26720398487E+02  0.59984049778E+02  0.71429320060E+02  0.00000000000E+00 0.  1.
         12    1    5    5    0    0 -0.13814957361E+03  0.49929085163E+02  0.64712554451E+03  0.66358849342E+03  0.00000000000E+00 0. -1.
         11    1    3    3    0    0  0.38951802419E+00  0.63097386160E+02 -0.20055591476E+03  0.21024772724E+03  0.00000000000E+00 0. -1.
        -12    1    3    3    0    0  0.21851639629E+02 -0.14429368909E+02 -0.29078587378E+02  0.39131382361E+02  0.00000000000E+00 0.  1.
          5    1    4    4  501    0  0.55642566321E+02  0.15262548899E+02  0.49245443710E+02  0.75971222919E+02  0.41800000000E+01 0. -1.
         -5    1    4    4    0  501  0.88374244128E+02 -0.14058004980E+03  0.25605461186E+03  0.30521172009E+03  0.41800000000E+01 0. -1.
</event>
<event>
11    1  0.7157190E-009  0.1783534E+03  0.7561462E-02  0.1070983E+00
         22   -1    0    0    0    0  0.00000000000E+00  0.00000000000E+00  0.58561218718E+03  0.58561218718E+03  0.00000000000E+00 0. -1.
         22   -1    0    0    0    0 -0.00000000000E+00 -0.00000000000E+00 -0.85042090090E+03  0.85042090090E+03  0.00000000000E+00 0. -1.
        -24    2    1    2    0    0  0.10775051746E+03  0.64287630513E+02 -0.78203296867E+03  0.79662038202E+03  0.85354528294E+02 0.  0.
         25    2    1    2    0    0 -0.12855034434E+03 -0.13724978116E+03  0.19386473722E+03  0.29767221306E+03  0.12514997655E+03 0.  0.
         24    2    1    2    0    0  0.20799826878E+02  0.72962150651E+02  0.32335951774E+03  0.34174049299E+03  0.80430582592E+02 0.  0.
        -13    1    5    5    0    0 -0.18648605623E+02 -0.62811524684E+01  0.35635783918E+02  0.40707891906E+02  0.00000000000E+00 0.  1.
         14    1    5    5    0    0  0.39448432501E+02  0.79243303119E+02  0.28772373382E+03  0.30103260109E+03  0.00000000000E+00 0. -1.
         11    1    3    3    0    0  0.94121881043E+02  0.34124759869E+02 -0.71375838589E+03  0.72074576736E+03  0.00000000000E+00 0. -1.
        -12    1    3    3    0    0  0.13628636419E+02  0.30162870643E+02 -0.68274582779E+02  0.75874614660E+02  0.00000000000E+00 0.  1.
          5    1    4    4  501    0 -0.15147111094E+03 -0.10958737514E+03  0.14374820361E+03  0.23586841391E+03  0.41800000000E+01 0.  1.
         -5    1    4    4    0  501  0.22920766599E+02 -0.27662406019E+02  0.50116533605E+02  0.61803799146E+02  0.41800000000E+01 0.  1.
</event>
<event>
11    1  0.7157190E-009  0.1370484E+03  0.7561462E-02  0.1110900E+00
         22   -1    0    0    0    0  0.00000000000E+00  0.00000000000E+00  0.21934244560E+04  0.21934244560E+04  0.00000000000E+00 0. -1.
         22   -1    0    0    0    0 -0.00000000000E+00 -0.00000000000E+00 -0.66930147065E+03  0.66930147065E+03  0.00000000000E+00 0.  1.
        -24    2    1    2    0    0 -0.14908624929E+02 -0.29934310907E+02 -0.64397396322E+03  0.64924862094E+03  0.75518053587E+02 0.  0.
         25    2    1    2    0    0 -0.41878718423E+02  0.27406868574E+02  0.18998988761E+03  0.23291366413E+03  0.12509058334E+03 0.  0.
         24    2    1    2    0    0  0.56787343352E+02  0.25274423336E+01  0.19781070609E+04  0.19805636416E+04  0.80582897982E+02 0.  0.
        -11    1    5    5    0    0  0.19896006420E+02  0.35181033058E+02  0.49820832907E+03  0.49984507131E+03  0.00000000000E+00 0.  1.
         12    1    5    5    0    0  0.36891336932E+02 -0.32653590725E+02  0.14798987318E+04  0.14807185702E+04  0.00000000000E+00 0. -1.
         11    1    3    3    0    0 -0.11957916229E+02 -0.23476218315E+02 -0.63728847765E+02  0.68960065432E+02  0.00000000000E+00 0. -1.
        -12    1    3    3    0    0 -0.29507087002E+01 -0.64580925925E+01 -0.58024511546E+03  0.58028855551E+03  0.00000000000E+00 0.  1.
          5    1    4    4  501    0  0.19202442555E+02 -0.32205610099E+02  0.10835195402E+03  0.11473253010E+03  0.41800000000E+01 0.  1.
         -5    1    4    4    0  501 -0.61081160978E+02  0.59612478673E+02  0.81637933589E+02  0.11818113403E+03  0.41800000000E+01 0.  1.
</event>
<event>
11    1  0.7157190E-009  0.1972520E+03  0.7561462E-02  0.1056484E+00
         22   -1    0    0    0    0  0.00000000000E+00  0.00000000000E+00  0.22734974535E+04  0.22734974535E+04  0.00000000000E+00 0.  1.
         22   -1    0    0    0    0 -0.00000000000E+00 -0.00000000000E+00 -0.20707926050E+03  0.20707926050E+03  0.00000000000E+00 0. -1.
         24    2    1    2    0    0 -0.51955860876E+02  0.13992688484E+03 -0.14246508583E+03  0.22174539653E+03  0.81214380616E+02 0.  0.
         25    2    1    2    0    0  0.12483572721E+03 -0.17483817814E+03  0.65075979944E+03  0.69662481512E+03  0.12508184977E+03 0.  0.
        -24    2    1    2    0    0 -0.72879866338E+02  0.34911293304E+02  0.15581234794E+04  0.15622065023E+04  0.78804223459E+02 0.  0.
        -11    1    3    3    0    0  0.10664527591E+02  0.73244716964E+02 -0.39078667117E+02  0.83699838324E+02  0.00000000000E+00 0.  1.
         12    1    3    3    0    0 -0.62620388467E+02  0.66682167875E+02 -0.10338641872E+03  0.13804555820E+03  0.00000000000E+00 0. -1.
         11    1    5    5    0    0 -0.88602255603E+01 -0.82609469963E+01  0.33398438024E+02  0.35527489423E+02  0.00000000000E+00 0. -1.
        -12    1    5    5    0    0 -0.64019640777E+02  0.43172240300E+02  0.15247250413E+04  0.15266790129E+04  0.00000000000E+00 0.  1.
          5    1    4    4  501    0  0.11770720071E+01 -0.80265092289E+02  0.12787276503E+03  0.15103902468E+03  0.41800000000E+01 0.  1.
         -5    1    4    4    0  501  0.12365865521E+03 -0.94573085854E+02  0.52288703441E+03  0.54558579044E+03  0.41800000000E+01 0.  1.
</event>
<event>
11    1  0.7157190E-009  0.1330062E+03  0.7561462E-02  0.1115629E+00
         22   -1    0    0    0    0  0.00000000000E+00  0.00000000000E+00  0.39205638826E+03  0.39205638826E+03  0.00000000000E+00 0. -1.
         22   -1    0    0    0    0 -0.00000000000E+00 -0.00000000000E+00 -0.29085995483E+03  0.29085995483E+03  0.00000000000E+00 0. -1.
         24    2    1    2    0    0  0.41316961121E+02  0.39907188645E+01 -0.18113423958E+03  0.20242289487E+03  0.80264553244E+02 0.  0.
         25    2    1    2    0    0 -0.61445012894E+02 -0.19998240111E+02 -0.40737548721E+02  0.14657467898E+03  0.12509664034E+03 0.  0.
        -24    2    1    2    0    0  0.20128051772E+02  0.16007521246E+02  0.32306822173E+03  0.33391876924E+03  0.80419458813E+02 0.  0.
        -11    1    3    3    0    0  0.72452218537E+01  0.20125698582E+02 -0.45622073761E+01  0.21871230401E+02  0.00000000000E+00 0.  1.
         12    1    3    3    0    0  0.34071739268E+02 -0.16134979718E+02 -0.17657203220E+03  0.18055166447E+03  0.00000000000E+00 0. -1.
         11    1    5    5    0    0  0.51240326748E+02  0.14197214613E+02  0.19591304278E+03  0.20300012887E+03  0.00000000000E+00 0. -1.
        -12    1    5    5    0    0 -0.31112274976E+02  0.18103066330E+01  0.12715517894E+03  0.13091864037E+03  0.00000000000E+00 0.  1.
          5    1    4    4  501    0  0.19783150158E+02 -0.33730234043E+02  0.20017991440E+02  0.44128155412E+02  0.41800000000E+01 0.  1.
         -5    1    4    4    0  501 -0.81228163052E+02  0.13731993932E+02 -0.60755540161E+02  0.10244652356E+03  0.41800000000E+01 0.  1.
</event>
<event>
11    1  0.7157190E-009  0.1411521E+03  0.7561462E-02  0.1106279E+00
         22   -1    0    0    0    0  0.00000000000E+00  0.00000000000E+00  0.79249814178E+03  0.79249814178E+03  0.00000000000E+00 0.  1.
         22   -1    0    0    0    0 -0.00000000000E+00 -0.00000000000E+00 -0.99490868433E+03  0.99490868433E+03  0.00000000000E+00 0. -1.
        -24    2    1    2    0    0  0.22061056885E+02 -0.61122035617E+02 -0.71451325713E+03  0.72192225845E+03  0.80124647695E+02 0.  0.
         25    2    1    2    0    0 -0.35272467905E+02  0.58730177015E+02 -0.25595650715E+03  0.29301029059E+03  0.12509163102E+03 0.  0.
         24    2    1    2    0    0  0.13211411020E+02  0.23918586028E+01  0.76805922173E+03  0.77247427707E+03  0.81371237427E+02 0.  0.
        -11    1    5    5    0    0  0.37352211199E+02  0.88213915136E+01  0.67590629957E+03  0.67699507416E+03  0.00000000000E+00 0.  1.
         12    1    5    5    0    0 -0.24140800180E+02 -0.64295329108E+01  0.92152922153E+02  0.95479202909E+02  0.00000000000E+00 0. -1.
         11    1    3    3    0    0  0.92376939481E+01 -0.74685834132E+02 -0.66052793125E+03  0.66480106556E+03  0.00000000000E+00 0. -1.
        -12    1    3    3    0    0  0.12823362937E+02  0.13563798515E+02 -0.53985325876E+02  0.57121192889E+02  0.00000000000E+00 0.  1.
          5    1    4    4  501    0  0.15625672244E+02  0.19852259851E+02  0.33978108230E+01  0.25831983522E+02  0.41800000000E+01 0. -1.
         -5    1    4    4    0  501 -0.50898140149E+02  0.38877917163E+02 -0.25935431798E+03  0.26717830707E+03  0.41800000000E+01 0. -1.
</event>
<event>
11    1  0.7157190E-009  0.2085572E+03  0.7561462E-02  0.1048632E+00
         22   -1    0    0    0    0  0.00000000000E+00  0.00000000000E+00  0.94655701895E+03  0.94655701895E+03  0.00000000000E+00 0.  1.
         22   -1    0    0    0    0 -0.00000000000E+00 -0.00000000000E+00 -0.15237785781E+04  0.15237785781E+04  0.00000000000E+00 0. -1.
         24    2    1    2    0    0 -0.27420470452E+02 -0.31518374787E+02 -0.87475531397E+03  0.87947337884E+03  0.80816301678E+02 0.  0.
         25    2    1    2    0    0 -0.11407017889E+03  0.12017441091E+03 -0.62051707400E+03  0.65432606234E+03  0.12508901628E+03 0.  0.
        -24    2    1    2    0    0  0.14149064934E+03 -0.88656036121E+02  0.91805082886E+03  0.93653615583E+03  0.80019686423E+02 0.  0.
        -11    1    3    3    0    0  0.16235911415E+02 -0.12136770476E+01 -0.42326051608E+02  0.45349448466E+02  0.00000000000E+00 0.  1.
         12    1    3    3    0    0 -0.43656381867E+02 -0.30304697740E+02 -0.83242926236E+03  0.83412393037E+03  0.00000000000E+00 0. -1.
         13    1    5    5    0    0  0.60332771544E+02 -0.18839054833E+01  0.43084259867E+03  0.43505049966E+03  0.00000000000E+00 0. -1.
        -14    1    5    5    0    0  0.81157877794E+02 -0.86772130637E+02  0.48720823019E+03  0.50148565617E+03  0.00000000000E+00 0.  1.
          5    1    4    4  501    0  0.55548479120E+01  0.13033865388E+02 -0.25057436508E+03  0.25100940783E+03  0.41800000000E+01 0.  1.
         -5    1    4    4    0  501 -0.11962502680E+03  0.10714054552E+03 -0.36994270892E+03  0.40331665452E+03  0.41800000000E+01 0.  1.
</event>
<event>
11    1  0.7157190E-009  0.1296752E+03  0.7561462E-02  0.1119669E+00
         22   -1    0    0    0    0  0.00000000000E+00  0.00000000000E+00  0.13824386343E+04  0.13824386343E+04  0.00000000000E+00 0. -1.
         22   -1    0    0    0    0 -0.00000000000E+00 -0.00000000000E+00 -0.79976173712E+03  0.79976173712E+03  0.00000000000E+00 0.  1.
         24    2    1    2    0    0  0.77005847511E+01  0.32083330944E+02 -0.69660616346E+03  0.70187085531E+03  0.79208026304E+02 0.  0.
         25    2    1    2    0    0 -0.28609308565E+02 -0.46768859331E+01 -0.57504292159E+02  0.14069333196E+03  0.12508998458E+03 0.  0.
        -24    2    1    2    0    0  0.20908723814E+02 -0.27406445010E+02  0.13367873528E+04  0.13396361841E+04  0.80227123296E+02 0.  0.
        -11    1    3    3    0    0 -0.20418901901E+01  0.46696001477E+01 -0.61851884749E+03  0.61853984445E+03  0.00000000000E+00 0.  1.
         12    1    3    3    0    0  0.97424749413E+01  0.27413730796E+02 -0.78087315978E+02  0.83331010859E+02  0.00000000000E+00 0. -1.
         13    1    5    5    0    0 -0.12311720890E+01 -0.52446681224E+02  0.69373798984E+03  0.69571874252E+03  0.00000000000E+00 0. -1.
        -14    1    5    5    0    0  0.22139895903E+02  0.25040236214E+02  0.64304936293E+03  0.64391744159E+03  0.00000000000E+00 0.  1.
          5    1    4    4  501    0 -0.72975236604E+02  0.17499654645E+02 -0.50203457817E+02  0.90385190418E+02  0.41800000000E+01 0.  1.
         -5    1    4    4    0  501  0.44365928040E+02 -0.22176540579E+02 -0.73008343418E+01  0.50308141537E+02  0.41800000000E+01 0.  1.
</event>
<event>
11    1  0.7157190E-009  0.1287963E+03  0.7561462E-02  0.1120757E+00
         22   -1    0    0    0    0  0.00000000000E+00  0.00000000000E+00  0.43585487199E+03  0.43585487199E+03  0.00000000000E+00 0.  1.
         22   -1    0    0    0    0 -0.00000000000E+00 -0.00000000000E+00 -0.51504985868E+03  0.51504985868E+03  0.00000000000E+00 0.  1.
         24    2    1    2    0    0  0.12126108970E+02 -0.22378276349E+02 -0.48187712643E+03  0.48866873681E+03  0.77095652186E+02 0.  0.
         25    2    1    2    0    0  0.12953106332E+02  0.37905104150E+02  0.17662434486E+03  0.22011050372E+03  0.12509154554E+03 0.  0.
        -24    2    1    2    0    0 -0.25079215302E+02 -0.15526827802E+02  0.22605779488E+03  0.24212549015E+03  0.81563330802E+02 0.  0.
        -11    1    3    3    0    0 -0.33556043420E+01 -0.37609428241E+02 -0.43884784789E+03  0.44046925293E+03  0.00000000000E+00 0.  1.
         12    1    3    3    0    0  0.15481713312E+02  0.15231151892E+02 -0.43029278535E+02  0.48199483880E+02  0.00000000000E+00 0. -1.
         13    1    5    5    0    0  0.54699598204E+01  0.16643272482E+01 -0.54975720401E+01  0.79318184524E+01  0.00000000000E+00 0. -1.
        -14    1    5    5    0    0 -0.30549175123E+02 -0.17191155050E+02  0.23155536692E+03  0.23419367169E+03  0.00000000000E+00 0.  1.
          5    1    4    4  501    0  0.23856832518E+02  0.76884703245E+02  0.72878020605E+02  0.10866961092E+03  0.41800000000E+01 0. -1.
         -5    1    4    4    0  501 -0.10903726185E+02 -0.38979599095E+02  0.10374632425E+03  0.11144089279E+03  0.41800000000E+01 0. -1.
</event>
<event>
11    1  0.7201188E-009  0.1516900E+03  0.7561462E-02  0.1095164E+00
         22   -1    0    0    0    0  0.00000000000E+00  0.00000000000E+00  0.16024516733E+04  0.16024516733E+04  0.00000000000E+00 0. -1.
         22   -1    0    0    0    0 -0.00000000000E+00 -0.00000000000E+00 -0.51715734710E+03  0.51715734710E+03  0.00000000000E+00 0. -1.
         24    2    1    2    0    0  0.70734197872E+02  0.39059726640E+02 -0.41683572460E+03  0.43316703334E+03  0.85747702454E+02 0.  0.
         25    2    1    2    0    0 -0.53265661862E+02  0.46264333715E+02 -0.32494093508E+02  0.14724372618E+03  0.12508888631E+03 0.  0.
        -24    2    1    2    0    0 -0.17468536010E+02 -0.85324060355E+02  0.15346241443E+04  0.15391982609E+04  0.80465377615E+02 0.  0.
        -13    1    3    3    0    0  0.24824543961E+02  0.82353063006E+01 -0.21150788681E+02  0.33636797032E+02  0.00000000000E+00 0.  1.
         14    1    3    3    0    0  0.45909653911E+02  0.30824420340E+02 -0.39568493592E+03  0.39953023631E+03  0.00000000000E+00 0. -1.
         13    1    5    5    0    0 -0.46465907071E+02 -0.73700480051E+02  0.11686196847E+04  0.11718629650E+04  0.00000000000E+00 0. -1.
        -14    1    5    5    0    0  0.28997371061E+02 -0.11623580304E+02  0.36600445963E+03  0.36733529590E+03  0.00000000000E+00 0.  1.
          5    1    4    4  501    0 -0.84204608873E+02  0.32649382768E+02 -0.55552451552E+02  0.10611289094E+03  0.41800000000E+01 0. -1.
         -5    1    4    4    0  501  0.30938947011E+02  0.13614950947E+02  0.23058358044E+02  0.41130835235E+02  0.41800000000E+01 0. -1.
</event>
<event>
11    1  0.7157190E-009  0.1707986E+03  0.7561462E-02  0.1077339E+00
         22   -1    0    0    0    0  0.00000000000E+00  0.00000000000E+00  0.13667956183E+03  0.13667956183E+03  0.00000000000E+00 0. -1.
         22   -1    0    0    0    0 -0.00000000000E+00 -0.00000000000E+00 -0.12040299784E+04  0.12040299784E+04  0.00000000000E+00 0. -1.
        -24    2    1    2    0    0  0.28564026358E+02  0.25188582746E+02 -0.52368773547E+03  0.53135843035E+03  0.81501956553E+02 0.  0.
         25    2    1    2    0    0 -0.13456123845E+03 -0.67542569668E+02 -0.62096240987E+03  0.65108424931E+03  0.12509060564E+03 0.  0.
         24    2    1    2    0    0  0.10599721209E+03  0.42353986922E+02  0.77299728763E+02  0.15826686057E+03  0.77742407389E+02 0.  0.
        -13    1    5    5    0    0  0.51160168715E+02 -0.17922675435E+02  0.16724560540E+02  0.56730028053E+02  0.00000000000E+00 0.  1.
         14    1    5    5    0    0  0.54837043380E+02  0.60276662358E+02  0.60575168223E+02  0.10153683251E+03  0.00000000000E+00 0. -1.
         13    1    3    3    0    0  0.12784667253E+01  0.32973165850E+02 -0.46502084507E+03  0.46619014414E+03  0.00000000000E+00 0. -1.
        -14    1    3    3    0    0  0.27285559633E+02 -0.77845831045E+01 -0.58666890394E+02  0.65168286206E+02  0.00000000000E+00 0.  1.
          5    1    4    4  501    0 -0.23154000920E+02  0.28074594780E+02 -0.24019690943E+03  0.24297390462E+03  0.41800000000E+01 0. -1.
         -5    1    4    4    0  501 -0.11140723753E+03 -0.95617164448E+02 -0.38076550044E+03  0.40811034468E+03  0.41800000000E+01 0. -1.
</event>
<event>
11    1  0.7157190E-009  0.1267596E+03  0.7561462E-02  0.1123316E+00
         22   -1    0    0    0    0  0.00000000000E+00  0.00000000000E+00  0.21490563038E+03  0.21490563038E+03  0.00000000000E+00 0.  1.
         22   -1    0    0    0    0 -0.00000000000E+00 -0.00000000000E+00 -0.15284931294E+04  0.15284931294E+04  0.00000000000E+00 0. -1.
         24    2    1    2    0    0  0.27940370238E+02 -0.32294514209E+02 -0.14076410824E+04  0.14093790309E+04  0.55427752827E+02 0.  0.
         25    2    1    2    0    0 -0.30698627572E+02  0.49507820863E+02 -0.66920577118E+02  0.15336154483E+03  0.12509184518E+03 0.  0.
        -24    2    1    2    0    0  0.27582573337E+01 -0.17213306654E+02  0.16097416048E+03  0.18065818413E+03  0.80129852388E+02 0.  0.
        -13    1    3    3    0    0 -0.96439670754E+01  0.10685670358E+01 -0.58264957941E+02  0.59067362057E+02  0.00000000000E+00 0.  1.
         14    1    3    3    0    0  0.37584337313E+02 -0.33363081245E+02 -0.13493761245E+04  0.13503116688E+04  0.00000000000E+00 0. -1.
         13    1    5    5    0    0 -0.30457005568E+02  0.16274740164E+02  0.75822776599E+02  0.83316203746E+02  0.00000000000E+00 0. -1.
        -14    1    5    5    0    0  0.33215262902E+02 -0.33488046818E+02  0.85151383877E+02  0.97341980387E+02  0.00000000000E+00 0.  1.
          5    1    4    4  501    0  0.34696824569E+02 -0.14346161735E+02  0.34495225903E+01  0.37934859929E+02  0.41800000000E+01 0. -1.
         -5    1    4    4    0  501 -0.65395452141E+02  0.63853982598E+02 -0.70370099708E+02  0.11542668490E+03  0.41800000000E+01 0. -1.
</event>
<event>
11    1  0.7157190E-009  0.2463515E+03  0.7561462E-02  0.1025861E+00
         22   -1    0    0    0    0  0.00000000000E+00  0.00000000000E+00  0.15923794654E+03  0.15923794654E+03  0.00000000000E+00 0. -1.
         22   -1    0    0    0    0 -0.00000000000E+00 -0.00000000000E+00 -0.71119467705E+03  0.71119467705E+03  0.00000000000E+00 0.  1.
        -24    2    1    2    0    0  0.94602805220E+01 -0.23369971498E+03 -0.41150572515E+03  0.48020311510E+03  0.80950702446E+02 0.  0.
         25    2    1    2    0    0  0.49466361254E+02  0.17576050726E+03 -0.15924492074E+03  0.27266415170E+03  0.12509243795E+03 0.  0.
         24    2    1    2    0    0 -0.58926641776E+02  0.57939207716E+02  0.18793915386E+02  0.11756535679E+03  0.81480678448E+02 0.  0.
        -11    1    5    5    0    0 -0.19567693684E+02 -0.16379473783E+02 -0.11749195103E+02  0.28093155449E+02  0.00000000000E+00 0.  1.
         12    1    5    5    0    0 -0.39358948092E+02  0.74318681499E+02  0.30543110489E+02  0.89472201342E+02  0.00000000000E+00 0. -1.
         13    1    3    3    0    0 -0.14984276609E+02 -0.95407492351E+02 -0.10277008271E+03  0.14102768538E+03  0.00000000000E+00 0. -1.
        -14    1    3    3    0    0  0.24444557131E+02 -0.13829222263E+03 -0.30873564244E+03  0.33917542972E+03  0.00000000000E+00 0.  1.
          5    1    4    4  501    0  0.23553236520E+02  0.80684868742E+02 -0.15203006057E+03  0.17376827878E+03  0.41800000000E+01 0. -1.
         -5    1    4    4    0  501  0.25913124734E+02  0.95075638521E+02 -0.72148601774E+01  0.98895872922E+02  0.41800000000E+01 0. -1.
</event>
<event>
11    1  0.7157190E-009  0.1976180E+03  0.7561462E-02  0.1056221E+00
         22   -1    0    0    0    0  0.00000000000E+00  0.00000000000E+00  0.15523484254E+03  0.15523484254E+03  0.00000000000E+00 0.  1.
         22   -1    0    0    0    0 -0.00000000000E+00 -0.00000000000E+00 -0.12991416902E+04  0.12991416902E+04  0.00000000000E+00 0.  1.
         24    2    1    2    0    0  0.14625040891E+02 -0.91244884837E+01 -0.10682472320E+04  0.10714135849E+04  0.80484614512E+02 0.  0.
         25    2    1    2    0    0 -0.52614004187E+02  0.15214865524E+03 -0.64708519988E+02  0.21389721892E+03  0.12508949185E+03 0.  0.
        -24    2    1    2    0    0  0.37988963297E+02 -0.14302416676E+03 -0.10951095713E+02  0.16906572893E+03  0.81019877762E+02 0.  0.
        -11    1    3    3    0    0  0.38088319641E+02  0.57683203917E+01 -0.90486709743E+03  0.90568673261E+03  0.00000000000E+00 0.  1.
         12    1    3    3    0    0 -0.23463278750E+02 -0.14892808875E+02 -0.16338013453E+03  0.16572685227E+03  0.00000000000E+00 0. -1.
         11    1    5    5    0    0 -0.17129502236E+02 -0.12217725643E+02 -0.16913595821E+02  0.26995599462E+02  0.00000000000E+00 0. -1.
        -12    1    5    5    0    0  0.55118465533E+02 -0.13080644112E+03  0.59625001071E+01  0.14207012947E+03  0.00000000000E+00 0.  1.
          5    1    4    4  501    0  0.14943606605E+02  0.83255226850E+02 -0.79540020085E+02  0.11618447130E+03  0.41800000000E+01 0.  1.
         -5    1    4    4    0  501 -0.67557610792E+02  0.68893428392E+02  0.14831500097E+02  0.97712747616E+02  0.41800000000E+01 0.  1.
</event>
<event>
11    1  0.7157190E-009  0.3560890E+03  0.7561462E-02  0.9789016E-01
         22   -1    0    0    0    0  0.00000000000E+00  0.00000000000E+00  0.14458303494E+04  0.14458303494E+04  0.00000000000E+00 0.  1.
         22   -1    0    0    0    0 -0.00000000000E+00 -0.00000000000E+00 -0.53583800785E+03  0.53583800785E+03  0.00000000000E+00 0.  1.
         24    2    1    2    0    0 -0.13737739475E+03 -0.38202943805E+02 -0.42169828656E+03  0.45240290532E+03  0.80665546256E+02 0.  0.
         25    2    1    2    0    0 -0.30965560129E+02 -0.28455063236E+03  0.30428679308E+03  0.43607926743E+03  0.12508695676E+03 0.  0.
        -24    2    1    2    0    0  0.16834295488E+03  0.32275357616E+03  0.10274038350E+04  0.10931861845E+04  0.83595289092E+02 0.  0.
        -13    1    3    3    0    0 -0.74701632891E+02 -0.15482659579E+02 -0.33194623089E+03  0.34059998077E+03  0.00000000000E+00 0.  1.
         14    1    3    3    0    0 -0.62675761855E+02 -0.22720284227E+02 -0.89752055672E+02  0.11180292454E+03  0.00000000000E+00 0. -1.
         11    1    5    5    0    0  0.11397411912E+03  0.13667773889E+03  0.54358952525E+03  0.57197943678E+03  0.00000000000E+00 0. -1.
        -12    1    5    5    0    0  0.54368835751E+02  0.18607583727E+03  0.48381430980E+03  0.52120674773E+03  0.00000000000E+00 0.  1.
          5    1    4    4  501    0 -0.60694517768E+02 -0.22251011340E+03  0.17491986749E+03  0.28949785404E+03  0.41800000000E+01 0.  1.
         -5    1    4    4    0  501  0.29728957638E+02 -0.62040518960E+02  0.12936692559E+03  0.14658141340E+03  0.41800000000E+01 0.  1.
</event>
<event>
11    1  0.7157190E-009  0.1515000E+03  0.7561462E-02  0.1095356E+00
         22   -1    0    0    0    0  0.00000000000E+00  0.00000000000E+00  0.82807493399E+03  0.82807493399E+03  0.00000000000E+00 0.  1.
         22   -1    0    0    0    0 -0.00000000000E+00 -0.00000000000E+00 -0.19859849406E+04  0.19859849406E+04  0.00000000000E+00 0. -1.
        -24    2    1    2    0    0  0.44863370816E+02  0.57167809941E+01 -0.17695790113E+04  0.17719377380E+04  0.79423337122E+02 0.  0.
         25    2    1    2    0    0 -0.52782115046E+02 -0.90613742784E+02 -0.17932347030E+03  0.24248958112E+03  0.12508991926E+03 0.  0.
         24    2    1    2    0    0  0.79187442307E+01  0.84896961789E+02  0.79099247500E+03  0.79963255547E+03  0.80454506677E+02 0.  0.
        -11    1    5    5    0    0 -0.52666722873E+01  0.98198970547E+02  0.67909780201E+03  0.68618117166E+03  0.00000000000E+00 0.  1.
         12    1    5    5    0    0  0.13185416518E+02 -0.13302008758E+02  0.11189467299E+03  0.11345138381E+03  0.00000000000E+00 0. -1.
         11    1    3    3    0    0  0.51313130220E+02  0.31042339818E+02 -0.14693666567E+04  0.14705900299E+04  0.00000000000E+00 0. -1.
        -12    1    3    3    0    0 -0.64497594041E+01 -0.25325558824E+02 -0.30021235457E+03  0.30134770807E+03  0.00000000000E+00 0.  1.
          5    1    4    4  501    0 -0.89995123773E+02 -0.87033375692E+02 -0.14437551369E+03  0.19114311952E+03  0.41800000000E+01 0. -1.
         -5    1    4    4    0  501  0.37213008727E+02 -0.35803670911E+01 -0.34947956607E+02  0.51346461592E+02  0.41800000000E+01 0. -1.
</event>
<event>
11    1  0.7157190E-009  0.1524825E+03  0.7561462E-02  0.1094369E+00
         22   -1    0    0    0    0  0.00000000000E+00  0.00000000000E+00  0.86959946097E+02  0.86959946097E+02  0.00000000000E+00 0. -1.
         22   -1    0    0    0    0 -0.00000000000E+00 -0.00000000000E+00 -0.97218280181E+03  0.97218280181E+03  0.00000000000E+00 0. -1.
        -24    2    1    2    0    0 -0.19637909866E+01 -0.30218068134E+02 -0.59189126094E+03  0.59790278036E+03  0.78965067420E+02 0.  0.
         25    2    1    2    0    0  0.63729039908E+02  0.87096554479E+02 -0.30127959307E+03  0.34360305832E+03  0.12508584316E+03 0.  0.
         24    2    1    2    0    0 -0.61765248922E+02 -0.56878486345E+02  0.79479982891E+01  0.11763690923E+03  0.82007094524E+02 0.  0.
        -11    1    5    5    0    0 -0.69863981752E+01  0.10418300279E+02 -0.22430521772E+02  0.25699786908E+02  0.00000000000E+00 0.  1.
         12    1    5    5    0    0 -0.54778850747E+02 -0.67296786624E+02  0.30378520061E+02  0.91937122318E+02  0.00000000000E+00 0. -1.
         11    1    3    3    0    0 -0.21055779728E+02 -0.23421132352E+02 -0.55432317999E+03  0.55521714957E+03  0.00000000000E+00 0. -1.
        -12    1    3    3    0    0  0.19091988741E+02 -0.67969357827E+01 -0.37568080949E+02  0.42685630795E+02  0.00000000000E+00 0.  1.
          5    1    4    4  501    0  0.66441185206E+02  0.60666361008E+02 -0.79310022065E+02  0.12000995979E+03  0.41800000000E+01 0. -1.
         -5    1    4    4    0  501 -0.27121452972E+01  0.26430193471E+02 -0.22196957100E+03  0.22359309853E+03  0.41800000000E+01 0. -1.
</event>
<event>
11    1  0.7157190E-009  0.1307538E+03  0.7561462E-02  0.1118346E+00
         22   -1    0    0    0    0  0.00000000000E+00  0.00000000000E+00  0.13100687559E+03  0.13100687559E+03  0.00000000000E+00 0. -1.
         22   -1    0    0    0    0 -0.00000000000E+00 -0.00000000000E+00 -0.14261912910E+04  0.14261912910E+04  0.00000000000E+00 0. -1.
         24    2    1    2    0    0 -0.17242826093E+02 -0.12743984051E+02 -0.11346226001E+04  0.11376929716E+04  0.80728735973E+02 0.  0.
         25    2    1    2    0    0  0.28613993080E+02  0.47946858701E+02 -0.25509799025E+03  0.28955175558E+03  0.12509025809E+03 0.  0.
        -24    2    1    2    0    0 -0.11371166987E+02 -0.35202874650E+02  0.94536174918E+02  0.12995343942E+03  0.81131142145E+02 0.  0.
        -11    1    3    3    0    0 -0.31911726655E+02 -0.29477613626E+02 -0.34069794907E+03  0.34345651909E+03  0.00000000000E+00 0.  1.
         12    1    3    3    0    0  0.14668900562E+02  0.16733629575E+02 -0.79392465098E+03  0.79423645247E+03  0.00000000000E+00 0. -1.
         11    1    5    5    0    0 -0.34818624534E+02 -0.38358897327E+02  0.92737695365E+02  0.10622627622E+03  0.00000000000E+00 0. -1.
        -12    1    5    5    0    0  0.23447457546E+02  0.31560226768E+01  0.17984795535E+01  0.23727163194E+02  0.00000000000E+00 0.  1.
          5    1    4    4  501    0  0.68215285743E+02 -0.73861604424E+01 -0.13279247728E+03  0.14952991338E+03  0.41800000000E+01 0. -1.
         -5    1    4    4    0  501 -0.39601292662E+02  0.55333019143E+02 -0.12230551298E+03  0.14002184220E+03  0.41800000000E+01 0. -1.
</event>
<event>
11    1  0.7157190E-009  0.1392984E+03  0.7561462E-02  0.1108344E+00
         22   -1    0    0    0    0  0.00000000000E+00  0.00000000000E+00  0.10362311721E+03  0.10362311721E+03  0.00000000000E+00 0.  1.
         22   -1    0    0    0    0 -0.00000000000E+00 -0.00000000000E+00 -0.14911831932E+04  0.14911831932E+04  0.00000000000E+00 0. -1.
        -24    2    1    2    0    0 -0.53805947258E+02 -0.29298919586E+02 -0.12778761395E+04  0.12818584907E+04  0.80251203700E+02 0.  0.
         25    2    1    2    0    0  0.61783825224E+02  0.15019151275E+02 -0.16234352289E+03  0.21458308018E+03  0.12509061880E+03 0.  0.
         24    2    1    2    0    0 -0.79778779658E+01  0.14279768311E+02  0.52659586440E+02  0.98364739455E+02  0.81455703325E+02 0.  0.
        -13    1    5    5    0    0 -0.28317371749E+01 -0.17622313387E+02  0.62168794180E+02  0.64680164149E+02  0.00000000000E+00 0.  1.
         14    1    5    5    0    0 -0.51461407909E+01  0.31902081698E+02 -0.95092077399E+01  0.33684575306E+02  0.00000000000E+00 0. -1.
         11    1    3    3    0    0 -0.29456689595E+02 -0.54692773876E+02 -0.96808479797E+03  0.97007585896E+03  0.00000000000E+00 0. -1.
        -12    1    3    3    0    0 -0.24349257663E+02  0.25393854290E+02 -0.30979134152E+03  0.31178263176E+03  0.00000000000E+00 0.  1.
          5    1    4    4  501    0  0.64232673421E+02  0.54232650446E+02 -0.15198658190E+03  0.17373661153E+03  0.41800000000E+01 0.  1.
         -5    1    4    4    0  501 -0.24488481973E+01 -0.39213499171E+02 -0.10356940994E+02  0.40846468653E+02  0.41800000000E+01 0.  1.
</event>
<event>
11    1  0.7157190E-009  0.1347633E+03  0.7561462E-02  0.1113551E+00
         22   -1    0    0    0    0  0.00000000000E+00  0.00000000000E+00  0.14799752790E+03  0.14799752790E+03  0.00000000000E+00 0.  1.
         22   -1    0    0    0    0 -0.00000000000E+00 -0.00000000000E+00 -0.40594863295E+03  0.40594863295E+03  0.00000000000E+00 0. -1.
        -24    2    1    2    0    0 -0.11895275296E+01 -0.36238950178E+01 -0.27816341911E+03  0.28904391660E+03  0.78466237338E+02 0.  0.
         25    2    1    2    0    0 -0.44267012304E+01 -0.47022586500E+02 -0.48662431994E+02  0.14228894964E+03  0.12508954223E+03 0.  0.
         24    2    1    2    0    0  0.56162287600E+01  0.50646481517E+02  0.68874746060E+02  0.12261329461E+03  0.87713632090E+02 0.  0.
        -11    1    5    5    0    0  0.11981554738E+02  0.55584221548E+02  0.86338861183E+02  0.10338066690E+03  0.00000000000E+00 0.  1.
         12    1    5    5    0    0 -0.63653259782E+01 -0.49377400303E+01 -0.17464115123E+02  0.19232627705E+02  0.00000000000E+00 0. -1.
         13    1    3    3    0    0 -0.58931708368E+01 -0.66174105151E+01 -0.28208710104E+03  0.28222624286E+03  0.00000000000E+00 0. -1.
        -14    1    3    3    0    0  0.47036433073E+01  0.29935154972E+01  0.39236819291E+01  0.68176737437E+01  0.00000000000E+00 0.  1.
          5    1    4    4  501    0  0.37573083621E+02  0.18173821241E+02 -0.49156993876E+02  0.64621256861E+02  0.41800000000E+01 0.  1.
         -5    1    4    4    0  501 -0.41999784852E+02 -0.65196407740E+02  0.49456188264E+00  0.77667692777E+02  0.41800000000E+01 0.  1.
</event>
<event>
11    1  0.7157190E-009  0.1388723E+03  0.7561462E-02  0.1108824E+00
         22   -1    0    0    0    0  0.00000000000E+00  0.00000000000E+00  0.30041230154E+02  0.30041230154E+02  0.00000000000E+00 0. -1.
         22   -1    0    0    0    0 -0.00000000000E+00 -0.00000000000E+00 -0.28955191458E+04  0.28955191458E+04  0.00000000000E+00 0. -1.
         24    2    1    2    0    0  0.48839289198E+02 -0.37171580933E+02 -0.23839431544E+04  0.23860004996E+04  0.77758717018E+02 0.  0.
         25    2    1    2    0    0 -0.64433041699E+01  0.51812369546E+02 -0.18932925924E+03  0.23286004661E+03  0.12510873309E+03 0.  0.
        -24    2    1    2    0    0 -0.42395985028E+02 -0.14640788613E+02 -0.29220550199E+03  0.30669982973E+03  0.81663687924E+02 0.  0.
        -13    1    3    3    0    0  0.24737763672E+02 -0.20199362982E+02 -0.27453560125E+03  0.27638698879E+03  0.00000000000E+00 0.  1.
         14    1    3    3    0    0  0.24101525526E+02 -0.16972217951E+02 -0.21094075531E+04  0.21096135108E+04  0.00000000000E+00 0. -1.
         11    1    5    5    0    0 -0.23448024380E+02 -0.12793941610E+02 -0.18875147088E+02  0.32707276971E+02  0.00000000000E+00 0. -1.
        -12    1    5    5    0    0 -0.18947960648E+02 -0.18468470039E+01 -0.27333035490E+03  0.27399255276E+03  0.00000000000E+00 0.  1.
          5    1    4    4  501    0  0.31842868263E+02  0.50944878864E+02 -0.26958128796E+02  0.65981528096E+02  0.41800000000E+01 0. -1.
         -5    1    4    4    0  501 -0.38286172433E+02  0.86749068212E+00 -0.16237113045E+03  0.16687851852E+03  0.41800000000E+01 0. -1.
</event>
<event>
11    1  0.7157190E-009  0.1392493E+03  0.7561462E-02  0.1108400E+00
         22   -1    0    0    0    0  0.00000000000E+00  0.00000000000E+00  0.21657452807E+03  0.21657452807E+03  0.00000000000E+00 0. -1.
         22   -1    0    0    0    0 -0.00000000000E+00 -0.00000000000E+00 -0.57215979314E+03  0.57215979314E+03  0.00000000000E+00 0. -1.
        -24    2    1    2    0    0  0.33057944223E+02  0.50805198956E+02 -0.44238212742E+03  0.45369153798E+03  0.80374554766E+02 0.  0.
         25    2    1    2    0    0 -0.11761617274E+02 -0.69995510491E+02 -0.64805893772E+02  0.15775117909E+03  0.12509166043E+03 0.  0.
         24    2    1    2    0    0 -0.21296326950E+02  0.19190311535E+02  0.15160275612E+03  0.17729160413E+03  0.87333359239E+02 0.  0.
        -11    1    5    5    0    0 -0.34763658153E+02 -0.69389439661E+01  0.16632598260E+02  0.39157428368E+02  0.00000000000E+00 0.  1.
         12    1    5    5    0    0  0.13467331203E+02  0.26129255501E+02  0.13497015786E+03  0.13813417577E+03  0.00000000000E+00 0. -1.
         13    1    3    3    0    0  0.39705742425E+02  0.59338439488E+01 -0.33101501162E+03  0.33344069098E+03  0.00000000000E+00 0. -1.
        -14    1    3    3    0    0 -0.66477982020E+01  0.44871355007E+02 -0.11136711580E+03  0.12025084700E+03  0.00000000000E+00 0.  1.
          5    1    4    4  501    0 -0.93008182140E+01  0.35139420158E+02 -0.56614386662E+01  0.37024429182E+02  0.41800000000E+01 0. -1.
         -5    1    4    4    0  501 -0.24607990599E+01 -0.10513493065E+03 -0.59144455106E+02  0.12072674991E+03  0.41800000000E+01 0. -1.
</event>
<event>
11    1  0.7157190E-009  0.2055786E+03  0.7561462E-02  0.1050647E+00
         22   -1    0    0    0    0  0.00000000000E+00  0.00000000000E+00  0.55370566885E+03  0.55370566885E+03  0.00000000000E+00 0.  1.
         22   -1    0    0    0    0 -0.00000000000E+00 -0.00000000000E+00 -0.11467256938E+04  0.11467256938E+04  0.00000000000E+00 0.  1.
        -24    2    1    2    0    0  0.89891902126E+02  0.85059181488E+02 -0.93990237763E+03  0.95141124643E+03  0.80319748178E+02 0.  0.
         25    2    1    2    0    0 -0.21981869808E+03  0.97397673153E+01 -0.96270772400E+02  0.27079652162E+03  0.12509025306E+03 0.  0.
         24    2    1    2    0    0  0.12992679596E+03 -0.94798948803E+02  0.44315312510E+03  0.47822359457E+03  0.80282632696E+02 0.  0.
        -11    1    5    5    0    0  0.11044090872E+03 -0.10395444023E+03  0.42028926775E+03  0.44681851859E+03  0.00000000000E+00 0.  1.
         12    1    5    5    0    0  0.19485887232E+02  0.91554914311E+01  0.22863857354E+02  0.31405075985E+02  0.00000000000E+00 0. -1.
         11    1    3    3    0    0  0.12238372240E+02  0.34984296995E+02 -0.10379455551E+03  0.11021337734E+03  0.00000000000E+00 0. -1.
        -12    1    3    3    0    0  0.77653529887E+02  0.50074884492E+02 -0.83610782211E+03  0.84119786909E+03  0.00000000000E+00 0.  1.
          5    1    4    4  501    0 -0.23044180049E+03  0.19248440616E+02 -0.71803675094E+02  0.24217176969E+03  0.41800000000E+01 0. -1.
         -5    1    4    4    0  501  0.10623102404E+02 -0.95086733006E+01 -0.24467097307E+02  0.28624751933E+02  0.41800000000E+01 0. -1.
</event>
<event>
11    1  0.7157190E-009  0.1571419E+03  0.7561462E-02  0.1089797E+00
         22   -1    0    0    0    0  0.00000000000E+00  0.00000000000E+00  0.20615751823E+04  0.20615751823E+04  0.00000000000E+00 0. -1.
         22   -1    0    0    0    0 -0.00000000000E+00 -0.00000000000E+00 -0.55617129186E+02  0.55617129186E+02  0.00000000000E+00 0.  1.
        -24    2    1    2    0    0  0.10288390878E+02 -0.41539845232E+02  0.55439884624E+02  0.10882529566E+03  0.83294384205E+02 0.  0.
         25    2    1    2    0    0  0.15540773118E+02 -0.53080249651E+02  0.14681454511E+03  0.20065002825E+03  0.12508754794E+03 0.  0.
         24    2    1    2    0    0 -0.25829163996E+02  0.94620094884E+02  0.18037036234E+04  0.18077169876E+04  0.69812879123E+02 0.  0.
        -11    1    5    5    0    0 -0.46459464345E+02  0.38456454809E+02  0.84752033412E+03  0.84966352016E+03  0.00000000000E+00 0.  1.
         12    1    5    5    0    0  0.20630300350E+02  0.56163640075E+02  0.95618328927E+03  0.95805346742E+03  0.00000000000E+00 0. -1.
         11    1    3    3    0    0  0.12191377473E+02 -0.46428524749E+02  0.74738633075E+02  0.88826239755E+02  0.00000000000E+00 0. -1.
        -12    1    3    3    0    0 -0.19029865949E+01  0.48886795161E+01 -0.19298748452E+02  0.19999055908E+02  0.00000000000E+00 0.  1.
          5    1    4    4  501    0 -0.10410558022E+02 -0.61217193693E+02  0.12415281944E+02  0.63462872199E+02  0.41800000000E+01 0.  1.
         -5    1    4    4    0  501  0.25951331140E+02  0.81369440418E+01  0.13439926317E+03  0.13718715605E+03  0.41800000000E+01 0.  1.
</event>
<event>
11    1  0.7157190E-009  0.1401697E+03  0.7561462E-02  0.1107369E+00
         22   -1    0    0    0    0  0.00000000000E+00  0.00000000000E+00  0.67555551541E+03  0.67555551541E+03  0.00000000000E+00 0.  1.
         22   -1    0    0    0    0 -0.00000000000E+00 -0.00000000000E+00 -0.21412130559E+03  0.21412130559E+03  0.00000000000E+00 0.  1.
        -24    2    1    2    0    0 -0.63912114172E+02 -0.29264199368E+02 -0.12774489615E+03  0.16661740564E+03  0.80631567431E+02 0.  0.
         25    2    1    2    0    0  0.25666195253E+02  0.34117720749E+02  0.56014516120E+01  0.13229236906E+03  0.12508845752E+03 0.  0.
         24    2    1    2    0    0  0.38245918919E+02 -0.48535213804E+01  0.58357765435E+03  0.59076704631E+03  0.83405739350E+02 0.  0.
        -11    1    5    5    0    0 -0.19865435836E+02  0.47696943198E+01  0.32164229867E+03  0.32229048049E+03  0.00000000000E+00 0.  1.
         12    1    5    5    0    0  0.58111354755E+02 -0.96232157002E+01  0.26193535569E+03  0.26847656581E+03  0.00000000000E+00 0. -1.
         13    1    3    3    0    0  0.14500318444E+02 -0.49596861383E+01 -0.67957593945E+00  0.15340128585E+02  0.00000000000E+00 0. -1.
        -14    1    3    3    0    0 -0.78412432615E+02 -0.24304513230E+02 -0.12706532021E+03  0.15127727705E+03  0.00000000000E+00 0.  1.
          5    1    4    4  501    0  0.35540694867E+02  0.19103227231E+02  0.61362116460E+02  0.73558521047E+02  0.41800000000E+01 0. -1.
         -5    1    4    4    0  501 -0.98744996139E+01  0.15014493518E+02 -0.55760664848E+02  0.58733848014E+02  0.41800000000E+01 0. -1.
</event>
<event>
11    1  0.7157190E-009  0.1668382E+03  0.7561462E-02  0.1080816E+00
         22   -1    0    0    0    0  0.00000000000E+00  0.00000000000E+00  0.35170026856E+03  0.35170026856E+03  0.00000000000E+00 0.  1.
         22   -1    0    0    0    0 -0.00000000000E+00 -0.00000000000E+00 -0.38881317158E+03  0.38881317158E+03  0.00000000000E+00 0.  1.
         24    2    1    2    0    0  0.10364420115E+03 -0.32671894946E+02 -0.29805638836E+03  0.32803649155E+03  0.83431145236E+02 0.  0.
         25    2    1    2    0    0 -0.12923434127E+03  0.15641909518E+01  0.56027175681E+02  0.18839206190E+03  0.12509421616E+03 0.  0.
        -24    2    1    2    0    0  0.25590140119E+02  0.31107703994E+02  0.20491630965E+03  0.22408488669E+03  0.81245295007E+02 0.  0.
        -11    1    3    3    0    0  0.10669002313E+03 -0.31532536234E+02 -0.30262615941E+03  0.32242775041E+03  0.00000000000E+00 0.  1.
         12    1    3    3    0    0 -0.30458219803E+01 -0.11393587120E+01  0.45697710447E+01  0.56087411432E+01  0.00000000000E+00 0. -1.
         11    1    5    5    0    0  0.38625467426E+02  0.16932774789E+02  0.40256932275E+02  0.58303226258E+02  0.00000000000E+00 0. -1.
        -12    1    5    5    0    0 -0.13035327307E+02  0.14174929206E+02  0.16465937738E+03  0.16578166043E+03  0.00000000000E+00 0.  1.
          5    1    4    4  501    0  0.21825940550E+02  0.20675682384E+00 -0.88626909798E+01  0.23925595514E+02  0.41800000000E+01 0.  1.
         -5    1    4    4    0  501 -0.15106028182E+03  0.13574341280E+01  0.64889866661E+02  0.16446646639E+03  0.41800000000E+01 0.  1.
</event>
<event>
11    1  0.7157190E-009  0.2360332E+03  0.7561462E-02  0.1031614E+00
         22   -1    0    0    0    0  0.00000000000E+00  0.00000000000E+00  0.30242565147E+04  0.30242565147E+04  0.00000000000E+00 0.  1.
         22   -1    0    0    0    0 -0.00000000000E+00 -0.00000000000E+00 -0.10519453061E+03  0.10519453061E+03  0.00000000000E+00 0.  1.
        -24    2    1    2    0    0  0.20211407195E+02  0.16735331646E+02 -0.62796416706E+02  0.10436238082E+03  0.79117281756E+02 0.  0.
         25    2    1    2    0    0  0.11845888021E+03 -0.16158000706E+03  0.84223303746E+03  0.87472566794E+03  0.12509156560E+03 0.  0.
         24    2    1    2    0    0 -0.13867028741E+03  0.14484467541E+03  0.21396253633E+04  0.21503629965E+04  0.76517271810E+02 0.  0.
        -13    1    5    5    0    0 -0.14837659307E+03  0.13468868674E+03  0.20200685172E+04  0.20299836132E+04  0.00000000000E+00 0.  1.
         14    1    5    5    0    0  0.97063056597E+01  0.10155988673E+02  0.11955684610E+03  0.12037938331E+03  0.00000000000E+00 0. -1.
         13    1    3    3    0    0 -0.87224459225E+01 -0.29305689385E+01  0.15826645820E+02  0.18307157483E+02  0.00000000000E+00 0. -1.
        -14    1    3    3    0    0  0.28933853118E+02  0.19665900585E+02 -0.78623062526E+02  0.86055223334E+02  0.00000000000E+00 0.  1.
          5    1    4    4  501    0  0.10797142688E+03 -0.41844895720E+02  0.42295875269E+03  0.43854350206E+03  0.41800000000E+01 0.  1.
         -5    1    4    4    0  501  0.10487453330E+02 -0.11973511134E+03  0.41927428477E+03  0.43618216588E+03  0.41800000000E+01 0.  1.
</event>
<event>
11    1  0.7157190E-009  0.1382775E+03  0.7561462E-02  0.1109497E+00
         22   -1    0    0    0    0  0.00000000000E+00  0.00000000000E+00  0.48950825377E+03  0.48950825377E+03  0.00000000000E+00 0. -1.
         22   -1    0    0    0    0 -0.00000000000E+00 -0.00000000000E+00 -0.48417103646E+03  0.48417103646E+03  0.00000000000E+00 0.  1.
        -24    2    1    2    0    0 -0.32783873122E+02 -0.85573282582E+01 -0.31629100423E+03  0.32810620773E+03  0.80409414830E+02 0.  0.
         25    2    1    2    0    0 -0.23880122165E+02 -0.11387781615E+02 -0.13036592999E+03  0.18260177218E+03  0.12509272440E+03 0.  0.
         24    2    1    2    0    0  0.56663995287E+02  0.19945109874E+02  0.45199415153E+03  0.46297131032E+03  0.80219108650E+02 0.  0.
        -11    1    5    5    0    0  0.22646650697E+02 -0.16902644596E+02  0.46686079690E+02  0.54572522564E+02  0.00000000000E+00 0.  1.
         12    1    5    5    0    0  0.34017344589E+02  0.36847754470E+02  0.40530807184E+03  0.40839878775E+03  0.00000000000E+00 0. -1.
         11    1    3    3    0    0  0.56241875600E+01 -0.17566614546E+02 -0.13755494499E+02  0.23009368988E+02  0.00000000000E+00 0. -1.
        -12    1    3    3    0    0 -0.38408060682E+02  0.90092862879E+01 -0.30253550973E+03  0.30509683875E+03  0.00000000000E+00 0.  1.
          5    1    4    4  501    0  0.14179136069E+02 -0.62345937450E+02 -0.62906532381E+02  0.89792917496E+02  0.41800000000E+01 0. -1.
         -5    1    4    4    0  501 -0.38059258234E+02  0.50958155835E+02 -0.67459397606E+02  0.92808854689E+02  0.41800000000E+01 0. -1.
</event>
<event>
11    1  0.7157190E-009  0.1555930E+03  0.7561462E-02  0.1091297E+00
         22   -1    0    0    0    0  0.00000000000E+00  0.00000000000E+00  0.10163612764E+04  0.10163612764E+04  0.00000000000E+00 0. -1.
         22   -1    0    0    0    0 -0.00000000000E+00 -0.00000000000E+00 -0.43397432247E+03  0.43397432247E+03  0.00000000000E+00 0. -1.
        -24    2    1    2    0    0  0.44000701699E+02 -0.50395293016E+02 -0.40517205974E+03  0.41896469782E+03  0.83013689935E+02 0.  0.
         25    2    1    2    0    0 -0.63584589261E+02 -0.51899144834E+02  0.36043542537E+03  0.39025351407E+03  0.12509031999E+03 0.  0.
         24    2    1    2    0    0  0.19583887562E+02  0.10229443785E+03  0.62712358835E+03  0.64111738701E+03  0.83065204544E+02 0.  0.
        -11    1    5    5    0    0 -0.28234671393E+02  0.50917271578E+02  0.20139197013E+03  0.20963895355E+03  0.00000000000E+00 0.  1.
         12    1    5    5    0    0  0.47818558956E+02  0.51377166272E+02  0.42573161821E+03  0.43147843346E+03  0.00000000000E+00 0. -1.
         11    1    3    3    0    0  0.24972281368E+02 -0.56872255665E+02 -0.38672819485E+03  0.39168452228E+03  0.00000000000E+00 0. -1.
        -12    1    3    3    0    0  0.19028420331E+02  0.64769626487E+01 -0.18443864891E+02  0.27280175541E+02  0.00000000000E+00 0.  1.
          5    1    4    4  501    0 -0.28746221609E+02 -0.20781223047E+02  0.10554627949E+02  0.37243483447E+02  0.41800000000E+01 0.  1.
         -5    1    4    4    0  501 -0.34838367652E+02 -0.31117921788E+02  0.34988079742E+03  0.35301003062E+03  0.41800000000E+01 0.  1.
</event>
<event>
11    1  0.7157190E-009  0.2062011E+03  0.7561462E-02  0.1050223E+00
         22   -1    0    0    0    0  0.00000000000E+00  0.00000000000E+00  0.10939072479E+04  0.10939072479E+04  0.00000000000E+00 0.  1.
         22   -1    0    0    0    0 -0.00000000000E+00 -0.00000000000E+00 -0.12112626114E+04  0.12112626114E+04  0.00000000000E+00 0. -1.
         24    2    1    2    0    0 -0.11509408399E+03 -0.11774522926E+03 -0.11592943231E+04  0.11737774192E+04  0.81728300520E+02 0.  0.
         25    2    1    2    0    0  0.86346425586E+02  0.11491366000E+03  0.17078404146E+03  0.25588004239E+03  0.12508618154E+03 0.  0.
        -24    2    1    2    0    0  0.28747658406E+02  0.28315692613E+01  0.87115491823E+03  0.87551239764E+03  0.82320235697E+02 0.  0.
        -13    1    3    3    0    0  0.10814539784E+01 -0.41789950558E+02 -0.37196180223E+03  0.37430355573E+03  0.00000000000E+00 0.  1.
         14    1    3    3    0    0 -0.11617553797E+03 -0.75955278706E+02 -0.78733252089E+03  0.79947386351E+03  0.00000000000E+00 0. -1.
         11    1    5    5    0    0  0.85987385095E+01 -0.37601781576E+01  0.87005993649E+01  0.12797565122E+02  0.00000000000E+00 0. -1.
        -12    1    5    5    0    0  0.20148919897E+02  0.65917474189E+01  0.86245431887E+03  0.86271483251E+03  0.00000000000E+00 0.  1.
          5    1    4    4  501    0 -0.32284727758E+02  0.18512075278E+02  0.29309268208E+02  0.47555296029E+02  0.41800000000E+01 0. -1.
         -5    1    4    4    0  501  0.11863115334E+03  0.96401584725E+02  0.14147477325E+03  0.20832474637E+03  0.41800000000E+01 0. -1.
</event>
<event>
11    1  0.7157190E-009  0.1418095E+03  0.7561462E-02  0.1105554E+00
         22   -1    0    0    0    0  0.00000000000E+00  0.00000000000E+00  0.19548208971E+04  0.19548208971E+04  0.00000000000E+00 0. -1.
         22   -1    0    0    0    0 -0.00000000000E+00 -0.00000000000E+00 -0.11325856955E+03  0.11325856955E+03  0.00000000000E+00 0.  1.
        -24    2    1    2    0    0 -0.10732576229E+02 -0.63305260982E+02 -0.50261986509E+02  0.11336746926E+03  0.78760215451E+02 0.  0.
         25    2    1    2    0    0  0.19482544286E+02  0.79673508968E+02  0.15317791479E+03  0.21410114913E+03  0.12509352868E+03 0.  0.
         24    2    1    2    0    0 -0.87499680567E+01 -0.16368247986E+02  0.17386463993E+04  0.17406108483E+04  0.80562658256E+02 0.  0.
        -11    1    5    5    0    0  0.29925504795E+02  0.11325794929E+02  0.47960051831E+03  0.48066668975E+03  0.00000000000E+00 0.  1.
         12    1    5    5    0    0 -0.38675472852E+02 -0.27694042916E+02  0.12590458810E+04  0.12599441585E+04  0.00000000000E+00 0. -1.
         13    1    3    3    0    0  0.31228240765E+02 -0.32225577709E+02 -0.67128860032E+01  0.45373491363E+02  0.00000000000E+00 0. -1.
        -14    1    3    3    0    0 -0.41960816995E+02 -0.31079683272E+02 -0.43549100506E+02  0.67993977896E+02  0.00000000000E+00 0.  1.
          5    1    4    4  501    0  0.17740897055E+02 -0.32109192016E+02  0.28909857724E+02  0.46893410133E+02  0.41800000000E+01 0.  1.
         -5    1    4    4    0  501  0.17416472309E+01  0.11178270098E+03  0.12426805706E+03  0.16720773900E+03  0.41800000000E+01 0.  1.
</event>
<event>
11    1  0.7157190E-009  0.1401569E+03  0.7561462E-02  0.1107383E+00
         22   -1    0    0    0    0  0.00000000000E+00  0.00000000000E+00  0.57459218626E+03  0.57459218626E+03  0.00000000000E+00 0.  1.
         22   -1    0    0    0    0 -0.00000000000E+00 -0.00000000000E+00 -0.36940607594E+03  0.36940607594E+03  0.00000000000E+00 0.  1.
         24    2    1    2    0    0  0.24848099815E+02  0.24555117435E+02 -0.32746330737E+03  0.33846408702E+03  0.78136666640E+02 0.  0.
         25    2    1    2    0    0 -0.69894466683E+02  0.19143109655E+02  0.14598466569E+03  0.20545083218E+03  0.12508727636E+03 0.  0.
        -24    2    1    2    0    0  0.45046366868E+02 -0.43698227089E+02  0.38666475200E+03  0.40008334300E+03  0.81353184869E+02 0.  0.
        -13    1    3    3    0    0  0.36501362412E+02  0.41425814014E+02 -0.29459747871E+03  0.29972674553E+03  0.00000000000E+00 0.  1.
         14    1    3    3    0    0 -0.11653262598E+02 -0.16870696580E+02 -0.32865828659E+02  0.38737341490E+02  0.00000000000E+00 0. -1.
         13    1    5    5    0    0 -0.13606020593E+02  0.71812254080E+01  0.19708357892E+02  0.25002263208E+02  0.00000000000E+00 0. -1.
        -14    1    5    5    0    0  0.58652387461E+02 -0.50879452497E+02  0.36695639411E+03  0.37508107979E+03  0.00000000000E+00 0.  1.
          5    1    4    4  501    0 -0.85635318263E+02 -0.13236763431E+02  0.44115128272E+02  0.97325415913E+02  0.41800000000E+01 0.  1.
         -5    1    4    4    0  501  0.15740851581E+02  0.32379873085E+02  0.10186953742E+03  0.10812541627E+03  0.41800000000E+01 0.  1.
</event>
<event>
11    1  0.7157190E-009  0.1355723E+03  0.7561462E-02  0.1112606E+00
         22   -1    0    0    0    0  0.00000000000E+00  0.00000000000E+00  0.40339455326E+03  0.40339455326E+03  0.00000000000E+00 0. -1.
         22   -1    0    0    0    0 -0.00000000000E+00 -0.00000000000E+00 -0.11566232348E+04  0.11566232348E+04  0.00000000000E+00 0.  1.
        -24    2    1    2    0    0  0.36943793835E+02  0.41186717698E+02 -0.10932626478E+04  0.10971522401E+04  0.73882550736E+02 0.  0.
         25    2    1    2    0    0 -0.38056828201E+02 -0.88134882738E+02  0.61399175815E+02  0.16920878934E+03  0.12508267614E+03 0.  0.
         24    2    1    2    0    0  0.11130343658E+01  0.46948165040E+02  0.27863479041E+03  0.29365675864E+03  0.79947335333E+02 0.  0.
        -13    1    5    5    0    0  0.35706818465E+02  0.22077930774E+02  0.78328397863E+02  0.88869285042E+02  0.00000000000E+00 0.  1.
         14    1    5    5    0    0 -0.34593784099E+02  0.24870234266E+02  0.20030639254E+03  0.20478747360E+03  0.00000000000E+00 0. -1.
         11    1    3    3    0    0 -0.86626039022E+01 -0.14075021700E+02 -0.10470072358E+03  0.10599711534E+03  0.00000000000E+00 0. -1.
        -12    1    3    3    0    0  0.45606397738E+02  0.55261739398E+02 -0.98856192421E+03  0.99115512477E+03  0.00000000000E+00 0.  1.
          5    1    4    4  501    0 -0.43688615683E+01 -0.77567347473E+02  0.93271222903E+02  0.12146099690E+03  0.41800000000E+01 0.  1.
         -5    1    4    4    0  501 -0.33687966633E+02 -0.10567535265E+02 -0.31872047087E+02  0.47747792441E+02  0.41800000000E+01 0.  1.
</event>
<event>
11    1  0.7157190E-009  0.1325102E+03  0.7561462E-02  0.1116223E+00
         22   -1    0    0    0    0  0.00000000000E+00  0.00000000000E+00  0.10683817201E+04  0.10683817201E+04  0.00000000000E+00 0.  1.
         22   -1    0    0    0    0 -0.00000000000E+00 -0.00000000000E+00 -0.61919332996E+03  0.61919332996E+03  0.00000000000E+00 0. -1.
        -24    2    1    2    0    0 -0.22258207185E+02 -0.11147611954E+02 -0.34058646556E+03  0.35158390649E+03  0.83620605966E+02 0.  0.
         25    2    1    2    0    0  0.30301244306E+02  0.54003256130E+02 -0.25306806279E+03  0.28900798441E+03  0.12509058146E+03 0.  0.
         24    2    1    2    0    0 -0.80430371209E+01 -0.42855644176E+02  0.10428429185E+04  0.10469831592E+04  0.82164993892E+02 0.  0.
        -11    1    5    5    0    0 -0.18824658470E+02 -0.31335816403E+02  0.10087941255E+04  0.10094562343E+04  0.00000000000E+00 0.  1.
         12    1    5    5    0    0  0.10781621349E+02 -0.11519827773E+02  0.34048792956E+02  0.37526924902E+02  0.00000000000E+00 0. -1.
         11    1    3    3    0    0 -0.18880080887E+02 -0.39832962797E+02 -0.29001000924E+03  0.29334097538E+03  0.00000000000E+00 0. -1.
        -12    1    3    3    0    0 -0.33781262976E+01  0.28685350843E+02 -0.50576456324E+02  0.58242931113E+02  0.00000000000E+00 0.  1.
          5    1    4    4  501    0  0.46770083334E+02 -0.20724169514E+02 -0.16226154304E+03  0.17018581800E+03  0.41800000000E+01 0. -1.
         -5    1    4    4    0  501 -0.16468839029E+02  0.74727425644E+02 -0.90806519755E+02  0.11882216642E+03  0.41800000000E+01 0. -1.
</event>
<event>
11    1  0.7157190E-009  0.1512393E+03  0.7561462E-02  0.1095619E+00
         22   -1    0    0    0    0  0.00000000000E+00  0.00000000000E+00  0.14444676682E+04  0.14444676682E+04  0.00000000000E+00 0.  1.
         22   -1    0    0    0    0 -0.00000000000E+00 -0.00000000000E+00 -0.16944876919E+03  0.16944876919E+03  0.00000000000E+00 0. -1.
        -24    2    1    2    0    0  0.76779302398E+02 -0.21924996703E+02 -0.10400983052E+03  0.14888597903E+03  0.70521083017E+02 0.  0.
         25    2    1    2    0    0 -0.13300610772E+03  0.13685786079E+02  0.16321670650E+03  0.24528491348E+03  0.12508824912E+03 0.  0.
         24    2    1    2    0    0  0.56226805327E+02  0.82392106233E+01  0.12158120230E+04  0.12197455449E+04  0.79693040069E+02 0.  0.
        -13    1    5    5    0    0  0.26536351386E+02  0.32728168049E+02  0.97215606987E+03  0.97306872065E+03  0.00000000000E+00 0.  1.
         14    1    5    5    0    0  0.29690453941E+02 -0.24488957425E+02  0.24365595316E+03  0.24667682421E+03  0.00000000000E+00 0. -1.
         13    1    3    3    0    0  0.66177063842E+02  0.14366179096E+02 -0.76259337141E+02  0.10198665296E+03  0.00000000000E+00 0. -1.
        -14    1    3    3    0    0  0.10602238555E+02 -0.36291175798E+02 -0.27750493384E+02  0.46899326075E+02  0.00000000000E+00 0.  1.
          5    1    4    4  501    0 -0.49759344386E+02  0.61168761097E+02  0.38233253083E+02  0.87731771492E+02  0.41800000000E+01 0. -1.
         -5    1    4    4    0  501 -0.83246763338E+02 -0.47482975018E+02  0.12498345341E+03  0.15755314199E+03  0.41800000000E+01 0. -1.
</event>
<event>
11    1  0.7157190E-009  0.1444262E+03  0.7561462E-02  0.1102714E+00
         22   -1    0    0    0    0  0.00000000000E+00  0.00000000000E+00  0.22452328840E+04  0.22452328840E+04  0.00000000000E+00 0. -1.
         22   -1    0    0    0    0 -0.00000000000E+00 -0.00000000000E+00 -0.27380336781E+03  0.27380336781E+03  0.00000000000E+00 0.  1.
         24    2    1    2    0    0 -0.40545112425E+01  0.34673638220E+02 -0.25402906062E+03  0.26960280632E+03  0.83283907735E+02 0.  0.
         25    2    1    2    0    0  0.51262077495E+02  0.24432781840E+02  0.44969927434E+03  0.47021468432E+03  0.12509056954E+03 0.  0.
        -24    2    1    2    0    0 -0.47207566253E+02 -0.59106420059E+02  0.17757593025E+04  0.17792187612E+04  0.81093628637E+02 0.  0.
        -11    1    3    3    0    0 -0.39709107908E+00  0.61613535684E+02 -0.19727157681E+03  0.20666993124E+03  0.00000000000E+00 0.  1.
         12    1    3    3    0    0 -0.36574201634E+01 -0.26939897465E+02 -0.56757483801E+02  0.62932875074E+02  0.00000000000E+00 0. -1.
         13    1    5    5    0    0 -0.35286351265E+02  0.12090870759E+02  0.74628240337E+03  0.74721398629E+03  0.00000000000E+00 0. -1.
        -14    1    5    5    0    0 -0.11921214988E+02 -0.71197290818E+02  0.10294768991E+04  0.10320047749E+04  0.00000000000E+00 0.  1.
          5    1    4    4  501    0 -0.29470075651E+02  0.29042042171E+02  0.26909887648E+03  0.27229323035E+03  0.41800000000E+01 0. -1.
         -5    1    4    4    0  501  0.80732153146E+02 -0.46092603314E+01  0.18060039786E+03  0.19792145396E+03  0.41800000000E+01 0. -1.
</event>
<event>
11    1  0.7157190E-009  0.1260337E+03  0.7561462E-02  0.1124241E+00
         22   -1    0    0    0    0  0.00000000000E+00  0.00000000000E+00  0.13512733641E+03  0.13512733641E+03  0.00000000000E+00 0.  1.
         22   -1    0    0    0    0 -0.00000000000E+00 -0.00000000000E+00 -0.14064684693E+04  0.14064684693E+04  0.00000000000E+00 0.  1.
         24    2    1    2    0    0  0.19884405753E+02  0.96032198914E+01 -0.10332491136E+04  0.10382319006E+04  0.99167218358E+02 0.  0.
         25    2    1    2    0    0  0.70776903611E+01  0.31484702495E+02 -0.34044393845E+03  0.36413033143E+03  0.12508973918E+03 0.  0.
        -24    2    1    2    0    0 -0.26962096114E+02 -0.41087922386E+02  0.10235191917E+03  0.13923357370E+03  0.80590946729E+02 0.  0.
        -11    1    3    3    0    0 -0.38608314122E+02 -0.76641058968E+01 -0.32880119249E+03  0.33114885568E+03  0.00000000000E+00 0.  1.
         12    1    3    3    0    0  0.58492719874E+02  0.17267325788E+02 -0.70444792116E+03  0.70708304494E+03  0.00000000000E+00 0. -1.
         13    1    5    5    0    0 -0.64523323875E+01  0.33645068392E+01 -0.12454757446E+02  0.14424752426E+02  0.00000000000E+00 0. -1.
        -14    1    5    5    0    0 -0.20509763726E+02 -0.44452429226E+02  0.11480667661E+03  0.12480882127E+03  0.00000000000E+00 0.  1.
          5    1    4    4  501    0  0.27428684528E+02 -0.21117464446E+02 -0.27680330022E+03  0.27899071571E+03  0.41800000000E+01 0. -1.
         -5    1    4    4    0  501 -0.20350994167E+02  0.52602166941E+02 -0.63640638230E+02  0.85139615719E+02  0.41800000000E+01 0. -1.
</event>
<event>
11    1  0.7157190E-009  0.1368057E+03  0.7561462E-02  0.1111179E+00
         22   -1    0    0    0    0  0.00000000000E+00  0.00000000000E+00  0.46156252177E+03  0.46156252177E+03  0.00000000000E+00 0. -1.
         22   -1    0    0    0    0 -0.00000000000E+00 -0.00000000000E+00 -0.53646351353E+03  0.53646351353E+03  0.00000000000E+00 0. -1.
        -24    2    1    2    0    0 -0.80023986825E+01 -0.58919398219E+02 -0.24594225184E+03  0.26599576591E+03  0.82040370380E+02 0.  0.
         25    2    1    2    0    0 -0.22780883791E+02  0.49179636548E+02 -0.25927174470E+03  0.29292809477E+03  0.12508967099E+03 0.  0.
         24    2    1    2    0    0  0.30783282473E+02  0.97397616707E+01  0.43031300478E+03  0.43910217462E+03  0.81234009110E+02 0.  0.
        -13    1    5    5    0    0 -0.26131004407E+02 -0.71863424036E+01  0.16634766783E+03  0.16854085410E+03  0.00000000000E+00 0.  1.
         14    1    5    5    0    0  0.56914286880E+02  0.16926104074E+02  0.26396533696E+03  0.27056132053E+03  0.00000000000E+00 0. -1.
         11    1    3    3    0    0 -0.51287336639E+00 -0.41388443783E+02 -0.24324567580E+03  0.24674222402E+03  0.00000000000E+00 0. -1.
        -12    1    3    3    0    0 -0.74895253161E+01 -0.17530954436E+02 -0.26965760322E+01  0.19253541887E+02  0.00000000000E+00 0.  1.
          5    1    4    4  501    0  0.33622860484E+02  0.36746893799E+02 -0.34293035949E+02  0.60616133707E+02  0.41800000000E+01 0.  1.
         -5    1    4    4    0  501 -0.56403744275E+02  0.12432742749E+02 -0.22497870875E+03  0.23231196106E+03  0.41800000000E+01 0.  1.
</event>
<event>
11    1  0.7157190E-009  0.1565171E+03  0.7561462E-02  0.1090400E+00
         22   -1    0    0    0    0  0.00000000000E+00  0.00000000000E+00  0.28086437092E+04  0.28086437092E+04  0.00000000000E+00 0. -1.
         22   -1    0    0    0    0 -0.00000000000E+00 -0.00000000000E+00 -0.35139869481E+02  0.35139869481E+02  0.00000000000E+00 0.  1.
         24    2    1    2    0    0  0.65360462694E+02 -0.88379977164E+02  0.14301563295E+03  0.19847386112E+03  0.82797293625E+02 0.  0.
         25    2    1    2    0    0  0.20867324595E+02  0.32444224809E+02  0.84882852369E+03  0.85886275602E+03  0.12508916053E+03 0.  0.
        -24    2    1    2    0    0 -0.86227787289E+02  0.55935752355E+02  0.17816596830E+04  0.17864469615E+04  0.80730913677E+02 0.  0.
        -11    1    3    3    0    0  0.27265349269E+02 -0.89013093238E+02  0.71287337583E+02  0.11725448622E+03  0.00000000000E+00 0.  1.
         12    1    3    3    0    0  0.38095113425E+02  0.63311607346E+00  0.71728295367E+02  0.81219374900E+02  0.00000000000E+00 0. -1.
         11    1    5    5    0    0 -0.88399988136E+02  0.15652183230E+02  0.13040325866E+04  0.13071191742E+04  0.00000000000E+00 0. -1.
        -12    1    5    5    0    0  0.21722008471E+01  0.40283569125E+02  0.47762709644E+03  0.47932778727E+03  0.00000000000E+00 0.  1.
          5    1    4    4  501    0 -0.39032838519E+02  0.24845221635E+02  0.63316828500E+03  0.63487037815E+03  0.41800000000E+01 0. -1.
         -5    1    4    4    0  501  0.59900163114E+02  0.75990031744E+01  0.21566023869E+03  0.22399237787E+03  0.41800000000E+01 0. -1.
</event>
<event>
11    1  0.7157190E-009  0.2055092E+03  0.7561462E-02  0.1050695E+00
         22   -1    0    0    0    0  0.00000000000E+00  0.00000000000E+00  0.54213717898E+03  0.54213717898E+03  0.00000000000E+00 0.  1.
         22   -1    0    0    0    0 -0.00000000000E+00 -0.00000000000E+00 -0.37894104127E+04  0.37894104127E+04  0.00000000000E+00 0.  1.
         24    2    1    2    0    0  0.31579806827E+02  0.45251824118E+02 -0.36442437967E+04  0.36455220319E+04  0.79202422905E+02 0.  0.
         25    2    1    2    0    0  0.57642044881E+02 -0.17853769384E+03 -0.25580568958E+02  0.22693591269E+03  0.12508888641E+03 0.  0.
        -24    2    1    2    0    0 -0.89221851708E+02  0.13328586972E+03  0.42255113184E+03  0.45908964714E+03  0.80549259439E+02 0.  0.
        -13    1    3    3    0    0  0.30243861387E+02  0.67218288255E+02 -0.25903357128E+04  0.25913842043E+04  0.00000000000E+00 0.  1.
         14    1    3    3    0    0  0.13359454396E+01 -0.21966464137E+02 -0.10539080839E+04  0.10541378276E+04  0.00000000000E+00 0. -1.
         11    1    5    5    0    0 -0.60316807375E+02  0.29109266562E+02  0.11488634926E+03  0.13298247966E+03  0.00000000000E+00 0. -1.
        -12    1    5    5    0    0 -0.28905044333E+02  0.10417660316E+03  0.30766478259E+03  0.32610716747E+03  0.00000000000E+00 0.  1.
          5    1    4    4  501    0 -0.10932729797E+02 -0.20382275016E+02  0.36716058472E+02  0.43594759609E+02  0.41800000000E+01 0.  1.
         -5    1    4    4    0  501  0.68574774678E+02 -0.15815541882E+03 -0.62296627430E+02  0.18334115308E+03  0.41800000000E+01 0.  1.
</event>
<event>
11    1  0.7157190E-009  0.1345523E+03  0.7561462E-02  0.1113799E+00
         22   -1    0    0    0    0  0.00000000000E+00  0.00000000000E+00  0.33290720422E+03  0.33290720422E+03  0.00000000000E+00 0. -1.
         22   -1    0    0    0    0 -0.00000000000E+00 -0.00000000000E+00 -0.74378664662E+03  0.74378664662E+03  0.00000000000E+00 0.  1.
        -24    2    1    2    0    0  0.19190172863E+02  0.44947766297E+02 -0.67591335941E+03  0.68245391258E+03  0.80597201817E+02 0.  0.
         25    2    1    2    0    0 -0.33174552474E+02 -0.60327736501E+02  0.31348353228E+02  0.14618381421E+03  0.12508797530E+03 0.  0.
         24    2    1    2    0    0  0.13984379611E+02  0.15379970204E+02  0.23368556378E+03  0.24805612405E+03  0.80565449200E+02 0.  0.
        -11    1    5    5    0    0  0.39456062666E+02 -0.33073992460E+01  0.19037004373E+03  0.19444401076E+03  0.00000000000E+00 0.  1.
         12    1    5    5    0    0 -0.25471683055E+02  0.18687369450E+02  0.43315520053E+02  0.53612113296E+02  0.00000000000E+00 0. -1.
         13    1    3    3    0    0 -0.53181654786E+01  0.97467206636E+01 -0.93604899038E+01  0.14522404036E+02  0.00000000000E+00 0. -1.
        -14    1    3    3    0    0  0.24508338342E+02  0.35201045633E+02 -0.66655286950E+03  0.66793150854E+03  0.00000000000E+00 0.  1.
          5    1    4    4  501    0 -0.78586152497E+02 -0.54419789246E+02  0.12529660555E+02  0.96497469497E+02  0.41800000000E+01 0.  1.
         -5    1    4    4    0  501  0.45411600022E+02 -0.59079472555E+01  0.18818692673E+02  0.49686344716E+02  0.41800000000E+01 0.  1.
</event>
<event>
11    1  0.7157190E-009  0.1910689E+03  0.7561462E-02  0.1061025E+00
         22   -1    0    0    0    0  0.00000000000E+00  0.00000000000E+00  0.35952117870E+03  0.35952117870E+03  0.00000000000E+00 0.  1.
         22   -1    0    0    0    0 -0.00000000000E+00 -0.00000000000E+00 -0.26915411261E+03  0.26915411261E+03  0.00000000000E+00 0. -1.
        -24    2    1    2    0    0 -0.15134855383E+03 -0.33994842729E+02 -0.93514473476E+02  0.19825717814E+03  0.80615866043E+02 0.  0.
         25    2    1    2    0    0  0.13215622720E+03 -0.69512427336E+02 -0.11141857504E+02  0.19511232528E+03  0.12508969800E+03 0.  0.
         24    2    1    2    0    0  0.19192326625E+02  0.10350727006E+03  0.19502339707E+03  0.23530578788E+03  0.79073308075E+02 0.  0.
        -13    1    5    5    0    0  0.18023853806E+02 -0.51199726360E+01  0.54867847903E+02  0.57978911333E+02  0.00000000000E+00 0.  1.
         14    1    5    5    0    0  0.11684728193E+01  0.10862724270E+03  0.14015554917E+03  0.17732687655E+03  0.00000000000E+00 0. -1.
         13    1    3    3    0    0 -0.69726287852E+02  0.33567814912E+01 -0.16612078848E+01  0.69826805821E+02  0.00000000000E+00 0. -1.
        -14    1    3    3    0    0 -0.81622265976E+02 -0.37351624220E+02 -0.91853265591E+02  0.12843037232E+03  0.00000000000E+00 0.  1.
          5    1    4    4  501    0  0.12226707248E+03 -0.92515874672E+02 -0.38141574496E+02  0.15805276392E+03  0.41800000000E+01 0.  1.
         -5    1    4    4    0  501  0.98891547226E+01  0.23003447337E+02  0.26999716992E+02  0.37059561359E+02  0.41800000000E+01 0.  1.
</event>
<event>
11    1  0.7157190E-009  0.1664320E+03  0.7561462E-02  0.1081179E+00
         22   -1    0    0    0    0  0.00000000000E+00  0.00000000000E+00  0.63079105771E+03  0.63079105771E+03  0.00000000000E+00 0. -1.
         22   -1    0    0    0    0 -0.00000000000E+00 -0.00000000000E+00 -0.17774097510E+04  0.17774097510E+04  0.00000000000E+00 0. -1.
         24    2    1    2    0    0  0.24484193623E+02  0.10692867910E+03 -0.17313068762E+04  0.17366499323E+04  0.80599438120E+02 0.  0.
         25    2    1    2    0    0 -0.24662451519E+02 -0.11313312966E+03  0.14078145138E+03  0.22107401460E+03  0.12508781449E+03 0.  0.
        -24    2    1    2    0    0  0.17825789623E+00  0.62044505687E+01  0.44390673154E+03  0.45047686188E+03  0.76404776034E+02 0.  0.
        -11    1    3    3    0    0  0.24219655513E+02  0.56132732606E+02 -0.42699451080E+03  0.43134880044E+03  0.00000000000E+00 0.  1.
         12    1    3    3    0    0  0.26453810982E+00  0.50795946490E+02 -0.13043123654E+04  0.13053011318E+04  0.00000000000E+00 0. -1.
         11    1    5    5    0    0  0.25182916061E+02  0.20873327793E+02  0.36413025873E+03  0.36559639002E+03  0.00000000000E+00 0. -1.
        -12    1    5    5    0    0 -0.25004658164E+02 -0.14668877224E+02  0.79776472808E+02  0.84880471857E+02  0.00000000000E+00 0.  1.
          5    1    4    4  501    0 -0.73383138296E+02 -0.66762231657E+02  0.10597661044E+03  0.14522670182E+03  0.41800000000E+01 0. -1.
         -5    1    4    4    0  501  0.48720686777E+02 -0.46370898008E+02  0.34804840934E+02  0.75847312771E+02  0.41800000000E+01 0. -1.
</event>
<event>
11    1  0.7157190E-009  0.1606658E+03  0.7561462E-02  0.1086453E+00
         22   -1    0    0    0    0  0.00000000000E+00  0.00000000000E+00  0.72858511592E+02  0.72858511592E+02  0.00000000000E+00 0.  1.
         22   -1    0    0    0    0 -0.00000000000E+00 -0.00000000000E+00 -0.24112878705E+04  0.24112878705E+04  0.00000000000E+00 0.  1.
         24    2    1    2    0    0  0.31804475155E+02  0.90038066153E+02 -0.18454185667E+04  0.18496296936E+04  0.80261690462E+02 0.  0.
         25    2    1    2    0    0 -0.63281210730E+02 -0.13255871036E+03 -0.50190080439E+03  0.53770660918E+03  0.12509059432E+03 0.  0.
        -24    2    1    2    0    0  0.31476735574E+02  0.42520644207E+02  0.88900122481E+01  0.96810079290E+02  0.80587648359E+02 0.  0.
        -11    1    3    3    0    0  0.52452506189E+02  0.74941976167E+02 -0.16515201209E+04  0.16540514728E+04  0.00000000000E+00 0.  1.
         12    1    3    3    0    0 -0.20648031034E+02  0.15096089986E+02 -0.19389844589E+03  0.19557822076E+03  0.00000000000E+00 0. -1.
         11    1    5    5    0    0  0.36232803006E+02 -0.14594932473E+02  0.47059506419E+01  0.39344301226E+02  0.00000000000E+00 0. -1.
        -12    1    5    5    0    0 -0.47560674314E+01  0.57115576680E+02  0.41840616062E+01  0.57465778063E+02  0.00000000000E+00 0.  1.
          5    1    4    4  501    0 -0.85990471917E+02 -0.92180267526E+02 -0.23429790763E+03  0.26609123417E+03  0.41800000000E+01 0.  1.
         -5    1    4    4    0  501  0.22709261187E+02 -0.40378442835E+02 -0.26760289676E+03  0.27161537502E+03  0.41800000000E+01 0.  1.
</event>
<event>
11    1  0.7157190E-009  0.1978585E+03  0.7561462E-02  0.1056048E+00
         22   -1    0    0    0    0  0.00000000000E+00  0.00000000000E+00  0.13579342788E+04  0.13579342788E+04  0.00000000000E+00 0. -1.
         22   -1    0    0    0    0 -0.00000000000E+00 -0.00000000000E+00 -0.12790371472E+04  0.12790371472E+04  0.00000000000E+00 0. -1.
        -24    2    1    2    0    0  0.14022274260E+03 -0.47294716327E+02 -0.10731167976E+04  0.10861118140E+04  0.78485690649E+02 0.  0.
         25    2    1    2    0    0 -0.20282166394E+03  0.87401813903E+02 -0.11519737216E+03  0.27873532397E+03  0.12508893572E+03 0.  0.
         24    2    1    2    0    0  0.62598921341E+02 -0.40107097576E+02  0.12672113014E+04  0.12721242879E+04  0.83357767225E+02 0.  0.
        -13    1    5    5    0    0 -0.19087225619E+02 -0.12376165169E+02  0.16799365935E+03  0.16952687465E+03  0.00000000000E+00 0.  1.
         14    1    5    5    0    0  0.81686146959E+02 -0.27730932407E+02  0.10992176420E+04  0.11025974133E+04  0.00000000000E+00 0. -1.
         11    1    3    3    0    0  0.11589593016E+03 -0.64649049553E+02 -0.95937624692E+03  0.96851130576E+03  0.00000000000E+00 0. -1.
        -12    1    3    3    0    0  0.24326812433E+02  0.17354333226E+02 -0.11374055066E+03  0.11760050829E+03  0.00000000000E+00 0.  1.
          5    1    4    4  501    0  0.11028827275E+02 -0.63625964086E+01 -0.25031857098E+02  0.28393378346E+02  0.41800000000E+01 0.  1.
         -5    1    4    4    0  501 -0.21385049121E+03  0.93764410312E+02 -0.90165515061E+02  0.25034194563E+03  0.41800000000E+01 0.  1.
</event>
<event>
11    1  0.7157190E-009  0.1339519E+03  0.7561462E-02  0.1114506E+00
         22   -1    0    0    0    0  0.00000000000E+00  0.00000000000E+00  0.15590638390E+03  0.15590638390E+03  0.00000000000E+00 0. -1.
         22   -1    0    0    0    0 -0.00000000000E+00 -0.00000000000E+00 -0.11870579307E+04  0.11870579307E+04  0.00000000000E+00 0. -1.
         24    2    1    2    0    0 -0.53524948947E+02  0.92540485682E+01 -0.73772907675E+03  0.74409978045E+03  0.80558891473E+02 0.  0.
         25    2    1    2    0    0  0.29927920726E+02  0.63467925773E+01 -0.42423238213E+03  0.44334557095E+03  0.12508484727E+03 0.  0.
        -24    2    1    2    0    0  0.23597028221E+02 -0.15600841145E+02  0.13080991211E+03  0.15551896318E+03  0.79213059633E+02 0.  0.
        -11    1    3    3    0    0 -0.41992887183E+02  0.36692161786E+02 -0.28566886686E+03  0.29106085069E+03  0.00000000000E+00 0.  1.
         12    1    3    3    0    0 -0.11532061763E+02 -0.27438113217E+02 -0.45206020989E+03  0.45303892976E+03  0.00000000000E+00 0. -1.
         13    1    5    5    0    0  0.86547867454E+01 -0.18170345458E+02  0.13748695361E+03  0.13895225511E+03  0.00000000000E+00 0. -1.
        -14    1    5    5    0    0  0.14942241475E+02  0.25695043124E+01 -0.66770415056E+01  0.16566708061E+02  0.00000000000E+00 0.  1.
          5    1    4    4  501    0  0.55343418474E+02 -0.11677311655E+02 -0.82178259084E+02  0.99849848482E+02  0.41800000000E+01 0.  1.
         -5    1    4    4    0  501 -0.25415497748E+02  0.18024104232E+02 -0.34205412305E+03  0.34349572247E+03  0.41800000000E+01 0.  1.
</event>
<event>
11    1  0.7157190E-009  0.1277403E+03  0.7561462E-02  0.1122077E+00
         22   -1    0    0    0    0  0.00000000000E+00  0.00000000000E+00  0.16223812526E+03  0.16223812526E+03  0.00000000000E+00 0. -1.
         22   -1    0    0    0    0 -0.00000000000E+00 -0.00000000000E+00 -0.11101341137E+04  0.11101341137E+04  0.00000000000E+00 0.  1.
         24    2    1    2    0    0  0.22643854068E+02  0.16130866456E+02 -0.77650982875E+03  0.78114963472E+03  0.80338587907E+02 0.  0.
         25    2    1    2    0    0 -0.92577679250E+01 -0.13749209122E+02 -0.30756368176E+03  0.33244185676E+03  0.12508965893E+03 0.  0.
        -24    2    1    2    0    0 -0.13386086143E+02 -0.23816573338E+01  0.13617752207E+03  0.15878074747E+03  0.80511792029E+02 0.  0.
        -11    1    3    3    0    0  0.22163903035E+02 -0.19211500165E+02 -0.62020670005E+03  0.62089988816E+03  0.00000000000E+00 0.  1.
         12    1    3    3    0    0  0.47995103376E+00  0.35342366621E+02 -0.15630312870E+03  0.16024974656E+03  0.00000000000E+00 0. -1.
         11    1    5    5    0    0  0.13611087078E+02 -0.19573628828E+02  0.12105726492E+03  0.12338253534E+03  0.00000000000E+00 0. -1.
        -12    1    5    5    0    0 -0.26997173221E+02  0.17191971494E+02  0.15120257154E+02  0.35398212133E+02  0.00000000000E+00 0.  1.
          5    1    4    4  501    0  0.26062286827E+02  0.39720956110E+02 -0.21204850867E+03  0.21734543836E+03  0.41800000000E+01 0.  1.
         -5    1    4    4    0  501 -0.35320054752E+02 -0.53470165232E+02 -0.95515173088E+02  0.11509641840E+03  0.41800000000E+01 0.  1.
</event>
<event>
11    1  0.7157190E-009  0.1360415E+03  0.7561462E-02  0.1112061E+00
         22   -1    0    0    0    0  0.00000000000E+00  0.00000000000E+00  0.96573251268E+03  0.96573251268E+03  0.00000000000E+00 0.  1.
         22   -1    0    0    0    0 -0.00000000000E+00 -0.00000000000E+00 -0.83858761765E+02  0.83858761765E+02  0.00000000000E+00 0. -1.
         24    2    1    2    0    0  0.19199142700E+02 -0.11323149848E+01 -0.18914043402E+02  0.84211534699E+02  0.79774383864E+02 0.  0.
         25    2    1    2    0    0  0.30319711436E+02  0.25101100817E+02  0.11739118882E+03  0.17600696913E+03  0.12509361217E+03 0.  0.
        -24    2    1    2    0    0 -0.49518854136E+02 -0.23968785832E+02  0.78339660550E+03  0.78937277062E+03  0.79828001846E+02 0.  0.
        -11    1    3    3    0    0  0.36758557223E+02 -0.29268010574E+02 -0.21168381186E+01  0.47034976089E+02  0.00000000000E+00 0.  1.
         12    1    3    3    0    0 -0.17559414524E+02  0.28135695589E+02 -0.16797205283E+02  0.37176558609E+02  0.00000000000E+00 0. -1.
         11    1    5    5    0    0 -0.70849496125E+02 -0.14374218927E+02  0.64161605509E+03  0.64567594924E+03  0.00000000000E+00 0. -1.
        -12    1    5    5    0    0  0.21330641989E+02 -0.95945669043E+01  0.14178055041E+03  0.14369682138E+03  0.00000000000E+00 0.  1.
          5    1    4    4  501    0  0.28762245905E+02 -0.47853616821E+02  0.66568528866E+02  0.86983198767E+02  0.41800000000E+01 0. -1.
         -5    1    4    4    0  501  0.15574655313E+01  0.72954717637E+02  0.50822659951E+02  0.89023770359E+02  0.41800000000E+01 0. -1.
</event>
<event>
11    1  0.7157190E-009  0.1345486E+03  0.7561462E-02  0.1113803E+00
         22   -1    0    0    0    0  0.00000000000E+00  0.00000000000E+00  0.88423395819E+03  0.88423395819E+03  0.00000000000E+00 0. -1.
         22   -1    0    0    0    0 -0.00000000000E+00 -0.00000000000E+00 -0.83956302864E+02  0.83956302864E+02  0.00000000000E+00 0. -1.
        -24    2    1    2    0    0  0.21348152904E+02  0.49975893968E+02 -0.19869133547E+02  0.99116880687E+02  0.80473846428E+02 0.  0.
         25    2    1    2    0    0 -0.79068830325E+01 -0.26085875483E+02  0.16582605991E+03  0.20948691397E+03  0.12507395125E+03 0.  0.
         24    2    1    2    0    0 -0.13441269871E+02 -0.23890018485E+02  0.65432072897E+03  0.65958646640E+03  0.78532092703E+02 0.  0.
        -11    1    5    5    0    0 -0.32696382663E+02 -0.16670368980E+02  0.13620950478E+03  0.14106730249E+03  0.00000000000E+00 0.  1.
         12    1    5    5    0    0  0.19255112792E+02 -0.72196495047E+01  0.51811122419E+03  0.51851916391E+03  0.00000000000E+00 0. -1.
         11    1    3    3    0    0 -0.27241321021E+02  0.28785547988E+02 -0.23340330790E+02  0.45994221216E+02  0.00000000000E+00 0. -1.
        -12    1    3    3    0    0  0.48589473924E+02  0.21190345980E+02  0.34711972423E+01  0.53122659471E+02  0.00000000000E+00 0.  1.
          5    1    4    4  501    0  0.28194751579E+01 -0.59051625627E+02  0.16415810883E+03  0.17452908361E+03  0.41800000000E+01 0.  1.
         -5    1    4    4    0  501 -0.10726358190E+02  0.32965750144E+02  0.16679510733E+01  0.34957830358E+02  0.41800000000E+01 0.  1.
</event>
<event>
11    1  0.7157190E-009  0.1365600E+03  0.7561462E-02  0.1111462E+00
         22   -1    0    0    0    0  0.00000000000E+00  0.00000000000E+00  0.33589922732E+03  0.33589922732E+03  0.00000000000E+00 0. -1.
         22   -1    0    0    0    0 -0.00000000000E+00 -0.00000000000E+00 -0.56077986176E+03  0.56077986176E+03  0.00000000000E+00 0.  1.
         24    2    1    2    0    0  0.29341590711E+02 -0.24100261468E+02 -0.51383805386E+03  0.52158926513E+03  0.81142247654E+02 0.  0.
         25    2    1    2    0    0 -0.69610522334E+02  0.45133759591E+01  0.20352821542E+03  0.24887320733E+03  0.12509253963E+03 0.  0.
        -24    2    1    2    0    0  0.40268931623E+02  0.19586885508E+02  0.85429203992E+02  0.12621661663E+03  0.81407938687E+02 0.  0.
        -11    1    3    3    0    0  0.34485384454E+02 -0.10257842600E+02 -0.50018604652E+03  0.50147836066E+03  0.00000000000E+00 0.  1.
         12    1    3    3    0    0 -0.51437937438E+01 -0.13842418868E+02 -0.13652007340E+02  0.20110904470E+02  0.00000000000E+00 0. -1.
         11    1    5    5    0    0  0.35340210666E+02  0.50235305307E+02  0.50762671514E+02  0.79682904116E+02  0.00000000000E+00 0. -1.
        -12    1    5    5    0    0  0.49287209569E+01 -0.30648419798E+02  0.34666532478E+02  0.46533712516E+02  0.00000000000E+00 0.  1.
          5    1    4    4  501    0  0.26257974265E+02 -0.28722059368E+02  0.79186969180E+02  0.88331683980E+02  0.41800000000E+01 0. -1.
         -5    1    4    4    0  501 -0.95868496599E+02  0.33235435328E+02  0.12434124624E+03  0.16054152335E+03  0.41800000000E+01 0. -1.
</event>
<event>
11    1  0.7157190E-009  0.1556223E+03  0.7561462E-02  0.1091268E+00
         22   -1    0    0    0    0  0.00000000000E+00  0.00000000000E+00  0.16233823092E+03  0.16233823092E+03  0.00000000000E+00 0. -1.
         22   -1    0    0    0    0 -0.00000000000E+00 -0.00000000000E+00 -0.83322041122E+03  0.83322041122E+03  0.00000000000E+00 0. -1.
        -24    2    1    2    0    0  0.14876219780E+02  0.88706470077E+02 -0.41360382523E+03  0.43095672633E+03  0.81027377947E+02 0.  0.
         25    2    1    2    0    0 -0.29237389966E+02 -0.93477800553E+02 -0.38292470455E+03  0.41457523665E+03  0.12509345834E+03 0.  0.
         24    2    1    2    0    0  0.14361170187E+02  0.47713304756E+01  0.12564634949E+03  0.15002667915E+03  0.80572889453E+02 0.  0.
        -11    1    5    5    0    0  0.41958533128E+02 -0.16866324758E+02  0.55400039621E+02  0.71513326053E+02  0.00000000000E+00 0.  1.
         12    1    5    5    0    0 -0.27597362942E+02  0.21637655234E+02  0.70246309864E+02  0.78513353099E+02  0.00000000000E+00 0. -1.
         13    1    3    3    0    0 -0.28945078842E+02  0.53043832356E+02 -0.26908304327E+03  0.27578460783E+03  0.00000000000E+00 0. -1.
        -14    1    3    3    0    0  0.43821298622E+02  0.35662637721E+02 -0.14452078196E+03  0.15517211851E+03  0.00000000000E+00 0.  1.
          5    1    4    4  501    0  0.30539479141E+02 -0.93729671678E+02 -0.22606265654E+03  0.24665706603E+03  0.41800000000E+01 0.  1.
         -5    1    4    4    0  501 -0.59776869107E+02  0.25187112562E+00 -0.15686204801E+03  0.16791817062E+03  0.41800000000E+01 0.  1.
</event>
<event>
11    1  0.7157190E-009  0.1419590E+03  0.7561462E-02  0.1105390E+00
         22   -1    0    0    0    0  0.00000000000E+00  0.00000000000E+00  0.19911370767E+03  0.19911370767E+03  0.00000000000E+00 0. -1.
         22   -1    0    0    0    0 -0.00000000000E+00 -0.00000000000E+00 -0.13523932163E+04  0.13523932163E+04  0.00000000000E+00 0. -1.
        -24    2    1    2    0    0 -0.79342980657E+01  0.66659063851E+02 -0.86519906857E+03  0.87202458065E+03  0.85738306109E+02 0.  0.
         25    2    1    2    0    0  0.38076028862E+02 -0.61384187289E+02 -0.46165509637E+03  0.48372521849E+03  0.12508739573E+03 0.  0.
         24    2    1    2    0    0 -0.30141730797E+02 -0.52748765626E+01  0.17357465631E+03  0.19575712483E+03  0.85184167245E+02 0.  0.
        -13    1    5    5    0    0 -0.47648165586E+01  0.38861097336E+02  0.65903393351E+02  0.76656021409E+02  0.00000000000E+00 0.  1.
         14    1    5    5    0    0 -0.25376914238E+02 -0.44135973899E+02  0.10767126296E+03  0.11910110342E+03  0.00000000000E+00 0. -1.
         13    1    3    3    0    0 -0.90839944632E+01 -0.85393305142E+01 -0.44326557059E+03  0.44344087001E+03  0.00000000000E+00 0. -1.
        -14    1    3    3    0    0  0.11496963975E+01  0.75198394366E+02 -0.42193349798E+03  0.42858371065E+03  0.00000000000E+00 0.  1.
          5    1    4    4  501    0  0.23494858566E+02  0.12476926605E+02 -0.15149376752E+02  0.30897541852E+02  0.41800000000E+01 0. -1.
         -5    1    4    4    0  501  0.14581170297E+02 -0.73861113894E+02 -0.44650571962E+03  0.45282767664E+03  0.41800000000E+01 0. -1.
</event>
<event>
11    1  0.7157190E-009  0.1358497E+03  0.7561462E-02  0.1112283E+00
         22   -1    0    0    0    0  0.00000000000E+00  0.00000000000E+00  0.77748054351E+03  0.77748054351E+03  0.00000000000E+00 0. -1.
         22   -1    0    0    0    0 -0.00000000000E+00 -0.00000000000E+00 -0.92269084018E+02  0.92269084018E+02  0.00000000000E+00 0. -1.
         24    2    1    2    0    0  0.54613319408E+02 -0.31494181086E+01 -0.13999192180E+02  0.98567203068E+02  0.80789743456E+02 0.  0.
         25    2    1    2    0    0 -0.47764396359E+02 -0.76816925459E+01  0.10206686157E+03  0.16854007482E+03  0.12509063366E+03 0.  0.
        -24    2    1    2    0    0 -0.68489230491E+01  0.10831110654E+02  0.59714379011E+03  0.60264234965E+03  0.80205204434E+02 0.  0.
        -11    1    3    3    0    0  0.54591776033E+02  0.50865785571E+01  0.23880037893E+02  0.59802938905E+02  0.00000000000E+00 0.  1.
         12    1    3    3    0    0  0.21543374458E-01 -0.82359966657E+01 -0.37879230073E+02  0.38764264163E+02  0.00000000000E+00 0. -1.
         11    1    5    5    0    0 -0.61887175267E+01  0.18155241694E+02  0.59452772226E+03  0.59483705800E+03  0.00000000000E+00 0. -1.
        -12    1    5    5    0    0 -0.66020552242E+00 -0.73241310393E+01  0.26160678472E+01  0.78052916534E+01  0.00000000000E+00 0.  1.
          5    1    4    4  501    0  0.32729961314E+02  0.28096920010E+02  0.18750654837E+02  0.47220194181E+02  0.41800000000E+01 0.  1.
         -5    1    4    4    0  501 -0.80494357673E+02 -0.35778612556E+02  0.83316206729E+02  0.12131988063E+03  0.41800000000E+01 0.  1.
</event>
<event>
11    1  0.7157190E-009  0.1397970E+03  0.7561462E-02  0.1107785E+00
         22   -1    0    0    0    0  0.00000000000E+00  0.00000000000E+00  0.17015519419E+04  0.17015519419E+04  0.00000000000E+00 0.  1.
         22   -1    0    0    0    0 -0.00000000000E+00 -0.00000000000E+00 -0.22609988290E+03  0.22609988290E+03  0.00000000000E+00 0.  1.
        -24    2    1    2    0    0  0.60748676921E+02 -0.20923506141E+02 -0.14361306545E+03  0.18481236959E+03  0.96967543683E+02 0.  0.
         25    2    1    2    0    0 -0.52746019351E+02  0.17395386838E+02  0.16091266126E+02  0.13781063980E+03  0.12509237210E+03 0.  0.
         24    2    1    2    0    0 -0.80026575704E+01  0.35281193038E+01  0.16029738583E+04  0.16050288154E+04  0.80720614975E+02 0.  0.
        -13    1    5    5    0    0  0.60220462910E+01  0.27683042856E+02  0.13828220468E+04  0.13831122258E+04  0.00000000000E+00 0.  1.
         14    1    5    5    0    0 -0.14024703861E+02 -0.24154923552E+02  0.22015181150E+03  0.22191658964E+03  0.00000000000E+00 0. -1.
         13    1    3    3    0    0  0.20864929163E+01  0.34314117339E+02 -0.30650250754E+02  0.46057029569E+02  0.00000000000E+00 0. -1.
        -14    1    3    3    0    0  0.58662184005E+02 -0.55237623480E+02 -0.11296281469E+03  0.13875534002E+03  0.00000000000E+00 0.  1.
          5    1    4    4  501    0  0.16341704043E+02  0.13409010785E+02 -0.42101934764E+02  0.47295857875E+02  0.41800000000E+01 0.  1.
         -5    1    4    4    0  501 -0.69087723394E+02  0.39863760530E+01  0.58193200890E+02  0.90514781929E+02  0.41800000000E+01 0.  1.
</event>
<event>
11    1  0.7157190E-009  0.1276105E+03  0.7561462E-02  0.1122240E+00
         22   -1    0    0    0    0  0.00000000000E+00  0.00000000000E+00  0.12397380662E+03  0.12397380662E+03  0.00000000000E+00 0. -1.
         22   -1    0    0    0    0 -0.00000000000E+00 -0.00000000000E+00 -0.88451447550E+03  0.88451447550E+03  0.00000000000E+00 0. -1.
        -24    2    1    2    0    0  0.23364061075E+02 -0.35750443333E+01 -0.70056269766E+03  0.70552929320E+03  0.80155036746E+02 0.  0.
         25    2    1    2    0    0 -0.42876961693E+02  0.75328720613E+00 -0.13625210884E+03  0.18987108571E+03  0.12508953089E+03 0.  0.
         24    2    1    2    0    0  0.19512900617E+02  0.28217571272E+01  0.76274137615E+02  0.11308790322E+03  0.81132078629E+02 0.  0.
        -11    1    5    5    0    0 -0.43152917780E+01  0.34811887198E+02  0.61014716928E+02  0.70379577401E+02  0.00000000000E+00 0.  1.
         12    1    5    5    0    0  0.23828192395E+02 -0.31990130071E+02  0.15259420687E+02  0.42708325822E+02  0.00000000000E+00 0. -1.
         13    1    3    3    0    0 -0.22075860217E+02  0.64123312149E+01 -0.45609314420E+03  0.45667211189E+03  0.00000000000E+00 0. -1.
        -14    1    3    3    0    0  0.45439921292E+02 -0.99873755482E+01 -0.24446955346E+03  0.24885718131E+03  0.00000000000E+00 0.  1.
          5    1    4    4  501    0 -0.47530030397E+02  0.57734817611E+02 -0.75852652943E+02  0.10659976694E+03  0.41800000000E+01 0. -1.
         -5    1    4    4    0  501  0.46530687048E+01 -0.56981530405E+02 -0.60399455897E+02  0.83271318762E+02  0.41800000000E+01 0. -1.
</event>
<event>
11    1  0.7157190E-009  0.1537940E+03  0.7561462E-02  0.1093064E+00
         22   -1    0    0    0    0  0.00000000000E+00  0.00000000000E+00  0.20206798150E+04  0.20206798150E+04  0.00000000000E+00 0. -1.
         22   -1    0    0    0    0 -0.00000000000E+00 -0.00000000000E+00 -0.11735892559E+04  0.11735892559E+04  0.00000000000E+00 0. -1.
        -24    2    1    2    0    0 -0.76652377084E+01  0.88907303550E+02 -0.10859351295E+04  0.10925260693E+04  0.79967756765E+02 0.  0.
         25    2    1    2    0    0  0.20243185273E+02 -0.93290936325E+02 -0.94388438882E+01  0.15763782513E+03  0.12509039447E+03 0.  0.
         24    2    1    2    0    0 -0.12577947565E+02  0.43836327750E+01  0.19424645326E+04  0.19441051765E+04  0.78734083014E+02 0.  0.
        -13    1    5    5    0    0  0.19208962725E+01 -0.14524596399E+02  0.71338272190E+02  0.72827212099E+02  0.00000000000E+00 0.  1.
         14    1    5    5    0    0 -0.14498843837E+02  0.18908229174E+02  0.18711262604E+04  0.18712779644E+04  0.00000000000E+00 0. -1.
         13    1    3    3    0    0 -0.41244640565E+02  0.52214986228E+02 -0.74747601426E+03  0.75043182040E+03  0.00000000000E+00 0. -1.
        -14    1    3    3    0    0  0.33579402856E+02  0.36692317322E+02 -0.33845911528E+03  0.34209424895E+03  0.00000000000E+00 0.  1.
          5    1    4    4  501    0  0.43182499860E+02 -0.63948661956E+02 -0.57766090202E+02  0.96480843888E+02  0.41800000000E+01 0. -1.
         -5    1    4    4    0  501 -0.22939314586E+02 -0.29342274369E+02  0.48327246314E+02  0.61156981246E+02  0.41800000000E+01 0. -1.
</event>
<event>
11    1  0.7157190E-009  0.1521685E+03  0.7561462E-02  0.1094683E+00
         22   -1    0    0    0    0  0.00000000000E+00  0.00000000000E+00  0.13209565594E+04  0.13209565594E+04  0.00000000000E+00 0. -1.
         22   -1    0    0    0    0 -0.00000000000E+00 -0.00000000000E+00 -0.61688813220E+03  0.61688813220E+03  0.00000000000E+00 0.  1.
         24    2    1    2    0    0  0.96931409533E+00 -0.81909445294E+02 -0.42226493217E+03  0.43740315599E+03  0.79396165711E+02 0.  0.
         25    2    1    2    0    0 -0.12341062124E+02  0.10988735256E+03 -0.14820486407E+03  0.22324556221E+03  0.12508543978E+03 0.  0.
        -24    2    1    2    0    0  0.11371748028E+02 -0.27977907270E+02  0.12745382235E+04  0.12771959734E+04  0.76614564875E+02 0.  0.
        -13    1    3    3    0    0 -0.30876159418E+02 -0.13073347801E+02 -0.19375863031E+03  0.19663839011E+03  0.00000000000E+00 0.  1.
         14    1    3    3    0    0  0.31845473513E+02 -0.68836097493E+02 -0.22850630185E+03  0.24076476588E+03  0.00000000000E+00 0. -1.
         13    1    5    5    0    0  0.10527964995E+02 -0.25783736377E+02  0.12745409062E+04  0.12748451517E+04  0.00000000000E+00 0. -1.
        -14    1    5    5    0    0  0.84378303336E+00 -0.21941708933E+01 -0.26827726636E-02  0.23508217529E+01  0.00000000000E+00 0.  1.
          5    1    4    4  501    0  0.16152630539E+02  0.52555205868E+02  0.67325482921E+01  0.55549588150E+02  0.41800000000E+01 0.  1.
         -5    1    4    4    0  501 -0.28493692663E+02  0.57332146697E+02 -0.15493741236E+03  0.16769597406E+03  0.41800000000E+01 0.  1.
</event>
<event>
11    1  0.7157190E-009  0.2473573E+03  0.7561462E-02  0.1025317E+00
         22   -1    0    0    0    0  0.00000000000E+00  0.00000000000E+00  0.59379890055E+03  0.59379890055E+03  0.00000000000E+00 0. -1.
         22   -1    0    0    0    0 -0.00000000000E+00 -0.00000000000E+00 -0.49007571270E+03  0.49007571270E+03  0.00000000000E+00 0. -1.
         24    2    1    2    0    0 -0.17029625861E+03  0.13662561126E+03 -0.39408380338E+03  0.45689013529E+03  0.76020906918E+02 0.  0.
         25    2    1    2    0    0  0.15156236372E+03 -0.10047046108E+03  0.14686782519E+03  0.26509596099E+03  0.12506097238E+03 0.  0.
        -24    2    1    2    0    0  0.18733894888E+02 -0.36155150179E+02  0.35093916605E+03  0.36188851697E+03  0.78401828683E+02 0.  0.
        -11    1    3    3    0    0 -0.12369278315E+02  0.16240070212E+02 -0.99848860014E+02  0.10191434527E+03  0.00000000000E+00 0.  1.
         12    1    3    3    0    0 -0.15792698030E+03  0.12038554105E+03 -0.29423494337E+03  0.35497579002E+03  0.00000000000E+00 0. -1.
         11    1    5    5    0    0 -0.12658089978E+02 -0.42316336287E+02  0.28714783145E+03  0.29052500179E+03  0.00000000000E+00 0. -1.
        -12    1    5    5    0    0  0.31391984865E+02  0.61611861077E+01  0.63791334601E+02  0.71363515176E+02  0.00000000000E+00 0.  1.
          5    1    4    4  501    0  0.34624900611E+02  0.29541752564E+02  0.33219429423E+02  0.56503112994E+02  0.41800000000E+01 0. -1.
         -5    1    4    4    0  501  0.11693746311E+03 -0.13001221365E+03  0.11364839576E+03  0.20859284800E+03  0.41800000000E+01 0. -1.
</event>
<event>
11    1  0.7157190E-009  0.2595617E+03  0.7561462E-02  0.1018925E+00
         22   -1    0    0    0    0  0.00000000000E+00  0.00000000000E+00  0.14091336618E+04  0.14091336618E+04  0.00000000000E+00 0. -1.
         22   -1    0    0    0    0 -0.00000000000E+00 -0.00000000000E+00 -0.26686440975E+03  0.26686440975E+03  0.00000000000E+00 0. -1.
        -24    2    1    2    0    0 -0.38699609818E+02 -0.66747543608E+02 -0.15587155954E+03  0.19102163265E+03  0.78996371375E+02 0.  0.
         25    2    1    2    0    0  0.23206232792E+03  0.16877761231E+03  0.22172636725E+03  0.38359979137E+03  0.12508961407E+03 0.  0.
         24    2    1    2    0    0 -0.19336271810E+03 -0.10203006870E+03  0.10764144443E+04  0.11013766475E+04  0.81013505314E+02 0.  0.
        -11    1    5    5    0    0  0.61129237851E+01  0.24801735681E+01  0.57262064434E+02  0.57640811248E+02  0.00000000000E+00 0.  1.
         12    1    5    5    0    0 -0.19947564188E+03 -0.10451024227E+03  0.10191523799E+04  0.10437358363E+04  0.00000000000E+00 0. -1.
         11    1    3    3    0    0 -0.47836835684E+02 -0.79932767652E+02 -0.12158865659E+03  0.15317118399E+03  0.00000000000E+00 0. -1.
        -12    1    3    3    0    0  0.91372258656E+01  0.13185224043E+02 -0.34282902947E+02  0.37850448664E+02  0.00000000000E+00 0.  1.
          5    1    4    4  501    0  0.11873163542E+03  0.72416907940E+02  0.18288808730E+03  0.22979759503E+03  0.41800000000E+01 0. -1.
         -5    1    4    4    0  501  0.11333069249E+03  0.96360704371E+02  0.38838279947E+02  0.15380219633E+03  0.41800000000E+01 0. -1.
</event>
<event>
11    1  0.7157190E-009  0.1372556E+03  0.7561462E-02  0.1110662E+00
         22   -1    0    0    0    0  0.00000000000E+00  0.00000000000E+00  0.41762067776E+03  0.41762067776E+03  0.00000000000E+00 0.  1.
         22   -1    0    0    0    0 -0.00000000000E+00 -0.00000000000E+00 -0.99164132757E+03  0.99164132757E+03  0.00000000000E+00 0.  1.
        -24    2    1    2    0    0  0.14638697094E+02 -0.11113917755E+02 -0.94616841812E+03  0.94965033483E+03  0.79140838850E+02 0.  0.
         25    2    1    2    0    0  0.43751315980E+02  0.19351657818E+02  0.92162105667E+02  0.16257051470E+03  0.12508658689E+03 0.  0.
         24    2    1    2    0    0 -0.58390013074E+02 -0.82377400627E+01  0.27998566265E+03  0.29704115579E+03  0.79776080112E+02 0.  0.
        -11    1    5    5    0    0 -0.60174348122E+02  0.23960378321E+02  0.21417714625E+03  0.22375634489E+03  0.00000000000E+00 0.  1.
         12    1    5    5    0    0  0.17843350478E+01 -0.32198118384E+02  0.65808516396E+02  0.73284810904E+02  0.00000000000E+00 0. -1.
         13    1    3    3    0    0 -0.30864091314E+02  0.62160984862E+01 -0.29907655627E+03  0.30072914478E+03  0.00000000000E+00 0. -1.
        -14    1    3    3    0    0  0.45502788408E+02 -0.17330016241E+02 -0.64709186185E+03  0.64892119005E+03  0.00000000000E+00 0.  1.
          5    1    4    4  501    0  0.80308247860E+02  0.13598702070E+02  0.24199938888E+02  0.85073196804E+02  0.41800000000E+01 0. -1.
         -5    1    4    4    0  501 -0.36556931879E+02  0.57529557483E+01  0.67962166779E+02  0.77497317899E+02  0.41800000000E+01 0. -1.
</event>
<event>
11    1  0.7157190E-009  0.1475381E+03  0.7561462E-02  0.1099421E+00
         22   -1    0    0    0    0  0.00000000000E+00  0.00000000000E+00  0.94222219132E+02  0.94222219132E+02  0.00000000000E+00 0. -1.
         22   -1    0    0    0    0 -0.00000000000E+00 -0.00000000000E+00 -0.10020866945E+04  0.10020866945E+04  0.00000000000E+00 0.  1.
         24    2    1    2    0    0 -0.22770693471E+02 -0.77332120665E+02 -0.84003335199E+03  0.84757005085E+03  0.78868227252E+02 0.  0.
         25    2    1    2    0    0  0.15595295996E+02  0.52489842220E+02 -0.88028643693E+02  0.16246176045E+03  0.12508550957E+03 0.  0.
        -24    2    1    2    0    0  0.71753974743E+01  0.24842278445E+02  0.20197520305E+02  0.86277102342E+02  0.79794570209E+02 0.  0.
        -13    1    3    3    0    0  0.27173315361E+02 -0.36463042163E+02 -0.44277062651E+03  0.44509973063E+03  0.00000000000E+00 0.  1.
         14    1    3    3    0    0 -0.49944008831E+02 -0.40869078502E+02 -0.39726272548E+03  0.40247032021E+03  0.00000000000E+00 0. -1.
         13    1    5    5    0    0 -0.94984569049E+01  0.17995855533E+01  0.46525684176E+02  0.47519453698E+02  0.00000000000E+00 0. -1.
        -14    1    5    5    0    0  0.16673854379E+02  0.23042692891E+02 -0.26328163871E+02  0.38757648644E+02  0.00000000000E+00 0.  1.
          5    1    4    4  501    0  0.52881172275E+02 -0.68116177431E+01 -0.73336499915E+02  0.90766354655E+02  0.41800000000E+01 0. -1.
         -5    1    4    4    0  501 -0.37285876279E+02  0.59301459964E+02 -0.14692143778E+02  0.71695405798E+02  0.41800000000E+01 0. -1.
</event>
<event>
11    1  0.7157190E-009  0.1563689E+03  0.7561462E-02  0.1090543E+00
         22   -1    0    0    0    0  0.00000000000E+00  0.00000000000E+00  0.99736413245E+02  0.99736413245E+02  0.00000000000E+00 0.  1.
         22   -1    0    0    0    0 -0.00000000000E+00 -0.00000000000E+00 -0.24261510542E+04  0.24261510542E+04  0.00000000000E+00 0.  1.
         24    2    1    2    0    0  0.56885823903E+02  0.67711710472E+02 -0.21114954165E+04  0.21148388374E+04  0.79432622345E+02 0.  0.
         25    2    1    2    0    0 -0.13965452590E+03 -0.49175182574E+02 -0.21594503339E+03  0.29017552209E+03  0.12509193015E+03 0.  0.
        -24    2    1    2    0    0  0.82768701992E+02 -0.18536527897E+02  0.10258088987E+01  0.12087310801E+03  0.86110365584E+02 0.  0.
        -13    1    3    3    0    0  0.57284010461E+02  0.50795337667E+02 -0.20373121213E+04  0.20387501818E+04  0.00000000000E+00 0.  1.
         14    1    3    3    0    0 -0.39818655827E+00  0.16916372805E+02 -0.74183295152E+02  0.76088655534E+02  0.00000000000E+00 0. -1.
         11    1    5    5    0    0  0.52268096126E+02 -0.44651990206E+02 -0.24857429805E+02  0.73100245680E+02  0.00000000000E+00 0. -1.
        -12    1    5    5    0    0  0.30500605866E+02  0.26115462308E+02  0.25883238703E+02  0.47772862333E+02  0.00000000000E+00 0.  1.
          5    1    4    4  501    0  0.11413160486E+02  0.89967019191E+01 -0.71812664133E+02  0.73387546679E+02  0.41800000000E+01 0. -1.
         -5    1    4    4    0  501 -0.15106768638E+03 -0.58171884493E+02 -0.14413236926E+03  0.21678797541E+03  0.41800000000E+01 0. -1.
</event>
<event>
11    1  0.7157190E-009  0.2033526E+03  0.7561462E-02  0.1052178E+00
         22   -1    0    0    0    0  0.00000000000E+00  0.00000000000E+00  0.80589752925E+03  0.80589752925E+03  0.00000000000E+00 0. -1.
         22   -1    0    0    0    0 -0.00000000000E+00 -0.00000000000E+00 -0.86989077623E+03  0.86989077623E+03  0.00000000000E+00 0.  1.
         24    2    1    2    0    0 -0.85401023764E+02  0.86312888650E+02 -0.73371334757E+03  0.74809806348E+03  0.81069023514E+02 0.  0.
         25    2    1    2    0    0  0.18745235448E+03 -0.19523972368E+03  0.72368622393E+02  0.30682524694E+03  0.12509028637E+03 0.  0.
        -24    2    1    2    0    0 -0.10205133072E+03  0.10892683503E+03  0.59735147819E+03  0.62086499507E+03  0.79781101207E+02 0.  0.
        -13    1    3    3    0    0 -0.91047199984E+02  0.66231244850E+02 -0.69557007190E+03  0.70462322935E+03  0.00000000000E+00 0.  1.
         14    1    3    3    0    0  0.56461762202E+01  0.20081643800E+02 -0.38143275668E+02  0.43474834126E+02  0.00000000000E+00 0. -1.
         13    1    5    5    0    0 -0.23325414586E+02 -0.11877135507E+01  0.32506604368E+02  0.40027052810E+02  0.00000000000E+00 0. -1.
        -14    1    5    5    0    0 -0.78725916134E+02  0.11011454859E+03  0.56484487382E+03  0.58083794226E+03  0.00000000000E+00 0.  1.
          5    1    4    4  501    0  0.10507708422E+03 -0.94264508713E+02 -0.25872870723E+02  0.14357530801E+03  0.41800000000E+01 0. -1.
         -5    1    4    4    0  501  0.82375270268E+02 -0.10097521497E+03  0.98241493115E+02  0.16324993893E+03  0.41800000000E+01 0. -1.
</event>
<event>
11    1  0.7157190E-009  0.1316057E+03  0.7561462E-02  0.1117312E+00
         22   -1    0    0    0    0  0.00000000000E+00  0.00000000000E+00  0.20224143452E+03  0.20224143452E+03  0.00000000000E+00 0. -1.
         22   -1    0    0    0    0 -0.00000000000E+00 -0.00000000000E+00 -0.10566213427E+04  0.10566213427E+04  0.00000000000E+00 0.  1.
        -24    2    1    2    0    0 -0.46360569178E+01  0.53363112606E+02 -0.57291377627E+03  0.58199858282E+03  0.87310025508E+02 0.  0.
         25    2    1    2    0    0  0.72150020582E+01 -0.16445571793E+02 -0.46041579947E+03  0.47744407789E+03  0.12509047136E+03 0.  0.
         24    2    1    2    0    0 -0.25789451403E+01 -0.36917540813E+02  0.17894966761E+03  0.19942011646E+03  0.79848879356E+02 0.  0.
        -13    1    5    5    0    0  0.27059313519E+02 -0.44420260909E+02  0.76511370893E+02  0.92516787144E+02  0.00000000000E+00 0.  1.
         14    1    5    5    0    0 -0.29638258660E+02  0.75027200962E+01  0.10243829671E+03  0.10690332932E+03  0.00000000000E+00 0. -1.
         13    1    3    3    0    0 -0.42095050372E+02  0.47365798554E+02 -0.31509478574E+03  0.32140354095E+03  0.00000000000E+00 0. -1.
        -14    1    3    3    0    0  0.37458993454E+02  0.59973140519E+01 -0.25781899054E+03  0.26059504187E+03  0.00000000000E+00 0.  1.
          5    1    4    4  501    0  0.55636729305E+02 -0.12953016027E+02 -0.37293674210E+03  0.37730957088E+03  0.41800000000E+01 0. -1.
         -5    1    4    4    0  501 -0.48421727247E+02 -0.34925557655E+01 -0.87479057374E+02  0.10013450701E+03  0.41800000000E+01 0. -1.
</event>
<event>
11    1  0.7157190E-009  0.1350081E+03  0.7561462E-02  0.1113264E+00
         22   -1    0    0    0    0  0.00000000000E+00  0.00000000000E+00  0.84791712334E+03  0.84791712334E+03  0.00000000000E+00 0.  1.
         22   -1    0    0    0    0 -0.00000000000E+00 -0.00000000000E+00 -0.57550770379E+03  0.57550770379E+03  0.00000000000E+00 0.  1.
        -24    2    1    2    0    0 -0.38942700554E+02  0.33986009730E+02 -0.54601715355E+03  0.55428014274E+03  0.80125912685E+02 0.  0.
         25    2    1    2    0    0  0.13169835104E+02 -0.31505080655E+01  0.15495332797E+03  0.19960491642E+03  0.12509283972E+03 0.  0.
         24    2    1    2    0    0  0.25772865450E+02 -0.30835501664E+02  0.66347324513E+03  0.66953976797E+03  0.80446784519E+02 0.  0.
        -13    1    5    5    0    0  0.21618262062E+02 -0.56244001422E+02  0.54381855249E+03  0.54714655713E+03  0.00000000000E+00 0.  1.
         14    1    5    5    0    0  0.41546033874E+01  0.25408499757E+02  0.11965469264E+03  0.12239321084E+03  0.00000000000E+00 0. -1.
         11    1    3    3    0    0 -0.23325129701E+02  0.84153973954E+01 -0.37967247867E+02  0.45347464091E+02  0.00000000000E+00 0. -1.
        -12    1    3    3    0    0 -0.15617570852E+02  0.25570612335E+02 -0.50804990568E+03  0.50893267865E+03  0.00000000000E+00 0.  1.
          5    1    4    4  501    0  0.63414401030E+02  0.18945961048E+02  0.57938414881E+02  0.88060592871E+02  0.41800000000E+01 0. -1.
         -5    1    4    4    0  501 -0.50244565926E+02 -0.22096469114E+02  0.97014913094E+02  0.11154432354E+03  0.41800000000E+01 0. -1.
</event>
<event>
11    1  0.7157190E-009  0.3076520E+03  0.7561462E-02  0.9970038E-01
         22   -1    0    0    0    0  0.00000000000E+00  0.00000000000E+00  0.48208531679E+03  0.48208531679E+03  0.00000000000E+00 0.  1.
         22   -1    0    0    0    0 -0.00000000000E+00 -0.00000000000E+00 -0.20028796447E+04  0.20028796447E+04  0.00000000000E+00 0. -1.
        -24    2    1    2    0    0  0.12784770727E+03  0.25185673409E+03 -0.15978444400E+04  0.16245191913E+04  0.78605965310E+02 0.  0.
         25    2    1    2    0    0 -0.16285298826E+03 -0.22493270808E+03 -0.32641536788E+03  0.44644115048E+03  0.12508752737E+03 0.  0.
         24    2    1    2    0    0  0.35005280984E+02 -0.26924026008E+02  0.40346547994E+03  0.41400461971E+03  0.81640423585E+02 0.  0.
        -13    1    5    5    0    0  0.12320994405E+02 -0.55048465405E+02  0.23009763035E+03  0.23691150234E+03  0.00000000000E+00 0.  1.
         14    1    5    5    0    0  0.22684286579E+02  0.28124439397E+02  0.17336784959E+03  0.17709311737E+03  0.00000000000E+00 0. -1.
         11    1    3    3    0    0  0.12223120537E+03  0.23366033925E+03 -0.15602436175E+04  0.15823709324E+04  0.00000000000E+00 0. -1.
        -12    1    3    3    0    0  0.56165018999E+01  0.18196394837E+02 -0.37600822456E+02  0.42148258896E+02  0.00000000000E+00 0.  1.
          5    1    4    4  501    0 -0.29204157287E+02  0.35914392923E+01 -0.52026125525E+01  0.30171523269E+02  0.41800000000E+01 0. -1.
         -5    1    4    4    0  501 -0.13364883097E+03 -0.22852414737E+03 -0.32121275532E+03  0.41626962721E+03  0.41800000000E+01 0. -1.
</event>
<event>
11    1  0.7157190E-009  0.1577667E+03  0.7561462E-02  0.1089197E+00
         22   -1    0    0    0    0  0.00000000000E+00  0.00000000000E+00  0.10786620343E+03  0.10786620343E+03  0.00000000000E+00 0. -1.
         22   -1    0    0    0    0 -0.00000000000E+00 -0.00000000000E+00 -0.15629981881E+04  0.15629981881E+04  0.00000000000E+00 0. -1.
        -24    2    1    2    0    0 -0.48506748229E+02 -0.63856654255E+02 -0.10145697529E+04  0.10207994349E+04  0.79051411998E+02 0.  0.
         25    2    1    2    0    0  0.13977387005E+03  0.71509863631E+02 -0.48032019497E+03  0.52058391314E+03  0.12509886323E+03 0.  0.
         24    2    1    2    0    0 -0.91267121822E+02 -0.76532093762E+01  0.39757963213E+02  0.12948104355E+03  0.82440195661E+02 0.  0.
        -11    1    5    5    0    0  0.23036492213E+01  0.19811901743E+02 -0.72524541816E+01  0.21223014444E+02  0.00000000000E+00 0.  1.
         12    1    5    5    0    0 -0.93570771043E+02 -0.27465111120E+02  0.47010417395E+02  0.10825802911E+03  0.00000000000E+00 0. -1.
         13    1    3    3    0    0 -0.62625206766E+02 -0.64457302777E+02 -0.96721325688E+03  0.97137950601E+03  0.00000000000E+00 0. -1.
        -14    1    3    3    0    0  0.14118458537E+02  0.60064852234E+00 -0.47356496063E+02  0.49419928870E+02  0.00000000000E+00 0.  1.
          5    1    4    4  501    0  0.13846220171E+03  0.77827651452E+02 -0.48581205631E+03  0.51113574624E+03  0.41800000000E+01 0. -1.
         -5    1    4    4    0  501  0.13116683433E+01 -0.63177878211E+01  0.54918613390E+01  0.94481668995E+01  0.41800000000E+01 0. -1.
</event>
<event>
11    1  0.7157190E-009  0.1370247E+03  0.7561462E-02  0.1110927E+00
         22   -1    0    0    0    0  0.00000000000E+00  0.00000000000E+00  0.32463349497E+03  0.32463349497E+03  0.00000000000E+00 0. -1.
         22   -1    0    0    0    0 -0.00000000000E+00 -0.00000000000E+00 -0.19497969699E+04  0.19497969699E+04  0.00000000000E+00 0.  1.
         24    2    1    2    0    0  0.93754007756E+01 -0.23459376879E+02 -0.18572066167E+04  0.18591416349E+04  0.80950360600E+02 0.  0.
         25    2    1    2    0    0 -0.48445188444E+02 -0.18081689913E+02 -0.25710028779E+02  0.13777625318E+03  0.12508959416E+03 0.  0.
        -24    2    1    2    0    0  0.39069787669E+02  0.41541066792E+02  0.25775317060E+03  0.27751257677E+03  0.85582853263E+02 0.  0.
        -11    1    3    3    0    0  0.13555090191E+02 -0.11386751505E+02 -0.18139853956E+04  0.18140717776E+04  0.00000000000E+00 0.  1.
         12    1    3    3    0    0 -0.41796894154E+01 -0.12072625374E+02 -0.43221221080E+02  0.45069857318E+02  0.00000000000E+00 0. -1.
         11    1    5    5    0    0  0.24854740210E+02  0.36241756715E+02  0.25861039905E+03  0.26231767294E+03  0.00000000000E+00 0. -1.
        -12    1    5    5    0    0  0.14215047459E+02  0.52993100770E+01 -0.85722845646E+00  0.15194903823E+02  0.00000000000E+00 0.  1.
          5    1    4    4  501    0  0.24409953247E+01 -0.33038505626E+02  0.40724607615E+02  0.52663719747E+02  0.41800000000E+01 0. -1.
         -5    1    4    4    0  501 -0.50886183769E+02  0.14956815713E+02 -0.66434636394E+02  0.85112533435E+02  0.41800000000E+01 0. -1.
</event>
<event>
11    1  0.7157190E-009  0.1568055E+03  0.7561462E-02  0.1090121E+00
         22   -1    0    0    0    0  0.00000000000E+00  0.00000000000E+00  0.33081946399E+03  0.33081946399E+03  0.00000000000E+00 0. -1.
         22   -1    0    0    0    0 -0.00000000000E+00 -0.00000000000E+00 -0.78608089642E+03  0.78608089642E+03  0.00000000000E+00 0.  1.
         24    2    1    2    0    0 -0.93754654347E+02  0.13967516097E+02 -0.73308453086E+03  0.74354659254E+03  0.80396387791E+02 0.  0.
         25    2    1    2    0    0  0.84139410806E+02 -0.28847058650E+02  0.11781078399E+03  0.19349080554E+03  0.12509083803E+03 0.  0.
        -24    2    1    2    0    0  0.96152435419E+01  0.14879542554E+02  0.16001231444E+03  0.17986296233E+03  0.80205303759E+02 0.  0.
        -11    1    3    3    0    0 -0.83217480825E+02 -0.76918747696E+01 -0.68162244754E+03  0.68672663778E+03  0.00000000000E+00 0.  1.
         12    1    3    3    0    0 -0.10537173522E+02  0.21659390866E+02 -0.51462083327E+02  0.56819954760E+02  0.00000000000E+00 0. -1.
         11    1    5    5    0    0  0.16387755804E+02 -0.77740833319E+01  0.15453068397E+03  0.15559153961E+03  0.00000000000E+00 0. -1.
        -12    1    5    5    0    0 -0.67725122625E+01  0.22653625885E+02  0.54816304731E+01  0.24271422718E+02  0.00000000000E+00 0.  1.
          5    1    4    4  501    0  0.82664214911E+02  0.21502244852E+01  0.13455000861E+03  0.15798472429E+03  0.41800000000E+01 0. -1.
         -5    1    4    4    0  501  0.14751958942E+01 -0.30997283135E+02 -0.16739224617E+02  0.35506081246E+02  0.41800000000E+01 0. -1.
</event>
<event>
11    1  0.7157190E-009  0.2151426E+03  0.7561462E-02  0.1044304E+00
         22   -1    0    0    0    0  0.00000000000E+00  0.00000000000E+00  0.19912036204E+04  0.19912036204E+04  0.00000000000E+00 0.  1.
         22   -1    0    0    0    0 -0.00000000000E+00 -0.00000000000E+00 -0.41460267427E+03  0.41460267427E+03  0.00000000000E+00 0. -1.
        -24    2    1    2    0    0 -0.10335934963E+03  0.13564700619E+03 -0.31288733377E+03  0.36530392261E+03  0.80406509651E+02 0.  0.
         25    2    1    2    0    0  0.14656326732E+03 -0.15187284617E+03  0.12830794141E+03  0.27686987231E+03  0.12509134915E+03 0.  0.
         24    2    1    2    0    0 -0.43203917694E+02  0.16225839978E+02  0.17611803385E+04  0.17636324997E+04  0.80706586439E+02 0.  0.
        -13    1    5    5    0    0  0.91944544601E+00 -0.27117628203E+01  0.12916992947E+04  0.12917024685E+04  0.00000000000E+00 0.  1.
         14    1    5    5    0    0 -0.44123363140E+02  0.18937602799E+02  0.46948104376E+03  0.47193003128E+03  0.00000000000E+00 0. -1.
         11    1    3    3    0    0 -0.10213100749E+02  0.67513922383E+02 -0.15822949841E+03  0.17233401089E+03  0.00000000000E+00 0. -1.
        -12    1    3    3    0    0 -0.93146248882E+02  0.68133083811E+02 -0.15465783536E+03  0.19296991172E+03  0.00000000000E+00 0.  1.
          5    1    4    4  501    0  0.25743885930E+01 -0.43407685916E+01 -0.21191585846E+02  0.22181646901E+02  0.41800000000E+01 0. -1.
         -5    1    4    4    0  501  0.14398887873E+03 -0.14753207758E+03  0.14949952725E+03  0.25468822541E+03  0.41800000000E+01 0. -1.
</event>
<event>
11    1  0.7157190E-009  0.1856025E+03  0.7561462E-02  0.1065199E+00
         22   -1    0    0    0    0  0.00000000000E+00  0.00000000000E+00  0.12244966147E+04  0.12244966147E+04  0.00000000000E+00 0. -1.
         22   -1    0    0    0    0 -0.00000000000E+00 -0.00000000000E+00 -0.29962426107E+03  0.29962426107E+03  0.00000000000E+00 0.  1.
         24    2    1    2    0    0  0.27112444366E+02 -0.12997466654E+02 -0.16850077843E+03  0.18893367951E+03  0.79996275794E+02 0.  0.
         25    2    1    2    0    0 -0.15716318091E+03  0.51968816011E+02 -0.22166581439E+02  0.20866364325E+03  0.12509250741E+03 0.  0.
        -24    2    1    2    0    0  0.13005073654E+03 -0.38971349357E+02  0.11155397135E+04  0.11265235531E+04  0.78705164748E+02 0.  0.
        -11    1    3    3    0    0  0.87694385478E+00 -0.37390792235E+01 -0.15971073736E+03  0.15975690712E+03  0.00000000000E+00 0.  1.
         12    1    3    3    0    0  0.26235500511E+02 -0.92583874306E+01 -0.87900410694E+01  0.29176772386E+02  0.00000000000E+00 0. -1.
         11    1    5    5    0    0  0.11168911625E+03 -0.57818444883E+01  0.66010858728E+03  0.66951567227E+03  0.00000000000E+00 0. -1.
        -12    1    5    5    0    0  0.18361620288E+02 -0.33189504869E+02  0.45543112627E+03  0.45700788079E+03  0.00000000000E+00 0.  1.
          5    1    4    4  501    0 -0.10399485061E+02 -0.85679886590E+01  0.36678886404E+02  0.39298509221E+02  0.41800000000E+01 0.  1.
         -5    1    4    4    0  501 -0.14676369584E+03  0.60536804670E+02 -0.58845467843E+02  0.16936513403E+03  0.41800000000E+01 0.  1.
</event>
<event>
11    1  0.7157190E-009  0.1400286E+03  0.7561462E-02  0.1107527E+00
         22   -1    0    0    0    0  0.00000000000E+00  0.00000000000E+00  0.59887694386E+03  0.59887694386E+03  0.00000000000E+00 0. -1.
         22   -1    0    0    0    0 -0.00000000000E+00 -0.00000000000E+00 -0.20001211754E+03  0.20001211754E+03  0.00000000000E+00 0.  1.
         24    2    1    2    0    0  0.64771773590E+01 -0.87494412210E+01 -0.16528263352E+03  0.18415519832E+03  0.80475347625E+02 0.  0.
         25    2    1    2    0    0 -0.66958234154E+02  0.22058901158E+01  0.29353340176E+03  0.32604161525E+03  0.12511197327E+03 0.  0.
        -24    2    1    2    0    0  0.60481056795E+02  0.65435511052E+01  0.27061405809E+03  0.28869224783E+03  0.80065405957E+02 0.  0.
        -11    1    3    3    0    0  0.11631260174E+02  0.10457850276E+02 -0.16343609950E+03  0.16418285984E+03  0.00000000000E+00 0.  1.
         12    1    3    3    0    0 -0.51540828154E+01 -0.19207291497E+02 -0.18465340214E+01  0.19972338476E+02  0.00000000000E+00 0. -1.
         13    1    5    5    0    0 -0.19105632089E+02  0.35104445085E+01  0.75264397693E+02  0.77730804435E+02  0.00000000000E+00 0. -1.
        -14    1    5    5    0    0  0.79586688884E+02  0.30331065968E+01  0.19534966040E+03  0.21096144340E+03  0.00000000000E+00 0.  1.
          5    1    4    4  501    0 -0.89248048092E+02 -0.24176616548E+02  0.13465505096E+03  0.16339883116E+03  0.41800000000E+01 0.  1.
         -5    1    4    4    0  501  0.22289813938E+02  0.26382506664E+02  0.15887835081E+03  0.16264278409E+03  0.41800000000E+01 0.  1.
</event>
<event>
11    1  0.7157190E-009  0.1573461E+03  0.7561462E-02  0.1089600E+00
         22   -1    0    0    0    0  0.00000000000E+00  0.00000000000E+00  0.70774206430E+03  0.70774206430E+03  0.00000000000E+00 0.  1.
         22   -1    0    0    0    0 -0.00000000000E+00 -0.00000000000E+00 -0.11299239017E+04  0.11299239017E+04  0.00000000000E+00 0. -1.
         24    2    1    2    0    0 -0.53889726448E+01 -0.95450775209E+02 -0.10910351628E+04  0.10980484137E+04  0.78820688230E+02 0.  0.
         25    2    1    2    0    0  0.33738679858E+02  0.85530499740E+02  0.15789108975E+03  0.22142674257E+03  0.12508573539E+03 0.  0.
        -24    2    1    2    0    0 -0.28349707213E+02  0.99202754696E+01  0.51096223560E+03  0.51819080974E+03  0.80852899292E+02 0.  0.
        -13    1    3    3    0    0  0.24841434146E+02 -0.11244488654E+02 -0.12833752816E+03  0.13120234948E+03  0.00000000000E+00 0.  1.
         14    1    3    3    0    0 -0.30230406791E+02 -0.84206286555E+02 -0.96269763460E+03  0.96684606420E+03  0.00000000000E+00 0. -1.
         11    1    5    5    0    0 -0.13080987470E+02 -0.24262691417E+02  0.64258611579E+02  0.69921095458E+02  0.00000000000E+00 0. -1.
        -12    1    5    5    0    0 -0.15268719743E+02  0.34182966887E+02  0.44670362403E+03  0.44826971428E+03  0.00000000000E+00 0.  1.
          5    1    4    4  501    0  0.34179045234E+02  0.11036577170E+03  0.82747687673E+02  0.14217405851E+03  0.41800000000E+01 0. -1.
         -5    1    4    4    0  501 -0.44036537597E+00 -0.24835271964E+02  0.75143402079E+02  0.79252684064E+02  0.41800000000E+01 0. -1.
</event>
<event>
11    1  0.7157190E-009  0.2292097E+03  0.7561462E-02  0.1035597E+00
         22   -1    0    0    0    0  0.00000000000E+00  0.00000000000E+00  0.69579302211E+03  0.69579302211E+03  0.00000000000E+00 0. -1.
         22   -1    0    0    0    0 -0.00000000000E+00 -0.00000000000E+00 -0.16173710824E+04  0.16173710824E+04  0.00000000000E+00 0. -1.
        -24    2    1    2    0    0  0.40558346687E+02 -0.69353584344E+02 -0.15273432641E+04  0.15313946437E+04  0.77053286952E+02 0.  0.
         25    2    1    2    0    0  0.10478233657E+03 -0.86783278538E+02  0.69166190129E+02  0.19733777511E+03  0.12509020800E+03 0.  0.
         24    2    1    2    0    0 -0.14534068326E+03  0.15613686288E+03  0.53659901372E+03  0.58443168573E+03  0.90106934237E+02 0.  0.
        -11    1    5    5    0    0 -0.31244495059E+02  0.39258431753E+02  0.48715764274E+02  0.69933315551E+02  0.00000000000E+00 0.  1.
         12    1    5    5    0    0 -0.11409618820E+03  0.11687843113E+03  0.48788324945E+03  0.51449837018E+03  0.00000000000E+00 0. -1.
         11    1    3    3    0    0  0.26450847395E+02 -0.80525714146E+02 -0.95074571924E+03  0.95451634906E+03  0.00000000000E+00 0. -1.
        -12    1    3    3    0    0  0.14107499292E+02  0.11172129803E+02 -0.57659754488E+03  0.57687829461E+03  0.00000000000E+00 0.  1.
          5    1    4    4  501    0  0.36998847619E+02 -0.10331219285E+03  0.64339066077E+02  0.12727651685E+03  0.41800000000E+01 0.  1.
         -5    1    4    4    0  501  0.67783488954E+02  0.16528914312E+02  0.48271240527E+01  0.70061258265E+02  0.41800000000E+01 0.  1.
</event>
<event>
11    1  0.7157190E-009  0.1677331E+03  0.7561462E-02  0.1080021E+00
         22   -1    0    0    0    0  0.00000000000E+00  0.00000000000E+00  0.52455898213E+03  0.52455898213E+03  0.00000000000E+00 0. -1.
         22   -1    0    0    0    0 -0.00000000000E+00 -0.00000000000E+00 -0.22023122791E+04  0.22023122791E+04  0.00000000000E+00 0.  1.
        -24    2    1    2    0    0 -0.62715460323E+01  0.34837477224E+02 -0.20629818458E+04  0.20643892709E+04  0.67498026075E+02 0.  0.
         25    2    1    2    0    0  0.91627429719E+02 -0.10349959019E+03 -0.59042067189E+02  0.19555350536E+03  0.12508979460E+03 0.  0.
         24    2    1    2    0    0 -0.85355883687E+02  0.68662112970E+02  0.44427061606E+03  0.46692848496E+03  0.92982348483E+02 0.  0.
        -11    1    5    5    0    0 -0.94619668715E+02  0.28790257908E+02  0.26023359023E+03  0.27839411298E+03  0.00000000000E+00 0.  1.
         12    1    5    5    0    0  0.92637850281E+01  0.39871855062E+02  0.18403702583E+03  0.18853437197E+03  0.00000000000E+00 0. -1.
         13    1    3    3    0    0  0.27088129476E+02 -0.10619080391E+01 -0.68460624012E+03  0.68514275769E+03  0.00000000000E+00 0. -1.
        -14    1    3    3    0    0 -0.33359675508E+02  0.35899385263E+02 -0.13783756057E+04  0.13792465132E+04  0.00000000000E+00 0.  1.
          5    1    4    4  501    0  0.10924695219E+03 -0.46904551565E+02 -0.11622541256E+02  0.11953028648E+03  0.41800000000E+01 0.  1.
         -5    1    4    4    0  501 -0.17619522468E+02 -0.56595038628E+02 -0.47419525933E+02  0.76023218881E+02  0.41800000000E+01 0.  1.
</event>
<event>
11    1  0.7157190E-009  0.1427530E+03  0.7561462E-02  0.1104523E+00
         22   -1    0    0    0    0  0.00000000000E+00  0.00000000000E+00  0.17213230212E+03  0.17213230212E+03  0.00000000000E+00 0. -1.
         22   -1    0    0    0    0 -0.00000000000E+00 -0.00000000000E+00 -0.37855010176E+03  0.37855010176E+03  0.00000000000E+00 0.  1.
         24    2    1    2    0    0  0.10323296249E+02 -0.71623284787E+02 -0.18512666199E+03  0.21661050660E+03  0.86091609458E+02 0.  0.
         25    2    1    2    0    0  0.13035377966E+02  0.63218236355E+02 -0.13385747746E+03  0.19424658517E+03  0.12508974815E+03 0.  0.
        -24    2    1    2    0    0 -0.23358674214E+02  0.84050484318E+01  0.11256633981E+03  0.13982531212E+03  0.79143316526E+02 0.  0.
        -11    1    3    3    0    0 -0.15968232709E+02 -0.55758462041E+02 -0.17486673613E+03  0.18423454060E+03  0.00000000000E+00 0.  1.
         12    1    3    3    0    0  0.26291528958E+02 -0.15864822746E+02 -0.10259925863E+02  0.32375966000E+02  0.00000000000E+00 0. -1.
         11    1    5    5    0    0  0.11528622649E+02 -0.19645513129E+02  0.83260812687E+02  0.86320439385E+02  0.00000000000E+00 0. -1.
        -12    1    5    5    0    0 -0.34887296863E+02  0.28050561560E+02  0.29305527120E+02  0.53504872732E+02  0.00000000000E+00 0.  1.
          5    1    4    4  501    0  0.99262878802E+01  0.18395112875E+01  0.23143806599E+02  0.25593420575E+02  0.41800000000E+01 0. -1.
         -5    1    4    4    0  501  0.31090900853E+01  0.61378725068E+02 -0.15700128405E+03  0.16865316459E+03  0.41800000000E+01 0. -1.
</event>
<event>
11    1  0.7157190E-009  0.1675735E+03  0.7561462E-02  0.1080163E+00
         22   -1    0    0    0    0  0.00000000000E+00  0.00000000000E+00  0.31551518159E+03  0.31551518159E+03  0.00000000000E+00 0. -1.
         22   -1    0    0    0    0 -0.00000000000E+00 -0.00000000000E+00 -0.22270158204E+04  0.22270158204E+04  0.00000000000E+00 0. -1.
        -24    2    1    2    0    0  0.42066225463E+02  0.10358545011E+03 -0.16257106416E+04  0.16314756857E+04  0.79235786765E+02 0.  0.
         25    2    1    2    0    0 -0.28820991244E+02 -0.10716625324E+03 -0.58070307496E+03  0.60430006193E+03  0.12508896120E+03 0.  0.
         24    2    1    2    0    0 -0.13245234218E+02  0.35808031247E+01  0.29491307775E+03  0.30675525439E+03  0.83287479766E+02 0.  0.
        -13    1    5    5    0    0 -0.44545538162E+02  0.18782274627E+02  0.19693070219E+03  0.20277766217E+03  0.00000000000E+00 0.  1.
         14    1    5    5    0    0  0.31300303944E+02 -0.15201471502E+02  0.97982375555E+02  0.10397759221E+03  0.00000000000E+00 0. -1.
         13    1    3    3    0    0 -0.21613406230E+01  0.58433594617E+02 -0.11629051812E+04  0.11643743457E+04  0.00000000000E+00 0. -1.
        -14    1    3    3    0    0  0.44227566086E+02  0.45151855494E+02 -0.46280546037E+03  0.46710133997E+03  0.00000000000E+00 0.  1.
          5    1    4    4  501    0 -0.13369247987E+02  0.27884543373E+02 -0.11194165178E+03  0.11620968270E+03  0.41800000000E+01 0. -1.
         -5    1    4    4    0  501 -0.15451743257E+02 -0.13505079661E+03 -0.46876142318E+03  0.48809037923E+03  0.41800000000E+01 0. -1.
</event>
<event>
11    1  0.7157190E-009  0.1668726E+03  0.7561462E-02  0.1080786E+00
         22   -1    0    0    0    0  0.00000000000E+00  0.00000000000E+00  0.12173904038E+03  0.12173904038E+03  0.00000000000E+00 0.  1.
         22   -1    0    0    0    0 -0.00000000000E+00 -0.00000000000E+00 -0.48266053615E+03  0.48266053615E+03  0.00000000000E+00 0.  1.
        -24    2    1    2    0    0 -0.25335271850E+02 -0.10089638284E+03 -0.28398766251E+03  0.31315149795E+03  0.81196749561E+02 0.  0.
         25    2    1    2    0    0  0.18528065209E+02  0.13700255239E+03 -0.79230441056E+02  0.20257914584E+03  0.12509140249E+03 0.  0.
         24    2    1    2    0    0  0.68072066410E+01 -0.36106169550E+02  0.22966078079E+01  0.88668932740E+02  0.80665430539E+02 0.  0.
        -13    1    5    5    0    0 -0.18615434248E+02 -0.12919094688E+02  0.34674643974E+02  0.41421834031E+02  0.00000000000E+00 0.  1.
         14    1    5    5    0    0  0.25422640889E+02 -0.23187074862E+02 -0.32378036166E+02  0.47247098709E+02  0.00000000000E+00 0. -1.
         11    1    3    3    0    0  0.22311060573E+02 -0.11492574676E+02 -0.10016304155E+03  0.10325937047E+03  0.00000000000E+00 0. -1.
        -12    1    3    3    0    0 -0.47646332423E+02 -0.89403808166E+02 -0.18382462096E+03  0.20989212749E+03  0.00000000000E+00 0.  1.
          5    1    4    4  501    0  0.67531044043E+02  0.10925641586E+03 -0.66489307552E+02  0.14469176457E+03  0.41800000000E+01 0. -1.
         -5    1    4    4    0  501 -0.49002978834E+02  0.27746136536E+02 -0.12741133503E+02  0.57887381269E+02  0.41800000000E+01 0. -1.
</event>
<event>
11    1  0.7157190E-009  0.1523807E+03  0.7561462E-02  0.1094471E+00
         22   -1    0    0    0    0  0.00000000000E+00  0.00000000000E+00  0.46035462413E+03  0.46035462413E+03  0.00000000000E+00 0.  1.
         22   -1    0    0    0    0 -0.00000000000E+00 -0.00000000000E+00 -0.19058143210E+03  0.19058143210E+03  0.00000000000E+00 0.  1.
         24    2    1    2    0    0 -0.10243526551E+03  0.30221061733E+02 -0.89126780671E+02  0.16070921000E+03  0.80483358249E+02 0.  0.
         25    2    1    2    0    0  0.48184634282E+02  0.21001629217E+02  0.24126241158E+02  0.13780936860E+03  0.12508604699E+03 0.  0.
        -24    2    1    2    0    0  0.54250631223E+02 -0.51222690950E+02  0.33477373154E+03  0.35241747763E+03  0.80979825593E+02 0.  0.
        -11    1    3    3    0    0 -0.11223727993E+03  0.40296944546E+02 -0.83442895637E+02  0.14554644474E+03  0.00000000000E+00 0.  1.
         12    1    3    3    0    0  0.98020144212E+01 -0.10075882814E+02 -0.56838850337E+01  0.15162765258E+02  0.00000000000E+00 0. -1.
         13    1    5    5    0    0 -0.18658201351E+02 -0.27732534610E+02  0.95345970549E+02  0.10103502389E+03  0.00000000000E+00 0. -1.
        -14    1    5    5    0    0  0.72908832574E+02 -0.23490156340E+02  0.23942776099E+03  0.25138245374E+03  0.00000000000E+00 0.  1.
          5    1    4    4  501    0  0.83807722610E+00 -0.49986072518E+02  0.66070971147E+01  0.50600750503E+02  0.41800000000E+01 0. -1.
         -5    1    4    4    0  501  0.47346557056E+02  0.70987701735E+02  0.17519144043E+02  0.87208618099E+02  0.41800000000E+01 0. -1.
</event>
<event>
11    1  0.7157190E-009  0.7158065E+03  0.7561462E-02  0.9009331E-01
         22   -1    0    0    0    0  0.00000000000E+00  0.00000000000E+00  0.20788731621E+04  0.20788731621E+04  0.00000000000E+00 0.  1.
         22   -1    0    0    0    0 -0.00000000000E+00 -0.00000000000E+00 -0.28041702913E+03  0.28041702913E+03  0.00000000000E+00 0. -1.
        -24    2    1    2    0    0 -0.53025471106E+02  0.16172993590E+02  0.79746920619E+02  0.12582017394E+03  0.79986739624E+02 0.  0.
         25    2    1    2    0    0 -0.46102609908E+03 -0.51711166384E+03  0.83836857216E+03  0.10947413088E+04  0.12508850269E+03 0.  0.
         24    2    1    2    0    0  0.51405157018E+03  0.50093867025E+03  0.88034064017E+03  0.11387287085E+04  0.80714686146E+02 0.  0.
        -13    1    5    5    0    0  0.40602383400E+02  0.45892203578E+02  0.11479381664E+03  0.13012404937E+03  0.00000000000E+00 0.  1.
         14    1    5    5    0    0  0.47344918678E+03  0.45504646667E+03  0.76554682353E+03  0.10086046591E+04  0.00000000000E+00 0. -1.
         13    1    3    3    0    0 -0.34378792202E+02 -0.14407847127E+01 -0.72123627043E+01  0.35156726093E+02  0.00000000000E+00 0. -1.
        -14    1    3    3    0    0 -0.18646678904E+02  0.17613778303E+02  0.86959283323E+02  0.90663447851E+02  0.00000000000E+00 0.  1.
          5    1    4    4  501    0 -0.20874742957E+03 -0.32073496390E+03  0.42041439440E+03  0.56851749475E+03  0.41800000000E+01 0.  1.
         -5    1    4    4    0  501 -0.25227866951E+03 -0.19637669994E+03  0.41795417776E+03  0.52622381405E+03  0.41800000000E+01 0.  1.
</event>
<event>
11    1  0.7157190E-009  0.1716863E+03  0.7561462E-02  0.1076573E+00
         22   -1    0    0    0    0  0.00000000000E+00  0.00000000000E+00  0.25658387107E+03  0.25658387107E+03  0.00000000000E+00 0.  1.
         22   -1    0    0    0    0 -0.00000000000E+00 -0.00000000000E+00 -0.13051086073E+04  0.13051086073E+04  0.00000000000E+00 0.  1.
        -24    2    1    2    0    0  0.10738626784E+03  0.44691748104E+02 -0.11652242908E+04  0.11746907049E+04  0.92851717094E+02 0.  0.
         25    2    1    2    0    0 -0.14490669107E+03 -0.93730263515E+01 -0.46803220283E+02  0.19729161737E+03  0.12509051969E+03 0.  0.
         24    2    1    2    0    0  0.37520423230E+02 -0.35318721753E+02  0.16350277484E+03  0.18971015613E+03  0.81250179651E+02 0.  0.
        -11    1    5    5    0    0  0.50964930971E+02 -0.52146066756E+02  0.10934608816E+03  0.13142755975E+03  0.00000000000E+00 0.  1.
         12    1    5    5    0    0 -0.13444507742E+02  0.16827345003E+02  0.54156686685E+02  0.58282596381E+02  0.00000000000E+00 0. -1.
         13    1    3    3    0    0  0.43823072781E+01  0.25913740130E+02 -0.75412336607E+02  0.79860797999E+02  0.00000000000E+00 0. -1.
        -14    1    3    3    0    0  0.10300396056E+03  0.18778007974E+02 -0.10898119542E+04  0.10948299069E+04  0.00000000000E+00 0.  1.
          5    1    4    4  501    0 -0.89516504233E+02  0.34656941202E+01 -0.89011517228E+02  0.12635560203E+03  0.41800000000E+01 0. -1.
         -5    1    4    4    0  501 -0.55390186836E+02 -0.12838720472E+02  0.42208296945E+02  0.70936015338E+02  0.41800000000E+01 0. -1.
</event>
<event>
11    1  0.7157190E-009  0.1259809E+03  0.7561462E-02  0.1124308E+00
         22   -1    0    0    0    0  0.00000000000E+00  0.00000000000E+00  0.39462928436E+03  0.39462928436E+03  0.00000000000E+00 0. -1.
         22   -1    0    0    0    0 -0.00000000000E+00 -0.00000000000E+00 -0.56592778985E+03  0.56592778985E+03  0.00000000000E+00 0. -1.
         24    2    1    2    0    0 -0.29940412714E+02 -0.11912361518E+02 -0.48618485504E+03  0.49380361257E+03  0.80174571042E+02 0.  0.
         25    2    1    2    0    0  0.40252610195E+02  0.18544228864E+02 -0.61722492566E+01  0.13285378532E+03  0.12509144880E+03 0.  0.
        -24    2    1    2    0    0 -0.10312197481E+02 -0.66318673468E+01  0.32105859881E+03  0.33389967631E+03  0.90884800087E+02 0.  0.
        -13    1    3    3    0    0  0.88823224457E+01  0.12776865521E+02 -0.19935099137E+02  0.25289367770E+02  0.00000000000E+00 0.  1.
         14    1    3    3    0    0 -0.38822735160E+02 -0.24689227039E+02 -0.46624975591E+03  0.46851424480E+03  0.00000000000E+00 0. -1.
         11    1    5    5    0    0  0.26562712752E+02  0.13758862040E+01  0.26495560561E+03  0.26628733300E+03  0.00000000000E+00 0. -1.
        -12    1    5    5    0    0 -0.36874910233E+02 -0.80077535508E+01  0.56102993199E+02  0.67612343307E+02  0.00000000000E+00 0.  1.
          5    1    4    4  501    0  0.64180433833E+02 -0.15175500368E+02 -0.41733941793E+02  0.78157649632E+02  0.41800000000E+01 0. -1.
         -5    1    4    4    0  501 -0.23927823638E+02  0.33719729232E+02  0.35561692537E+02  0.54696135692E+02  0.41800000000E+01 0. -1.
</event>
<event>
11    1  0.7157190E-009  0.1325247E+03  0.7561462E-02  0.1116205E+00
         22   -1    0    0    0    0  0.00000000000E+00  0.00000000000E+00  0.27067938662E+04  0.27067938662E+04  0.00000000000E+00 0.  1.
         22   -1    0    0    0    0 -0.00000000000E+00 -0.00000000000E+00 -0.19583037219E+03  0.19583037219E+03  0.00000000000E+00 0. -1.
         24    2    1    2    0    0 -0.89521763224E+01  0.44025950454E+02 -0.16968726068E+03  0.19489520975E+03  0.84687369629E+02 0.  0.
         25    2    1    2    0    0 -0.10175059598E+02 -0.17035976442E+02  0.30220803635E+03  0.32767488319E+03  0.12508947001E+03 0.  0.
        -24    2    1    2    0    0  0.19127235920E+02 -0.26989974012E+02  0.23784427184E+04  0.23800541455E+04  0.81078116809E+02 0.  0.
        -13    1    3    3    0    0 -0.46613077499E+01 -0.23111083305E+02 -0.20505436345E+02  0.31246165863E+02  0.00000000000E+00 0.  1.
         14    1    3    3    0    0 -0.42908685725E+01  0.67137033759E+02 -0.14918182433E+03  0.16364904389E+03  0.00000000000E+00 0. -1.
         13    1    5    5    0    0 -0.15933817097E+02  0.13843201123E+02  0.23778938983E+03  0.23872434870E+03  0.00000000000E+00 0. -1.
        -14    1    5    5    0    0  0.35061053017E+02 -0.40833175135E+02  0.21406533285E+04  0.21413297968E+04  0.00000000000E+00 0.  1.
          5    1    4    4  501    0  0.27226548270E+02 -0.55593895043E+02  0.22587678864E+03  0.23424295537E+03  0.41800000000E+01 0.  1.
         -5    1    4    4    0  501 -0.37401607868E+02  0.38557918601E+02  0.76331247719E+02  0.93431927821E+02  0.41800000000E+01 0.  1.
</event>
<event>
11    1  0.7157190E-009  0.1520543E+03  0.7561462E-02  0.1094798E+00
         22   -1    0    0    0    0  0.00000000000E+00  0.00000000000E+00  0.20817699078E+03  0.20817699078E+03  0.00000000000E+00 0.  1.
         22   -1    0    0    0    0 -0.00000000000E+00 -0.00000000000E+00 -0.82220304533E+03  0.82220304533E+03  0.00000000000E+00 0.  1.
        -24    2    1    2    0    0  0.64816410807E+01 -0.17213480791E+02 -0.68523791604E+03  0.69013140336E+03  0.79950214102E+02 0.  0.
         25    2    1    2    0    0 -0.60295757416E+01  0.10077031171E+03 -0.53566935587E+02  0.16940340721E+03  0.12504833577E+03 0.  0.
         24    2    1    2    0    0 -0.45206533907E+00 -0.83556830918E+02  0.12477879708E+03  0.17084522554E+03  0.81464068967E+02 0.  0.
        -11    1    5    5    0    0  0.81305889172E+01 -0.66801381090E+02  0.13395049293E+03  0.14990418790E+03  0.00000000000E+00 0.  1.
         12    1    5    5    0    0 -0.85826542562E+01 -0.16755449827E+02 -0.91716958479E+01  0.20941037647E+02  0.00000000000E+00 0. -1.
         11    1    3    3    0    0  0.13691534152E+02 -0.11048810710E+02 -0.29664599498E+02  0.34489459098E+02  0.00000000000E+00 0. -1.
        -12    1    3    3    0    0 -0.72098930710E+01 -0.61646700813E+01 -0.65557331654E+03  0.65564194427E+03  0.00000000000E+00 0.  1.
          5    1    4    4  501    0  0.57402538965E+01 -0.17405595649E+02 -0.46733951418E+02  0.50373007552E+02  0.41800000000E+01 0.  1.
         -5    1    4    4    0  501 -0.11769829638E+02  0.11817590736E+03 -0.68329841694E+01  0.11903039966E+03  0.41800000000E+01 0.  1.
</event>
<event>
11    1  0.7157190E-009  0.2027416E+03  0.7561462E-02  0.1052602E+00
         22   -1    0    0    0    0  0.00000000000E+00  0.00000000000E+00  0.19800423588E+04  0.19800423588E+04  0.00000000000E+00 0. -1.
         22   -1    0    0    0    0 -0.00000000000E+00 -0.00000000000E+00 -0.41555849547E+03  0.41555849547E+03  0.00000000000E+00 0. -1.
         24    2    1    2    0    0  0.59926744779E+02 -0.14983121662E+03 -0.36944273992E+03  0.41130737054E+03  0.81518137671E+02 0.  0.
         25    2    1    2    0    0  0.18317518524E+02  0.14122675270E+03  0.37412300688E+03  0.41939925600E+03  0.12508870650E+03 0.  0.
        -24    2    1    2    0    0 -0.78244263303E+02  0.86044639255E+01  0.15598035964E+04  0.15648942277E+04  0.98541783943E+02 0.  0.
        -13    1    3    3    0    0 -0.12311360657E+02  0.69491724751E+00 -0.14346911637E+02  0.18917885313E+02  0.00000000000E+00 0.  1.
         14    1    3    3    0    0  0.72238105436E+02 -0.15052613387E+03 -0.35509582828E+03  0.39238948523E+03  0.00000000000E+00 0. -1.
         11    1    5    5    0    0 -0.33408634445E+02 -0.20834862415E+02  0.12399217470E+04  0.12405467211E+04  0.00000000000E+00 0. -1.
        -12    1    5    5    0    0 -0.44835628858E+02  0.29439326341E+02  0.31988184933E+03  0.32434750667E+03  0.00000000000E+00 0.  1.
          5    1    4    4  501    0 -0.38868745575E+02  0.75985335778E+02  0.27317187420E+03  0.28622525376E+03  0.41800000000E+01 0. -1.
         -5    1    4    4    0  501  0.57186264099E+02  0.65241416918E+02  0.10095113269E+03  0.13317400224E+03  0.41800000000E+01 0. -1.
</event>
<event>
11    1  0.7157190E-009  0.1415113E+03  0.7561462E-02  0.1105882E+00
         22   -1    0    0    0    0  0.00000000000E+00  0.00000000000E+00  0.33481747507E+03  0.33481747507E+03  0.00000000000E+00 0.  1.
         22   -1    0    0    0    0 -0.00000000000E+00 -0.00000000000E+00 -0.12421035502E+04  0.12421035502E+04  0.00000000000E+00 0. -1.
        -24    2    1    2    0    0 -0.20871837495E+02  0.33981590296E+02 -0.11579861478E+04  0.11611420807E+04  0.75687719952E+02 0.  0.
         25    2    1    2    0    0  0.57147164451E+02 -0.83135084417E+02  0.17622278299E+02  0.16166912252E+03  0.12509644207E+03 0.  0.
         24    2    1    2    0    0 -0.36275326956E+02  0.49153494121E+02  0.23307779436E+03  0.25410982207E+03  0.80712936515E+02 0.  0.
        -13    1    5    5    0    0 -0.10101811124E+02  0.15183112362E+02  0.19763616580E+03  0.19847576054E+03  0.00000000000E+00 0.  1.
         14    1    5    5    0    0 -0.26173515832E+02  0.33970381759E+02  0.35441628554E+02  0.55634061531E+02  0.00000000000E+00 0. -1.
         13    1    3    3    0    0  0.37695840325E+01  0.48447071450E+01 -0.92735759640E+03  0.92737791248E+03  0.00000000000E+00 0. -1.
        -14    1    3    3    0    0 -0.24641421528E+02  0.29136883151E+02 -0.23062855139E+03  0.23376416820E+03  0.00000000000E+00 0.  1.
          5    1    4    4  501    0  0.16955526664E+02 -0.47336011173E+02 -0.52736931982E+02  0.72985232980E+02  0.41800000000E+01 0. -1.
         -5    1    4    4    0  501  0.40191637787E+02 -0.35799073244E+02  0.70359210281E+02  0.88683889543E+02  0.41800000000E+01 0. -1.
</event>
<event>
11    1  0.7157190E-009  0.1556862E+03  0.7561462E-02  0.1091206E+00
         22   -1    0    0    0    0  0.00000000000E+00  0.00000000000E+00  0.70252132484E+03  0.70252132484E+03  0.00000000000E+00 0.  1.
         22   -1    0    0    0    0 -0.00000000000E+00 -0.00000000000E+00 -0.75954237288E+03  0.75954237288E+03  0.00000000000E+00 0.  1.
        -24    2    1    2    0    0  0.90222362034E+02 -0.21409076225E+02 -0.71882276913E+03  0.72919832822E+03  0.80159873384E+02 0.  0.
         25    2    1    2    0    0 -0.80222991573E+02  0.55758395797E+02  0.16693730805E+03  0.23034805936E+03  0.12508971402E+03 0.  0.
         24    2    1    2    0    0 -0.99993704613E+01 -0.34349319572E+02  0.49486441304E+03  0.50251731015E+03  0.79705686994E+02 0.  0.
        -11    1    5    5    0    0 -0.43102308475E+02 -0.32579636194E+02  0.29052774461E+03  0.29550907275E+03  0.00000000000E+00 0.  1.
         12    1    5    5    0    0  0.33102938014E+02 -0.17696833783E+01  0.20433666843E+03  0.20700823740E+03  0.00000000000E+00 0. -1.
         13    1    3    3    0    0 -0.13326992939E+02  0.25894754700E+01 -0.14333506830E+03  0.14397658118E+03  0.00000000000E+00 0. -1.
        -14    1    3    3    0    0  0.10354935497E+03 -0.23998551695E+02 -0.57548770083E+03  0.58522174704E+03  0.00000000000E+00 0.  1.
          5    1    4    4  501    0 -0.86071994289E+00  0.76423694716E+02  0.77309851191E+02  0.10879157800E+03  0.41800000000E+01 0. -1.
         -5    1    4    4    0  501 -0.79362271630E+02 -0.20665298919E+02  0.89627456860E+02  0.12155648136E+03  0.41800000000E+01 0. -1.
</event>
<event>
11    1  0.7157190E-009  0.1402998E+03  0.7561462E-02  0.1107224E+00
         22   -1    0    0    0    0  0.00000000000E+00  0.00000000000E+00  0.15992527256E+04  0.15992527256E+04  0.00000000000E+00 0.  1.
         22   -1    0    0    0    0 -0.00000000000E+00 -0.00000000000E+00 -0.51637155389E+03  0.51637155389E+03  0.00000000000E+00 0. -1.
        -24    2    1    2    0    0  0.35174674843E+02 -0.55159812188E+02 -0.45958269173E+03  0.47157868317E+03  0.83008079434E+02 0.  0.
         25    2    1    2    0    0 -0.67733769191E+02 -0.81834153007E+01  0.54696102446E+02  0.15261862438E+03  0.12508376837E+03 0.  0.
         24    2    1    2    0    0  0.32559094348E+02  0.63343227489E+02  0.14877677609E+04  0.14914269719E+04  0.76348168640E+02 0.  0.
        -11    1    5    5    0    0  0.40789151859E+02  0.69444061734E+02  0.14517048498E+04  0.14539371387E+04  0.00000000000E+00 0.  1.
         12    1    5    5    0    0 -0.82300575110E+01 -0.61008342454E+01  0.36062911196E+02  0.37489833143E+02  0.00000000000E+00 0. -1.
         11    1    3    3    0    0  0.24665366169E+02 -0.44004525381E+02 -0.45139053619E+03  0.45420061064E+03  0.00000000000E+00 0. -1.
        -12    1    3    3    0    0  0.10509308674E+02 -0.11155286807E+02 -0.81921555422E+01  0.17378072534E+02  0.00000000000E+00 0.  1.
          5    1    4    4  501    0 -0.77816142579E+02 -0.17801226426E+02  0.86418622131E+02  0.11771952412E+03  0.41800000000E+01 0. -1.
         -5    1    4    4    0  501  0.10082373388E+02  0.96178111251E+01 -0.31722519685E+02  0.34899100262E+02  0.41800000000E+01 0. -1.
</event>
<event>
11    1  0.7157190E-009  0.1554344E+03  0.7561462E-02  0.1091452E+00
         22   -1    0    0    0    0  0.00000000000E+00  0.00000000000E+00  0.14234388594E+04  0.14234388594E+04  0.00000000000E+00 0. -1.
         22   -1    0    0    0    0 -0.00000000000E+00 -0.00000000000E+00 -0.30818714902E+03  0.30818714902E+03  0.00000000000E+00 0. -1.
        -24    2    1    2    0    0  0.91940864918E+01  0.14817473197E+02 -0.28377000628E+03  0.29626868513E+03  0.83340437880E+02 0.  0.
         25    2    1    2    0    0 -0.76533463603E+02 -0.72680256879E+02  0.45155786654E+03  0.48030336807E+03  0.12508807996E+03 0.  0.
         24    2    1    2    0    0  0.67339377111E+02  0.57862783683E+02  0.94746385008E+03  0.95505395520E+03  0.80979112656E+02 0.  0.
        -11    1    5    5    0    0  0.33930713584E+02  0.19394328541E+02  0.12395126317E+03  0.12996672245E+03  0.00000000000E+00 0.  1.
         12    1    5    5    0    0  0.33408663527E+02  0.38468455142E+02  0.82351258691E+03  0.82508723274E+03  0.00000000000E+00 0. -1.
         11    1    3    3    0    0  0.26886021046E+02 -0.21306921937E+02 -0.20470816294E+03  0.20756270143E+03  0.00000000000E+00 0. -1.
        -12    1    3    3    0    0 -0.17691934554E+02  0.36124395133E+02 -0.79061843336E+02  0.88705983698E+02  0.00000000000E+00 0.  1.
          5    1    4    4  501    0  0.32055963748E+02 -0.28820213052E+02  0.16781440588E+03  0.17331282905E+03  0.41800000000E+01 0. -1.
         -5    1    4    4    0  501 -0.10858942735E+03 -0.43860043827E+02  0.28374346066E+03  0.30699053902E+03  0.41800000000E+01 0. -1.
</event>
<event>
11    1  0.7157190E-009  0.1553262E+03  0.7561462E-02  0.1091557E+00
         22   -1    0    0    0    0  0.00000000000E+00  0.00000000000E+00  0.14953207016E+03  0.14953207016E+03  0.00000000000E+00 0.  1.
         22   -1    0    0    0    0 -0.00000000000E+00 -0.00000000000E+00 -0.99253937024E+03  0.99253937024E+03  0.00000000000E+00 0. -1.
         24    2    1    2    0    0 -0.95441625130E+01 -0.28277221026E+02 -0.64487218419E+03  0.65078299996E+03  0.82265951823E+02 0.  0.
         25    2    1    2    0    0  0.93794802224E+02  0.61513201043E+02 -0.29582031509E+03  0.34020423779E+03  0.12509166945E+03 0.  0.
        -24    2    1    2    0    0 -0.84250639711E+02 -0.33235980018E+02  0.97685199195E+02  0.15108420265E+03  0.71282799388E+02 0.  0.
        -11    1    3    3    0    0  0.86595099128E+01 -0.61856315271E+01 -0.81155063766E+01  0.13383220579E+02  0.00000000000E+00 0.  1.
         12    1    3    3    0    0 -0.18203672426E+02 -0.22091589499E+02 -0.63675667781E+03  0.63739977938E+03  0.00000000000E+00 0. -1.
         11    1    5    5    0    0 -0.87189528556E+02 -0.10669902060E+02  0.57759776292E+02  0.10512874230E+03  0.00000000000E+00 0. -1.
        -12    1    5    5    0    0  0.29388888450E+01 -0.22566077957E+02  0.39925422904E+02  0.45955460351E+02  0.00000000000E+00 0.  1.
          5    1    4    4  501    0 -0.33498203380E+00 -0.18102156606E+02  0.11664778451E+01  0.18618092204E+02  0.41800000000E+01 0. -1.
         -5    1    4    4    0  501  0.94129784258E+02  0.79615357649E+02 -0.29698679293E+03  0.32158614559E+03  0.41800000000E+01 0. -1.
</event>
<event>
11    1  0.7157190E-009  0.1726996E+03  0.7561462E-02  0.1075706E+00
         22   -1    0    0    0    0  0.00000000000E+00  0.00000000000E+00  0.96377293407E+03  0.96377293407E+03  0.00000000000E+00 0.  1.
         22   -1    0    0    0    0 -0.00000000000E+00 -0.00000000000E+00 -0.84224097665E+03  0.84224097665E+03  0.00000000000E+00 0.  1.
        -24    2    1    2    0    0  0.87269312028E+01  0.38778479749E+02 -0.76065802823E+03  0.76519548733E+03  0.73099713380E+02 0.  0.
         25    2    1    2    0    0  0.95941985571E+02  0.22171044576E+02  0.13275671941E+02  0.15975062068E+03  0.12509035747E+03 0.  0.
         24    2    1    2    0    0 -0.10466891677E+03 -0.60949524325E+02  0.86891431371E+03  0.88106780271E+03  0.81227838490E+02 0.  0.
        -11    1    5    5    0    0 -0.95690079765E+02 -0.15939757783E+02  0.66597440726E+03  0.67300265851E+03  0.00000000000E+00 0.  1.
         12    1    5    5    0    0 -0.89788370091E+01 -0.45009766542E+02  0.20293990645E+03  0.20806514420E+03  0.00000000000E+00 0. -1.
         11    1    3    3    0    0 -0.11674990359E+02  0.47573030357E+02 -0.29757263183E+03  0.30157746904E+03  0.00000000000E+00 0. -1.
        -12    1    3    3    0    0  0.20401921562E+02 -0.87945506086E+01 -0.46308539640E+03  0.46361801829E+03  0.00000000000E+00 0.  1.
          5    1    4    4  501    0  0.70764804842E+02 -0.15441665108E+02  0.60308104806E+02  0.94343216666E+02  0.41800000000E+01 0.  1.
         -5    1    4    4    0  501  0.25177180729E+02  0.37612709684E+02 -0.47032432865E+02  0.65407404018E+02  0.41800000000E+01 0.  1.
</event>
<event>
11    1  0.7157190E-009  0.1680249E+03  0.7561462E-02  0.1079763E+00
         22   -1    0    0    0    0  0.00000000000E+00  0.00000000000E+00  0.13544149056E+04  0.13544149056E+04  0.00000000000E+00 0. -1.
         22   -1    0    0    0    0 -0.00000000000E+00 -0.00000000000E+00 -0.62106839882E+02  0.62106839882E+02  0.00000000000E+00 0.  1.
         24    2    1    2    0    0  0.12908788063E+03  0.86523488277E+02  0.18512232986E+03  0.25463760420E+03  0.80125136583E+02 0.  0.
         25    2    1    2    0    0  0.94528782550E+01 -0.88392266876E+02  0.27983600027E+03  0.31915206839E+03  0.12508919202E+03 0.  0.
        -24    2    1    2    0    0 -0.13854075889E+03  0.18687785990E+01  0.82734973561E+03  0.84273207290E+03  0.80577462627E+02 0.  0.
        -11    1    3    3    0    0  0.49767163825E+02 -0.89104274812E+01  0.59057228578E+02  0.77742668853E+02  0.00000000000E+00 0.  1.
         12    1    3    3    0    0  0.79320716807E+02  0.95433915758E+02  0.12606510128E+03  0.17689493535E+03  0.00000000000E+00 0. -1.
         13    1    5    5    0    0 -0.12956443498E+03  0.15138328777E+02  0.80338027261E+03  0.81390169814E+03  0.00000000000E+00 0. -1.
        -14    1    5    5    0    0 -0.89763239079E+01 -0.13269550178E+02  0.23969462995E+02  0.28830374765E+02  0.00000000000E+00 0.  1.
          5    1    4    4  501    0 -0.17486658382E+02 -0.11425156611E+03  0.21846745354E+03  0.24719365735E+03  0.41800000000E+01 0.  1.
         -5    1    4    4    0  501  0.26939536637E+02  0.25859299236E+02  0.61368546731E+02  0.71958411038E+02  0.41800000000E+01 0.  1.
</event>
<event>
11    1  0.7157190E-009  0.1823176E+03  0.7561462E-02  0.1067783E+00
         22   -1    0    0    0    0  0.00000000000E+00  0.00000000000E+00  0.62559049912E+03  0.62559049912E+03  0.00000000000E+00 0. -1.
         22   -1    0    0    0    0 -0.00000000000E+00 -0.00000000000E+00 -0.54163792121E+03  0.54163792121E+03  0.00000000000E+00 0. -1.
         24    2    1    2    0    0 -0.56305423877E+01 -0.50163646660E+02 -0.47716689826E+03  0.48617325819E+03  0.78282141852E+02 0.  0.
         25    2    1    2    0    0  0.86670921422E+02 -0.65610365122E+02  0.10379354546E+03  0.19553375001E+03  0.12507509218E+03 0.  0.
        -24    2    1    2    0    0 -0.81040379034E+02  0.11577401178E+03  0.45732593072E+03  0.48552141213E+03  0.81319554217E+02 0.  0.
        -13    1    3    3    0    0 -0.17007729979E+02  0.15164237810E+02 -0.19461773192E+03  0.19594713207E+03  0.00000000000E+00 0.  1.
         14    1    3    3    0    0  0.11377187592E+02 -0.65327884470E+02 -0.28254916634E+03  0.29022612612E+03  0.00000000000E+00 0. -1.
         11    1    5    5    0    0 -0.64469419091E+02  0.98715353698E+02  0.44145842604E+03  0.45693168962E+03  0.00000000000E+00 0. -1.
        -12    1    5    5    0    0 -0.16570959943E+02  0.17058658084E+02  0.15867504676E+02  0.28589722519E+02  0.00000000000E+00 0.  1.
          5    1    4    4  501    0  0.48488173971E+02  0.32820653467E+02  0.25362912978E+02  0.63945664933E+02  0.41800000000E+01 0.  1.
         -5    1    4    4    0  501  0.38182747452E+02 -0.98431018589E+02  0.78430632477E+02  0.13158808508E+03  0.41800000000E+01 0.  1.
</event>
<event>
11    1  0.7157190E-009  0.1890872E+03  0.7561462E-02  0.1062521E+00
         22   -1    0    0    0    0  0.00000000000E+00  0.00000000000E+00  0.37151273431E+03  0.37151273431E+03  0.00000000000E+00 0.  1.
         22   -1    0    0    0    0 -0.00000000000E+00 -0.00000000000E+00 -0.27394868963E+03  0.27394868963E+03  0.00000000000E+00 0. -1.
        -24    2    1    2    0    0 -0.13081596809E+02 -0.36051619132E+01 -0.13339866964E+03  0.15819054516E+03  0.83934010687E+02 0.  0.
         25    2    1    2    0    0  0.12672219207E+03 -0.78485072931E+02 -0.13567466023E+02  0.19507502127E+03  0.12510702280E+03 0.  0.
         24    2    1    2    0    0 -0.11364059526E+03  0.82090234844E+02  0.24453018034E+03  0.29219585751E+03  0.77009210532E+02 0.  0.
        -11    1    5    5    0    0 -0.89865314758E+02  0.96101113927E+02  0.21230465454E+03  0.24976882358E+03  0.00000000000E+00 0.  1.
         12    1    5    5    0    0 -0.23775280499E+02 -0.14010879083E+02  0.32225525794E+02  0.42427033930E+02  0.00000000000E+00 0. -1.
         13    1    3    3    0    0  0.18430319976E+02 -0.20831787363E+02 -0.11405830128E+03  0.11740075021E+03  0.00000000000E+00 0. -1.
        -14    1    3    3    0    0 -0.31511916784E+02  0.17226625450E+02 -0.19340368354E+02  0.40789794948E+02  0.00000000000E+00 0.  1.
          5    1    4    4  501    0  0.75825519881E+02 -0.28446964127E+02  0.53413864800E+02  0.97104338657E+02  0.41800000000E+01 0.  1.
         -5    1    4    4    0  501  0.50896672185E+02 -0.50038108804E+02 -0.66981330822E+02  0.97970682609E+02  0.41800000000E+01 0.  1.
</event>
<event>
11    1  0.8318416E-009  0.1595726E+03  0.7561462E-02  0.1087480E+00
         22   -1    0    0    0    0  0.00000000000E+00  0.00000000000E+00  0.92798131828E+03  0.92798131828E+03  0.00000000000E+00 0. -1.
         22   -1    0    0    0    0 -0.00000000000E+00 -0.00000000000E+00 -0.17970024925E+03  0.17970024925E+03  0.00000000000E+00 0.  1.
         24    2    1    2    0    0  0.91549755524E+02  0.18856999685E+02 -0.11297345814E+03  0.16725130904E+03  0.80455291673E+02 0.  0.
         25    2    1    2    0    0  0.20824122623E+02 -0.30113744379E+00  0.87502386442E+02  0.15408923970E+03  0.12511231511E+03 0.  0.
        -24    2    1    2    0    0 -0.11237387815E+03 -0.18555862241E+02  0.77375214072E+03  0.78634101879E+03  0.81655459367E+02 0.  0.
        -13    1    3    3    0    0  0.86164214558E+02  0.22934312496E+02 -0.12494971928E+03  0.15350142314E+03  0.00000000000E+00 0.  1.
         14    1    3    3    0    0  0.53855409663E+01 -0.40773128114E+01  0.11976261139E+02  0.13749885895E+02  0.00000000000E+00 0. -1.
         11    1    5    5    0    0 -0.12507576412E+03 -0.12814646180E+02  0.71390035441E+03  0.72488749331E+03  0.00000000000E+00 0. -1.
        -12    1    5    5    0    0  0.12701885977E+02 -0.57412160610E+01  0.59851786312E+02  0.61453525481E+02  0.00000000000E+00 0.  1.
          5    1    4    4  501    0 -0.26842881216E+02  0.44348166652E+02  0.68373062513E+02  0.85904878993E+02  0.41800000000E+01 0.  1.
         -5    1    4    4    0  501  0.47667003840E+02 -0.44649304095E+02  0.19129323929E+02  0.68184360709E+02  0.41800000000E+01 0.  1.
</event>
<event>
11    1  0.7157190E-009  0.1654855E+03  0.7561462E-02  0.1082029E+00
         22   -1    0    0    0    0  0.00000000000E+00  0.00000000000E+00  0.17007456008E+04  0.17007456008E+04  0.00000000000E+00 0.  1.
         22   -1    0    0    0    0 -0.00000000000E+00 -0.00000000000E+00 -0.20302538273E+03  0.20302538273E+03  0.00000000000E+00 0.  1.
        -24    2    1    2    0    0 -0.11036422501E+03  0.14876312763E+02 -0.16457486769E+03  0.21545710973E+03  0.83278521930E+02 0.  0.
         25    2    1    2    0    0  0.19913593285E+02 -0.78583587154E+02  0.64086559978E+03  0.65797289565E+03  0.12509069934E+03 0.  0.
         24    2    1    2    0    0  0.90450631722E+02  0.63707274391E+02  0.10214294859E+04  0.10303409781E+04  0.77745757577E+02 0.  0.
        -13    1    5    5    0    0  0.53428704093E+02  0.68863086418E+02  0.87046473446E+03  0.87481746955E+03  0.00000000000E+00 0.  1.
         14    1    5    5    0    0  0.37021927630E+02 -0.51558120270E+01  0.15096475148E+03  0.15552350855E+03  0.00000000000E+00 0. -1.
         11    1    3    3    0    0 -0.17011266149E+02 -0.30353673098E+02 -0.33498512131E+02  0.48299885730E+02  0.00000000000E+00 0. -1.
        -12    1    3    3    0    0 -0.93352958859E+02  0.45229985861E+02 -0.13107635556E+03  0.16715722400E+03  0.00000000000E+00 0.  1.
          5    1    4    4  501    0 -0.79718297147E+01 -0.74094162288E+02  0.16323805096E+03  0.17949269800E+03  0.41800000000E+01 0. -1.
         -5    1    4    4    0  501  0.27885422999E+02 -0.44894248660E+01  0.47762754882E+03  0.47848019765E+03  0.41800000000E+01 0. -1.
</event>
<event>
11    1  0.7157190E-009  0.1428930E+03  0.7561462E-02  0.1104370E+00
         22   -1    0    0    0    0  0.00000000000E+00  0.00000000000E+00  0.11989254268E+04  0.11989254268E+04  0.00000000000E+00 0. -1.
         22   -1    0    0    0    0 -0.00000000000E+00 -0.00000000000E+00 -0.25869156451E+03  0.25869156451E+03  0.00000000000E+00 0. -1.
        -24    2    1    2    0    0  0.52808471810E+02  0.13338001664E+02 -0.19814076801E+03  0.22042780241E+03  0.79762241328E+02 0.  0.
         25    2    1    2    0    0  0.43104187738E+01  0.30147736329E+02  0.41987118660E+02  0.13541874685E+03  0.12509137920E+03 0.  0.
         24    2    1    2    0    0 -0.57118890584E+02 -0.43485737993E+02  0.10963875116E+04  0.11017704420E+04  0.81724868915E+02 0.  0.
        -11    1    5    5    0    0  0.17479978975E+02 -0.10105942120E+02  0.41640497146E+03  0.41689420719E+03  0.00000000000E+00 0.  1.
         12    1    5    5    0    0 -0.74598869558E+02 -0.33379795873E+02  0.67998254017E+03  0.68487623484E+03  0.00000000000E+00 0. -1.
         13    1    3    3    0    0 -0.17590873891E+02  0.15848869411E+02 -0.73963704738E+02  0.77661155827E+02  0.00000000000E+00 0. -1.
        -14    1    3    3    0    0  0.70399345700E+02 -0.25108677470E+01 -0.12417706328E+03  0.14276664658E+03  0.00000000000E+00 0.  1.
          5    1    4    4  501    0 -0.13032378417E+02 -0.32463218111E+02  0.58468338382E+02  0.68262159433E+02  0.41800000000E+01 0. -1.
         -5    1    4    4    0  501  0.17342797190E+02  0.62610954440E+02 -0.16481219722E+02  0.67156587420E+02  0.41800000000E+01 0. -1.
</event>
<event>
11    1  0.7157190E-009  0.1484563E+03  0.7561462E-02  0.1098467E+00
         22   -1    0    0    0    0  0.00000000000E+00  0.00000000000E+00  0.34225043928E+03  0.34225043928E+03  0.00000000000E+00 0.  1.
         22   -1    0    0    0    0 -0.00000000000E+00 -0.00000000000E+00 -0.61479671716E+03  0.61479671716E+03  0.00000000000E+00 0.  1.
        -24    2    1    2    0    0 -0.82197048404E+01 -0.47211595921E+02 -0.37741169454E+03  0.39034085507E+03  0.87349285214E+02 0.  0.
         25    2    1    2    0    0  0.53419817562E+02  0.11073689731E+03 -0.18541834249E+03  0.25523109871E+03  0.12508642886E+03 0.  0.
         24    2    1    2    0    0 -0.45200112722E+02 -0.63525301389E+02  0.29028375914E+03  0.31147520265E+03  0.81692269758E+02 0.  0.
        -11    1    5    5    0    0 -0.18226056295E+01 -0.69135353950E+02  0.17447507318E+03  0.18768209882E+03  0.00000000000E+00 0.  1.
         12    1    5    5    0    0 -0.43377507092E+02  0.56100525616E+01  0.11580868597E+03  0.12379310383E+03  0.00000000000E+00 0. -1.
         13    1    3    3    0    0 -0.27100919441E+02 -0.58043112966E+02 -0.16795872138E+03  0.17975982556E+03  0.00000000000E+00 0. -1.
        -14    1    3    3    0    0  0.18881214600E+02  0.10831517044E+02 -0.20945297316E+03  0.21058102952E+03  0.00000000000E+00 0.  1.
          5    1    4    4  501    0  0.70947253020E+02  0.77825100423E+02 -0.53724813545E+02  0.11829660586E+03  0.41800000000E+01 0. -1.
         -5    1    4    4    0  501 -0.17527435458E+02  0.32911796887E+02 -0.13169352894E+03  0.13693449286E+03  0.41800000000E+01 0. -1.
</event>
<event>
11    1  0.7157190E-009  0.2006487E+03  0.7561462E-02  0.1054066E+00
         22   -1    0    0    0    0  0.00000000000E+00  0.00000000000E+00  0.12162140906E+04  0.12162140906E+04  0.00000000000E+00 0.  1.
         22   -1    0    0    0    0 -0.00000000000E+00 -0.00000000000E+00 -0.10779675353E+04  0.10779675353E+04  0.00000000000E+00 0. -1.
        -24    2    1    2    0    0 -0.57394818115E+02 -0.14554384299E+03 -0.90732254486E+03  0.92403293704E+03  0.78265528451E+02 0.  0.
         25    2    1    2    0    0  0.67300493994E+02  0.14563892161E+03 -0.96634132502E+02  0.22522359511E+03  0.12508980874E+03 0.  0.
         24    2    1    2    0    0 -0.99056758788E+01 -0.95078622189E-01  0.11422032327E+04  0.11449250937E+04  0.78275883295E+02 0.  0.
        -13    1    5    5    0    0  0.22356270653E+02  0.12253626365E+02  0.89022472834E+03  0.89058970415E+03  0.00000000000E+00 0.  1.
         14    1    5    5    0    0 -0.32261946531E+02 -0.12348704987E+02  0.25197850440E+03  0.25433538957E+03  0.00000000000E+00 0. -1.
         11    1    3    3    0    0 -0.60195228533E+02 -0.13382284571E+03 -0.89442381799E+03  0.90638070686E+03  0.00000000000E+00 0. -1.
        -12    1    3    3    0    0  0.28004104176E+01 -0.11720997273E+02 -0.12898726873E+02  0.17652230186E+02  0.00000000000E+00 0.  1.
          5    1    4    4  501    0  0.36363180788E+02  0.96700502460E+00  0.15276369867E+02  0.39674373240E+02  0.41800000000E+01 0. -1.
         -5    1    4    4    0  501  0.30937313206E+02  0.14467191659E+03 -0.11191050237E+03  0.18554922187E+03  0.41800000000E+01 0. -1.
</event>
<event>
11    1  0.7157190E-009  0.1779140E+03  0.7561462E-02  0.1071343E+00
         22   -1    0    0    0    0  0.00000000000E+00  0.00000000000E+00  0.52569345116E+03  0.52569345116E+03  0.00000000000E+00 0. -1.
         22   -1    0    0    0    0 -0.00000000000E+00 -0.00000000000E+00 -0.17996261681E+04  0.17996261681E+04  0.00000000000E+00 0. -1.
         24    2    1    2    0    0  0.12626519097E+03 -0.21508715618E+01 -0.16853727324E+04  0.16916102898E+04  0.71530417959E+02 0.  0.
         25    2    1    2    0    0 -0.13243855135E+03 -0.13004418152E+02 -0.29905742920E+02  0.18507069526E+03  0.12509086302E+03 0.  0.
        -24    2    1    2    0    0  0.61733603775E+01  0.15155289714E+02  0.44134575834E+03  0.44863863426E+03  0.78884425359E+02 0.  0.
        -13    1    3    3    0    0  0.18638877993E+02 -0.91243787050E+01 -0.80987077750E+02  0.83603641201E+02  0.00000000000E+00 0.  1.
         14    1    3    3    0    0  0.10762631298E+03  0.69735071432E+01 -0.16043856547E+04  0.16080066486E+04  0.00000000000E+00 0. -1.
         11    1    5    5    0    0 -0.64188998382E+01  0.46321873851E+02  0.24161529535E+03  0.24609930764E+03  0.00000000000E+00 0. -1.
        -12    1    5    5    0    0  0.12592260216E+02 -0.31166584137E+02  0.19973046299E+03  0.20253932663E+03  0.00000000000E+00 0.  1.
          5    1    4    4  501    0 -0.67297756790E+02  0.43139698271E+02 -0.52908789707E+02  0.95952248875E+02  0.41800000000E+01 0. -1.
         -5    1    4    4    0  501 -0.65140794555E+02 -0.56144116423E+02  0.23003046787E+02  0.89118446383E+02  0.41800000000E+01 0. -1.
</event>
<event>
11    1  0.7157190E-009  0.1350879E+03  0.7561462E-02  0.1113171E+00
         22   -1    0    0    0    0  0.00000000000E+00  0.00000000000E+00  0.48729915142E+03  0.48729915142E+03  0.00000000000E+00 0.  1.
         22   -1    0    0    0    0 -0.00000000000E+00 -0.00000000000E+00 -0.30818133351E+03  0.30818133351E+03  0.00000000000E+00 0.  1.
        -24    2    1    2    0    0  0.32392872277E+02 -0.40711650467E+02 -0.22171896838E+03  0.24068858381E+03  0.77877832405E+02 0.  0.
         25    2    1    2    0    0 -0.15968622953E+02  0.43645752149E+02 -0.11467719722E+02  0.13393697871E+03  0.12509059545E+03 0.  0.
         24    2    1    2    0    0 -0.16424249324E+02 -0.29341016817E+01  0.41230450600E+03  0.42085492242E+03  0.82737507414E+02 0.  0.
        -11    1    5    5    0    0 -0.22159250918E+02 -0.82215077534E+01  0.41237737145E+03  0.41305413940E+03  0.00000000000E+00 0.  1.
         12    1    5    5    0    0  0.57350015945E+01  0.52874060717E+01 -0.72865450031E-01  0.78007830139E+01  0.00000000000E+00 0. -1.
         13    1    3    3    0    0 -0.14668148719E+02 -0.41940340609E+02 -0.82178609004E+02  0.93420931996E+02  0.00000000000E+00 0. -1.
        -14    1    3    3    0    0  0.47061020996E+02  0.12286901421E+01 -0.13954035937E+03  0.14726765181E+03  0.00000000000E+00 0.  1.
          5    1    4    4  501    0  0.15522490670E+02  0.36022198855E+02 -0.62165735586E+02  0.73624707863E+02  0.41800000000E+01 0.  1.
         -5    1    4    4    0  501 -0.31491113622E+02  0.76235532940E+01  0.50698015864E+02  0.60312270846E+02  0.41800000000E+01 0.  1.
</event>
<event>
11    1  0.7157190E-009  0.2106057E+03  0.7561462E-02  0.1047267E+00
         22   -1    0    0    0    0  0.00000000000E+00  0.00000000000E+00  0.27248011682E+03  0.27248011682E+03  0.00000000000E+00 0.  1.
         22   -1    0    0    0    0 -0.00000000000E+00 -0.00000000000E+00 -0.15714176628E+04  0.15714176628E+04  0.00000000000E+00 0. -1.
        -24    2    1    2    0    0  0.32001350094E+02 -0.47891972024E+02 -0.10331679669E+04  0.10382172005E+04  0.84505504662E+02 0.  0.
         25    2    1    2    0    0  0.74735208299E+02  0.17793165466E+03 -0.47210526224E+03  0.52514259341E+03  0.12508532961E+03 0.  0.
         24    2    1    2    0    0 -0.10673655839E+03 -0.13003968263E+03  0.20633568314E+03  0.28053798569E+03  0.88454142474E+02 0.  0.
        -13    1    5    5    0    0 -0.93232617362E+02 -0.48022216242E+02  0.13538537005E+03  0.17125318279E+03  0.00000000000E+00 0.  1.
         14    1    5    5    0    0 -0.13503941030E+02 -0.82017466390E+02  0.70950313088E+02  0.10928480289E+03  0.00000000000E+00 0. -1.
         11    1    3    3    0    0  0.20194909750E+02 -0.35007639807E+02 -0.99920406515E+03  0.10000210663E+04  0.00000000000E+00 0. -1.
        -12    1    3    3    0    0  0.11806440343E+02 -0.12884332217E+02 -0.33963901711E+02  0.38196134224E+02  0.00000000000E+00 0.  1.
          5    1    4    4  501    0 -0.10193212291E+02  0.11487112487E+02  0.15034369638E+01  0.15987121467E+02  0.41800000000E+01 0. -1.
         -5    1    4    4    0  501  0.84928420589E+02  0.16644454217E+03 -0.47360869921E+03  0.50915547194E+03  0.41800000000E+01 0. -1.
</event>
<event>
11    1  0.7157190E-009  0.3152662E+03  0.7561462E-02  0.9939295E-01
         22   -1    0    0    0    0  0.00000000000E+00  0.00000000000E+00  0.27662291239E+03  0.27662291239E+03  0.00000000000E+00 0.  1.
         22   -1    0    0    0    0 -0.00000000000E+00 -0.00000000000E+00 -0.59286527432E+03  0.59286527432E+03  0.00000000000E+00 0. -1.
         24    2    1    2    0    0 -0.79637362803E+02 -0.94653225211E+02 -0.48865607202E+03  0.51015647598E+03  0.78571818546E+02 0.  0.
         25    2    1    2    0    0  0.24900215458E+02  0.88799171633E+01 -0.18531795536E+02  0.12918422268E+03  0.12508502023E+03 0.  0.
        -24    2    1    2    0    0  0.54737147345E+02  0.85773308048E+02  0.19094550563E+03  0.23014748804E+03  0.78450394897E+02 0.  0.
        -11    1    3    3    0    0 -0.87123356586E+02 -0.82007691903E+02 -0.33363565414E+03  0.35444109596E+03  0.00000000000E+00 0.  1.
         12    1    3    3    0    0  0.74859937830E+01 -0.12645533309E+02 -0.15502041788E+03  0.15571538002E+03  0.00000000000E+00 0. -1.
         11    1    5    5    0    0  0.51708134004E+02  0.12849256005E+02  0.60060231449E+02  0.80287395672E+02  0.00000000000E+00 0. -1.
        -12    1    5    5    0    0  0.30290133410E+01  0.72924052044E+02  0.13088527418E+03  0.14986009237E+03  0.00000000000E+00 0.  1.
          5    1    4    4  501    0 -0.14642732130E+02  0.42301050501E+02  0.33189639040E+02  0.55882135046E+02  0.41800000000E+01 0. -1.
         -5    1    4    4    0  501  0.39542947588E+02 -0.33421133338E+02 -0.51721434576E+02  0.73302087638E+02  0.41800000000E+01 0. -1.
</event>
<event>
11    1  0.7157190E-009  0.1618152E+03  0.7561462E-02  0.1085382E+00
         22   -1    0    0    0    0  0.00000000000E+00  0.00000000000E+00  0.16454850004E+04  0.16454850004E+04  0.00000000000E+00 0. -1.
         22   -1    0    0    0    0 -0.00000000000E+00 -0.00000000000E+00 -0.13046431411E+03  0.13046431411E+03  0.00000000000E+00 0. -1.
        -24    2    1    2    0    0  0.95366301293E+02  0.35510892851E+02 -0.82743738637E+02  0.15386294050E+03  0.80445778277E+02 0.  0.
         25    2    1    2    0    0 -0.10256385878E+03 -0.84705283396E+02  0.93170028576E+03  0.94942486616E+03  0.12509126200E+03 0.  0.
         24    2    1    2    0    0  0.71975574880E+01  0.49194390545E+02  0.66606413915E+03  0.67266150784E+03  0.79750697611E+02 0.  0.
        -13    1    5    5    0    0 -0.27258159322E+02  0.29381557611E+02  0.51153790598E+03  0.51310555682E+03  0.00000000000E+00 0.  1.
         14    1    5    5    0    0  0.34455716810E+02  0.19812832935E+02  0.15452623317E+03  0.15955595102E+03  0.00000000000E+00 0. -1.
         13    1    3    3    0    0  0.69827519954E+02  0.29384962113E+01 -0.87738433244E+02  0.11217196607E+03  0.00000000000E+00 0. -1.
        -14    1    3    3    0    0  0.25538781339E+02  0.32572396640E+02  0.49946946073E+01  0.41690974435E+02  0.00000000000E+00 0.  1.
          5    1    4    4  501    0 -0.66064940349E+02 -0.11559406885E+02  0.16199785229E+03  0.17538236165E+03  0.41800000000E+01 0. -1.
         -5    1    4    4    0  501 -0.36498918433E+02 -0.73145876512E+02  0.76970243347E+03  0.77404250451E+03  0.41800000000E+01 0. -1.
</event>
<event>
11    1  0.7157190E-009  0.1429925E+03  0.7561462E-02  0.1104262E+00
         22   -1    0    0    0    0  0.00000000000E+00  0.00000000000E+00  0.11717674818E+04  0.11717674818E+04  0.00000000000E+00 0.  1.
         22   -1    0    0    0    0 -0.00000000000E+00 -0.00000000000E+00 -0.82828361299E+03  0.82828361299E+03  0.00000000000E+00 0.  1.
         24    2    1    2    0    0 -0.13094244157E+02 -0.26985602976E+02 -0.79639818615E+03  0.80087492438E+03  0.79062580284E+02 0.  0.
         25    2    1    2    0    0 -0.56529464089E+02  0.35555093302E+02  0.16080626837E+03  0.21439892154E+03  0.12509395125E+03 0.  0.
        -24    2    1    2    0    0  0.69623708245E+02 -0.85694903266E+01  0.97907578660E+03  0.98477724889E+03  0.79220812334E+02 0.  0.
        -11    1    3    3    0    0 -0.28002398928E+02  0.19693266797E+02 -0.39928324531E+03  0.40074813673E+03  0.00000000000E+00 0.  1.
         12    1    3    3    0    0  0.14908154771E+02 -0.46678869773E+02 -0.39711494083E+03  0.40012678765E+03  0.00000000000E+00 0. -1.
         11    1    5    5    0    0  0.29767803344E+02  0.30815079116E+02  0.25854019883E+03  0.26206626191E+03  0.00000000000E+00 0. -1.
        -12    1    5    5    0    0  0.39855904901E+02 -0.39384569442E+02  0.72053558777E+03  0.72271098698E+03  0.00000000000E+00 0.  1.
          5    1    4    4  501    0 -0.39735839296E+02  0.82334696294E+02  0.96175815157E+02  0.13275992980E+03  0.41800000000E+01 0.  1.
         -5    1    4    4    0  501 -0.16793624793E+02 -0.46779602992E+02  0.64630453214E+02  0.81638991740E+02  0.41800000000E+01 0.  1.
</event>
<event>
11    1  0.7157190E-009  0.1604948E+03  0.7561462E-02  0.1086613E+00
         22   -1    0    0    0    0  0.00000000000E+00  0.00000000000E+00  0.10202207457E+04  0.10202207457E+04  0.00000000000E+00 0.  1.
         22   -1    0    0    0    0 -0.00000000000E+00 -0.00000000000E+00 -0.56104282834E+02  0.56104282834E+02  0.00000000000E+00 0.  1.
        -24    2    1    2    0    0  0.16638394102E+02 -0.10075216382E+03  0.84287819590E+02  0.15702770350E+03  0.84412253034E+02 0.  0.
         25    2    1    2    0    0 -0.67226932422E+02  0.81481022719E+02  0.48286610353E+03  0.50986971686E+03  0.12509531056E+03 0.  0.
         24    2    1    2    0    0  0.50588538321E+02  0.19271141099E+02  0.39696253973E+03  0.40942760816E+03  0.84386795701E+02 0.  0.
        -13    1    5    5    0    0  0.22031289175E+02  0.33428382812E+02  0.35224633112E+03  0.35451419192E+03  0.00000000000E+00 0.  1.
         14    1    5    5    0    0  0.28557249146E+02 -0.14157241713E+02  0.44716208602E+02  0.54913416242E+02  0.00000000000E+00 0. -1.
         11    1    3    3    0    0  0.46442239697E+01  0.14572036279E+02  0.17420618922E+02  0.23181695823E+02  0.00000000000E+00 0. -1.
        -12    1    3    3    0    0  0.11994170132E+02 -0.11532420010E+03  0.66867200669E+02  0.13384600767E+03  0.00000000000E+00 0.  1.
          5    1    4    4  501    0 -0.54501158440E+02 -0.57204912590E+01  0.31960183510E+03  0.32429293191E+03  0.41800000000E+01 0.  1.
         -5    1    4    4    0  501 -0.12725773982E+02  0.87201513978E+02  0.16326426843E+03  0.18557678494E+03  0.41800000000E+01 0.  1.
</event>
<event>
11    1  0.7157190E-009  0.1304042E+03  0.7561462E-02  0.1118773E+00
         22   -1    0    0    0    0  0.00000000000E+00  0.00000000000E+00  0.52102416494E+03  0.52102416494E+03  0.00000000000E+00 0. -1.
         22   -1    0    0    0    0 -0.00000000000E+00 -0.00000000000E+00 -0.69792217033E+03  0.69792217033E+03  0.00000000000E+00 0. -1.
        -24    2    1    2    0    0 -0.32709583109E+02  0.13307776862E+02 -0.50899276855E+03  0.51622038196E+03  0.78503697730E+02 0.  0.
         25    2    1    2    0    0  0.64994169979E+02 -0.29409785603E+02 -0.15265710858E+03  0.20985906322E+03  0.12508979174E+03 0.  0.
         24    2    1    2    0    0 -0.32284586870E+02  0.16102008741E+02  0.48475187174E+03  0.49286689008E+03  0.81436017524E+02 0.  0.
        -11    1    5    5    0    0 -0.12329491546E+02 -0.32826364959E+02  0.23353021825E+03  0.23614815145E+03  0.00000000000E+00 0.  1.
         12    1    5    5    0    0 -0.19955095324E+02  0.48928373700E+02  0.25122165349E+03  0.25671873863E+03  0.00000000000E+00 0. -1.
         13    1    3    3    0    0 -0.42943113124E+02  0.30040434541E+02 -0.46632153814E+03  0.46925719559E+03  0.00000000000E+00 0. -1.
        -14    1    3    3    0    0  0.10233530015E+02 -0.16732657679E+02 -0.42671230409E+02  0.46963186372E+02  0.00000000000E+00 0.  1.
          5    1    4    4  501    0  0.92787595652E+02 -0.10521353831E+02 -0.14887106724E+03  0.17578482259E+03  0.41800000000E+01 0. -1.
         -5    1    4    4    0  501 -0.27793425673E+02 -0.18888431772E+02 -0.37860413383E+01  0.34074240629E+02  0.41800000000E+01 0. -1.
</event>
<event>
11    1  0.7157190E-009  0.1457394E+03  0.7561462E-02  0.1101314E+00
         22   -1    0    0    0    0  0.00000000000E+00  0.00000000000E+00  0.14415175302E+04  0.14415175302E+04  0.00000000000E+00 0.  1.
         22   -1    0    0    0    0 -0.00000000000E+00 -0.00000000000E+00 -0.92855941918E+02  0.92855941918E+02  0.00000000000E+00 0. -1.
         24    2    1    2    0    0 -0.77601303914E+02 -0.15447642191E+01 -0.12049671930E+02  0.11254000528E+03  0.80595964714E+02 0.  0.
         25    2    1    2    0    0  0.57265450554E+02 -0.71846253117E+02  0.18658976099E+03  0.24270472058E+03  0.12509447058E+03 0.  0.
        -24    2    1    2    0    0  0.20335853360E+02  0.73391017336E+02  0.11741214992E+04  0.11791287462E+04  0.77353196298E+02 0.  0.
        -13    1    3    3    0    0 -0.39690456518E+02 -0.40504947535E+02  0.65764274405E+00  0.56713451732E+02  0.00000000000E+00 0.  1.
         14    1    3    3    0    0 -0.37910847396E+02  0.38960183316E+02 -0.12707314674E+02  0.55826553543E+02  0.00000000000E+00 0. -1.
         11    1    5    5    0    0  0.32132004034E+02  0.45967976950E+02  0.34986396486E+03  0.35433079812E+03  0.00000000000E+00 0. -1.
        -12    1    5    5    0    0 -0.11796150675E+02  0.27423040386E+02  0.82425753434E+03  0.82479794812E+03  0.00000000000E+00 0.  1.
          5    1    4    4  501    0 -0.31658222755E+02 -0.54683056300E+02  0.91962183980E+02  0.11165570024E+03  0.41800000000E+01 0. -1.
         -5    1    4    4    0  501  0.88923673310E+02 -0.17163196817E+02  0.94627577014E+02  0.13104902034E+03  0.41800000000E+01 0. -1.
</event>
<event>
11    1  0.7157190E-009  0.1504830E+03  0.7561462E-02  0.1096386E+00
         22   -1    0    0    0    0  0.00000000000E+00  0.00000000000E+00  0.48001465211E+03  0.48001465211E+03  0.00000000000E+00 0. -1.
         22   -1    0    0    0    0 -0.00000000000E+00 -0.00000000000E+00 -0.84192094901E+03  0.84192094901E+03  0.00000000000E+00 0. -1.
         24    2    1    2    0    0 -0.22444094331E+02  0.81191160562E+02 -0.75838140464E+03  0.76727035341E+03  0.80409566513E+02 0.  0.
         25    2    1    2    0    0  0.33789811943E+02 -0.67720664108E+02 -0.35244459177E+01  0.14624281459E+03  0.12508676733E+03 0.  0.
        -24    2    1    2    0    0 -0.11345717612E+02 -0.13470496454E+02  0.39999955365E+03  0.40842243313E+03  0.80616756180E+02 0.  0.
        -11    1    3    3    0    0 -0.51720730968E+01 -0.42838259781E+01 -0.38995931366E+01  0.77658439180E+01  0.00000000000E+00 0.  1.
         12    1    3    3    0    0 -0.17272021234E+02  0.85474986540E+02 -0.75448181150E+03  0.75950450949E+03  0.00000000000E+00 0. -1.
         11    1    5    5    0    0  0.32773729981E+02  0.21974401231E+01  0.21976197736E+03  0.22220322412E+03  0.00000000000E+00 0. -1.
        -12    1    5    5    0    0 -0.44119447593E+02 -0.15667936577E+02  0.18023757630E+03  0.18621920900E+03  0.00000000000E+00 0.  1.
          5    1    4    4  501    0 -0.42796864680E+02 -0.17412502573E+02 -0.24037503981E+02  0.52249793014E+02  0.41800000000E+01 0. -1.
         -5    1    4    4    0  501  0.76586676623E+02 -0.50308161535E+02  0.20513058063E+02  0.93993021572E+02  0.41800000000E+01 0. -1.
</event>
<event>
11    1  0.7157190E-009  0.1428508E+03  0.7561462E-02  0.1104416E+00
         22   -1    0    0    0    0  0.00000000000E+00  0.00000000000E+00  0.73879027398E+02  0.73879027398E+02  0.00000000000E+00 0.  1.
         22   -1    0    0    0    0 -0.00000000000E+00 -0.00000000000E+00 -0.65750380498E+03  0.65750380498E+03  0.00000000000E+00 0.  1.
        -24    2    1    2    0    0  0.12415774871E+02 -0.47461975931E+01 -0.35518412810E+03  0.36441560588E+03  0.80413251988E+02 0.  0.
         25    2    1    2    0    0  0.57579703432E+02  0.17433863245E+02 -0.22122502216E+03  0.26116389100E+03  0.12508679267E+03 0.  0.
         24    2    1    2    0    0 -0.69995478302E+02 -0.12687665652E+02 -0.72156273171E+01  0.10580333549E+03  0.77986772475E+02 0.  0.
        -11    1    5    5    0    0 -0.68261943802E+02  0.17189466198E+02  0.10276140314E+02  0.71139087565E+02  0.00000000000E+00 0.  1.
         12    1    5    5    0    0 -0.17335345002E+01 -0.29877131850E+02 -0.17491767631E+02  0.34664247927E+02  0.00000000000E+00 0. -1.
         13    1    3    3    0    0 -0.13745545967E+02  0.31877204674E+02 -0.19324683214E+03  0.19634009866E+03  0.00000000000E+00 0. -1.
        -14    1    3    3    0    0  0.26161320838E+02 -0.36623402267E+02 -0.16193729597E+03  0.16807550722E+03  0.00000000000E+00 0.  1.
          5    1    4    4  501    0 -0.20978065778E+02  0.49435505372E+02 -0.87277715540E+02  0.10256130101E+03  0.41800000000E+01 0. -1.
         -5    1    4    4    0  501  0.78557769210E+02 -0.32001642126E+02 -0.13394730662E+03  0.15860258999E+03  0.41800000000E+01 0. -1.
</event>
<event>
11    1  0.7157190E-009  0.1356287E+03  0.7561462E-02  0.1112540E+00
         22   -1    0    0    0    0  0.00000000000E+00  0.00000000000E+00  0.82362641956E+03  0.82362641956E+03  0.00000000000E+00 0. -1.
         22   -1    0    0    0    0 -0.00000000000E+00 -0.00000000000E+00 -0.50205239545E+03  0.50205239545E+03  0.00000000000E+00 0. -1.
         24    2    1    2    0    0 -0.45930936776E+02  0.27751392891E+02 -0.46873967432E+03  0.47896206869E+03  0.82510545983E+02 0.  0.
         25    2    1    2    0    0  0.22826564699E+02  0.15088241343E+02  0.14204083150E+03  0.19123671424E+03  0.12508867245E+03 0.  0.
        -24    2    1    2    0    0  0.23104372077E+02 -0.42839634233E+02  0.64827286692E+03  0.65548003210E+03  0.83829089309E+02 0.  0.
        -11    1    3    3    0    0  0.13084728196E+02  0.30443388807E+01 -0.12801270321E+02  0.18556687017E+02  0.00000000000E+00 0.  1.
         12    1    3    3    0    0 -0.59015664972E+02  0.24707054010E+02 -0.45593840400E+03  0.46040538167E+03  0.00000000000E+00 0. -1.
         11    1    5    5    0    0  0.11135861684E+02 -0.64192708693E+02  0.56318895062E+03  0.56694488741E+03  0.00000000000E+00 0. -1.
        -12    1    5    5    0    0  0.11968510393E+02  0.21353074460E+02  0.85083916305E+02  0.88535144682E+02  0.00000000000E+00 0.  1.
          5    1    4    4  501    0 -0.18170103035E+01  0.32325997459E+02  0.15487084072E+03  0.15827419671E+03  0.41800000000E+01 0. -1.
         -5    1    4    4    0  501  0.24643575002E+02 -0.17237756116E+02 -0.12830009222E+02  0.32962517523E+02  0.41800000000E+01 0. -1.
</event>
<event>
11    1  0.7157190E-009  0.1322060E+03  0.7561462E-02  0.1116588E+00
         22   -1    0    0    0    0  0.00000000000E+00  0.00000000000E+00  0.41089616572E+03  0.41089616572E+03  0.00000000000E+00 0.  1.
         22   -1    0    0    0    0 -0.00000000000E+00 -0.00000000000E+00 -0.53819175610E+03  0.53819175610E+03  0.00000000000E+00 0. -1.
        -24    2    1    2    0    0 -0.27253065540E+02  0.33009638125E+02 -0.48545641807E+03  0.49390783420E+03  0.80278571559E+02 0.  0.
         25    2    1    2    0    0 -0.32607728600E+01  0.56109619780E+01  0.53927536256E+02  0.13637291860E+03  0.12508908117E+03 0.  0.
         24    2    1    2    0    0  0.30513838400E+02 -0.38620600103E+02  0.30423329143E+03  0.31880716902E+03  0.81593322741E+02 0.  0.
        -13    1    5    5    0    0  0.20413927946E+02 -0.60301042422E+02  0.26751711704E+03  0.27498791261E+03  0.00000000000E+00 0.  1.
         14    1    5    5    0    0  0.10099910454E+02  0.21680442319E+02  0.36716174390E+02  0.43819256409E+02  0.00000000000E+00 0. -1.
         13    1    3    3    0    0 -0.51464435091E+02  0.29182688916E+02 -0.41739388419E+03  0.42156597583E+03  0.00000000000E+00 0. -1.
        -14    1    3    3    0    0  0.24211369552E+02  0.38269492089E+01 -0.68062533875E+02  0.72341858376E+02  0.00000000000E+00 0.  1.
          5    1    4    4  501    0  0.27827112702E+02 -0.25916939470E+02  0.77213967005E+02  0.86171370265E+02  0.41800000000E+01 0.  1.
         -5    1    4    4    0  501 -0.31087885562E+02  0.31527901448E+02 -0.23286430749E+02  0.50201548337E+02  0.41800000000E+01 0.  1.
</event>
<event>
11    1  0.7157190E-009  0.1291183E+03  0.7561462E-02  0.1120357E+00
         22   -1    0    0    0    0  0.00000000000E+00  0.00000000000E+00  0.72706219840E+02  0.72706219840E+02  0.00000000000E+00 0. -1.
         22   -1    0    0    0    0 -0.00000000000E+00 -0.00000000000E+00 -0.23518917588E+04  0.23518917588E+04  0.00000000000E+00 0.  1.
         24    2    1    2    0    0 -0.18087473039E+02  0.35474627275E+02 -0.21804913693E+04  0.21823224631E+04  0.80019470533E+02 0.  0.
         25    2    1    2    0    0 -0.21101571206E+02 -0.19181902740E+02 -0.61904153769E+02  0.14245095734E+03  0.12508768642E+03 0.  0.
        -24    2    1    2    0    0  0.39189044245E+02 -0.16292724535E+02 -0.36790015944E+02  0.99824558215E+02  0.82523954632E+02 0.  0.
        -11    1    3    3    0    0 -0.24968310739E+02  0.53814927502E+02 -0.19771308677E+04  0.19780207104E+04  0.00000000000E+00 0.  1.
         12    1    3    3    0    0  0.68808377001E+01 -0.18340300227E+02 -0.20336050163E+03  0.20430175271E+03  0.00000000000E+00 0. -1.
         13    1    5    5    0    0  0.18279972352E+02  0.20309430618E+02  0.16467794570E+02  0.31903269726E+02  0.00000000000E+00 0. -1.
        -14    1    5    5    0    0  0.20909071893E+02 -0.36602155153E+02 -0.53257810514E+02  0.67921288489E+02  0.00000000000E+00 0.  1.
          5    1    4    4  501    0 -0.43628562132E+02  0.41411065870E+02 -0.45744279899E+02  0.75685793605E+02  0.41800000000E+01 0.  1.
         -5    1    4    4    0  501  0.22526990925E+02 -0.60592968609E+02 -0.16159873870E+02  0.66765163735E+02  0.41800000000E+01 0.  1.
</event>
<event>
11    1  0.7157190E-009  0.2330465E+03  0.7561462E-02  0.1033339E+00
         22   -1    0    0    0    0  0.00000000000E+00  0.00000000000E+00  0.20337319604E+03  0.20337319604E+03  0.00000000000E+00 0.  1.
         22   -1    0    0    0    0 -0.00000000000E+00 -0.00000000000E+00 -0.59941807267E+03  0.59941807267E+03  0.00000000000E+00 0.  1.
         24    2    1    2    0    0 -0.19861565383E+03  0.43139895693E+02 -0.28422988812E+03  0.35897421837E+03  0.82259538085E+02 0.  0.
         25    2    1    2    0    0  0.18447703458E+03 -0.36644088137E+02 -0.21528152912E+03  0.31203865563E+03  0.12508964922E+03 0.  0.
        -24    2    1    2    0    0  0.14138619245E+02 -0.64958075555E+01  0.10346654061E+03  0.13177839471E+03  0.80113196275E+02 0.  0.
        -13    1    3    3    0    0 -0.18672785427E+03  0.13972228247E+02 -0.23417532437E+03  0.29983428300E+03  0.00000000000E+00 0.  1.
         14    1    3    3    0    0 -0.11887799563E+02  0.29167667445E+02 -0.50054563748E+02  0.59139935362E+02  0.00000000000E+00 0. -1.
         13    1    5    5    0    0  0.12577245501E+02  0.59308734668E+01 -0.10312484132E+02  0.17312125619E+02  0.00000000000E+00 0. -1.
        -14    1    5    5    0    0  0.15613737437E+01 -0.12426681022E+02  0.11377902474E+03  0.11446626909E+03  0.00000000000E+00 0.  1.
          5    1    4    4  501    0  0.18512118049E+03 -0.65205985349E+02 -0.17898967036E+03  0.26566227901E+03  0.41800000000E+01 0. -1.
         -5    1    4    4    0  501 -0.64414590446E+00  0.28561897212E+02 -0.36291858759E+02  0.46376376620E+02  0.41800000000E+01 0. -1.
</event>
<event>
11    1  0.7157190E-009  0.1730765E+03  0.7561462E-02  0.1075385E+00
         22   -1    0    0    0    0  0.00000000000E+00  0.00000000000E+00  0.10204852477E+04  0.10204852477E+04  0.00000000000E+00 0. -1.
         22   -1    0    0    0    0 -0.00000000000E+00 -0.00000000000E+00 -0.14631662138E+04  0.14631662138E+04  0.00000000000E+00 0. -1.
        -24    2    1    2    0    0 -0.55785305115E+02  0.46021299703E+02 -0.14272393560E+04  0.14313552695E+04  0.80844094997E+02 0.  0.
         25    2    1    2    0    0 -0.14313244609E+02 -0.14058870640E+03  0.31116878527E+03  0.36392815391E+03  0.12509050702E+03 0.  0.
         24    2    1    2    0    0  0.70098549724E+02  0.94567406699E+02  0.67338960469E+03  0.68836803810E+03  0.80871472613E+02 0.  0.
        -11    1    5    5    0    0 -0.89925291477E+01  0.21492969960E+02  0.26494574603E+03  0.26596815915E+03  0.00000000000E+00 0.  1.
         12    1    5    5    0    0  0.79091078872E+02  0.73074436739E+02  0.40844385866E+03  0.42239987895E+03  0.00000000000E+00 0. -1.
         13    1    3    3    0    0 -0.64458252664E+02  0.62315600988E+02 -0.12241786304E+04  0.12274572984E+04  0.00000000000E+00 0. -1.
        -14    1    3    3    0    0  0.86729475492E+01 -0.16294301285E+02 -0.20306072568E+03  0.20389797102E+03  0.00000000000E+00 0.  1.
          5    1    4    4  501    0 -0.28648089735E+02 -0.36209682695E+02  0.21908827610E+03  0.22393972245E+03  0.41800000000E+01 0.  1.
         -5    1    4    4    0  501  0.14334845126E+02 -0.10437902371E+03  0.92080509170E+02  0.13998843146E+03  0.41800000000E+01 0.  1.
</event>
<event>
11    1  0.7157190E-009  0.1826385E+03  0.7561462E-02  0.1067528E+00
         22   -1    0    0    0    0  0.00000000000E+00  0.00000000000E+00  0.10057960485E+04  0.10057960485E+04  0.00000000000E+00 0. -1.
         22   -1    0    0    0    0 -0.00000000000E+00 -0.00000000000E+00 -0.13139176397E+04  0.13139176397E+04  0.00000000000E+00 0. -1.
        -24    2    1    2    0    0  0.91500487464E+01 -0.46255689150E+02 -0.12732055778E+04  0.12765846101E+04  0.79953181128E+02 0.  0.
         25    2    1    2    0    0 -0.36305974415E+02 -0.93543252933E+02  0.17924385027E+03  0.24050720823E+03  0.12508755096E+03 0.  0.
         24    2    1    2    0    0  0.27155925668E+02  0.13979894208E+03  0.78584013634E+03  0.80262186985E+03  0.79849593447E+02 0.  0.
        -11    1    5    5    0    0  0.41184139635E+02  0.12623734331E+03  0.54303426397E+03  0.55903328349E+03  0.00000000000E+00 0.  1.
         12    1    5    5    0    0 -0.14028213967E+02  0.13561598773E+02  0.24280587236E+03  0.24358858636E+03  0.00000000000E+00 0. -1.
         13    1    3    3    0    0  0.68520714867E+00 -0.58479280595E+02 -0.12182570129E+04  0.12196599712E+04  0.00000000000E+00 0. -1.
        -14    1    3    3    0    0  0.84648415977E+01  0.12223591445E+02 -0.54948564839E+02  0.56924638856E+02  0.00000000000E+00 0.  1.
          5    1    4    4  501    0  0.43893446298E+02 -0.52041558669E+02  0.94919588513E+02  0.11688523919E+03  0.41800000000E+01 0.  1.
         -5    1    4    4    0  501 -0.80199420713E+02 -0.41501694264E+02  0.84324261756E+02  0.12362196904E+03  0.41800000000E+01 0.  1.
</event>
<event>
11    1  0.7157190E-009  0.1291077E+03  0.7561462E-02  0.1120370E+00
         22   -1    0    0    0    0  0.00000000000E+00  0.00000000000E+00  0.16706015896E+03  0.16706015896E+03  0.00000000000E+00 0.  1.
         22   -1    0    0    0    0 -0.00000000000E+00 -0.00000000000E+00 -0.79811558754E+03  0.79811558754E+03  0.00000000000E+00 0.  1.
        -24    2    1    2    0    0 -0.28298636622E+02  0.49672784796E+01 -0.65911877960E+03  0.66451130390E+03  0.79449485200E+02 0.  0.
         25    2    1    2    0    0  0.56626631163E+02  0.17669896164E+01 -0.83043370297E+02  0.16047923217E+03  0.12509070709E+03 0.  0.
         24    2    1    2    0    0 -0.28327994540E+02 -0.67342680960E+01  0.11110672133E+03  0.14018521042E+03  0.80370168935E+02 0.  0.
        -13    1    5    5    0    0 -0.26304939771E+02 -0.10527377300E+02  0.12368700379E+03  0.12689070272E+03  0.00000000000E+00 0.  1.
         14    1    5    5    0    0 -0.20230547694E+01  0.37931092042E+01 -0.12580282466E+02  0.13294507699E+02  0.00000000000E+00 0. -1.
         13    1    3    3    0    0 -0.31329207720E+02  0.76831677474E-02 -0.88828556028E+02  0.94191462890E+02  0.00000000000E+00 0. -1.
        -14    1    3    3    0    0  0.30305710977E+01  0.49595953118E+01 -0.57029022358E+03  0.57031984101E+03  0.00000000000E+00 0.  1.
          5    1    4    4  501    0  0.31720634110E+02  0.37146487574E+02 -0.10191300302E+03  0.11309196591E+03  0.41800000000E+01 0.  1.
         -5    1    4    4    0  501  0.24905997052E+02 -0.35379497958E+02  0.18869632727E+02  0.47387266266E+02  0.41800000000E+01 0.  1.
</event>
<event>
11    1  0.7157190E-009  0.1577344E+03  0.7561462E-02  0.1089228E+00
         22   -1    0    0    0    0  0.00000000000E+00  0.00000000000E+00  0.14110061081E+04  0.14110061081E+04  0.00000000000E+00 0. -1.
         22   -1    0    0    0    0 -0.00000000000E+00 -0.00000000000E+00 -0.12211420071E+03  0.12211420071E+03  0.00000000000E+00 0.  1.
         24    2    1    2    0    0  0.32520830189E+02 -0.83356978875E+02 -0.32607879435E+02  0.12641517457E+03  0.83135625556E+02 0.  0.
         25    2    1    2    0    0 -0.11979332646E+02  0.12668982627E+03  0.15460925681E+03  0.23610545433E+03  0.12509175345E+03 0.  0.
        -24    2    1    2    0    0 -0.20541497543E+02 -0.43332847399E+02  0.11668905300E+04  0.11705996799E+04  0.79814865754E+02 0.  0.
        -11    1    3    3    0    0  0.16900226834E+01 -0.87979532978E+02 -0.11448800894E+02  0.88737418497E+02  0.00000000000E+00 0.  1.
         12    1    3    3    0    0  0.30830807505E+02  0.46225541027E+01 -0.21159078541E+02  0.37677756071E+02  0.00000000000E+00 0. -1.
         13    1    5    5    0    0 -0.23732394092E+01 -0.52641161795E+01  0.92771371445E+03  0.92773168489E+03  0.00000000000E+00 0. -1.
        -14    1    5    5    0    0 -0.18168258133E+02 -0.38068731220E+02  0.23917681556E+03  0.24286799501E+03  0.00000000000E+00 0.  1.
          5    1    4    4  501    0 -0.59798781794E+02  0.24150430449E+02  0.47039346234E+02  0.79933160134E+02  0.41800000000E+01 0. -1.
         -5    1    4    4    0  501  0.47819449147E+02  0.10253939583E+03  0.10756991057E+03  0.15617229419E+03  0.41800000000E+01 0. -1.
</event>
<event>
11    1  0.7157190E-009  0.1518305E+03  0.7561462E-02  0.1095023E+00
         22   -1    0    0    0    0  0.00000000000E+00  0.00000000000E+00  0.14014033367E+03  0.14014033367E+03  0.00000000000E+00 0. -1.
         22   -1    0    0    0    0 -0.00000000000E+00 -0.00000000000E+00 -0.11259782567E+04  0.11259782567E+04  0.00000000000E+00 0. -1.
        -24    2    1    2    0    0 -0.11356430573E+02 -0.24970254107E+01 -0.95543418364E+03  0.95869886112E+03  0.78190942000E+02 0.  0.
         25    2    1    2    0    0  0.94769290940E+02 -0.35456155891E+01 -0.85599395281E+02  0.17879515299E+03  0.12508661145E+03 0.  0.
         24    2    1    2    0    0 -0.83412860366E+02  0.60426409999E+01  0.55195655925E+02  0.12862457622E+03  0.80644295458E+02 0.  0.
        -11    1    5    5    0    0  0.72186965985E+01 -0.16793482161E+02 -0.29992248718E+01  0.18523659830E+02  0.00000000000E+00 0.  1.
         12    1    5    5    0    0 -0.90631556965E+02  0.22836123161E+02  0.58194880797E+02  0.11010091639E+03  0.00000000000E+00 0. -1.
         13    1    3    3    0    0  0.31457329215E+02 -0.11440027675E+02 -0.51908023434E+03  0.52015836768E+03  0.00000000000E+00 0. -1.
        -14    1    3    3    0    0 -0.42813759788E+02  0.89430022647E+01 -0.43635394930E+03  0.43854049344E+03  0.00000000000E+00 0.  1.
          5    1    4    4  501    0  0.34430266622E+02  0.41632356227E+02  0.11906997528E+02  0.55479233366E+02  0.41800000000E+01 0. -1.
         -5    1    4    4    0  501  0.60339024317E+02 -0.45177971816E+02 -0.97506392809E+02  0.12331591962E+03  0.41800000000E+01 0. -1.
</event>
<event>
11    1  0.7157190E-009  0.1353626E+03  0.7561462E-02  0.1112850E+00
         22   -1    0    0    0    0  0.00000000000E+00  0.00000000000E+00  0.14209250776E+04  0.14209250776E+04  0.00000000000E+00 0.  1.
         22   -1    0    0    0    0 -0.00000000000E+00 -0.00000000000E+00 -0.42013965162E+03  0.42013965162E+03  0.00000000000E+00 0. -1.
        -24    2    1    2    0    0 -0.27074913037E+02 -0.64706556535E+01 -0.37523273583E+03  0.38369692185E+03  0.75158509148E+02 0.  0.
         25    2    1    2    0    0  0.45328886060E+02 -0.41707892767E+02  0.86184500412E+02  0.16392982143E+03  0.12510380495E+03 0.  0.
         24    2    1    2    0    0 -0.18253973024E+02  0.48178548420E+02  0.12898336614E+04  0.12934379860E+04  0.81587801523E+02 0.  0.
        -11    1    5    5    0    0 -0.27191256736E+02  0.62476428662E+02  0.12061218188E+04  0.12080449124E+04  0.00000000000E+00 0.  1.
         12    1    5    5    0    0  0.89372837121E+01 -0.14297880242E+02  0.83711842665E+02  0.85393073618E+02  0.00000000000E+00 0. -1.
         13    1    3    3    0    0 -0.88735159858E+01 -0.35710311323E+02 -0.28038820700E+03  0.28279234828E+03  0.00000000000E+00 0. -1.
        -14    1    3    3    0    0 -0.18201397051E+02  0.29239655670E+02 -0.94844528835E+02  0.10090457357E+03  0.00000000000E+00 0.  1.
          5    1    4    4  501    0  0.42363896543E+02  0.34779783170E+02  0.10039227004E+02  0.55880153243E+02  0.41800000000E+01 0. -1.
         -5    1    4    4    0  501  0.29649895172E+01 -0.76487675937E+02  0.76145273407E+02  0.10804966819E+03  0.41800000000E+01 0. -1.
</event>
<event>
11    1  0.7157190E-009  0.1468079E+03  0.7561462E-02  0.1100186E+00
         22   -1    0    0    0    0  0.00000000000E+00  0.00000000000E+00  0.16725987173E+03  0.16725987173E+03  0.00000000000E+00 0.  1.
         22   -1    0    0    0    0 -0.00000000000E+00 -0.00000000000E+00 -0.88462370663E+03  0.88462370663E+03  0.00000000000E+00 0. -1.
        -24    2    1    2    0    0  0.75929025235E+02 -0.99490563563E+01 -0.51122904616E+03  0.52312926485E+03  0.80280069218E+02 0.  0.
         25    2    1    2    0    0 -0.67935891677E+02  0.52894491488E+02 -0.33793709452E+03  0.37048936170E+03  0.12509106550E+03 0.  0.
         24    2    1    2    0    0 -0.79931335582E+01 -0.42945435131E+02  0.13180230577E+03  0.15826495181E+03  0.75945681786E+02 0.  0.
        -11    1    5    5    0    0  0.62307637828E+01 -0.59454410927E+02  0.11852511228E+03  0.13274732252E+03  0.00000000000E+00 0.  1.
         12    1    5    5    0    0 -0.14223897341E+02  0.16508975795E+02  0.13277193490E+02  0.25517629285E+02  0.00000000000E+00 0. -1.
         11    1    3    3    0    0  0.50367402152E+02 -0.28643971808E+02 -0.45433838844E+03  0.45801825677E+03  0.00000000000E+00 0. -1.
        -12    1    3    3    0    0  0.25561623084E+02  0.18694915452E+02 -0.56890657715E+02  0.65111008083E+02  0.00000000000E+00 0.  1.
          5    1    4    4  501    0 -0.89061247053E+02  0.68675271154E+02 -0.19556301734E+03  0.22563369594E+03  0.41800000000E+01 0.  1.
         -5    1    4    4    0  501  0.21125355376E+02 -0.15780779666E+02 -0.14237407719E+03  0.14485566575E+03  0.41800000000E+01 0.  1.
</event>
<event>
11    1  0.7157190E-009  0.1349072E+03  0.7561462E-02  0.1113382E+00
         22   -1    0    0    0    0  0.00000000000E+00  0.00000000000E+00  0.39075452523E+03  0.39075452523E+03  0.00000000000E+00 0.  1.
         22   -1    0    0    0    0 -0.00000000000E+00 -0.00000000000E+00 -0.70670254177E+03  0.70670254177E+03  0.00000000000E+00 0. -1.
         24    2    1    2    0    0 -0.27947856866E+02 -0.15427572147E+02 -0.61587498766E+03  0.62229123137E+03  0.83218288439E+02 0.  0.
         25    2    1    2    0    0  0.44182419175E+02  0.61235635277E+02 -0.14501408971E+02  0.14683192896E+03  0.12508970904E+03 0.  0.
        -24    2    1    2    0    0 -0.16234562309E+02 -0.45808063130E+02  0.31442838009E+03  0.32833390668E+03  0.81092591573E+02 0.  0.
        -11    1    3    3    0    0  0.49097553052E+01 -0.18568582114E+02 -0.30880160382E+02  0.36365948965E+02  0.00000000000E+00 0.  1.
         12    1    3    3    0    0 -0.32857612171E+02  0.31410099678E+01 -0.58499482728E+03  0.58592528240E+03  0.00000000000E+00 0. -1.
         11    1    5    5    0    0 -0.17099246289E+02  0.21163343531E+02  0.78420828453E+02  0.83006612197E+02  0.00000000000E+00 0. -1.
        -12    1    5    5    0    0  0.86468398077E+00 -0.66971406661E+02  0.23600755164E+03  0.24532729448E+03  0.00000000000E+00 0.  1.
          5    1    4    4  501    0  0.26856863626E+01  0.64518949270E+01 -0.62417923466E+02  0.62946877835E+02  0.41800000000E+01 0. -1.
         -5    1    4    4    0  501  0.41496732812E+02  0.54783740350E+02  0.47916514495E+02  0.83885051124E+02  0.41800000000E+01 0. -1.
</event>
<event>
11    1  0.7157190E-009  0.1423790E+03  0.7561462E-02  0.1104931E+00
         22   -1    0    0    0    0  0.00000000000E+00  0.00000000000E+00  0.54283245686E+03  0.54283245686E+03  0.00000000000E+00 0. -1.
         22   -1    0    0    0    0 -0.00000000000E+00 -0.00000000000E+00 -0.30853207923E+03  0.30853207923E+03  0.00000000000E+00 0. -1.
         24    2    1    2    0    0  0.54853687554E+02 -0.22006098690E+02 -0.26574701037E+03  0.28360306284E+03  0.79473444098E+02 0.  0.
         25    2    1    2    0    0  0.24606936476E+02 -0.39665014962E+01  0.13849871648E+03  0.18828679581E+03  0.12509511802E+03 0.  0.
        -24    2    1    2    0    0 -0.79460624030E+02  0.25972600186E+02  0.36154867152E+03  0.37947467743E+03  0.79341175964E+02 0.  0.
        -11    1    3    3    0    0  0.31946631176E+02  0.99034994445E+01 -0.31036052762E+02  0.45627876520E+02  0.00000000000E+00 0.  1.
         12    1    3    3    0    0  0.22907056378E+02 -0.31909598135E+02 -0.23471095761E+03  0.23797518632E+03  0.00000000000E+00 0. -1.
         13    1    5    5    0    0 -0.47754462155E+02  0.44245209678E+02  0.30673848557E+03  0.31357076675E+03  0.00000000000E+00 0. -1.
        -14    1    5    5    0    0 -0.31706161875E+02 -0.18272609491E+02  0.54810185951E+02  0.65903910676E+02  0.00000000000E+00 0.  1.
          5    1    4    4  501    0 -0.37253612285E+02  0.10847952114E+02  0.37315422697E+01  0.39203399101E+02  0.41800000000E+01 0.  1.
         -5    1    4    4    0  501  0.61860548761E+02 -0.14814453610E+02  0.13476717421E+03  0.14908339671E+03  0.41800000000E+01 0.  1.
</event>
<event>
11    1  0.7157190E-009  0.2479593E+03  0.7561462E-02  0.1024992E+00
         22   -1    0    0    0    0  0.00000000000E+00  0.00000000000E+00  0.98485014018E+03  0.98485014018E+03  0.00000000000E+00 0.  1.
         22   -1    0    0    0    0 -0.00000000000E+00 -0.00000000000E+00 -0.78852079440E+03  0.78852079440E+03  0.00000000000E+00 0.  1.
         24    2    1    2    0    0 -0.19469053261E+03  0.80032417849E+02 -0.67184076252E+03  0.70846479738E+03  0.79011186179E+02 0.  0.
         25    2    1    2    0    0  0.35034023458E+03  0.51909083549E+02  0.39930041283E+03  0.54819765670E+03  0.12508804179E+03 0.  0.
        -24    2    1    2    0    0 -0.15564970197E+03 -0.13194150140E+03  0.46886969547E+03  0.51670848051E+03  0.74252764165E+02 0.  0.
        -13    1    3    3    0    0 -0.79273783555E+02  0.22737778079E+02 -0.38913492800E+03  0.39777799273E+03  0.00000000000E+00 0.  1.
         14    1    3    3    0    0 -0.11541674905E+03  0.57294639770E+02 -0.28270583452E+03  0.31068680465E+03  0.00000000000E+00 0. -1.
         13    1    5    5    0    0 -0.12395658598E+03 -0.58386155442E+02  0.29200956759E+03  0.32255815897E+03  0.00000000000E+00 0. -1.
        -14    1    5    5    0    0 -0.31693115992E+02 -0.73555345955E+02  0.17686012788E+03  0.19415032154E+03  0.00000000000E+00 0.  1.
          5    1    4    4  501    0  0.22743225995E+02 -0.29830069325E+02  0.45645783336E+02  0.59229192979E+02  0.41800000000E+01 0. -1.
         -5    1    4    4    0  501  0.32759700858E+03  0.81739152874E+02  0.35365462950E+03  0.48896846372E+03  0.41800000000E+01 0. -1.
</event>
<event>
11    1  0.7157190E-009  0.1644254E+03  0.7561462E-02  0.1082987E+00
         22   -1    0    0    0    0  0.00000000000E+00  0.00000000000E+00  0.13796518540E+04  0.13796518540E+04  0.00000000000E+00 0.  1.
         22   -1    0    0    0    0 -0.00000000000E+00 -0.00000000000E+00 -0.15599236495E+04  0.15599236495E+04  0.00000000000E+00 0.  1.
        -24    2    1    2    0    0 -0.73437480375E+02  0.77641797770E+02 -0.14997002710E+04  0.15054675035E+04  0.76877754130E+02 0.  0.
         25    2    1    2    0    0  0.45634790755E+02 -0.94686895344E+02  0.61993264300E+02  0.17475488900E+03  0.12509182280E+03 0.  0.
         24    2    1    2    0    0  0.27802689619E+02  0.17045097575E+02  0.12574352112E+04  0.12593531109E+04  0.61346741629E+02 0.  0.
        -13    1    5    5    0    0  0.56467631762E+01  0.36213181604E+02  0.88889699275E+03  0.88965226025E+03  0.00000000000E+00 0.  1.
         14    1    5    5    0    0  0.22155926443E+02 -0.19168084029E+02  0.36853821845E+03  0.36970085066E+03  0.00000000000E+00 0. -1.
         13    1    3    3    0    0 -0.27175864685E+02  0.23361682477E+02 -0.16424704728E+03  0.16811123809E+03  0.00000000000E+00 0. -1.
        -14    1    3    3    0    0 -0.46261615690E+02  0.54280115292E+02 -0.13354532237E+04  0.13373562654E+04  0.00000000000E+00 0.  1.
          5    1    4    4  501    0  0.20589616597E+02 -0.63887140715E+02 -0.30627538890E+02  0.73898698222E+02  0.41800000000E+01 0. -1.
         -5    1    4    4    0  501  0.25045174158E+02 -0.30799754629E+02  0.92620803190E+02  0.10085619077E+03  0.41800000000E+01 0. -1.
</event>
<event>
11    1  0.7157190E-009  0.1473626E+03  0.7561462E-02  0.1099605E+00
         22   -1    0    0    0    0  0.00000000000E+00  0.00000000000E+00  0.98922860844E+03  0.98922860844E+03  0.00000000000E+00 0.  1.
         22   -1    0    0    0    0 -0.00000000000E+00 -0.00000000000E+00 -0.96701798934E+02  0.96701798934E+02  0.00000000000E+00 0. -1.
        -24    2    1    2    0    0 -0.74166555890E+02 -0.43344031586E+01 -0.24062024563E+02  0.11521397470E+03  0.84710175753E+02 0.  0.
         25    2    1    2    0    0  0.97619143622E+02  0.16160244013E+02  0.23612688221E+03  0.28494615686E+03  0.12509099536E+03 0.  0.
         24    2    1    2    0    0 -0.23452587733E+02 -0.11825840854E+02  0.68046195186E+03  0.68577027581E+03  0.81009436986E+02 0.  0.
        -13    1    5    5    0    0 -0.23191657987E+02  0.32802802228E+02  0.29111412011E+03  0.29387294493E+03  0.00000000000E+00 0.  1.
         14    1    5    5    0    0 -0.26092974599E+00 -0.44628643082E+02  0.38934783174E+03  0.39189733088E+03  0.00000000000E+00 0. -1.
         13    1    3    3    0    0 -0.34374998961E+02 -0.19138422345E+02 -0.51391193412E+02  0.64722287689E+02  0.00000000000E+00 0. -1.
        -14    1    3    3    0    0 -0.39791556929E+02  0.14804019187E+02  0.27329168849E+02  0.50491687008E+02  0.00000000000E+00 0.  1.
          5    1    4    4  501    0  0.67863243591E+02  0.68377015553E+02  0.17035703496E+03  0.19575450914E+03  0.41800000000E+01 0. -1.
         -5    1    4    4    0  501  0.29755900031E+02 -0.52216771540E+02  0.65769847248E+02  0.89191647724E+02  0.41800000000E+01 0. -1.
</event>
<event>
11    1  0.7157190E-009  0.1544507E+03  0.7561462E-02  0.1092416E+00
         22   -1    0    0    0    0  0.00000000000E+00  0.00000000000E+00  0.13075377481E+04  0.13075377481E+04  0.00000000000E+00 0.  1.
         22   -1    0    0    0    0 -0.00000000000E+00 -0.00000000000E+00 -0.44789553885E+03  0.44789553885E+03  0.00000000000E+00 0. -1.
        -24    2    1    2    0    0 -0.10696091263E+02  0.86386531212E+02 -0.26448998760E+03  0.28968310710E+03  0.79901876418E+02 0.  0.
         25    2    1    2    0    0  0.49340798939E+01 -0.10149965849E+03 -0.13071315658E+03  0.20750882576E+03  0.12508979833E+03 0.  0.
         24    2    1    2    0    0  0.57620113691E+01  0.15113127275E+02  0.12548453534E+04  0.12582413541E+04  0.90955135792E+02 0.  0.
        -13    1    5    5    0    0  0.43717723533E+02  0.28322652695E+02  0.67871491995E+03  0.68071091850E+03  0.00000000000E+00 0.  1.
         14    1    5    5    0    0 -0.37955712164E+02 -0.13209525419E+02  0.57613043349E+03  0.57753043560E+03  0.00000000000E+00 0. -1.
         11    1    3    3    0    0 -0.11234000333E+02  0.83062981672E+02 -0.27028367449E+03  0.28298220153E+03  0.00000000000E+00 0. -1.
        -12    1    3    3    0    0  0.53790906955E+00  0.33235495399E+01  0.57936868876E+01  0.67009055703E+01  0.00000000000E+00 0.  1.
          5    1    4    4  501    0  0.49191764981E+02 -0.84449373479E+02 -0.12621469678E+03  0.15968452808E+03  0.41800000000E+01 0. -1.
         -5    1    4    4    0  501 -0.44257685088E+02 -0.17050285008E+02 -0.44984597982E+01  0.47824297681E+02  0.41800000000E+01 0. -1.
</event>
<event>
11    1  0.7157190E-009  0.1720945E+03  0.7561462E-02  0.1076223E+00
         22   -1    0    0    0    0  0.00000000000E+00  0.00000000000E+00  0.64248486963E+03  0.64248486963E+03  0.00000000000E+00 0. -1.
         22   -1    0    0    0    0 -0.00000000000E+00 -0.00000000000E+00 -0.24075081434E+03  0.24075081434E+03  0.00000000000E+00 0. -1.
         24    2    1    2    0    0 -0.94440571547E+02  0.58604452186E+02 -0.14583169729E+03  0.19982935134E+03  0.79444209064E+02 0.  0.
         25    2    1    2    0    0  0.16809291579E+03 -0.41435908900E+02  0.12217885597E+03  0.24606418984E+03  0.12509096607E+03 0.  0.
        -24    2    1    2    0    0 -0.73652344240E+02 -0.17168543286E+02  0.42538689661E+03  0.43734214278E+03  0.67784300212E+02 0.  0.
        -11    1    3    3    0    0  0.28278310771E+01  0.18651136370E+02  0.13844169848E+01  0.18915023840E+02  0.00000000000E+00 0.  1.
         12    1    3    3    0    0 -0.97268402624E+02  0.39953315816E+02 -0.14721611428E+03  0.18091432750E+03  0.00000000000E+00 0. -1.
         11    1    5    5    0    0 -0.22434540035E+02 -0.39665533370E+02  0.19762176901E+03  0.20280785663E+03  0.00000000000E+00 0. -1.
        -12    1    5    5    0    0 -0.51217804205E+02  0.22496990083E+02  0.22776512760E+03  0.23453428615E+03  0.00000000000E+00 0.  1.
          5    1    4    4  501    0  0.68891557118E+02 -0.70970825836E+02  0.98812665434E+02  0.13987251343E+03  0.41800000000E+01 0.  1.
         -5    1    4    4    0  501  0.99201358669E+02  0.29534916937E+02  0.23366190537E+02  0.10619167642E+03  0.41800000000E+01 0.  1.
</event>
<event>
11    1  0.7157190E-009  0.1359468E+03  0.7561462E-02  0.1112171E+00
         22   -1    0    0    0    0  0.00000000000E+00  0.00000000000E+00  0.27965554493E+04  0.27965554493E+04  0.00000000000E+00 0. -1.
         22   -1    0    0    0    0 -0.00000000000E+00 -0.00000000000E+00 -0.41251509573E+02  0.41251509573E+02  0.00000000000E+00 0.  1.
        -24    2    1    2    0    0 -0.50478892344E+02  0.20679043227E+02  0.68838496342E+02  0.12111651288E+03  0.83395022110E+02 0.  0.
         25    2    1    2    0    0  0.35059081959E+02 -0.40251721887E+02  0.30694694110E+03  0.33572268854E+03  0.12507581144E+03 0.  0.
         24    2    1    2    0    0  0.15419810385E+02  0.19572678660E+02  0.23795185023E+04  0.23809677574E+04  0.79235718033E+02 0.  0.
        -13    1    5    5    0    0 -0.25713983081E+02  0.22420668069E+02  0.59814471404E+03  0.59911684521E+03  0.00000000000E+00 0.  1.
         14    1    5    5    0    0  0.41133793466E+02 -0.28479894094E+01  0.17813737882E+04  0.17818509122E+04  0.00000000000E+00 0. -1.
         13    1    3    3    0    0 -0.24018375731E+02  0.50859769446E+02  0.54980012867E+02  0.78653673377E+02  0.00000000000E+00 0. -1.
        -14    1    3    3    0    0 -0.26460516612E+02 -0.30180726219E+02  0.13858483475E+02  0.42462839504E+02  0.00000000000E+00 0.  1.
          5    1    4    4  501    0 -0.48002344728E+01 -0.43807575586E+02  0.28776293882E+03  0.29114794743E+03  0.41800000000E+01 0.  1.
         -5    1    4    4    0  501  0.39859316432E+02  0.35558536994E+01  0.19184002277E+02  0.44574741113E+02  0.41800000000E+01 0.  1.
</event>
<event>
11    1  0.7157190E-009  0.1953037E+03  0.7561462E-02  0.1057895E+00
         22   -1    0    0    0    0  0.00000000000E+00  0.00000000000E+00  0.17885858028E+04  0.17885858028E+04  0.00000000000E+00 0. -1.
         22   -1    0    0    0    0 -0.00000000000E+00 -0.00000000000E+00 -0.14702068037E+03  0.14702068037E+03  0.00000000000E+00 0.  1.
        -24    2    1    2    0    0  0.60155046642E+01 -0.14250640885E+03 -0.41529637556E+02  0.16925712008E+03  0.81111029105E+02 0.  0.
         25    2    1    2    0    0 -0.76941108668E+02  0.18554719482E+03  0.31749802843E+03  0.39598118172E+03  0.12509357500E+03 0.  0.
         24    2    1    2    0    0  0.70925604004E+02 -0.43040785970E+02  0.13655967316E+04  0.13703681814E+04  0.78559332275E+02 0.  0.
        -11    1    5    5    0    0  0.59460718889E+02 -0.25315681593E+02  0.45915581984E+03  0.46368149383E+03  0.00000000000E+00 0.  1.
         12    1    5    5    0    0  0.11464885115E+02 -0.17725104377E+02  0.90644091176E+03  0.90668668758E+03  0.00000000000E+00 0. -1.
         13    1    3    3    0    0 -0.13011580071E+02 -0.22219186822E+02 -0.39871643533E+02  0.47463053389E+02  0.00000000000E+00 0. -1.
        -14    1    3    3    0    0  0.19027084735E+02 -0.12028722203E+03 -0.16579940231E+01  0.12179406669E+03  0.00000000000E+00 0.  1.
          5    1    4    4  501    0 -0.10288973390E+03  0.17621409884E+03  0.30070028226E+03  0.36342239629E+03  0.41800000000E+01 0. -1.
         -5    1    4    4    0  501  0.25948625235E+02  0.93330959803E+01  0.16797746174E+02  0.32558785430E+02  0.41800000000E+01 0. -1.
</event>
<event>
11    1  0.7157190E-009  0.1538788E+03  0.7561462E-02  0.1092980E+00
         22   -1    0    0    0    0  0.00000000000E+00  0.00000000000E+00  0.25159656675E+03  0.25159656675E+03  0.00000000000E+00 0.  1.
         22   -1    0    0    0    0 -0.00000000000E+00 -0.00000000000E+00 -0.78284253943E+03  0.78284253943E+03  0.00000000000E+00 0. -1.
        -24    2    1    2    0    0  0.71485517268E+02  0.45428993999E+02 -0.51294598795E+03  0.52677725923E+03  0.84892411993E+02 0.  0.
         25    2    1    2    0    0 -0.11306582196E+03 -0.24023818225E+02 -0.22351322374E+03  0.28100891939E+03  0.12508728014E+03 0.  0.
         24    2    1    2    0    0  0.41580304694E+02 -0.21405175773E+02  0.20521323900E+03  0.22665292756E+03  0.84095022571E+02 0.  0.
        -13    1    5    5    0    0  0.58433843387E+02  0.87808504966E+01  0.15317365112E+03  0.16417607861E+03  0.00000000000E+00 0.  1.
         14    1    5    5    0    0 -0.16853538693E+02 -0.30186026270E+02  0.52039587879E+02  0.62476848953E+02  0.00000000000E+00 0. -1.
         13    1    3    3    0    0  0.82946102139E+02  0.46500924197E+02 -0.32887025924E+03  0.34234199162E+03  0.00000000000E+00 0. -1.
        -14    1    3    3    0    0 -0.11460584871E+02 -0.10719301987E+01 -0.18407572871E+03  0.18443526761E+03  0.00000000000E+00 0.  1.
          5    1    4    4  501    0 -0.88227149651E+02 -0.64182359856E+02 -0.97521312353E+02  0.14639427590E+03  0.41800000000E+01 0. -1.
         -5    1    4    4    0  501 -0.24838672312E+02  0.40158541631E+02 -0.12599191139E+03  0.13461464349E+03  0.41800000000E+01 0. -1.
</event>
<event>
11    1  0.7157190E-009  0.1411608E+03  0.7561462E-02  0.1106269E+00
         22   -1    0    0    0    0  0.00000000000E+00  0.00000000000E+00  0.62857305983E+03  0.62857305983E+03  0.00000000000E+00 0.  1.
         22   -1    0    0    0    0 -0.00000000000E+00 -0.00000000000E+00 -0.19454534440E+03  0.19454534440E+03  0.00000000000E+00 0.  1.
        -24    2    1    2    0    0  0.35949421685E+01  0.54820499372E+02 -0.13493695628E+03  0.16863862221E+03  0.84928157714E+02 0.  0.
         25    2    1    2    0    0 -0.10313406365E+02  0.17683463339E+02  0.71868636844E+02  0.14570868881E+03  0.12508736870E+03 0.  0.
         24    2    1    2    0    0  0.67184641966E+01 -0.72503962712E+02  0.49709603485E+03  0.50877109320E+03  0.80259547979E+02 0.  0.
        -11    1    5    5    0    0 -0.47265588293E+01 -0.58595862941E+02  0.48111055705E+03  0.48468874921E+03  0.00000000000E+00 0.  1.
         12    1    5    5    0    0  0.11445023026E+02 -0.13908099771E+02  0.15985477806E+02  0.24082343988E+02  0.00000000000E+00 0. -1.
         11    1    3    3    0    0  0.33481561101E+02  0.19768864989E+02 -0.17786013225E+02  0.42757048813E+02  0.00000000000E+00 0. -1.
        -12    1    3    3    0    0 -0.29886618933E+02  0.35051634383E+02 -0.11715094305E+03  0.12588157340E+03  0.00000000000E+00 0.  1.
          5    1    4    4  501    0 -0.23400031064E+02  0.66637719292E+02  0.21035965465E+02  0.73811457981E+02  0.41800000000E+01 0.  1.
         -5    1    4    4    0  501  0.13086624699E+02 -0.48954255953E+02  0.50832671378E+02  0.71897230832E+02  0.41800000000E+01 0.  1.
</event>
<event>
11    1  0.7157190E-009  0.1278338E+03  0.7561462E-02  0.1121960E+00
         22   -1    0    0    0    0  0.00000000000E+00  0.00000000000E+00  0.10149530419E+03  0.10149530419E+03  0.00000000000E+00 0. -1.
         22   -1    0    0    0    0 -0.00000000000E+00 -0.00000000000E+00 -0.10127019682E+04  0.10127019682E+04  0.00000000000E+00 0.  1.
        -24    2    1    2    0    0 -0.76669632976E+01  0.30118683454E+02 -0.80617161150E+03  0.81086611039E+03  0.81395726904E+02 0.  0.
         25    2    1    2    0    0  0.96736534171E+01  0.70123877911E+00 -0.14942259749E+03  0.19511670132E+03  0.12509733484E+03 0.  0.
         24    2    1    2    0    0 -0.20066901195E+01 -0.30819922233E+02  0.44387544961E+02  0.10821446070E+03  0.93734843820E+02 0.  0.
        -13    1    5    5    0    0 -0.12176277554E+02  0.18266031806E+02  0.52986457207E+02  0.57353938839E+02  0.00000000000E+00 0.  1.
         14    1    5    5    0    0  0.10169587434E+02 -0.49085954038E+02 -0.85989122464E+01  0.50860521864E+02  0.00000000000E+00 0. -1.
         11    1    3    3    0    0  0.21254749274E+02 -0.13169198192E+02 -0.11257103501E+03  0.11531448335E+03  0.00000000000E+00 0. -1.
        -12    1    3    3    0    0 -0.28921712571E+02  0.43287881646E+02 -0.69360057650E+03  0.69555162704E+03  0.00000000000E+00 0.  1.
          5    1    4    4  501    0 -0.17301773175E+02  0.37553068639E+02 -0.29840006247E+01  0.41664865041E+02  0.41800000000E+01 0.  1.
         -5    1    4    4    0  501  0.26975426592E+02 -0.36851829860E+02 -0.14643859687E+03  0.15345183627E+03  0.41800000000E+01 0.  1.
</event>
<event>
11    1  0.7157190E-009  0.1382576E+03  0.7561462E-02  0.1109520E+00
         22   -1    0    0    0    0  0.00000000000E+00  0.00000000000E+00  0.24951475595E+03  0.24951475595E+03  0.00000000000E+00 0.  1.
         22   -1    0    0    0    0 -0.00000000000E+00 -0.00000000000E+00 -0.13817437540E+03  0.13817437540E+03  0.00000000000E+00 0.  1.
        -24    2    1    2    0    0  0.28451406911E+02  0.52161522368E+01 -0.41192424807E+02  0.92538378278E+02  0.77652075268E+02 0.  0.
         25    2    1    2    0    0 -0.30770056683E+02  0.54213589179E+02  0.41597272861E+02  0.14582485631E+03  0.12509454812E+03 0.  0.
         24    2    1    2    0    0  0.23186497715E+01 -0.59429741416E+02  0.11093553249E+03  0.14932589676E+03  0.80338414060E+02 0.  0.
        -13    1    5    5    0    0  0.29786858083E+02 -0.58380922238E+02  0.49862982848E+02  0.82352328772E+02  0.00000000000E+00 0.  1.
         14    1    5    5    0    0 -0.27468208311E+02 -0.10488191781E+01  0.61072549644E+02  0.66973567992E+02  0.00000000000E+00 0. -1.
         13    1    3    3    0    0  0.17723010011E+02  0.31668993904E+02  0.65844104992E+01  0.36883393558E+02  0.00000000000E+00 0. -1.
        -14    1    3    3    0    0  0.10728396901E+02 -0.26452841667E+02 -0.47776835306E+02  0.55654984720E+02  0.00000000000E+00 0.  1.
          5    1    4    4  501    0 -0.12793601378E+01  0.69015044964E+01  0.78443510430E+02  0.78867764361E+02  0.41800000000E+01 0.  1.
         -5    1    4    4    0  501 -0.29490696545E+02  0.47312084683E+02 -0.36846237570E+02  0.66957091953E+02  0.41800000000E+01 0.  1.
</event>
<event>
11    1  0.7157190E-009  0.1287365E+03  0.7561462E-02  0.1120831E+00
         22   -1    0    0    0    0  0.00000000000E+00  0.00000000000E+00  0.68018896057E+03  0.68018896057E+03  0.00000000000E+00 0.  1.
         22   -1    0    0    0    0 -0.00000000000E+00 -0.00000000000E+00 -0.59902796530E+03  0.59902796530E+03  0.00000000000E+00 0.  1.
        -24    2    1    2    0    0 -0.25997403224E+01  0.30006587750E+02 -0.32716501849E+03  0.33908453842E+03  0.83870262424E+02 0.  0.
         25    2    1    2    0    0  0.34064137739E+02 -0.23784354262E+02 -0.24660961905E+03  0.27962756107E+03  0.12509679338E+03 0.  0.
         24    2    1    2    0    0 -0.31464397417E+02 -0.62222334878E+01  0.65493563281E+03  0.66050482638E+03  0.79355012763E+02 0.  0.
        -11    1    5    5    0    0 -0.32379597072E+02 -0.37090581259E+02  0.50670438090E+03  0.50909083585E+03  0.00000000000E+00 0.  1.
         12    1    5    5    0    0  0.91519965555E+00  0.30868347771E+02  0.14823125191E+03  0.15141399053E+03  0.00000000000E+00 0. -1.
         11    1    3    3    0    0  0.80338671952E+01  0.24317681288E+02 -0.22234294052E+02  0.33915431257E+02  0.00000000000E+00 0. -1.
        -12    1    3    3    0    0 -0.10633607518E+02  0.56889064624E+01 -0.30493072443E+03  0.30516910717E+03  0.00000000000E+00 0.  1.
          5    1    4    4  501    0 -0.19030099651E+02  0.28744944207E+02 -0.16625513386E+03  0.16984304062E+03  0.41800000000E+01 0.  1.
         -5    1    4    4    0  501  0.53094237390E+02 -0.52529298469E+02 -0.80354485192E+02  0.10978452046E+03  0.41800000000E+01 0.  1.
</event>
<event>
11    1  0.7157190E-009  0.1973595E+03  0.7561462E-02  0.1056407E+00
         22   -1    0    0    0    0  0.00000000000E+00  0.00000000000E+00  0.69838118882E+03  0.69838118882E+03  0.00000000000E+00 0. -1.
         22   -1    0    0    0    0 -0.00000000000E+00 -0.00000000000E+00 -0.14733469331E+04  0.14733469331E+04  0.00000000000E+00 0. -1.
        -24    2    1    2    0    0  0.89416340278E+01  0.35883254582E+02 -0.13818265721E+04  0.13846616442E+04  0.80471315987E+02 0.  0.
         25    2    1    2    0    0  0.13470617525E+03  0.24507644882E+02  0.34853978708E+02  0.18870716489E+03  0.12509682625E+03 0.  0.
         24    2    1    2    0    0 -0.14364780928E+03 -0.60390899464E+02  0.57200684908E+03  0.59835931290E+03  0.80995543641E+02 0.  0.
        -11    1    5    5    0    0 -0.43284494452E+02 -0.34532157805E+02  0.92725393199E+02  0.10800007373E+03  0.00000000000E+00 0.  1.
         12    1    5    5    0    0 -0.10036331483E+03 -0.25858741659E+02  0.47928145588E+03  0.49035923916E+03  0.00000000000E+00 0. -1.
         13    1    3    3    0    0 -0.14096977017E+02  0.56086825242E+02 -0.87344221890E+03  0.87535465183E+03  0.00000000000E+00 0. -1.
        -14    1    3    3    0    0  0.23038611045E+02 -0.20203570661E+02 -0.50838435321E+03  0.50930699235E+03  0.00000000000E+00 0.  1.
          5    1    4    4  501    0  0.11877292241E+03 -0.28779608708E+02  0.48065049433E+02  0.13138871470E+03  0.41800000000E+01 0. -1.
         -5    1    4    4    0  501  0.15933252847E+02  0.53287253590E+02 -0.13211070725E+02  0.57318450181E+02  0.41800000000E+01 0. -1.
</event>
<event>
11    1  0.7157190E-009  0.1482316E+03  0.7561462E-02  0.1098700E+00
         22   -1    0    0    0    0  0.00000000000E+00  0.00000000000E+00  0.10951264908E+04  0.10951264908E+04  0.00000000000E+00 0.  1.
         22   -1    0    0    0    0 -0.00000000000E+00 -0.00000000000E+00 -0.10284649675E+03  0.10284649675E+03  0.00000000000E+00 0. -1.
         24    2    1    2    0    0 -0.19410018831E+02  0.22223934734E+02 -0.19230695192E+02  0.87608695332E+02  0.80217278401E+02 0.  0.
         25    2    1    2    0    0 -0.56409942205E+02  0.71029976353E+01  0.56447010979E+02  0.14855450652E+03  0.12509852998E+03 0.  0.
        -24    2    1    2    0    0  0.75819961037E+02 -0.29326932369E+02  0.95506367823E+03  0.96180978566E+03  0.79515400169E+02 0.  0.
        -11    1    3    3    0    0  0.14932140783E+02  0.86476013660E+01  0.24755722123E+02  0.30176076875E+02  0.00000000000E+00 0.  1.
         12    1    3    3    0    0 -0.34342159614E+02  0.13576333368E+02 -0.43986417314E+02  0.57432618457E+02  0.00000000000E+00 0. -1.
         11    1    5    5    0    0  0.11911669926E+02 -0.39201468155E+02  0.21098087451E+03  0.21492224732E+03  0.00000000000E+00 0. -1.
        -12    1    5    5    0    0  0.63908291111E+02  0.98745357861E+01  0.74408280372E+03  0.74688753834E+03  0.00000000000E+00 0.  1.
          5    1    4    4  501    0 -0.53613887999E+02 -0.29282591327E+02  0.83063224849E+02  0.10319346328E+03  0.41800000000E+01 0.  1.
         -5    1    4    4    0  501 -0.27960542062E+01  0.36385588962E+02 -0.26616213871E+02  0.45361043242E+02  0.41800000000E+01 0.  1.
</event>
<event>
11    1  0.7157190E-009  0.1935623E+03  0.7561462E-02  0.1059172E+00
         22   -1    0    0    0    0  0.00000000000E+00  0.00000000000E+00  0.45890022528E+03  0.45890022528E+03  0.00000000000E+00 0.  1.
         22   -1    0    0    0    0 -0.00000000000E+00 -0.00000000000E+00 -0.60392785116E+03  0.60392785116E+03  0.00000000000E+00 0.  1.
         24    2    1    2    0    0  0.49594405441E+02 -0.14367902836E+03 -0.51617567847E+03  0.54402592783E+03  0.80147432067E+02 0.  0.
         25    2    1    2    0    0 -0.60903363029E+02  0.99720581792E+02  0.40709226558E+02  0.17594897579E+03  0.12508951552E+03 0.  0.
        -24    2    1    2    0    0  0.11308957588E+02  0.43958446569E+02  0.33043882603E+03  0.34285317282E+03  0.79361469328E+02 0.  0.
        -11    1    3    3    0    0  0.61503801104E+02 -0.13452539028E+03 -0.50212100089E+03  0.52345515349E+03  0.00000000000E+00 0.  1.
         12    1    3    3    0    0 -0.11909395663E+02 -0.91536380779E+01 -0.14054677580E+02  0.20570774341E+02  0.00000000000E+00 0. -1.
         11    1    5    5    0    0 -0.26416478468E+01  0.23981175701E+02  0.19664320054E+02  0.31124918868E+02  0.00000000000E+00 0. -1.
        -12    1    5    5    0    0  0.13950605435E+02  0.19977270867E+02  0.31077450598E+03  0.31172825395E+03  0.00000000000E+00 0.  1.
          5    1    4    4  501    0  0.32147614165E+02  0.22622968302E+02 -0.15687110189E+02  0.42530290587E+02  0.41800000000E+01 0.  1.
         -5    1    4    4    0  501 -0.93050977194E+02  0.77097613490E+02  0.56396336747E+02  0.13341868520E+03  0.41800000000E+01 0.  1.
</event>
<event>
11    1  0.7157190E-009  0.1445543E+03  0.7561462E-02  0.1102577E+00
         22   -1    0    0    0    0  0.00000000000E+00  0.00000000000E+00  0.30263569141E+03  0.30263569141E+03  0.00000000000E+00 0.  1.
         22   -1    0    0    0    0 -0.00000000000E+00 -0.00000000000E+00 -0.45621779874E+03  0.45621779874E+03  0.00000000000E+00 0.  1.
        -24    2    1    2    0    0  0.65987254084E+02  0.17608707908E+02 -0.31486601948E+03  0.33202284021E+03  0.80213290078E+02 0.  0.
         25    2    1    2    0    0 -0.97824188404E+02 -0.81915084807E+01 -0.74382456955E+02  0.17554667373E+03  0.12508881687E+03 0.  0.
         24    2    1    2    0    0  0.31836934320E+02 -0.94171994275E+01  0.23566636911E+03  0.25128397621E+03  0.80639476291E+02 0.  0.
        -11    1    5    5    0    0  0.29852746042E+02  0.11573446638E+02  0.22570569453E+03  0.22796532995E+03  0.00000000000E+00 0.  1.
         12    1    5    5    0    0  0.19841882782E+01 -0.20990646065E+02  0.99606745785E+01  0.23318646260E+02  0.00000000000E+00 0. -1.
         11    1    3    3    0    0 -0.10431802112E+02 -0.18183098967E+02 -0.62049581976E+02  0.65495024290E+02  0.00000000000E+00 0. -1.
        -12    1    3    3    0    0  0.76419056196E+02  0.35791806875E+02 -0.25281643750E+03  0.26652781592E+03  0.00000000000E+00 0.  1.
          5    1    4    4  501    0 -0.47387111465E+02 -0.66333879826E+02 -0.43611450566E+02  0.92548111630E+02  0.41800000000E+01 0.  1.
         -5    1    4    4    0  501 -0.50437076939E+02  0.58142371345E+02 -0.30771006390E+02  0.82998562096E+02  0.41800000000E+01 0.  1.
</event>
<event>
11    1  0.7157190E-009  0.1595370E+03  0.7561462E-02  0.1087514E+00
         22   -1    0    0    0    0  0.00000000000E+00  0.00000000000E+00  0.12425258591E+04  0.12425258591E+04  0.00000000000E+00 0.  1.
         22   -1    0    0    0    0 -0.00000000000E+00 -0.00000000000E+00 -0.23493071754E+03  0.23493071754E+03  0.00000000000E+00 0.  1.
        -24    2    1    2    0    0 -0.94213205250E+02  0.37482818272E+02 -0.17458859068E+03  0.21687030853E+03  0.79186267858E+02 0.  0.
         25    2    1    2    0    0  0.76924839395E+02 -0.29395258343E+02  0.11151193016E+03  0.18671252141E+03  0.12508054587E+03 0.  0.
         24    2    1    2    0    0  0.17288365855E+02 -0.80875599293E+01  0.10706718021E+04  0.10738737467E+04  0.80637583434E+02 0.  0.
        -13    1    5    5    0    0 -0.13734845309E+02  0.22745549410E+02  0.71922247768E+03  0.71971312229E+03  0.00000000000E+00 0.  1.
         14    1    5    5    0    0  0.31023211164E+02 -0.30833109339E+02  0.35144932443E+03  0.35416062444E+03  0.00000000000E+00 0. -1.
         13    1    3    3    0    0 -0.52849485884E+02  0.60902168940E+02 -0.10059395736E+03  0.12892356882E+03  0.00000000000E+00 0. -1.
        -14    1    3    3    0    0 -0.41363719366E+02 -0.23419350668E+02 -0.73994633323E+02  0.87946739713E+02  0.00000000000E+00 0.  1.
          5    1    4    4  501    0 -0.13601444646E+02 -0.13550106345E+02  0.90151249169E+02  0.92267680177E+02  0.41800000000E+01 0.  1.
         -5    1    4    4    0  501  0.90526284041E+02 -0.15845151998E+02  0.21360680991E+02  0.94444841238E+02  0.41800000000E+01 0.  1.
</event>
<event>
11    1  0.7157190E-009  0.1353011E+03  0.7561462E-02  0.1112922E+00
         22   -1    0    0    0    0  0.00000000000E+00  0.00000000000E+00  0.18943392019E+03  0.18943392019E+03  0.00000000000E+00 0.  1.
         22   -1    0    0    0    0 -0.00000000000E+00 -0.00000000000E+00 -0.27603858668E+03  0.27603858668E+03  0.00000000000E+00 0.  1.
        -24    2    1    2    0    0 -0.29009910815E+02  0.36025015288E+02 -0.10255265002E+03  0.14625886075E+03  0.93462461280E+02 0.  0.
         25    2    1    2    0    0  0.68045841747E+02 -0.14063048105E+02 -0.97640711795E+02  0.17323228213E+03  0.12509080330E+03 0.  0.
         24    2    1    2    0    0 -0.39035930932E+02 -0.21961967183E+02  0.11358869533E+03  0.14598136400E+03  0.80012717890E+02 0.  0.
        -13    1    5    5    0    0 -0.56161647906E+02  0.63415619613E+01  0.85980802059E+02  0.10289336435E+03  0.00000000000E+00 0.  1.
         14    1    5    5    0    0  0.17125716974E+02 -0.28303529144E+02  0.27607893268E+02  0.43087999658E+02  0.00000000000E+00 0. -1.
         11    1    3    3    0    0  0.67804556089E+01  0.13530227485E+02  0.15017181701E+02  0.21320351318E+02  0.00000000000E+00 0. -1.
        -12    1    3    3    0    0 -0.35790366424E+02  0.22494787803E+02 -0.11756983172E+03  0.12493850943E+03  0.00000000000E+00 0.  1.
          5    1    4    4  501    0  0.10015080214E+03 -0.28596557998E+02 -0.55340309006E+02  0.11801681448E+03  0.41800000000E+01 0. -1.
         -5    1    4    4    0  501 -0.32104960392E+02  0.14533509893E+02 -0.42300402789E+02  0.55215467649E+02  0.41800000000E+01 0. -1.
</event>
<event>
11    1  0.7157190E-009  0.1519420E+03  0.7561462E-02  0.1094911E+00
         22   -1    0    0    0    0  0.00000000000E+00  0.00000000000E+00  0.86636659300E+03  0.86636659300E+03  0.00000000000E+00 0.  1.
         22   -1    0    0    0    0 -0.00000000000E+00 -0.00000000000E+00 -0.29008275740E+03  0.29008275740E+03  0.00000000000E+00 0. -1.
         24    2    1    2    0    0  0.94945221733E+02 -0.25050270599E+02 -0.22568898970E+03  0.25927618697E+03  0.81526129986E+02 0.  0.
         25    2    1    2    0    0 -0.20447906456E+02  0.23735736267E+01  0.49064333069E+02  0.13594232791E+03  0.12509699040E+03 0.  0.
        -24    2    1    2    0    0 -0.74497315277E+02  0.22676696973E+02  0.75290849224E+03  0.76123083552E+03  0.80852363502E+02 0.  0.
        -11    1    3    3    0    0  0.21095366326E+02  0.12592602393E+01 -0.14588316316E+03  0.14740589375E+03  0.00000000000E+00 0.  1.
         12    1    3    3    0    0  0.73849855407E+02 -0.26309530839E+02 -0.79805826539E+02  0.11187029322E+03  0.00000000000E+00 0. -1.
         13    1    5    5    0    0 -0.22338904527E+00 -0.15187547221E+02  0.30965826491E+02  0.34490490045E+02  0.00000000000E+00 0. -1.
        -14    1    5    5    0    0 -0.74273926232E+02  0.37864244194E+02  0.72194266575E+03  0.72674034547E+03  0.00000000000E+00 0.  1.
          5    1    4    4  501    0  0.31416400668E+02  0.38967734038E+01 -0.28318695904E+02  0.42680159460E+02  0.41800000000E+01 0. -1.
         -5    1    4    4    0  501 -0.51864307124E+02 -0.15231997770E+01  0.77383028973E+02  0.93262168450E+02  0.41800000000E+01 0. -1.
</event>
<event>
11    1  0.7157190E-009  0.1613107E+03  0.7561462E-02  0.1085851E+00
         22   -1    0    0    0    0  0.00000000000E+00  0.00000000000E+00  0.64585487075E+02  0.64585487075E+02  0.00000000000E+00 0. -1.
         22   -1    0    0    0    0 -0.00000000000E+00 -0.00000000000E+00 -0.21850238478E+04  0.21850238478E+04  0.00000000000E+00 0. -1.
         24    2    1    2    0    0 -0.99235773435E+01  0.41156453624E+02 -0.14120753664E+04  0.14150261058E+04  0.80930271162E+02 0.  0.
         25    2    1    2    0    0  0.81633471261E+02  0.35388037261E+02 -0.65833826223E+03  0.67599706700E+03  0.12508569168E+03 0.  0.
        -24    2    1    2    0    0 -0.71709893917E+02 -0.76544490885E+02 -0.50024732121E+02  0.15858616205E+03  0.10791537888E+03 0.  0.
        -13    1    3    3    0    0  0.30309210045E+02 -0.43152424103E+01 -0.48004938951E+03  0.48102462088E+03  0.00000000000E+00 0.  1.
         14    1    3    3    0    0 -0.40232787389E+02  0.45471696034E+02 -0.93202597686E+03  0.93400148493E+03  0.00000000000E+00 0. -1.
         11    1    5    5    0    0 -0.49336087780E+02  0.13063418609E+02  0.46659703082E+01  0.51249134062E+02  0.00000000000E+00 0. -1.
        -12    1    5    5    0    0 -0.22373806137E+02 -0.89607909494E+02 -0.54690702429E+02  0.10733702799E+03  0.00000000000E+00 0.  1.
          5    1    4    4  501    0 -0.10084313306E+02 -0.29743884868E+02 -0.67961985430E+02  0.74984637929E+02  0.41800000000E+01 0.  1.
         -5    1    4    4    0  501  0.91717784567E+02  0.65131922128E+02 -0.59037627680E+03  0.60101242907E+03  0.41800000000E+01 0.  1.
</event>
<event>
11    1  0.7157190E-009  0.1446080E+03  0.7561462E-02  0.1102519E+00
         22   -1    0    0    0    0  0.00000000000E+00  0.00000000000E+00  0.24564767013E+02  0.24564767013E+02  0.00000000000E+00 0.  1.
         22   -1    0    0    0    0 -0.00000000000E+00 -0.00000000000E+00 -0.32221690806E+04  0.32221690806E+04  0.00000000000E+00 0. -1.
        -24    2    1    2    0    0 -0.33771655669E+02  0.67644393804E+02 -0.26670040913E+04  0.26692982465E+04  0.80783765904E+02 0.  0.
         25    2    1    2    0    0 -0.87774164999E+01 -0.45034307012E+02 -0.31677638054E+03  0.34365647281E+03  0.12508942476E+03 0.  0.
         24    2    1    2    0    0  0.42549072169E+02 -0.22610086792E+02 -0.21382384170E+03  0.23377912830E+03  0.81304403194E+02 0.  0.
        -11    1    5    5    0    0 -0.12303904914E+02  0.16284087009E+02 -0.19809751350E+02  0.28442640778E+02  0.00000000000E+00 0.  1.
         12    1    5    5    0    0  0.54852977083E+02 -0.38894173802E+02 -0.19401409035E+03  0.20533648752E+03  0.00000000000E+00 0. -1.
         11    1    3    3    0    0 -0.55003054020E+02  0.59805359690E+02 -0.23864234887E+04  0.23878063331E+04  0.00000000000E+00 0. -1.
        -12    1    3    3    0    0  0.21231398351E+02  0.78390341148E+01 -0.28058060257E+03  0.28149191333E+03  0.00000000000E+00 0.  1.
          5    1    4    4  501    0  0.49212532450E+02  0.12475310162E+02 -0.13661928290E+03  0.14580743319E+03  0.41800000000E+01 0.  1.
         -5    1    4    4    0  501 -0.57989948950E+02 -0.57509617174E+02 -0.18015709764E+03  0.19784903961E+03  0.41800000000E+01 0.  1.
</event>
<event>
11    1  0.7157190E-009  0.1338415E+03  0.7561462E-02  0.1114637E+00
         22   -1    0    0    0    0  0.00000000000E+00  0.00000000000E+00  0.34072392122E+03  0.34072392122E+03  0.00000000000E+00 0. -1.
         22   -1    0    0    0    0 -0.00000000000E+00 -0.00000000000E+00 -0.27819008722E+03  0.27819008722E+03  0.00000000000E+00 0.  1.
         24    2    1    2    0    0 -0.32845447140E+02  0.24798651838E+02 -0.20026320778E+03  0.21952225427E+03  0.79942924646E+02 0.  0.
         25    2    1    2    0    0  0.45519767627E+02 -0.66053288738E+02  0.33535715159E+02  0.15233843563E+03  0.12508904260E+03 0.  0.
        -24    2    1    2    0    0 -0.12674320487E+02  0.41254636900E+02  0.22926132662E+03  0.24705331855E+03  0.81314222971E+02 0.  0.
        -11    1    3    3    0    0 -0.13835262874E+02  0.42347530727E+02 -0.18317916485E+03  0.18851879029E+03  0.00000000000E+00 0.  1.
         12    1    3    3    0    0 -0.19010184266E+02 -0.17548878888E+02 -0.17084042923E+02  0.31003463978E+02  0.00000000000E+00 0. -1.
         11    1    5    5    0    0  0.21479686724E+02  0.42732036105E+00  0.15028895637E+03  0.15181676440E+03  0.00000000000E+00 0. -1.
        -12    1    5    5    0    0 -0.34154007211E+02  0.40827316539E+02  0.78972370246E+02  0.95236554152E+02  0.00000000000E+00 0.  1.
          5    1    4    4  501    0 -0.76832706106E+01 -0.75637824900E+02 -0.17223949487E+02  0.78065677725E+02  0.41800000000E+01 0. -1.
         -5    1    4    4    0  501  0.53203038238E+02  0.95845361613E+01  0.50759664645E+02  0.74272757900E+02  0.41800000000E+01 0. -1.
</event>
<event>
11    1  0.7157190E-009  0.1573950E+03  0.7561462E-02  0.1089553E+00
         22   -1    0    0    0    0  0.00000000000E+00  0.00000000000E+00  0.21407536359E+03  0.21407536359E+03  0.00000000000E+00 0. -1.
         22   -1    0    0    0    0 -0.00000000000E+00 -0.00000000000E+00 -0.91867685716E+03  0.91867685716E+03  0.00000000000E+00 0.  1.
        -24    2    1    2    0    0 -0.78084693658E+02  0.40834479944E+02 -0.57543113167E+03  0.58765485000E+03  0.80327836398E+02 0.  0.
         25    2    1    2    0    0  0.86015168605E+02 -0.10452296188E+03 -0.29605249847E+03  0.34874130389E+03  0.12509898641E+03 0.  0.
         24    2    1    2    0    0 -0.79304749464E+01  0.63688481935E+02  0.16688213656E+03  0.19635606687E+03  0.81159979837E+02 0.  0.
        -11    1    5    5    0    0  0.30273416017E+02  0.17619182440E+02  0.27056371719E+02  0.44260168976E+02  0.00000000000E+00 0.  1.
         12    1    5    5    0    0 -0.38203890963E+02  0.46069299495E+02  0.13982576484E+03  0.15209589789E+03  0.00000000000E+00 0. -1.
         11    1    3    3    0    0 -0.53868422792E+02  0.32371663195E+02 -0.16724469039E+03  0.17866314118E+03  0.00000000000E+00 0. -1.
        -12    1    3    3    0    0 -0.24216270867E+02  0.84628167492E+01 -0.40818644128E+03  0.40899170882E+03  0.00000000000E+00 0.  1.
          5    1    4    4  501    0  0.81107541717E+02 -0.38625879205E+02 -0.25604871666E+03  0.27138314165E+03  0.41800000000E+01 0. -1.
         -5    1    4    4    0  501  0.49076268877E+01 -0.65897082674E+02 -0.40003781809E+02  0.77358162243E+02  0.41800000000E+01 0. -1.
</event>
<event>
11    1  0.7157190E-009  0.1781972E+03  0.7561462E-02  0.1071110E+00
         22   -1    0    0    0    0  0.00000000000E+00  0.00000000000E+00  0.16998046252E+04  0.16998046252E+04  0.00000000000E+00 0. -1.
         22   -1    0    0    0    0 -0.00000000000E+00 -0.00000000000E+00 -0.84487850976E+02  0.84487850976E+02  0.00000000000E+00 0. -1.
         24    2    1    2    0    0  0.26810686670E+02 -0.11778138785E+03  0.24706714084E+02  0.14714935871E+03  0.80319635242E+02 0.  0.
         25    2    1    2    0    0  0.33878807028E+02  0.18155666739E+03  0.61458090816E+03  0.65381084224E+03  0.12509327604E+03 0.  0.
        -24    2    1    2    0    0 -0.60689493698E+02 -0.63775279541E+02  0.97602915196E+03  0.98333227521E+03  0.80987388332E+02 0.  0.
        -13    1    3    3    0    0  0.18686605610E+02 -0.19627861136E+02  0.39141762545E+02  0.47607979763E+02  0.00000000000E+00 0.  1.
         14    1    3    3    0    0  0.81240810598E+01 -0.98153526710E+02 -0.14435048461E+02  0.99541378948E+02  0.00000000000E+00 0. -1.
         13    1    5    5    0    0 -0.55227931564E+02 -0.36603735959E+02  0.89953995414E+03  0.90197676633E+03  0.00000000000E+00 0. -1.
        -14    1    5    5    0    0 -0.54615621337E+01 -0.27171543582E+02  0.76489197827E+02  0.81355508884E+02  0.00000000000E+00 0.  1.
          5    1    4    4  501    0  0.49261512651E+02  0.22958810319E+02  0.86902581743E+02  0.10258330621E+03  0.41800000000E+01 0. -1.
         -5    1    4    4    0  501 -0.15382705624E+02  0.15859785707E+03  0.52767832642E+03  0.55122753603E+03  0.41800000000E+01 0. -1.
</event>
<event>
11    1  0.7157190E-009  0.1743437E+03  0.7561462E-02  0.1074312E+00
         22   -1    0    0    0    0  0.00000000000E+00  0.00000000000E+00  0.31941572531E+04  0.31941572531E+04  0.00000000000E+00 0. -1.
         22   -1    0    0    0    0 -0.00000000000E+00 -0.00000000000E+00 -0.75825993921E+02  0.75825993921E+02  0.00000000000E+00 0.  1.
         24    2    1    2    0    0 -0.11839942482E+03  0.28554266793E+01  0.13953722124E+02  0.14595532865E+03  0.84152684687E+02 0.  0.
         25    2    1    2    0    0  0.17117141952E+03  0.57880248282E+01  0.13099678666E+04  0.13270256707E+04  0.12509261845E+03 0.  0.
        -24    2    1    2    0    0 -0.52771994696E+02 -0.86434515075E+01  0.17944096705E+04  0.17970022476E+04  0.80320731321E+02 0.  0.
        -11    1    3    3    0    0 -0.78850203720E+02 -0.37949412652E+02  0.28062168724E+00  0.87507664212E+02  0.00000000000E+00 0.  1.
         12    1    3    3    0    0 -0.39549221105E+02  0.40804839331E+02  0.13673100436E+02  0.58447664439E+02  0.00000000000E+00 0. -1.
         13    1    5    5    0    0  0.56351344035E+01  0.19290406654E+02  0.91168383303E+03  0.91190530536E+03  0.00000000000E+00 0. -1.
        -14    1    5    5    0    0 -0.58407129099E+02 -0.27933858161E+02  0.88272583744E+03  0.88509694229E+03  0.00000000000E+00 0.  1.
          5    1    4    4  501    0  0.10790523726E+03  0.59664423498E+02  0.62824674881E+03  0.64024591639E+03  0.41800000000E+01 0. -1.
         -5    1    4    4    0  501  0.63266182264E+02 -0.53876398670E+02  0.68172111775E+03  0.68677975431E+03  0.41800000000E+01 0. -1.
</event>
<event>
11    1  0.7157190E-009  0.1369193E+03  0.7561462E-02  0.1111048E+00
         22   -1    0    0    0    0  0.00000000000E+00  0.00000000000E+00  0.43085951678E+03  0.43085951678E+03  0.00000000000E+00 0.  1.
         22   -1    0    0    0    0 -0.00000000000E+00 -0.00000000000E+00 -0.89914546286E+03  0.89914546286E+03  0.00000000000E+00 0.  1.
        -24    2    1    2    0    0  0.33486472838E+02 -0.27029008331E+02 -0.81534231528E+03  0.82037857557E+03  0.79912483382E+02 0.  0.
         25    2    1    2    0    0 -0.50817652054E+02 -0.27083865887E+02 -0.11335474729E+02  0.13817583516E+03  0.12509236141E+03 0.  0.
         24    2    1    2    0    0  0.17331179216E+02  0.54112874219E+02  0.35839184393E+03  0.37145056891E+03  0.79386638817E+02 0.  0.
        -11    1    5    5    0    0  0.14851356115E+02  0.23918614617E+02  0.32556527821E+03  0.32678037469E+03  0.00000000000E+00 0.  1.
         12    1    5    5    0    0  0.24798231009E+01  0.30194259602E+02  0.32826565718E+02  0.44670194228E+02  0.00000000000E+00 0. -1.
         11    1    3    3    0    0 -0.90444680790E+01 -0.41175064042E+02 -0.27903816369E+03  0.28220468652E+03  0.00000000000E+00 0. -1.
        -12    1    3    3    0    0  0.42530940917E+02  0.14146055711E+02 -0.53630415160E+03  0.53817388904E+03  0.00000000000E+00 0.  1.
          5    1    4    4  501    0 -0.68066138317E+02 -0.63466271332E+02 -0.23178986032E+02  0.95998461319E+02  0.41800000000E+01 0.  1.
         -5    1    4    4    0  501  0.17248486263E+02  0.36382405445E+02  0.11843511303E+02  0.42177373843E+02  0.41800000000E+01 0.  1.
</event>
<event>
11    1  0.7157190E-009  0.2747066E+03  0.7561462E-02  0.1011503E+00
         22   -1    0    0    0    0  0.00000000000E+00  0.00000000000E+00  0.22462356489E+03  0.22462356489E+03  0.00000000000E+00 0. -1.
         22   -1    0    0    0    0 -0.00000000000E+00 -0.00000000000E+00 -0.23468684513E+04  0.23468684513E+04  0.00000000000E+00 0. -1.
        -24    2    1    2    0    0 -0.15108999144E+03  0.79394898450E+02 -0.16735276251E+04  0.16840037040E+04  0.77730480771E+02 0.  0.
         25    2    1    2    0    0  0.27784827833E+03 -0.26284960005E+03 -0.50330142915E+03  0.64439831015E+03  0.12508907035E+03 0.  0.
         24    2    1    2    0    0 -0.12675828689E+03  0.18345470160E+03  0.54584167870E+02  0.24309000203E+03  0.79937643639E+02 0.  0.
        -11    1    5    5    0    0 -0.49914237734E+02  0.13862324501E+03  0.25754173668E+02  0.14956975847E+03  0.00000000000E+00 0.  1.
         12    1    5    5    0    0 -0.76844049157E+02  0.44831456588E+02  0.28829994203E+02  0.93520243565E+02  0.00000000000E+00 0. -1.
         11    1    3    3    0    0 -0.10727978259E+03  0.41000744075E+02 -0.13787634324E+04  0.13835384401E+04  0.00000000000E+00 0. -1.
        -12    1    3    3    0    0 -0.43810208852E+02  0.38394154375E+02 -0.29476419271E+03  0.30046526387E+03  0.00000000000E+00 0.  1.
          5    1    4    4  501    0  0.21999184664E+03 -0.15341011557E+03 -0.27194594963E+03  0.38197270592E+03  0.41800000000E+01 0. -1.
         -5    1    4    4    0  501  0.57856431693E+02 -0.10943948448E+03 -0.23135547953E+03  0.26242560424E+03  0.41800000000E+01 0. -1.
</event>
<event>
11    1  0.7157190E-009  0.2483993E+03  0.7561462E-02  0.1024755E+00
         22   -1    0    0    0    0  0.00000000000E+00  0.00000000000E+00  0.41329017979E+03  0.41329017979E+03  0.00000000000E+00 0. -1.
         22   -1    0    0    0    0 -0.00000000000E+00 -0.00000000000E+00 -0.66722814297E+03  0.66722814297E+03  0.00000000000E+00 0.  1.
        -24    2    1    2    0    0  0.14736929832E+03 -0.20489113401E+03 -0.31969183552E+03  0.41549139889E+03  0.82049655489E+02 0.  0.
         25    2    1    2    0    0 -0.89005191850E+02  0.15887495054E+03 -0.24832601889E+03  0.33237500946E+03  0.12507662122E+03 0.  0.
         24    2    1    2    0    0 -0.58364106468E+02  0.46016183478E+02  0.31407989123E+03  0.33265191442E+03  0.80543528754E+02 0.  0.
        -13    1    5    5    0    0 -0.12364796029E+02  0.57497618106E+02  0.13215242254E+03  0.14464828741E+03  0.00000000000E+00 0.  1.
         14    1    5    5    0    0 -0.45999310439E+02 -0.11481434629E+02  0.18192746869E+03  0.18800362700E+03  0.00000000000E+00 0. -1.
         11    1    3    3    0    0  0.54267263153E+02 -0.21758360061E+02 -0.53571957316E+02  0.79298907264E+02  0.00000000000E+00 0. -1.
        -12    1    3    3    0    0  0.93102035166E+02 -0.18313277395E+03 -0.26611987821E+03  0.33619249162E+03  0.00000000000E+00 0.  1.
          5    1    4    4  501    0 -0.10167593437E+03  0.17339505814E+03 -0.22246014140E+03  0.29984967689E+03  0.41800000000E+01 0.  1.
         -5    1    4    4    0  501  0.12670742522E+02 -0.14520107607E+02 -0.25865877483E+02  0.32525332573E+02  0.41800000000E+01 0.  1.
</event>
<event>
11    1  0.7157190E-009  0.1509315E+03  0.7561462E-02  0.1095931E+00
         22   -1    0    0    0    0  0.00000000000E+00  0.00000000000E+00  0.12390225077E+04  0.12390225077E+04  0.00000000000E+00 0.  1.
         22   -1    0    0    0    0 -0.00000000000E+00 -0.00000000000E+00 -0.26946936126E+03  0.26946936126E+03  0.00000000000E+00 0. -1.
        -24    2    1    2    0    0  0.16193371107E+02 -0.88034314385E+02 -0.21681550456E+03  0.24807462653E+03  0.80745226069E+02 0.  0.
         25    2    1    2    0    0  0.38059540183E+02  0.13999392734E+02  0.94973171225E+02  0.16221207125E+03  0.12509333000E+03 0.  0.
         24    2    1    2    0    0 -0.54252911290E+02  0.74034921651E+02  0.10913954798E+04  0.10982051712E+04  0.80535437768E+02 0.  0.
        -13    1    5    5    0    0  0.59850734056E+00  0.64226980713E+02  0.48053659598E+03  0.48481015185E+03  0.00000000000E+00 0.  1.
         14    1    5    5    0    0 -0.54851418631E+02  0.98079409381E+01  0.61085888380E+03  0.61339501934E+03  0.00000000000E+00 0. -1.
         11    1    3    3    0    0  0.36366700795E+02 -0.71760403616E+02 -0.20373158529E+03  0.21904029606E+03  0.00000000000E+00 0. -1.
        -12    1    3    3    0    0 -0.20173329688E+02 -0.16273910769E+02 -0.13083919275E+02  0.29034330473E+02  0.00000000000E+00 0.  1.
          5    1    4    4  501    0  0.48353803349E+02  0.17033640683E+02  0.12223543116E+03  0.13261677210E+03  0.41800000000E+01 0. -1.
         -5    1    4    4    0  501 -0.10294263166E+02 -0.30342479496E+01 -0.27262259931E+02  0.29595299142E+02  0.41800000000E+01 0. -1.
</event>
<event>
11    1  0.7157190E-009  0.1358001E+03  0.7561462E-02  0.1112341E+00
         22   -1    0    0    0    0  0.00000000000E+00  0.00000000000E+00  0.25517289376E+04  0.25517289376E+04  0.00000000000E+00 0.  1.
         22   -1    0    0    0    0 -0.00000000000E+00 -0.00000000000E+00 -0.11748247598E+03  0.11748247598E+03  0.00000000000E+00 0. -1.
        -24    2    1    2    0    0  0.15488365349E+02 -0.75198423448E+01 -0.93656159904E+02  0.12480015390E+03  0.80666998425E+02 0.  0.
         25    2    1    2    0    0  0.39415512292E+02  0.55597472612E-01  0.61011536719E+03  0.62405217615E+03  0.12508705601E+03 0.  0.
         24    2    1    2    0    0 -0.54903877641E+02  0.74642448722E+01  0.19177872544E+04  0.19203590836E+04  0.82467606232E+02 0.  0.
        -11    1    5    5    0    0 -0.52174500011E+02  0.39739194497E+02  0.11246120507E+04  0.11265228123E+04  0.00000000000E+00 0.  1.
         12    1    5    5    0    0 -0.27293776300E+01 -0.32274949624E+02  0.79317520368E+03  0.79383627128E+03  0.00000000000E+00 0. -1.
         13    1    3    3    0    0  0.23692757726E+01 -0.38355452757E+02 -0.79736742700E+02  0.88513854058E+02  0.00000000000E+00 0. -1.
        -14    1    3    3    0    0  0.13119089577E+02  0.30835610412E+02 -0.13919417205E+02  0.36286299840E+02  0.00000000000E+00 0.  1.
          5    1    4    4  501    0  0.71124743512E+01 -0.53563350767E+02  0.14634320708E+03  0.15605584416E+03  0.41800000000E+01 0.  1.
         -5    1    4    4    0  501  0.32303037941E+02  0.53618948240E+02  0.46377216010E+03  0.46799633199E+03  0.41800000000E+01 0.  1.
</event>
<event>
11    1  0.7157190E-009  0.1743768E+03  0.7561462E-02  0.1074284E+00
         22   -1    0    0    0    0  0.00000000000E+00  0.00000000000E+00  0.72751040794E+03  0.72751040794E+03  0.00000000000E+00 0. -1.
         22   -1    0    0    0    0 -0.00000000000E+00 -0.00000000000E+00 -0.15288057056E+04  0.15288057056E+04  0.00000000000E+00 0.  1.
        -24    2    1    2    0    0 -0.52662213861E+02  0.71278105193E+02 -0.14292298939E+04  0.14342160926E+04  0.80148820366E+02 0.  0.
         25    2    1    2    0    0  0.13844108930E+03 -0.14613455892E+03  0.70098497508E+02  0.24714943931E+03  0.12509117269E+03 0.  0.
         24    2    1    2    0    0 -0.85778875435E+02  0.74856453724E+02  0.55783609874E+03  0.57495058169E+03  0.80159554616E+02 0.  0.
        -11    1    5    5    0    0 -0.61345691051E+02  0.28799293127E+01  0.29605111060E+03  0.30235384550E+03  0.00000000000E+00 0.  1.
         12    1    5    5    0    0 -0.24433184384E+02  0.71976524411E+02  0.26178498814E+03  0.27259673619E+03  0.00000000000E+00 0. -1.
         13    1    3    3    0    0 -0.10548841755E+02  0.28359490652E+02 -0.12534064302E+03  0.12894113217E+03  0.00000000000E+00 0. -1.
        -14    1    3    3    0    0 -0.42113372106E+02  0.42918614541E+02 -0.13038892509E+04  0.13052749604E+04  0.00000000000E+00 0.  1.
          5    1    4    4  501    0  0.28767185855E+01  0.20220987825E+02 -0.14560356171E+01  0.20898715228E+02  0.41800000000E+01 0. -1.
         -5    1    4    4    0  501  0.13556437071E+03 -0.16635554674E+03  0.71554533125E+02  0.22625072408E+03  0.41800000000E+01 0. -1.
</event>
<event>
11    1  0.7990104E-009  0.1759119E+03  0.7561462E-02  0.1072998E+00
         22   -1    0    0    0    0  0.00000000000E+00  0.00000000000E+00  0.31900411513E+03  0.31900411513E+03  0.00000000000E+00 0.  1.
         22   -1    0    0    0    0 -0.00000000000E+00 -0.00000000000E+00 -0.25789784858E+04  0.25789784858E+04  0.00000000000E+00 0. -1.
        -24    2    1    2    0    0 -0.61604125057E+02 -0.21810909492E+02 -0.23480762956E+04  0.23503631526E+04  0.80460394355E+02 0.  0.
         25    2    1    2    0    0 -0.67164978079E+02  0.13509246167E+02 -0.18596613846E+03  0.23435996286E+03  0.12509018156E+03 0.  0.
         24    2    1    2    0    0  0.12876910314E+03  0.83016633251E+01  0.27406806337E+03  0.31325948552E+03  0.79798511084E+02 0.  0.
        -13    1    5    5    0    0  0.74912369638E+02  0.32504689050E+02  0.21390702421E+03  0.22896426127E+03  0.00000000000E+00 0.  1.
         14    1    5    5    0    0  0.53856733498E+02 -0.24203025724E+02  0.60161039159E+02  0.84295224241E+02  0.00000000000E+00 0. -1.
         11    1    3    3    0    0 -0.45205512568E+02  0.18361586580E+01 -0.21194646338E+04  0.21199474625E+04  0.00000000000E+00 0. -1.
        -12    1    3    3    0    0 -0.16398612488E+02 -0.23647068150E+02 -0.22861166184E+03  0.23041569012E+03  0.00000000000E+00 0.  1.
          5    1    4    4  501    0 -0.66396586735E+02 -0.35134713996E+02 -0.51158421196E+02  0.90981378957E+02  0.41800000000E+01 0. -1.
         -5    1    4    4    0  501 -0.76839134344E+00  0.48643960163E+02 -0.13480771727E+03  0.14337858390E+03  0.41800000000E+01 0. -1.
</event>
<event>
11    1  0.7157190E-009  0.1673940E+03  0.7561462E-02  0.1080322E+00
         22   -1    0    0    0    0  0.00000000000E+00  0.00000000000E+00  0.57593410824E+03  0.57593410824E+03  0.00000000000E+00 0.  1.
         22   -1    0    0    0    0 -0.00000000000E+00 -0.00000000000E+00 -0.71867567866E+03  0.71867567866E+03  0.00000000000E+00 0. -1.
        -24    2    1    2    0    0  0.54210786697E+02 -0.93384403235E+02 -0.59662308388E+03  0.61130630686E+03  0.77954091763E+02 0.  0.
         25    2    1    2    0    0 -0.37971434652E+02  0.15355226138E+03 -0.15938886845E+02  0.20229330584E+03  0.12509359156E+03 0.  0.
         24    2    1    2    0    0 -0.16239352045E+02 -0.60167858140E+02  0.46982040032E+03  0.48101017420E+03  0.82193013242E+02 0.  0.
        -13    1    5    5    0    0  0.57382546749E+01 -0.34502745625E+02  0.41596231879E+03  0.41743025486E+03  0.00000000000E+00 0.  1.
         14    1    5    5    0    0 -0.21977606720E+02 -0.25665112515E+02  0.53858081527E+02  0.63579919341E+02  0.00000000000E+00 0. -1.
         11    1    3    3    0    0  0.29541395079E+02 -0.88692293776E+02 -0.55403251822E+03  0.56186390545E+03  0.00000000000E+00 0. -1.
        -12    1    3    3    0    0  0.24669391619E+02 -0.46921094595E+01 -0.42590565663E+02  0.49442401413E+02  0.00000000000E+00 0.  1.
          5    1    4    4  501    0 -0.11394060326E+02  0.10481663072E+03 -0.68443198541E+02  0.12577080151E+03  0.41800000000E+01 0.  1.
         -5    1    4    4    0  501 -0.26577374327E+02  0.48735630659E+02  0.52504311697E+02  0.76522504327E+02  0.41800000000E+01 0.  1.
</event>
<event>
11    1  0.7157190E-009  0.1391671E+03  0.7561462E-02  0.1108492E+00
         22   -1    0    0    0    0  0.00000000000E+00  0.00000000000E+00  0.69463150457E+03  0.69463150457E+03  0.00000000000E+00 0.  1.
         22   -1    0    0    0    0 -0.00000000000E+00 -0.00000000000E+00 -0.22592505060E+04  0.22592505060E+04  0.00000000000E+00 0. -1.
        -24    2    1    2    0    0 -0.56368464556E+02 -0.20388506886E+02 -0.21093302697E+04  0.21116457938E+04  0.78617280388E+02 0.  0.
         25    2    1    2    0    0  0.10384884372E+03  0.13964689412E+02 -0.99622320695E+02  0.19118478458E+03  0.12508964858E+03 0.  0.
         24    2    1    2    0    0 -0.47480379168E+02  0.64238174736E+01  0.64433358898E+03  0.65105143218E+03  0.80040874659E+02 0.  0.
        -11    1    5    5    0    0 -0.60260353102E+02  0.25901213686E+02  0.37330362685E+03  0.37902213768E+03  0.00000000000E+00 0.  1.
         12    1    5    5    0    0  0.12779973934E+02 -0.19477396212E+02  0.27102996213E+03  0.27202929450E+03  0.00000000000E+00 0. -1.
         13    1    3    3    0    0 -0.34380056623E+02 -0.48119190270E+02 -0.15970070401E+04  0.15981016647E+04  0.00000000000E+00 0. -1.
        -14    1    3    3    0    0 -0.21988407933E+02  0.27730683384E+02 -0.51232322958E+03  0.51354412902E+03  0.00000000000E+00 0.  1.
          5    1    4    4  501    0  0.66043007938E+02 -0.53318183983E+02 -0.42099974042E+02  0.94838746591E+02  0.41800000000E+01 0.  1.
         -5    1    4    4    0  501  0.37805835786E+02  0.67282873395E+02 -0.57522346653E+02  0.96346037989E+02  0.41800000000E+01 0.  1.
</event>
<event>
11    1  0.7157190E-009  0.1581322E+03  0.7561462E-02  0.1088847E+00
         22   -1    0    0    0    0  0.00000000000E+00  0.00000000000E+00  0.17688809044E+04  0.17688809044E+04  0.00000000000E+00 0.  1.
         22   -1    0    0    0    0 -0.00000000000E+00 -0.00000000000E+00 -0.15164933362E+03  0.15164933362E+03  0.00000000000E+00 0. -1.
        -24    2    1    2    0    0  0.73312264677E+02  0.48647641892E+00 -0.85477503125E+02  0.13779242536E+03  0.79406700823E+02 0.  0.
         25    2    1    2    0    0 -0.12974669316E+03  0.74635048240E+02  0.21597943469E+03  0.29102995646E+03  0.12508686796E+03 0.  0.
         24    2    1    2    0    0  0.56434428486E+02 -0.75121524659E+02  0.14867296392E+04  0.14917078562E+04  0.77454631450E+02 0.  0.
        -11    1    5    5    0    0  0.28487539743E+02 -0.52283441112E+02  0.13088543113E+04  0.13102078867E+04  0.00000000000E+00 0.  1.
         12    1    5    5    0    0  0.27946888743E+02 -0.22838083547E+02  0.17787532797E+03  0.18149996956E+03  0.00000000000E+00 0. -1.
         11    1    3    3    0    0  0.82935914649E+02  0.45360458303E+01 -0.93174073678E+02  0.12482127085E+03  0.00000000000E+00 0. -1.
        -12    1    3    3    0    0 -0.96236499717E+01 -0.40495694114E+01  0.76965705525E+01  0.12971154516E+02  0.00000000000E+00 0.  1.
          5    1    4    4  501    0 -0.10471438648E+03  0.10072980306E+03  0.20801130326E+03  0.25376715832E+03  0.41800000000E+01 0.  1.
         -5    1    4    4    0  501 -0.25032306679E+02 -0.26094754818E+02  0.79681314397E+01  0.37262798141E+02  0.41800000000E+01 0.  1.
</event>
<event>
11    1  0.7157190E-009  0.1354201E+03  0.7561462E-02  0.1112783E+00
         22   -1    0    0    0    0  0.00000000000E+00  0.00000000000E+00  0.24114325776E+03  0.24114325776E+03  0.00000000000E+00 0. -1.
         22   -1    0    0    0    0 -0.00000000000E+00 -0.00000000000E+00 -0.64468765677E+03  0.64468765677E+03  0.00000000000E+00 0. -1.
         24    2    1    2    0    0  0.40500309393E+02  0.36243641214E+02 -0.47029110289E+03  0.48006422342E+03  0.79586811502E+02 0.  0.
         25    2    1    2    0    0 -0.65236616898E+02  0.10222264494E+02 -0.12626112762E+03  0.18960283398E+03  0.12508817463E+03 0.  0.
        -24    2    1    2    0    0  0.24736307506E+02 -0.46465905709E+02  0.19300783150E+03  0.21616385713E+03  0.81876888119E+02 0.  0.
        -11    1    3    3    0    0  0.57077187511E+02  0.47731511073E+02 -0.32683218142E+03  0.33519453649E+03  0.00000000000E+00 0.  1.
         12    1    3    3    0    0 -0.16576878118E+02 -0.11487869859E+02 -0.14345892147E+03  0.14486968693E+03  0.00000000000E+00 0. -1.
         11    1    5    5    0    0  0.22134045838E+02 -0.69571363005E+02  0.15908275887E+03  0.17503546699E+03  0.00000000000E+00 0. -1.
        -12    1    5    5    0    0  0.26022616678E+01  0.23105457296E+02  0.33925072626E+02  0.41128390138E+02  0.00000000000E+00 0.  1.
          5    1    4    4  501    0 -0.72950816537E+02  0.30419489365E+02 -0.14197730102E+03  0.16254904913E+03  0.41800000000E+01 0.  1.
         -5    1    4    4    0  501  0.77141996387E+01 -0.20197224871E+02  0.15716173403E+02  0.27053784855E+02  0.41800000000E+01 0.  1.
</event>
<event>
11    1  0.7157190E-009  0.2347049E+03  0.7561462E-02  0.1032378E+00
         22   -1    0    0    0    0  0.00000000000E+00  0.00000000000E+00  0.27795723208E+04  0.27795723208E+04  0.00000000000E+00 0. -1.
         22   -1    0    0    0    0 -0.00000000000E+00 -0.00000000000E+00 -0.55641516857E+03  0.55641516857E+03  0.00000000000E+00 0. -1.
        -24    2    1    2    0    0  0.22361207283E+03  0.22341378745E+02 -0.47825436720E+03  0.53450010089E+03  0.80384213588E+02 0.  0.
         25    2    1    2    0    0 -0.86410337909E+02  0.10456009781E+02  0.74576148779E+02  0.16966209843E+03  0.12509017164E+03 0.  0.
         24    2    1    2    0    0 -0.13720173492E+03 -0.32797388526E+02  0.26268353707E+04  0.26318252901E+04  0.79626051447E+02 0.  0.
        -13    1    5    5    0    0 -0.39294427930E+01 -0.27466925228E+02  0.56435572902E+03  0.56503739822E+03  0.00000000000E+00 0.  1.
         14    1    5    5    0    0 -0.13327229213E+03 -0.53304632983E+01  0.20624796416E+04  0.20667878918E+04  0.00000000000E+00 0. -1.
         13    1    3    3    0    0  0.15207250046E+03  0.51130082614E+02 -0.34641687904E+03  0.38176561504E+03  0.00000000000E+00 0. -1.
        -14    1    3    3    0    0  0.71539572367E+02 -0.28788703869E+02 -0.13183748815E+03  0.15273448585E+03  0.00000000000E+00 0.  1.
          5    1    4    4  501    0 -0.80043567659E+02  0.19005859988E+02  0.10713829707E+03  0.13514541256E+03  0.41800000000E+01 0.  1.
         -5    1    4    4    0  501 -0.63667702490E+01 -0.85498502070E+01 -0.32562148294E+02  0.34516685870E+02  0.41800000000E+01 0.  1.
</event>
<event>
11    1  0.7157190E-009  0.1631195E+03  0.7561462E-02  0.1084179E+00
         22   -1    0    0    0    0  0.00000000000E+00  0.00000000000E+00  0.25478768703E+04  0.25478768703E+04  0.00000000000E+00 0. -1.
         22   -1    0    0    0    0 -0.00000000000E+00 -0.00000000000E+00 -0.69842468368E+02  0.69842468368E+02  0.00000000000E+00 0.  1.
         24    2    1    2    0    0 -0.29177561904E+02 -0.47919547357E+02 -0.79426128570E+01  0.96897164185E+02  0.78602558423E+02 0.  0.
         25    2    1    2    0    0 -0.74762709443E+02  0.12033659533E+02  0.33495510849E+03  0.36548021266E+03  0.12508632803E+03 0.  0.
        -24    2    1    2    0    0  0.10394027135E+03  0.35885887824E+02  0.21510219063E+04  0.21553419618E+04  0.80699157660E+02 0.  0.
        -13    1    3    3    0    0 -0.80504455531E+01 -0.52238328282E+02 -0.34173529325E+02  0.62940310786E+02  0.00000000000E+00 0.  1.
         14    1    3    3    0    0 -0.21127116350E+02  0.43187809252E+01  0.26230916468E+02  0.33956853399E+02  0.00000000000E+00 0. -1.
         13    1    5    5    0    0  0.71096345909E+02  0.16855414475E+02  0.19057433948E+04  0.19071435925E+04  0.00000000000E+00 0. -1.
        -14    1    5    5    0    0  0.32843925437E+02  0.19030473349E+02  0.24527851144E+03  0.24819836931E+03  0.00000000000E+00 0.  1.
          5    1    4    4  501    0 -0.10753144135E+02 -0.17634840480E+02  0.26568450315E+03  0.26651893989E+03  0.41800000000E+01 0. -1.
         -5    1    4    4    0  501 -0.64009565307E+02  0.29668500013E+02  0.69270605335E+02  0.98961272765E+02  0.41800000000E+01 0. -1.
</event>
<event>
11    1  0.7157190E-009  0.1939138E+03  0.7561462E-02  0.1058913E+00
         22   -1    0    0    0    0  0.00000000000E+00  0.00000000000E+00  0.72537210992E+03  0.72537210992E+03  0.00000000000E+00 0.  1.
         22   -1    0    0    0    0 -0.00000000000E+00 -0.00000000000E+00 -0.64583488412E+03  0.64583488412E+03  0.00000000000E+00 0. -1.
        -24    2    1    2    0    0 -0.85762589568E+02  0.10965378563E+03 -0.42620795337E+03  0.45718041774E+03  0.89339467102E+02 0.  0.
         25    2    1    2    0    0  0.52196630262E+02 -0.19470645113E+03 -0.12712027173E+03  0.26914945092E+03  0.12508706219E+03 0.  0.
         24    2    1    2    0    0  0.33565959306E+02  0.85052665495E+02  0.63286545090E+03  0.64487712538E+03  0.83589463273E+02 0.  0.
        -13    1    5    5    0    0 -0.27722495417E+02  0.28273364690E+02  0.23779156552E+03  0.24106585933E+03  0.00000000000E+00 0.  1.
         14    1    5    5    0    0  0.61288454723E+02  0.56779300805E+02  0.39507388538E+03  0.40381126605E+03  0.00000000000E+00 0. -1.
         11    1    3    3    0    0  0.12107179226E+02  0.48426324134E+02 -0.13386867191E+03  0.14287236953E+03  0.00000000000E+00 0. -1.
        -12    1    3    3    0    0 -0.97869768793E+02  0.61227461499E+02 -0.29233928146E+03  0.31430804821E+03  0.00000000000E+00 0.  1.
          5    1    4    4  501    0  0.17405080884E+02 -0.38285772249E+02  0.24207781915E+02  0.48705505875E+02  0.41800000000E+01 0. -1.
         -5    1    4    4    0  501  0.34791549378E+02 -0.15642067888E+03 -0.15132805364E+03  0.22044394505E+03  0.41800000000E+01 0. -1.
</event>
<event>
11    1  0.7157190E-009  0.1697139E+03  0.7561462E-02  0.1078281E+00
         22   -1    0    0    0    0  0.00000000000E+00  0.00000000000E+00  0.44680501498E+03  0.44680501498E+03  0.00000000000E+00 0. -1.
         22   -1    0    0    0    0 -0.00000000000E+00 -0.00000000000E+00 -0.36474035355E+03  0.36474035355E+03  0.00000000000E+00 0.  1.
        -24    2    1    2    0    0  0.15618516481E+02  0.55127535329E+01 -0.27031204116E+03  0.28162818283E+03  0.77275515252E+02 0.  0.
         25    2    1    2    0    0  0.22132279957E+02  0.10454798605E+03  0.16802789307E+02  0.16537786364E+03  0.12508950736E+03 0.  0.
         24    2    1    2    0    0 -0.37750796437E+02 -0.11006073958E+03  0.33557391328E+03  0.36453932206E+03  0.82101017183E+02 0.  0.
        -13    1    5    5    0    0 -0.37615037071E+01 -0.69530966577E+02  0.92517430541E+02  0.11579369230E+03  0.00000000000E+00 0.  1.
         14    1    5    5    0    0 -0.33989292730E+02 -0.40529773006E+02  0.24305648274E+03  0.24874562976E+03  0.00000000000E+00 0. -1.
         11    1    3    3    0    0  0.30709360294E+02  0.32145086263E+02 -0.11429411143E+03  0.12263570152E+03  0.00000000000E+00 0. -1.
        -12    1    3    3    0    0 -0.15090843813E+02 -0.26632332730E+02 -0.15601792973E+03  0.15899248131E+03  0.00000000000E+00 0.  1.
          5    1    4    4  501    0  0.69751795657E+02  0.30249335902E+02  0.93698793009E+01  0.76717679565E+02  0.41800000000E+01 0. -1.
         -5    1    4    4    0  501 -0.47619515700E+02  0.74298650148E+02  0.74329100057E+01  0.88660184077E+02  0.41800000000E+01 0. -1.
</event>
<event>
11    1  0.7157190E-009  0.1425462E+03  0.7561462E-02  0.1104748E+00
         22   -1    0    0    0    0  0.00000000000E+00  0.00000000000E+00  0.28497559882E+03  0.28497559882E+03  0.00000000000E+00 0.  1.
         22   -1    0    0    0    0 -0.00000000000E+00 -0.00000000000E+00 -0.56483099658E+03  0.56483099658E+03  0.00000000000E+00 0. -1.
        -24    2    1    2    0    0 -0.24727630592E+02  0.62992864202E+02 -0.47791721489E+03  0.49014178740E+03  0.85173650931E+02 0.  0.
         25    2    1    2    0    0  0.54624615231E+02 -0.60909954753E+02  0.62578992091E+01  0.14959844579E+03  0.12508662000E+03 0.  0.
         24    2    1    2    0    0 -0.29896984639E+02 -0.20829094491E+01  0.19180391793E+03  0.21006636221E+03  0.80255625326E+02 0.  0.
        -13    1    5    5    0    0 -0.35570233096E+02  0.33713036069E+02  0.99878409574E+02  0.11125424478E+03  0.00000000000E+00 0.  1.
         14    1    5    5    0    0  0.56732484573E+01 -0.35795945518E+02  0.91925508351E+02  0.98812117421E+02  0.00000000000E+00 0. -1.
         13    1    3    3    0    0 -0.69735197257E+00  0.77523246113E+02 -0.39676481814E+03  0.40426805575E+03  0.00000000000E+00 0. -1.
        -14    1    3    3    0    0 -0.24030278619E+02 -0.14530381912E+02 -0.81152396749E+02  0.85873731648E+02  0.00000000000E+00 0.  1.
          5    1    4    4  501    0 -0.15450890749E+02 -0.48980047622E+02  0.45107702279E+02  0.68483226377E+02  0.41800000000E+01 0.  1.
         -5    1    4    4    0  501  0.70075505979E+02 -0.11929907130E+02 -0.38849803070E+02  0.81115219416E+02  0.41800000000E+01 0.  1.
</event>
<event>
11    1  0.7157190E-009  0.1658362E+03  0.7561462E-02  0.1081713E+00
         22   -1    0    0    0    0  0.00000000000E+00  0.00000000000E+00  0.66548792916E+03  0.66548792916E+03  0.00000000000E+00 0. -1.
         22   -1    0    0    0    0 -0.00000000000E+00 -0.00000000000E+00 -0.18137439274E+03  0.18137439274E+03  0.00000000000E+00 0. -1.
         24    2    1    2    0    0 -0.64114107741E+01  0.44560046940E+02 -0.13135025098E+03  0.15973868877E+03  0.78973769596E+02 0.  0.
         25    2    1    2    0    0  0.11201873515E+03 -0.38746903171E+02  0.32607541209E+03  0.36881158888E+03  0.12508914499E+03 0.  0.
        -24    2    1    2    0    0 -0.10560732437E+03 -0.58131437681E+01  0.28938837531E+03  0.31831204425E+03  0.79938890096E+02 0.  0.
        -13    1    3    3    0    0 -0.63821299026E+01 -0.60813775939E+01  0.77305957125E+01  0.11725052051E+02  0.00000000000E+00 0.  1.
         14    1    3    3    0    0 -0.29280871505E-01  0.50641424534E+02 -0.13908084670E+03  0.14801363671E+03  0.00000000000E+00 0. -1.
         11    1    5    5    0    0 -0.64665247257E+02 -0.35413211782E+02  0.22309602484E+03  0.23496281848E+03  0.00000000000E+00 0. -1.
        -12    1    5    5    0    0 -0.40942077117E+02  0.29600068014E+02  0.66292350475E+02  0.83349225771E+02  0.00000000000E+00 0.  1.
          5    1    4    4  501    0  0.26890285803E+01 -0.46698114819E+02  0.37525243537E+02  0.60112902982E+02  0.41800000000E+01 0.  1.
         -5    1    4    4    0  501  0.10932970657E+03  0.79512116478E+01  0.28855016855E+03  0.30869868590E+03  0.41800000000E+01 0.  1.
</event>
<event>
11    1  0.7157190E-009  0.1510789E+03  0.7561462E-02  0.1095781E+00
         22   -1    0    0    0    0  0.00000000000E+00  0.00000000000E+00  0.40896746964E+04  0.40896746964E+04  0.00000000000E+00 0.  1.
         22   -1    0    0    0    0 -0.00000000000E+00 -0.00000000000E+00 -0.98046267407E+03  0.98046267407E+03  0.00000000000E+00 0. -1.
        -24    2    1    2    0    0 -0.78312132155E+02 -0.40874569078E+02 -0.91066074796E+03  0.91873356730E+03  0.83455673030E+02 0.  0.
         25    2    1    2    0    0  0.25834343368E+02  0.11174744598E+02 -0.19908890775E+01  0.12823549469E+03  0.12509232689E+03 0.  0.
         24    2    1    2    0    0  0.52477788786E+02  0.29699824480E+02  0.40218636594E+04  0.40231683085E+04  0.82824790641E+02 0.  0.
        -11    1    5    5    0    0  0.70080685473E+02  0.33408052975E+02  0.25168092179E+04  0.25180063621E+04  0.00000000000E+00 0.  1.
         12    1    5    5    0    0 -0.17602896687E+02 -0.37082284942E+01  0.15050544415E+04  0.15051619464E+04  0.00000000000E+00 0. -1.
         13    1    3    3    0    0 -0.34365462803E+02  0.17206910762E+02 -0.51448529072E+03  0.51591876994E+03  0.00000000000E+00 0. -1.
        -14    1    3    3    0    0 -0.43946669351E+02 -0.58081479840E+02 -0.39617545725E+03  0.40281479736E+03  0.00000000000E+00 0.  1.
          5    1    4    4  501    0 -0.44371194279E+02 -0.20069329939E+02 -0.12790503790E+02  0.50523759491E+02  0.41800000000E+01 0. -1.
         -5    1    4    4    0  501  0.70205537647E+02  0.31244074537E+02  0.10799614712E+02  0.77711735201E+02  0.41800000000E+01 0. -1.
</event>
<event>
11    1  0.7157190E-009  0.1645806E+03  0.7561462E-02  0.1082847E+00
         22   -1    0    0    0    0  0.00000000000E+00  0.00000000000E+00  0.17196680030E+04  0.17196680030E+04  0.00000000000E+00 0. -1.
         22   -1    0    0    0    0 -0.00000000000E+00 -0.00000000000E+00 -0.11782124589E+04  0.11782124589E+04  0.00000000000E+00 0. -1.
         24    2    1    2    0    0 -0.95948455410E+02  0.48744158032E+02 -0.11465432899E+04  0.11541751110E+04  0.77308293295E+02 0.  0.
         25    2    1    2    0    0  0.30349823578E+02 -0.85430330988E+02  0.20526226995E+03  0.25690780192E+03  0.12509822532E+03 0.  0.
        -24    2    1    2    0    0  0.65598631832E+02  0.36686172956E+02  0.14827365640E+04  0.14867975490E+04  0.80063584931E+02 0.  0.
        -11    1    3    3    0    0 -0.53560423497E+02  0.36081308480E+02 -0.32014905908E+03  0.32659761147E+03  0.00000000000E+00 0.  1.
         12    1    3    3    0    0 -0.42388031912E+02  0.12662849552E+02 -0.82639423081E+03  0.82757749952E+03  0.00000000000E+00 0. -1.
         13    1    5    5    0    0  0.83807959258E+02  0.26965403535E+02  0.11075583137E+04  0.11110519003E+04  0.00000000000E+00 0. -1.
        -14    1    5    5    0    0 -0.18209327426E+02  0.97207694204E+01  0.37517825036E+03  0.37574564868E+03  0.00000000000E+00 0.  1.
          5    1    4    4  501    0 -0.32565692781E+02 -0.68501852171E+02  0.16102880346E+03  0.17804711748E+03  0.41800000000E+01 0. -1.
         -5    1    4    4    0  501  0.62915516358E+02 -0.16928478817E+02  0.44233466490E+02  0.78860684447E+02  0.41800000000E+01 0. -1.
</event>
<event>
11    1  0.7157190E-009  0.1973805E+03  0.7561462E-02  0.1056392E+00
         22   -1    0    0    0    0  0.00000000000E+00  0.00000000000E+00  0.53525954817E+02  0.53525954817E+02  0.00000000000E+00 0. -1.
         22   -1    0    0    0    0 -0.00000000000E+00 -0.00000000000E+00 -0.30346273698E+04  0.30346273698E+04  0.00000000000E+00 0. -1.
        -24    2    1    2    0    0 -0.66506687578E+02  0.10451756543E+02 -0.21275343214E+04  0.21301287530E+04  0.80708344791E+02 0.  0.
         25    2    1    2    0    0  0.15451311172E+03 -0.11922917066E+03 -0.66208127066E+03  0.70149010347E+03  0.12508740732E+03 0.  0.
         24    2    1    2    0    0 -0.88006424146E+02  0.10877741412E+03 -0.19148582290E+03  0.25653446813E+03  0.97803151544E+02 0.  0.
        -11    1    5    5    0    0 -0.71163845371E+02  0.13350151526E+02 -0.98376117429E+02  0.12214900701E+03  0.00000000000E+00 0.  1.
         12    1    5    5    0    0 -0.16842578775E+02  0.95427262596E+02 -0.93109705475E+02  0.13438546112E+03  0.00000000000E+00 0. -1.
         13    1    3    3    0    0  0.14655283081E+02 -0.11413794985E+02 -0.59613018684E+03  0.59641952660E+03  0.00000000000E+00 0. -1.
        -14    1    3    3    0    0 -0.81161970659E+02  0.21865551528E+02 -0.15314041346E+04  0.15337092264E+04  0.00000000000E+00 0.  1.
          5    1    4    4  501    0  0.17591631056E+02 -0.61639023385E+02 -0.34988529964E+03  0.35573308813E+03  0.41800000000E+01 0.  1.
         -5    1    4    4    0  501  0.13692148067E+03 -0.57590147280E+02 -0.31219597102E+03  0.34575701534E+03  0.41800000000E+01 0.  1.
</event>
<event>
11    1  0.7157190E-009  0.2086237E+03  0.7561462E-02  0.1048587E+00
         22   -1    0    0    0    0  0.00000000000E+00  0.00000000000E+00  0.15349887919E+03  0.15349887919E+03  0.00000000000E+00 0.  1.
         22   -1    0    0    0    0 -0.00000000000E+00 -0.00000000000E+00 -0.26405837524E+04  0.26405837524E+04  0.00000000000E+00 0.  1.
        -24    2    1    2    0    0 -0.68772146838E+02 -0.14816630709E+03 -0.21871287149E+04  0.21945999962E+04  0.77809158642E+02 0.  0.
         25    2    1    2    0    0  0.33985085263E+02  0.20377818686E+03 -0.39201938880E+03  0.46044301341E+03  0.12509209386E+03 0.  0.
         24    2    1    2    0    0  0.34787061575E+02 -0.55611879770E+02  0.92063230458E+02  0.13903962198E+03  0.80954044086E+02 0.  0.
        -13    1    5    5    0    0  0.43279049006E+02 -0.71075255886E+02  0.60509878380E+02  0.10288932629E+03  0.00000000000E+00 0.  1.
         14    1    5    5    0    0 -0.84919874311E+01  0.15463376117E+02  0.31553352079E+02  0.36150295695E+02  0.00000000000E+00 0. -1.
         13    1    3    3    0    0 -0.30141314356E+02 -0.33342186935E+01 -0.30067462101E+03  0.30220000590E+03  0.00000000000E+00 0. -1.
        -14    1    3    3    0    0 -0.38630832483E+02 -0.14483208840E+03 -0.18864540939E+04  0.18923999903E+04  0.00000000000E+00 0.  1.
          5    1    4    4  501    0  0.59613395442E+02  0.96340328745E+02 -0.11184745438E+03  0.15925621279E+03  0.41800000000E+01 0.  1.
         -5    1    4    4    0  501 -0.25628310179E+02  0.10743785812E+03 -0.28017193441E+03  0.30118680063E+03  0.41800000000E+01 0.  1.
</event>
<event>
11    1  0.7157190E-009  0.1392155E+03  0.7561462E-02  0.1108438E+00
         22   -1    0    0    0    0  0.00000000000E+00  0.00000000000E+00  0.19412602385E+03  0.19412602385E+03  0.00000000000E+00 0.  1.
         22   -1    0    0    0    0 -0.00000000000E+00 -0.00000000000E+00 -0.12152573458E+04  0.12152573458E+04  0.00000000000E+00 0.  1.
        -24    2    1    2    0    0 -0.19269634206E+01  0.42007754528E+01 -0.94669007328E+03  0.95008093525E+03  0.80064530052E+02 0.  0.
         25    2    1    2    0    0 -0.58478591410E+02  0.60480285285E+01 -0.23239288165E+03  0.27038546818E+03  0.12508207567E+03 0.  0.
         24    2    1    2    0    0  0.60405554831E+02 -0.10248803981E+02  0.15795163294E+03  0.18891696626E+03  0.83588472629E+02 0.  0.
        -13    1    5    5    0    0  0.34204163966E+02  0.26860023917E+02  0.12622741891E+03  0.13350935174E+03  0.00000000000E+00 0.  1.
         14    1    5    5    0    0  0.26201390865E+02 -0.37108827899E+02  0.31724214028E+02  0.55407614521E+02  0.00000000000E+00 0. -1.
         13    1    3    3    0    0 -0.11553168059E+02  0.33689034415E+02 -0.75978397439E+03  0.76061824490E+03  0.00000000000E+00 0. -1.
        -14    1    3    3    0    0  0.96262046386E+01 -0.29488258962E+02 -0.18690609889E+03  0.18946269035E+03  0.00000000000E+00 0.  1.
          5    1    4    4  501    0 -0.57712824714E+02  0.27458196175E+02 -0.37387245414E+02  0.74161992916E+02  0.41800000000E+01 0.  1.
         -5    1    4    4    0  501 -0.76576669579E+00 -0.21410167646E+02 -0.19500563624E+03  0.19622347526E+03  0.41800000000E+01 0.  1.
</event>
<event>
11    1  0.7157190E-009  0.1571095E+03  0.7561462E-02  0.1089828E+00
         22   -1    0    0    0    0  0.00000000000E+00  0.00000000000E+00  0.95024717732E+03  0.95024717732E+03  0.00000000000E+00 0. -1.
         22   -1    0    0    0    0 -0.00000000000E+00 -0.00000000000E+00 -0.58924311879E+03  0.58924311879E+03  0.00000000000E+00 0. -1.
         24    2    1    2    0    0 -0.54976582826E+02 -0.44175444986E+02 -0.54005412099E+03  0.55043057299E+03  0.79633331501E+02 0.  0.
         25    2    1    2    0    0 -0.72508376940E+01  0.11598984923E+03  0.14776638610E+03  0.22580413487E+03  0.12508550152E+03 0.  0.
        -24    2    1    2    0    0  0.62227420520E+02 -0.71814404249E+02  0.75329179341E+03  0.76325558826E+03  0.77980808274E+02 0.  0.
        -13    1    3    3    0    0 -0.21919164589E+02 -0.15676586780E+02 -0.38574945887E+02  0.47055622401E+02  0.00000000000E+00 0.  1.
         14    1    3    3    0    0 -0.33057418237E+02 -0.28498858206E+02 -0.50147917510E+03  0.50337495059E+03  0.00000000000E+00 0. -1.
         11    1    5    5    0    0  0.67697793086E+02 -0.48718068332E+02  0.37243410606E+03  0.38165901631E+03  0.00000000000E+00 0. -1.
        -12    1    5    5    0    0 -0.54703725658E+01 -0.23096335917E+02  0.38085768735E+03  0.38159657195E+03  0.00000000000E+00 0.  1.
          5    1    4    4  501    0  0.55151120613E+01  0.73358528367E+02  0.16275726081E+03  0.17865970024E+03  0.41800000000E+01 0. -1.
         -5    1    4    4    0  501 -0.12765949755E+02  0.42631320868E+02 -0.14990874708E+02  0.47144434630E+02  0.41800000000E+01 0. -1.
</event>
<event>
11    1  0.7157190E-009  0.1629987E+03  0.7561462E-02  0.1084290E+00
         22   -1    0    0    0    0  0.00000000000E+00  0.00000000000E+00  0.12522789206E+03  0.12522789206E+03  0.00000000000E+00 0.  1.
         22   -1    0    0    0    0 -0.00000000000E+00 -0.00000000000E+00 -0.17652343455E+04  0.17652343455E+04  0.00000000000E+00 0. -1.
        -24    2    1    2    0    0  0.23005522736E+02  0.68888249744E+02 -0.14172538513E+04  0.14214468953E+04  0.81412234921E+02 0.  0.
         25    2    1    2    0    0 -0.73892760198E+02 -0.14950281062E+03 -0.26494680377E+03  0.33712917342E+03  0.12509212745E+03 0.  0.
         24    2    1    2    0    0  0.50887237462E+02  0.80614560881E+02  0.42194201685E+02  0.13188616882E+03  0.80779901629E+02 0.  0.
        -13    1    5    5    0    0  0.50774461404E+02  0.48995524378E+02  0.62540456561E+02  0.94286351328E+02  0.00000000000E+00 0.  1.
         14    1    5    5    0    0  0.11277605806E+00  0.31619036503E+02 -0.20346254876E+02  0.37599817490E+02  0.00000000000E+00 0. -1.
         11    1    3    3    0    0  0.52955665182E+02  0.52859843370E+02 -0.10226855002E+04  0.10254189865E+04  0.00000000000E+00 0. -1.
        -12    1    3    3    0    0 -0.29950142446E+02  0.16028406374E+02 -0.39456835107E+03  0.39602790875E+03  0.00000000000E+00 0.  1.
          5    1    4    4  501    0  0.35433392656E+02 -0.39490560045E+02 -0.72165103552E+02  0.89667743467E+02  0.41800000000E+01 0. -1.
         -5    1    4    4    0  501 -0.10932615285E+03 -0.11001225058E+03 -0.19278170021E+03  0.24746142995E+03  0.41800000000E+01 0. -1.
</event>
<event>
11    1  0.7157190E-009  0.1350594E+03  0.7561462E-02  0.1113204E+00
         22   -1    0    0    0    0  0.00000000000E+00  0.00000000000E+00  0.51726383985E+03  0.51726383985E+03  0.00000000000E+00 0.  1.
         22   -1    0    0    0    0 -0.00000000000E+00 -0.00000000000E+00 -0.89107181702E+03  0.89107181702E+03  0.00000000000E+00 0. -1.
         24    2    1    2    0    0  0.98571952862E+01  0.49440699932E+02 -0.82044169518E+03  0.82587396967E+03  0.80010571079E+02 0.  0.
         25    2    1    2    0    0 -0.36874728942E+02 -0.60202264470E+02  0.15108911194E+02  0.14442410898E+03  0.12508391493E+03 0.  0.
        -24    2    1    2    0    0  0.27017533656E+02  0.10761564539E+02  0.43152480681E+03  0.43803757822E+03  0.69408231793E+02 0.  0.
        -11    1    3    3    0    0  0.33360885260E+02  0.53230713908E+02 -0.41436607524E+03  0.41910106403E+03  0.00000000000E+00 0.  1.
         12    1    3    3    0    0 -0.23503689974E+02 -0.37900139758E+01 -0.40607561994E+03  0.40677290564E+03  0.00000000000E+00 0. -1.
         13    1    5    5    0    0  0.27162162390E+02 -0.23139157423E+02  0.13709234876E+03  0.14165985938E+03  0.00000000000E+00 0. -1.
        -14    1    5    5    0    0 -0.14462873362E+00  0.33900721962E+02  0.29443245806E+03  0.29637771884E+03  0.00000000000E+00 0.  1.
          5    1    4    4  501    0  0.26794650086E+02 -0.11120505447E+02 -0.37994580425E+02  0.47986242364E+02  0.41800000000E+01 0. -1.
         -5    1    4    4    0  501 -0.63669379028E+02 -0.49081759024E+02  0.53103491619E+02  0.96437866612E+02  0.41800000000E+01 0. -1.
</event>
<event>
11    1  0.7157190E-009  0.1284614E+03  0.7561462E-02  0.1121174E+00
         22   -1    0    0    0    0  0.00000000000E+00  0.00000000000E+00  0.16445055065E+02  0.16445055065E+02  0.00000000000E+00 0. -1.
         22   -1    0    0    0    0 -0.00000000000E+00 -0.00000000000E+00 -0.23906662405E+04  0.23906662405E+04  0.00000000000E+00 0.  1.
        -24    2    1    2    0    0 -0.21014232289E+02  0.18226629719E+02 -0.15284185101E+04  0.15307866752E+04  0.80441873287E+02 0.  0.
         25    2    1    2    0    0  0.13187021809E+02  0.15366086368E+02 -0.64316383632E+03  0.65552843537E+03  0.12509114707E+03 0.  0.
         24    2    1    2    0    0  0.78272104797E+01 -0.33592716087E+02 -0.20263883905E+03  0.22079618503E+03  0.80614641549E+02 0.  0.
        -11    1    5    5    0    0  0.23447574824E+01 -0.19974346156E+02 -0.20495041102E+03  0.20593480369E+03  0.00000000000E+00 0.  1.
         12    1    5    5    0    0  0.54824529973E+01 -0.13618369932E+02  0.23115719659E+01  0.14861381343E+02  0.00000000000E+00 0. -1.
         11    1    3    3    0    0  0.21313492830E+02 -0.11336186546E+01 -0.14276473130E+03  0.14435137190E+03  0.00000000000E+00 0. -1.
        -12    1    3    3    0    0 -0.42327725119E+02  0.19360248373E+02 -0.13856537788E+04  0.13864353033E+04  0.00000000000E+00 0.  1.
          5    1    4    4  501    0 -0.12931772559E+02  0.13174515123E+02 -0.62003306524E+03  0.62032191077E+03  0.41800000000E+01 0. -1.
         -5    1    4    4    0  501  0.26118794368E+02  0.21915712451E+01 -0.23130771082E+02  0.35206524603E+02  0.41800000000E+01 0. -1.
</event>
<event>
11    1  0.7157190E-009  0.1482267E+03  0.7561462E-02  0.1098705E+00
         22   -1    0    0    0    0  0.00000000000E+00  0.00000000000E+00  0.40222763810E+03  0.40222763810E+03  0.00000000000E+00 0. -1.
         22   -1    0    0    0    0 -0.00000000000E+00 -0.00000000000E+00 -0.33267519781E+03  0.33267519781E+03  0.00000000000E+00 0. -1.
        -24    2    1    2    0    0 -0.48744341787E+02 -0.62781956582E+02 -0.17761909023E+03  0.21085038234E+03  0.81189639653E+02 0.  0.
         25    2    1    2    0    0  0.49068787085E+02  0.62693158004E+02 -0.92917478587E+02  0.17498426473E+03  0.12509059577E+03 0.  0.
         24    2    1    2    0    0 -0.32444529864E+00  0.88798577827E-01  0.34008900911E+03  0.34906818883E+03  0.78663544205E+02 0.  0.
        -11    1    5    5    0    0  0.25440515262E+01  0.30243916069E+02  0.58972256288E+02  0.66324156000E+02  0.00000000000E+00 0.  1.
         12    1    5    5    0    0 -0.28684968249E+01 -0.30155117491E+02  0.28111675282E+03  0.28274403283E+03  0.00000000000E+00 0. -1.
         11    1    3    3    0    0 -0.44644805471E+02 -0.81011738668E+02 -0.16177366916E+03  0.18635122884E+03  0.00000000000E+00 0. -1.
        -12    1    3    3    0    0 -0.40995363162E+01  0.18229782086E+02 -0.15845421077E+02  0.24499153496E+02  0.00000000000E+00 0.  1.
          5    1    4    4  501    0 -0.26858910637E+02 -0.15006398886E+02 -0.48402488403E+02  0.57505359505E+02  0.41800000000E+01 0.  1.
         -5    1    4    4    0  501  0.75927697723E+02  0.77699556890E+02 -0.44514990184E+02  0.11747890523E+03  0.41800000000E+01 0.  1.
</event>
<event>
11    1  0.7157190E-009  0.2062491E+03  0.7561462E-02  0.1050190E+00
         22   -1    0    0    0    0  0.00000000000E+00  0.00000000000E+00  0.61013220907E+03  0.61013220907E+03  0.00000000000E+00 0.  1.
         22   -1    0    0    0    0 -0.00000000000E+00 -0.00000000000E+00 -0.15612982681E+03  0.15612982681E+03  0.00000000000E+00 0. -1.
         24    2    1    2    0    0  0.15950435089E+02  0.21817338780E+02 -0.71522265438E+02  0.11173960813E+03  0.81485538108E+02 0.  0.
         25    2    1    2    0    0 -0.12562053882E+03 -0.12762173461E+03  0.29101458800E+03  0.36387338538E+03  0.12508606335E+03 0.  0.
        -24    2    1    2    0    0  0.10967010373E+03  0.10580439583E+03  0.23451005970E+03  0.29064904236E+03  0.79118871948E+02 0.  0.
        -11    1    3    3    0    0  0.69290793860E+01 -0.29625351108E+02 -0.12406035300E+02  0.32857012665E+02  0.00000000000E+00 0.  1.
         12    1    3    3    0    0  0.90213557030E+01  0.51442689888E+02 -0.59116230138E+02  0.78882595465E+02  0.00000000000E+00 0. -1.
         13    1    5    5    0    0  0.25030554219E+02  0.70710163116E+02  0.71364482987E+02  0.10353427087E+03  0.00000000000E+00 0. -1.
        -14    1    5    5    0    0  0.84639549508E+02  0.35094232713E+02  0.16314557671E+03  0.18711477149E+03  0.00000000000E+00 0.  1.
          5    1    4    4  501    0 -0.78158619796E+02 -0.13226737709E+03  0.27189194991E+03  0.31232376425E+03  0.41800000000E+01 0. -1.
         -5    1    4    4    0  501 -0.47461919020E+02  0.46456424843E+01  0.19122638091E+02  0.51549621131E+02  0.41800000000E+01 0. -1.
</event>
<event>
11    1  0.7157190E-009  0.1544030E+03  0.7561462E-02  0.1092463E+00
         22   -1    0    0    0    0  0.00000000000E+00  0.00000000000E+00  0.59748233583E+03  0.59748233583E+03  0.00000000000E+00 0. -1.
         22   -1    0    0    0    0 -0.00000000000E+00 -0.00000000000E+00 -0.25442462807E+03  0.25442462807E+03  0.00000000000E+00 0.  1.
        -24    2    1    2    0    0  0.55756451857E+00 -0.40503727374E+02 -0.20520006907E+03  0.22403707296E+03  0.80278757497E+02 0.  0.
         25    2    1    2    0    0  0.79602195143E+02 -0.28887153700E+02  0.40596589733E+03  0.43315990413E+03  0.12509282803E+03 0.  0.
         24    2    1    2    0    0 -0.80159759661E+02  0.69390881074E+02  0.14229187949E+03  0.19470998682E+03  0.80151846845E+02 0.  0.
        -11    1    5    5    0    0  0.28650003216E+01 -0.13419429245E+02  0.26873634477E+02  0.30174186619E+02  0.00000000000E+00 0.  1.
         12    1    5    5    0    0 -0.83024759983E+02  0.82810310319E+02  0.11541824502E+03  0.16453580020E+03  0.00000000000E+00 0. -1.
         13    1    3    3    0    0  0.11171211117E+02  0.10445525829E+02 -0.13895469830E+03  0.13979382371E+03  0.00000000000E+00 0. -1.
        -14    1    3    3    0    0 -0.10613646598E+02 -0.50949253203E+02 -0.66245370769E+02  0.84243249251E+02  0.00000000000E+00 0.  1.
          5    1    4    4  501    0 -0.94286470710E+01 -0.38620865588E+02  0.25069432691E+03  0.25386135702E+03  0.41800000000E+01 0. -1.
         -5    1    4    4    0  501  0.89030842214E+02  0.97337118876E+01  0.15527157043E+03  0.17929854711E+03  0.41800000000E+01 0. -1.
</event>
<event>
11    1  0.7157190E-009  0.1315458E+03  0.7561462E-02  0.1117384E+00
         22   -1    0    0    0    0  0.00000000000E+00  0.00000000000E+00  0.11904252473E+04  0.11904252473E+04  0.00000000000E+00 0.  1.
         22   -1    0    0    0    0 -0.00000000000E+00 -0.00000000000E+00 -0.67643188758E+02  0.67643188758E+02  0.00000000000E+00 0. -1.
         24    2    1    2    0    0  0.17963412625E+02 -0.35681736665E+02  0.62853881319E+01  0.10447935689E+03  0.96335660002E+02 0.  0.
         25    2    1    2    0    0  0.22514275778E+01  0.49477279756E+02  0.25838753080E+03  0.29131677258E+03  0.12509306846E+03 0.  0.
        -24    2    1    2    0    0 -0.20214840203E+02 -0.13795543091E+02  0.85810913959E+03  0.86227230657E+03  0.81014063265E+02 0.  0.
        -13    1    3    3    0    0 -0.10099684454E+02  0.30340088747E+02  0.70138424432E+01  0.32737113450E+02  0.00000000000E+00 0.  1.
         14    1    3    3    0    0  0.28063097079E+02 -0.66021825412E+02 -0.72845431131E+00  0.71742243442E+02  0.00000000000E+00 0. -1.
         13    1    5    5    0    0 -0.51549524046E+02 -0.46849553731E+01  0.55709279273E+03  0.55949234307E+03  0.00000000000E+00 0. -1.
        -14    1    5    5    0    0  0.31334683843E+02 -0.91105877179E+01  0.30101634686E+03  0.30277996350E+03  0.00000000000E+00 0.  1.
          5    1    4    4  501    0  0.32977856742E+02  0.67325564765E+02  0.81369983961E+02  0.11071954388E+03  0.41800000000E+01 0.  1.
         -5    1    4    4    0  501 -0.30726429164E+02 -0.17848285009E+02  0.17701754684E+03  0.18059722871E+03  0.41800000000E+01 0.  1.
</event>
<event>
11    1  0.7157190E-009  0.1806611E+03  0.7561462E-02  0.1069109E+00
         22   -1    0    0    0    0  0.00000000000E+00  0.00000000000E+00  0.31699252650E+03  0.31699252650E+03  0.00000000000E+00 0. -1.
         22   -1    0    0    0    0 -0.00000000000E+00 -0.00000000000E+00 -0.95695925061E+03  0.95695925061E+03  0.00000000000E+00 0.  1.
         24    2    1    2    0    0 -0.14768455605E+01  0.14501766179E+02 -0.75980889049E+03  0.76431422183E+03  0.81573263491E+02 0.  0.
         25    2    1    2    0    0 -0.60509388560E+02 -0.12751141729E+03 -0.11938911289E+03  0.22320717322E+03  0.12508850568E+03 0.  0.
        -24    2    1    2    0    0  0.61986234120E+02  0.11300965112E+03  0.23923127927E+03  0.28643038206E+03  0.90538855324E+02 0.  0.
        -13    1    3    3    0    0 -0.32565072740E+02  0.30304074329E+02 -0.31283089878E+03  0.31597783485E+03  0.00000000000E+00 0.  1.
         14    1    3    3    0    0  0.31088227180E+02 -0.15802308150E+02 -0.44697799172E+03  0.44833638698E+03  0.00000000000E+00 0. -1.
         13    1    5    5    0    0  0.27754168953E+01  0.64404548627E+02  0.17487987962E+03  0.18638299578E+03  0.00000000000E+00 0. -1.
        -14    1    5    5    0    0  0.59210817225E+02  0.48605102489E+02  0.64351399653E+02  0.10004738628E+03  0.00000000000E+00 0.  1.
          5    1    4    4  501    0 -0.83991046468E+02 -0.12117160788E+03 -0.12974919691E+03  0.19644180040E+03  0.41800000000E+01 0.  1.
         -5    1    4    4    0  501  0.23481657908E+02 -0.63398094124E+01  0.10360084018E+02  0.26765372823E+02  0.41800000000E+01 0.  1.
</event>
<event>
11    1  0.7157190E-009  0.2262745E+03  0.7561462E-02  0.1037357E+00
         22   -1    0    0    0    0  0.00000000000E+00  0.00000000000E+00  0.90200313835E+02  0.90200313835E+02  0.00000000000E+00 0.  1.
         22   -1    0    0    0    0 -0.00000000000E+00 -0.00000000000E+00 -0.19619482206E+04  0.19619482206E+04  0.00000000000E+00 0.  1.
         24    2    1    2    0    0 -0.12566340580E+02 -0.10441436610E+03 -0.10685708107E+04  0.10771728438E+04  0.86008635478E+02 0.  0.
         25    2    1    2    0    0  0.14332339598E+03 -0.48005977315E+02 -0.71590711386E+03  0.74230563576E+03  0.12509393079E+03 0.  0.
        -24    2    1    2    0    0 -0.13075705540E+03  0.15242034341E+03 -0.87269982302E+02  0.23267005487E+03  0.78676146319E+02 0.  0.
        -13    1    3    3    0    0 -0.33281278959E+02 -0.12388366757E+02 -0.45613045081E+03  0.45751076853E+03  0.00000000000E+00 0.  1.
         14    1    3    3    0    0  0.20714938379E+02 -0.92025999342E+02 -0.61244035984E+03  0.61966207532E+03  0.00000000000E+00 0. -1.
         13    1    5    5    0    0 -0.71326066831E+01  0.22230332544E+02  0.13317885869E+02  0.26878017917E+02  0.00000000000E+00 0. -1.
        -14    1    5    5    0    0 -0.12362444872E+03  0.13019001087E+03 -0.10058786817E+03  0.20579203696E+03  0.00000000000E+00 0.  1.
          5    1    4    4  501    0 -0.45105369980E+01 -0.41967985654E+02 -0.95666331505E+02  0.10464786738E+03  0.41800000000E+01 0.  1.
         -5    1    4    4    0  501  0.14783393298E+03 -0.60379916610E+01 -0.62024078235E+03  0.63765776838E+03  0.41800000000E+01 0.  1.
</event>
<event>
11    1  0.7157190E-009  0.1325017E+03  0.7561462E-02  0.1116233E+00
         22   -1    0    0    0    0  0.00000000000E+00  0.00000000000E+00  0.67752800049E+03  0.67752800049E+03  0.00000000000E+00 0. -1.
         22   -1    0    0    0    0 -0.00000000000E+00 -0.00000000000E+00 -0.13487809720E+04  0.13487809720E+04  0.00000000000E+00 0. -1.
         24    2    1    2    0    0  0.43844189814E+02 -0.63452171440E+00 -0.13220001543E+04  0.13249815397E+04  0.77259024833E+02 0.  0.
         25    2    1    2    0    0 -0.24674390670E+02  0.14260180739E+02  0.16569909792E+03  0.20956010558E+03  0.12508824282E+03 0.  0.
        -24    2    1    2    0    0 -0.19169799143E+02 -0.13625659025E+02  0.48504808485E+03  0.49176732726E+03  0.77526252086E+02 0.  0.
        -13    1    3    3    0    0  0.96227395952E+01  0.35108198035E+02 -0.73431163529E+03  0.73521341147E+03  0.00000000000E+00 0.  1.
         14    1    3    3    0    0  0.34221450218E+02 -0.35742719750E+02 -0.58768851901E+03  0.58976812820E+03  0.00000000000E+00 0. -1.
         11    1    5    5    0    0 -0.26552232453E+01  0.31315561806E+02  0.24348698954E+03  0.24550688116E+03  0.00000000000E+00 0. -1.
        -12    1    5    5    0    0 -0.16514575898E+02 -0.44941220831E+02  0.24156109531E+03  0.24626044610E+03  0.00000000000E+00 0.  1.
          5    1    4    4  501    0  0.36475253270E+02 -0.24099782884E+01  0.13324296662E+03  0.13822956503E+03  0.41800000000E+01 0.  1.
         -5    1    4    4    0  501 -0.61149643940E+02  0.16670159027E+02  0.32456131305E+02  0.71330540551E+02  0.41800000000E+01 0.  1.
</event>
<event>
11    1  0.7157190E-009  0.1401153E+03  0.7561462E-02  0.1107430E+00
         22   -1    0    0    0    0  0.00000000000E+00  0.00000000000E+00  0.23489107846E+03  0.23489107846E+03  0.00000000000E+00 0. -1.
         22   -1    0    0    0    0 -0.00000000000E+00 -0.00000000000E+00 -0.14411870718E+04  0.14411870718E+04  0.00000000000E+00 0. -1.
         24    2    1    2    0    0 -0.54419030786E+02 -0.24992530813E+02 -0.98774188054E+03  0.99285925418E+03  0.80928477965E+02 0.  0.
         25    2    1    2    0    0  0.68441318987E+02  0.39588581090E+02 -0.43054562410E+03  0.45526732466E+03  0.12508929842E+03 0.  0.
        -24    2    1    2    0    0 -0.14022288200E+02 -0.14596050277E+02  0.21199151128E+03  0.22795157143E+03  0.81313275748E+02 0.  0.
        -13    1    3    3    0    0 -0.12316882924E+02 -0.27913245737E+02 -0.11142062113E+03  0.11552233422E+03  0.00000000000E+00 0.  1.
         14    1    3    3    0    0 -0.42102147863E+02  0.29207149240E+01 -0.87632125941E+03  0.87733691996E+03  0.00000000000E+00 0. -1.
         11    1    5    5    0    0 -0.26258840778E+02 -0.33834850500E+02  0.19464843898E+03  0.19930463774E+03  0.00000000000E+00 0. -1.
        -12    1    5    5    0    0  0.12236552578E+02  0.19238800223E+02  0.17343072297E+02  0.28646933688E+02  0.00000000000E+00 0.  1.
          5    1    4    4  501    0  0.99140857905E+02  0.47462467011E+02 -0.26956289033E+03  0.29114123673E+03  0.41800000000E+01 0.  1.
         -5    1    4    4    0  501 -0.30699538919E+02 -0.78738859211E+01 -0.16098273376E+03  0.16412608793E+03  0.41800000000E+01 0.  1.
</event>
<event>
11    1  0.7157190E-009  0.1271968E+03  0.7561462E-02  0.1122762E+00
         22   -1    0    0    0    0  0.00000000000E+00  0.00000000000E+00  0.18188146392E+04  0.18188146392E+04  0.00000000000E+00 0. -1.
         22   -1    0    0    0    0 -0.00000000000E+00 -0.00000000000E+00 -0.26016514485E+03  0.26016514485E+03  0.00000000000E+00 0.  1.
        -24    2    1    2    0    0  0.92048563895E+01 -0.77051577969E+01 -0.24337767739E+03  0.25618996569E+03  0.79098077309E+02 0.  0.
         25    2    1    2    0    0  0.17311419583E+00  0.28262202156E+02  0.44320863428E+03  0.46139032153E+03  0.12509337816E+03 0.  0.
         24    2    1    2    0    0 -0.93779705853E+01 -0.20557044359E+02  0.13588185375E+04  0.13613994968E+04  0.80686019979E+02 0.  0.
        -11    1    5    5    0    0 -0.96562163696E+01 -0.20179558944E+02  0.95664595256E+02  0.98245467576E+02  0.00000000000E+00 0.  1.
         12    1    5    5    0    0  0.27824578433E+00 -0.37748541571E+00  0.12631539422E+04  0.12631540293E+04  0.00000000000E+00 0. -1.
         13    1    3    3    0    0  0.35004151286E+02  0.11704420147E+02 -0.63580146641E+02  0.73516794715E+02  0.00000000000E+00 0. -1.
        -14    1    3    3    0    0 -0.25799294896E+02 -0.19409577944E+02 -0.17979753075E+03  0.18267317098E+03  0.00000000000E+00 0.  1.
          5    1    4    4  501    0  0.60961431774E+02  0.16934331131E+01  0.23551932083E+03  0.24332280363E+03  0.41800000000E+01 0. -1.
         -5    1    4    4    0  501 -0.60788317578E+02  0.26568769043E+02  0.20768931345E+03  0.21806751790E+03  0.41800000000E+01 0. -1.
</event>
<event>
11    1  0.7157190E-009  0.1778941E+03  0.7561462E-02  0.1071359E+00
         22   -1    0    0    0    0  0.00000000000E+00  0.00000000000E+00  0.84121635516E+03  0.84121635516E+03  0.00000000000E+00 0.  1.
         22   -1    0    0    0    0 -0.00000000000E+00 -0.00000000000E+00 -0.62988891802E+03  0.62988891802E+03  0.00000000000E+00 0.  1.
         24    2    1    2    0    0 -0.12497123453E+03  0.67122159539E+01 -0.57767777335E+03  0.59652118922E+03  0.80393134411E+02 0.  0.
         25    2    1    2    0    0  0.17666659716E+03 -0.81260774101E+02  0.35441448715E+03  0.42317073806E+03  0.12509774132E+03 0.  0.
        -24    2    1    2    0    0 -0.51695362631E+02  0.74548558147E+02  0.43459072333E+03  0.45141334590E+03  0.81700758930E+02 0.  0.
        -13    1    3    3    0    0 -0.13070929079E+03  0.13391774831E+02 -0.56964444659E+03  0.58460161979E+03  0.00000000000E+00 0.  1.
         14    1    3    3    0    0  0.57380562617E+01 -0.66795588767E+01 -0.80333267568E+01  0.11919569423E+02  0.00000000000E+00 0. -1.
         11    1    5    5    0    0  0.14591057631E+02 -0.47118947076E+01  0.28265222247E+02  0.32156238946E+02  0.00000000000E+00 0. -1.
        -12    1    5    5    0    0 -0.66286420262E+02  0.79260452855E+02  0.40632550109E+03  0.41925710695E+03  0.00000000000E+00 0.  1.
          5    1    4    4  501    0  0.46341161931E+02  0.47186828814E+01  0.14295513388E+02  0.48904021924E+02  0.41800000000E+01 0.  1.
         -5    1    4    4    0  501  0.13032543523E+03 -0.85979456983E+02  0.34011897376E+03  0.37426671613E+03  0.41800000000E+01 0.  1.
</event>
<event>
11    1  0.7157190E-009  0.2289314E+03  0.7561462E-02  0.1035763E+00
         22   -1    0    0    0    0  0.00000000000E+00  0.00000000000E+00  0.49356060222E+03  0.49356060222E+03  0.00000000000E+00 0. -1.
         22   -1    0    0    0    0 -0.00000000000E+00 -0.00000000000E+00 -0.31164091538E+03  0.31164091538E+03  0.00000000000E+00 0. -1.
        -24    2    1    2    0    0 -0.57760456239E+02  0.35552212779E+01 -0.84023412891E+02  0.12965571091E+03  0.80010996466E+02 0.  0.
         25    2    1    2    0    0 -0.13468057311E+03 -0.54573959441E+02 -0.12547983332E+03  0.22915072129E+03  0.12509072979E+03 0.  0.
         24    2    1    2    0    0  0.19244102934E+03  0.51018738163E+02  0.39142293305E+03  0.44639508540E+03  0.80126140138E+02 0.  0.
        -11    1    5    5    0    0  0.14294386950E+03  0.89347603393E+01  0.31537912332E+03  0.34637663200E+03  0.00000000000E+00 0.  1.
         12    1    5    5    0    0  0.49497159843E+02  0.42083977823E+02  0.76043809723E+02  0.10001845339E+03  0.00000000000E+00 0. -1.
         11    1    3    3    0    0  0.68425648058E+01  0.13025028769E+02 -0.57209125587E+02  0.59070772113E+02  0.00000000000E+00 0. -1.
        -12    1    3    3    0    0 -0.64603021044E+02 -0.94698074913E+01 -0.26814287304E+02  0.70584938801E+02  0.00000000000E+00 0.  1.
          5    1    4    4  501    0  0.18779619071E+02  0.22661200881E+01 -0.40070680224E+02  0.44507765686E+02  0.41800000000E+01 0.  1.
         -5    1    4    4    0  501 -0.15346019218E+03 -0.56840079529E+02 -0.85409153094E+02  0.18464295561E+03  0.41800000000E+01 0.  1.
</event>
<event>
11    1  0.7157190E-009  0.1393542E+03  0.7561462E-02  0.1108282E+00
         22   -1    0    0    0    0  0.00000000000E+00  0.00000000000E+00  0.68897687226E+03  0.68897687226E+03  0.00000000000E+00 0.  1.
         22   -1    0    0    0    0 -0.00000000000E+00 -0.00000000000E+00 -0.18597123596E+03  0.18597123596E+03  0.00000000000E+00 0. -1.
        -24    2    1    2    0    0  0.64828558699E+02  0.19056987017E+02 -0.79126116395E+02  0.12809361827E+03  0.74706907096E+02 0.  0.
         25    2    1    2    0    0 -0.26350803681E+02 -0.55561900180E+02 -0.16529399018E+02  0.14036362111E+03  0.12508891035E+03 0.  0.
         24    2    1    2    0    0 -0.38477755019E+02  0.36504913163E+02  0.59866115171E+03  0.60649086884E+03  0.81380913621E+02 0.  0.
        -11    1    5    5    0    0 -0.13960266013E+02  0.59949407340E+02  0.32945298009E+03  0.33515382522E+03  0.00000000000E+00 0.  1.
         12    1    5    5    0    0 -0.24517489006E+02 -0.23444494176E+02  0.26920817162E+03  0.27133704362E+03  0.00000000000E+00 0. -1.
         11    1    3    3    0    0  0.49108667047E+02  0.10264250476E+02 -0.92790580244E+02  0.10548510700E+03  0.00000000000E+00 0. -1.
        -12    1    3    3    0    0  0.15719891652E+02  0.87927365403E+01  0.13664463848E+02  0.22608511266E+02  0.00000000000E+00 0.  1.
          5    1    4    4  501    0  0.23689018939E+02  0.28974330220E+02 -0.18633032911E+02  0.42015993924E+02  0.41800000000E+01 0.  1.
         -5    1    4    4    0  501 -0.50039822619E+02 -0.84536230400E+02  0.21036338927E+01  0.98347627188E+02  0.41800000000E+01 0.  1.
</event>
<event>
11    1  0.7157190E-009  0.2624140E+03  0.7561462E-02  0.1017486E+00
         22   -1    0    0    0    0  0.00000000000E+00  0.00000000000E+00  0.21551253713E+04  0.21551253713E+04  0.00000000000E+00 0. -1.
         22   -1    0    0    0    0 -0.00000000000E+00 -0.00000000000E+00 -0.15186256088E+03  0.15186256088E+03  0.00000000000E+00 0. -1.
        -24    2    1    2    0    0 -0.19094448592E+03  0.13851858889E+03 -0.27415441342E+02  0.25085682411E+03  0.80810541425E+02 0.  0.
         25    2    1    2    0    0  0.14320146780E+03 -0.96125820979E+02  0.12397403167E+04  0.12579152818E+04  0.12509184447E+03 0.  0.
         24    2    1    2    0    0  0.47743018118E+02 -0.42392767912E+02  0.79093793507E+03  0.79821582625E+03  0.86539849741E+02 0.  0.
        -13    1    5    5    0    0  0.38071300938E+02  0.18229013564E+02  0.43292277228E+03  0.43497568627E+03  0.00000000000E+00 0.  1.
         14    1    5    5    0    0  0.96717171797E+01 -0.60621781477E+02  0.35801516280E+03  0.36324013998E+03  0.00000000000E+00 0. -1.
         11    1    3    3    0    0 -0.11717293873E+03  0.11726880929E+03 -0.45658164880E+02  0.17194807130E+03  0.00000000000E+00 0. -1.
        -12    1    3    3    0    0 -0.73771547191E+02  0.21249779603E+02  0.18242723538E+02  0.78908752811E+02  0.00000000000E+00 0.  1.
          5    1    4    4  501    0  0.14512007369E+03 -0.11180991295E+03  0.12115500971E+04  0.12253295078E+04  0.41800000000E+01 0.  1.
         -5    1    4    4    0  501 -0.19186058914E+01  0.15684091974E+02  0.28190219593E+02  0.32585774048E+02  0.41800000000E+01 0.  1.
</event>
<event>
11    1  0.7157190E-009  0.1463035E+03  0.7561462E-02  0.1100717E+00
         22   -1    0    0    0    0  0.00000000000E+00  0.00000000000E+00  0.68968612638E+02  0.68968612638E+02  0.00000000000E+00 0. -1.
         22   -1    0    0    0    0 -0.00000000000E+00 -0.00000000000E+00 -0.10633529388E+04  0.10633529388E+04  0.00000000000E+00 0. -1.
        -24    2    1    2    0    0  0.63863087968E+02 -0.46139195815E+02 -0.69152458251E+03  0.70053900609E+03  0.79632477306E+02 0.  0.
         25    2    1    2    0    0 -0.83261119375E+02 -0.13948659822E+02 -0.29323011314E+03  0.32978627272E+03  0.12509239511E+03 0.  0.
         24    2    1    2    0    0  0.19398031407E+02  0.60087855636E+02 -0.96296305081E+01  0.10199627262E+03  0.79521543167E+02 0.  0.
        -13    1    5    5    0    0  0.65814839486E+01  0.49399793508E+02 -0.42262697013E+02  0.65343638469E+02  0.00000000000E+00 0.  1.
         14    1    5    5    0    0  0.12816547459E+02  0.10688062129E+02  0.32633066505E+02  0.36652634153E+02  0.00000000000E+00 0. -1.
         13    1    3    3    0    0  0.75077914484E+02 -0.37759044311E+02 -0.66721210289E+03  0.67248377595E+03  0.00000000000E+00 0. -1.
        -14    1    3    3    0    0 -0.11214826516E+02 -0.83801515034E+01 -0.24312479621E+02  0.28055230143E+02  0.00000000000E+00 0.  1.
          5    1    4    4  501    0 -0.41181373162E+02  0.55713753526E+02 -0.13712729275E+03  0.15369220749E+03  0.41800000000E+01 0.  1.
         -5    1    4    4    0  501 -0.42079746213E+02 -0.69662413348E+02 -0.15610282039E+03  0.17609406523E+03  0.41800000000E+01 0.  1.
</event>
<event>
11    1  0.7157190E-009  0.1439379E+03  0.7561462E-02  0.1103239E+00
         22   -1    0    0    0    0  0.00000000000E+00  0.00000000000E+00  0.18350692887E+04  0.18350692887E+04  0.00000000000E+00 0. -1.
         22   -1    0    0    0    0 -0.00000000000E+00 -0.00000000000E+00 -0.88307379611E+03  0.88307379611E+03  0.00000000000E+00 0.  1.
         24    2    1    2    0    0  0.62264335538E+02 -0.35176937136E+02 -0.86991573331E+03  0.87660248203E+03  0.81020145994E+02 0.  0.
         25    2    1    2    0    0 -0.37020666562E+02 -0.19029140826E+02  0.52401414881E+03  0.54034305252E+03  0.12508856181E+03 0.  0.
        -24    2    1    2    0    0 -0.25243668977E+02  0.54206077962E+02  0.12978970771E+04  0.13011975503E+04  0.70729770173E+02 0.  0.
        -13    1    3    3    0    0  0.65853554549E+02 -0.24888398861E+02 -0.85618005632E+03  0.85906950352E+03  0.00000000000E+00 0.  1.
         14    1    3    3    0    0 -0.35892190110E+01 -0.10288538276E+02 -0.13735676989E+02  0.17532978506E+02  0.00000000000E+00 0. -1.
         13    1    5    5    0    0 -0.12427857106E+02  0.67883161050E+02  0.80790716828E+03  0.81084928793E+03  0.00000000000E+00 0. -1.
        -14    1    5    5    0    0 -0.12815811871E+02 -0.13677083088E+02  0.48998990882E+03  0.49034826234E+03  0.00000000000E+00 0.  1.
          5    1    4    4  501    0 -0.46233392771E+02 -0.20557565457E+02  0.71384138213E+02  0.87597418301E+02  0.41800000000E+01 0. -1.
         -5    1    4    4    0  501  0.92127262092E+01  0.15284246314E+01  0.45263001060E+03  0.45274563421E+03  0.41800000000E+01 0. -1.
</event>
<event>
11    1  0.7157190E-009  0.1635770E+03  0.7561462E-02  0.1083760E+00
         22   -1    0    0    0    0  0.00000000000E+00  0.00000000000E+00  0.15657142997E+04  0.15657142997E+04  0.00000000000E+00 0.  1.
         22   -1    0    0    0    0 -0.00000000000E+00 -0.00000000000E+00 -0.18255568923E+03  0.18255568923E+03  0.00000000000E+00 0.  1.
        -24    2    1    2    0    0  0.24605325799E+02  0.24867704900E+02 -0.11195879625E+03  0.14069354700E+03  0.77692195911E+02 0.  0.
         25    2    1    2    0    0  0.53400642912E+02  0.48872582739E+02  0.45207712204E+02  0.15143065508E+03  0.12508936025E+03 0.  0.
         24    2    1    2    0    0 -0.78005968711E+02 -0.73740287638E+02  0.14499096945E+04  0.14561457868E+04  0.81239578736E+02 0.  0.
        -13    1    5    5    0    0 -0.40194162948E+02 -0.33054478273E+01  0.84694868848E+03  0.84790835451E+03  0.00000000000E+00 0.  1.
         14    1    5    5    0    0 -0.37811805762E+02 -0.70434839811E+02  0.60296100601E+03  0.60823743233E+03  0.00000000000E+00 0. -1.
         13    1    3    3    0    0  0.93017543324E+00  0.29661579848E+02 -0.38569427853E+01  0.29925750669E+02  0.00000000000E+00 0. -1.
        -14    1    3    3    0    0  0.23675150365E+02 -0.47938749487E+01 -0.10810185347E+03  0.11076779633E+03  0.00000000000E+00 0.  1.
          5    1    4    4  501    0  0.84112368631E+02  0.51346988248E+01  0.49209944798E+02  0.97674698647E+02  0.41800000000E+01 0.  1.
         -5    1    4    4    0  501 -0.30711725719E+02  0.43737883914E+02 -0.40022325946E+01  0.53755956429E+02  0.41800000000E+01 0.  1.
</event>
<event>
11    1  0.7157190E-009  0.1392570E+03  0.7561462E-02  0.1108391E+00
         22   -1    0    0    0    0  0.00000000000E+00  0.00000000000E+00  0.74694874098E+03  0.74694874098E+03  0.00000000000E+00 0.  1.
         22   -1    0    0    0    0 -0.00000000000E+00 -0.00000000000E+00 -0.11468888227E+03  0.11468888227E+03  0.00000000000E+00 0.  1.
         24    2    1    2    0    0  0.13897712354E+02  0.61003016240E+02 -0.66840429547E+02  0.12197104571E+03  0.80590189047E+02 0.  0.
         25    2    1    2    0    0  0.46120513267E+02 -0.49999113564E+02  0.41363781094E+03  0.43745927840E+03  0.12508944207E+03 0.  0.
        -24    2    1    2    0    0 -0.60018225621E+02 -0.11003902676E+02  0.28546247732E+03  0.30220729913E+03  0.78212226742E+02 0.  0.
        -13    1    3    3    0    0  0.39945606753E+02  0.26012504525E+02 -0.61816310863E+02  0.78061246334E+02  0.00000000000E+00 0.  1.
         14    1    3    3    0    0 -0.26047894400E+02  0.34990511715E+02 -0.50241186838E+01  0.43909799376E+02  0.00000000000E+00 0. -1.
         11    1    5    5    0    0 -0.49375569992E+02 -0.41726401721E+02  0.15917186963E+03  0.17179849707E+03  0.00000000000E+00 0. -1.
        -12    1    5    5    0    0 -0.10642655629E+02  0.30722499045E+02  0.12629060769E+03  0.13040880207E+03  0.00000000000E+00 0.  1.
          5    1    4    4  501    0  0.62544262341E+02  0.23304654362E+02  0.20826329661E+03  0.21873720484E+03  0.41800000000E+01 0.  1.
         -5    1    4    4    0  501 -0.16423749074E+02 -0.73303767927E+02  0.20537451433E+03  0.21872207356E+03  0.41800000000E+01 0.  1.
</event>
<event>
11    1  0.7157190E-009  0.1357509E+03  0.7561462E-02  0.1112398E+00
         22   -1    0    0    0    0  0.00000000000E+00  0.00000000000E+00  0.31414799565E+03  0.31414799565E+03  0.00000000000E+00 0.  1.
         22   -1    0    0    0    0 -0.00000000000E+00 -0.00000000000E+00 -0.13534654901E+04  0.13534654901E+04  0.00000000000E+00 0. -1.
        -24    2    1    2    0    0 -0.32870810072E+02  0.41680959149E+02 -0.13085225499E+04  0.13119433244E+04  0.78397896579E+02 0.  0.
         25    2    1    2    0    0  0.11524825648E+01 -0.33559280801E+02  0.92300071712E+02  0.15904172709E+03  0.12508962456E+03 0.  0.
         24    2    1    2    0    0  0.31718327508E+02 -0.81216783484E+01  0.17690498377E+03  0.19662843429E+03  0.79343266439E+02 0.  0.
        -11    1    5    5    0    0  0.27565993948E+02  0.21712336620E+02  0.15616103436E+03  0.16005492256E+03  0.00000000000E+00 0.  1.
         12    1    5    5    0    0  0.41523335593E+01 -0.29834014969E+02  0.20743949417E+02  0.36573511734E+02  0.00000000000E+00 0. -1.
         13    1    3    3    0    0 -0.34231830733E+02  0.71675880973E+01 -0.11018089628E+04  0.11023639068E+04  0.00000000000E+00 0. -1.
        -14    1    3    3    0    0  0.13610206610E+01  0.34513371052E+02 -0.20671358714E+03  0.20957941757E+03  0.00000000000E+00 0.  1.
          5    1    4    4  501    0  0.52328293112E+02  0.17972134140E+02  0.28981081055E+02  0.62598908334E+02  0.41800000000E+01 0.  1.
         -5    1    4    4    0  501 -0.51175810547E+02 -0.51531414941E+02  0.63318990658E+02  0.96442818752E+02  0.41800000000E+01 0.  1.
</event>
<event>
11    1  0.7157190E-009  0.1955909E+03  0.7561462E-02  0.1057686E+00
         22   -1    0    0    0    0  0.00000000000E+00  0.00000000000E+00  0.24178547425E+03  0.24178547425E+03  0.00000000000E+00 0.  1.
         22   -1    0    0    0    0 -0.00000000000E+00 -0.00000000000E+00 -0.66054169805E+03  0.66054169805E+03  0.00000000000E+00 0. -1.
        -24    2    1    2    0    0 -0.10540399810E+03 -0.40992974547E+00 -0.41499567362E+03  0.43571631525E+03  0.80728727180E+02 0.  0.
         25    2    1    2    0    0  0.60845452887E+00 -0.12322443904E+03 -0.15250929625E+03  0.23257417040E+03  0.12508807578E+03 0.  0.
         24    2    1    2    0    0  0.10479554357E+03  0.12363436879E+03  0.14874874607E+03  0.23403668665E+03  0.79871259829E+02 0.  0.
        -13    1    5    5    0    0  0.11529048543E+03  0.12382283177E+03  0.13344855445E+03  0.21548203262E+03  0.00000000000E+00 0.  1.
         14    1    5    5    0    0 -0.10494941858E+02 -0.18846297788E+00  0.15300191618E+02  0.18554654038E+02  0.00000000000E+00 0. -1.
         13    1    3    3    0    0 -0.60275607156E+02 -0.15943767118E+02 -0.34751246510E+03  0.35306127787E+03  0.00000000000E+00 0. -1.
        -14    1    3    3    0    0 -0.45128390941E+02  0.15533837372E+02 -0.67483208518E+02  0.82655037380E+02  0.00000000000E+00 0.  1.
          5    1    4    4  501    0  0.19783055231E+02  0.45965343884E+00 -0.90685748847E+02  0.92913712656E+02  0.41800000000E+01 0.  1.
         -5    1    4    4    0  501 -0.19174600702E+02 -0.12368409248E+03 -0.61823547399E+02  0.13966045775E+03  0.41800000000E+01 0.  1.
</event>
<event>
11    1  0.7157190E-009  0.1917548E+03  0.7561462E-02  0.1060512E+00
         22   -1    0    0    0    0  0.00000000000E+00  0.00000000000E+00  0.16031290682E+04  0.16031290682E+04  0.00000000000E+00 0. -1.
         22   -1    0    0    0    0 -0.00000000000E+00 -0.00000000000E+00 -0.27974848414E+03  0.27974848414E+03  0.00000000000E+00 0.  1.
        -24    2    1    2    0    0  0.13186875487E+03  0.16474306934E+02 -0.20300187896E+03  0.25560864767E+03  0.80406757197E+02 0.  0.
         25    2    1    2    0    0 -0.16638268104E+03 -0.15166946124E+03  0.32311552860E+03  0.41320482195E+03  0.12509099903E+03 0.  0.
         24    2    1    2    0    0  0.34513926168E+02  0.13519515431E+03  0.12032669345E+04  0.12140640828E+04  0.81433043780E+02 0.  0.
        -11    1    5    5    0    0  0.25873563160E+02  0.12641654724E+03  0.77872744385E+03  0.78934594221E+03  0.00000000000E+00 0.  1.
         12    1    5    5    0    0  0.86403630077E+01  0.87786070708E+01  0.42453949062E+03  0.42471814055E+03  0.00000000000E+00 0. -1.
         11    1    3    3    0    0 -0.55378481132E+01  0.89179549901E+01 -0.16911573729E+00  0.10498870561E+02  0.00000000000E+00 0. -1.
        -12    1    3    3    0    0  0.13740660298E+03  0.75563519434E+01 -0.20283276323E+03  0.24510977711E+03  0.00000000000E+00 0.  1.
          5    1    4    4  501    0 -0.11957298302E+03 -0.16317213392E+03  0.21766327896E+03  0.29718280394E+03  0.41800000000E+01 0.  1.
         -5    1    4    4    0  501 -0.46809698021E+02  0.11502672675E+02  0.10545224965E+03  0.11602201801E+03  0.41800000000E+01 0.  1.
</event>
<event>
11    1  0.7157190E-009  0.1871317E+03  0.7561462E-02  0.1064016E+00
         22   -1    0    0    0    0  0.00000000000E+00  0.00000000000E+00  0.16560614529E+04  0.16560614529E+04  0.00000000000E+00 0. -1.
         22   -1    0    0    0    0 -0.00000000000E+00 -0.00000000000E+00 -0.86618204840E+03  0.86618204840E+03  0.00000000000E+00 0. -1.
        -24    2    1    2    0    0  0.13307822340E+03 -0.47904723586E+02 -0.81439721357E+03  0.83206808809E+03  0.95340472310E+02 0.  0.
         25    2    1    2    0    0 -0.95740353055E+02  0.28535856245E+02  0.11256568539E+03  0.19570211953E+03  0.12509106990E+03 0.  0.
         24    2    1    2    0    0 -0.37337870341E+02  0.19368867341E+02  0.14917109327E+04  0.14944732937E+04  0.80496268329E+02 0.  0.
        -11    1    5    5    0    0 -0.43406112414E+02 -0.61616666744E+01  0.39110145611E+03  0.39355102046E+03  0.00000000000E+00 0.  1.
         12    1    5    5    0    0  0.60682420724E+01  0.25530534016E+02  0.11006094766E+04  0.11009222732E+04  0.00000000000E+00 0. -1.
         11    1    3    3    0    0  0.95950773674E+02 -0.77246333982E+02 -0.57769867123E+03  0.59068545083E+03  0.00000000000E+00 0. -1.
        -12    1    3    3    0    0  0.37127449722E+02  0.29341610396E+02 -0.23669854234E+03  0.24138263726E+03  0.00000000000E+00 0.  1.
          5    1    4    4  501    0 -0.58745861117E+02  0.11748312352E+02 -0.14881737219E+02  0.61871136600E+02  0.41800000000E+01 0. -1.
         -5    1    4    4    0  501 -0.36994491937E+02  0.16787543893E+02  0.12744742261E+03  0.13383098293E+03  0.41800000000E+01 0. -1.
</event>
<event>
11    1  0.7157190E-009  0.1917675E+03  0.7561462E-02  0.1060503E+00
         22   -1    0    0    0    0  0.00000000000E+00  0.00000000000E+00  0.76479571831E+03  0.76479571831E+03  0.00000000000E+00 0.  1.
         22   -1    0    0    0    0 -0.00000000000E+00 -0.00000000000E+00 -0.47375665724E+03  0.47375665724E+03  0.00000000000E+00 0. -1.
         24    2    1    2    0    0  0.34493456746E+01  0.13914163474E+03 -0.16019434916E+03  0.22666208439E+03  0.79631516969E+02 0.  0.
         25    2    1    2    0    0  0.10469371233E+03 -0.13732014900E+03 -0.23224353612E+03  0.31528072617E+03  0.12508908627E+03 0.  0.
        -24    2    1    2    0    0 -0.10814305800E+03 -0.18214857437E+01  0.68347694635E+03  0.69660956498E+03  0.80161780361E+02 0.  0.
        -13    1    3    3    0    0 -0.23140661815E+02  0.10515636653E+02 -0.46275427298E+02  0.52796628822E+02  0.00000000000E+00 0.  1.
         14    1    3    3    0    0  0.26590007489E+02  0.12862599809E+03 -0.11391892186E+03  0.17386545557E+03  0.00000000000E+00 0. -1.
         11    1    5    5    0    0  0.31803326833E+01 -0.11663045407E+02  0.20079779540E+03  0.20116136752E+03  0.00000000000E+00 0. -1.
        -12    1    5    5    0    0 -0.11132339069E+03  0.98415596637E+01  0.48267915095E+03  0.49544819746E+03  0.00000000000E+00 0.  1.
          5    1    4    4  501    0  0.23269984758E+02 -0.11197242452E+03 -0.18544940295E+03  0.21791803390E+03  0.41800000000E+01 0.  1.
         -5    1    4    4    0  501  0.81423727571E+02 -0.25347724479E+02 -0.46794133171E+02  0.97362692275E+02  0.41800000000E+01 0.  1.
</event>
<event>
11    1  0.7157190E-009  0.1506313E+03  0.7561462E-02  0.1096236E+00
         22   -1    0    0    0    0  0.00000000000E+00  0.00000000000E+00  0.25157502261E+03  0.25157502261E+03  0.00000000000E+00 0. -1.
         22   -1    0    0    0    0 -0.00000000000E+00 -0.00000000000E+00 -0.63040996866E+03  0.63040996866E+03  0.00000000000E+00 0.  1.
         24    2    1    2    0    0  0.47173298875E+02  0.84075095101E+02 -0.52385913411E+03  0.54006141815E+03  0.89129126781E+02 0.  0.
         25    2    1    2    0    0 -0.21714529652E+02  0.70636427049E+01 -0.27434944415E+02  0.13007778895E+03  0.12508452805E+03 0.  0.
        -24    2    1    2    0    0 -0.25458769223E+02 -0.91138737806E+02  0.17245913248E+03  0.21184578416E+03  0.78626111652E+02 0.  0.
        -13    1    3    3    0    0  0.55399415232E+02  0.12491519415E+02 -0.28359863508E+03  0.28922883515E+03  0.00000000000E+00 0.  1.
         14    1    3    3    0    0 -0.82261163575E+01  0.71583575686E+02 -0.24026049903E+03  0.25083258300E+03  0.00000000000E+00 0. -1.
         11    1    5    5    0    0 -0.76418844623E+01 -0.70802819208E+02  0.17045687402E+03  0.18473490062E+03  0.00000000000E+00 0. -1.
        -12    1    5    5    0    0 -0.17816884760E+02 -0.20335918598E+02  0.20022584614E+01  0.27110883548E+02  0.00000000000E+00 0.  1.
          5    1    4    4  501    0  0.33162139074E+02  0.17938197186E+02 -0.55597657514E+02  0.67305856412E+02  0.41800000000E+01 0. -1.
         -5    1    4    4    0  501 -0.54876668726E+02 -0.10874554481E+02  0.28162713099E+02  0.62771932540E+02  0.41800000000E+01 0. -1.
</event>
<event>
11    1  0.7157190E-009  0.1379800E+03  0.7561462E-02  0.1109835E+00
         22   -1    0    0    0    0  0.00000000000E+00  0.00000000000E+00  0.55997587556E+02  0.55997587556E+02  0.00000000000E+00 0.  1.
         22   -1    0    0    0    0 -0.00000000000E+00 -0.00000000000E+00 -0.48871977301E+03  0.48871977301E+03  0.00000000000E+00 0. -1.
        -24    2    1    2    0    0 -0.19458613614E+02 -0.70433652226E+01 -0.16346573523E+03  0.18302580363E+03  0.79681563508E+02 0.  0.
         25    2    1    2    0    0  0.89967154077E+01 -0.54913441243E+02 -0.11725520142E+03  0.18025644938E+03  0.12508868201E+03 0.  0.
         24    2    1    2    0    0  0.10461898206E+02  0.61956806465E+02 -0.15200124881E+03  0.18143510755E+03  0.76591262110E+02 0.  0.
        -13    1    5    5    0    0 -0.17151568310E+02  0.67752197658E+02 -0.11910665068E+03  0.13809754096E+03  0.00000000000E+00 0.  1.
         14    1    5    5    0    0  0.27613466516E+02 -0.57953911928E+01 -0.32894598129E+02  0.43337566593E+02  0.00000000000E+00 0. -1.
         11    1    3    3    0    0 -0.48899357898E+02 -0.16032521201E+02 -0.10619187200E+03  0.11800382459E+03  0.00000000000E+00 0. -1.
        -12    1    3    3    0    0  0.29440744284E+02  0.89891559786E+01 -0.57273863231E+02  0.65021979043E+02  0.00000000000E+00 0.  1.
          5    1    4    4  501    0  0.26710850708E+02  0.34373102353E+02 -0.53226009584E+02  0.68887300768E+02  0.41800000000E+01 0.  1.
         -5    1    4    4    0  501 -0.17714135300E+02 -0.89286543596E+02 -0.64029191834E+02  0.11136914862E+03  0.41800000000E+01 0.  1.
</event>
<event>
11    1  0.7157190E-009  0.3037778E+03  0.7561462E-02  0.9986050E-01
         22   -1    0    0    0    0  0.00000000000E+00  0.00000000000E+00  0.34974653616E+03  0.34974653616E+03  0.00000000000E+00 0. -1.
         22   -1    0    0    0    0 -0.00000000000E+00 -0.00000000000E+00 -0.11005559630E+04  0.11005559630E+04  0.00000000000E+00 0.  1.
         24    2    1    2    0    0 -0.26004692917E+03  0.59396456770E+02 -0.79060862088E+03  0.83829961879E+03  0.80820263532E+02 0.  0.
         25    2    1    2    0    0  0.35676821116E+03  0.55672573932E+02 -0.95733023122E+02  0.39394917016E+03  0.12509254563E+03 0.  0.
        -24    2    1    2    0    0 -0.96721281982E+02 -0.11506903070E+03  0.13553221718E+03  0.21805371020E+03  0.81132918245E+02 0.  0.
        -11    1    3    3    0    0 -0.13408060576E+03  0.32483729219E+02 -0.52907874481E+03  0.54676971360E+03  0.00000000000E+00 0.  1.
         12    1    3    3    0    0 -0.12596632341E+03  0.26912727550E+02 -0.26152987607E+03  0.29152990518E+03  0.00000000000E+00 0. -1.
         13    1    5    5    0    0 -0.72493539154E+02 -0.11341472086E+03  0.13903608686E+03  0.19351807557E+03  0.00000000000E+00 0. -1.
        -14    1    5    5    0    0 -0.24227742828E+02 -0.16543098459E+01 -0.35038696788E+01  0.24535634623E+02  0.00000000000E+00 0.  1.
          5    1    4    4  501    0 -0.83284574721E+01  0.10804862146E+02 -0.39574931794E+01  0.14806836331E+02  0.41800000000E+01 0.  1.
         -5    1    4    4    0  501  0.36509666863E+03  0.44867711786E+02 -0.91775529943E+02  0.37914233383E+03  0.41800000000E+01 0.  1.
</event>
<event>
11    1  0.7157190E-009  0.1476284E+03  0.7561462E-02  0.1099327E+00
         22   -1    0    0    0    0  0.00000000000E+00  0.00000000000E+00  0.18413400751E+03  0.18413400751E+03  0.00000000000E+00 0. -1.
         22   -1    0    0    0    0 -0.00000000000E+00 -0.00000000000E+00 -0.11395012609E+04  0.11395012609E+04  0.00000000000E+00 0. -1.
         24    2    1    2    0    0  0.45446239178E+02  0.10117489285E+02 -0.10389464931E+04  0.10430525205E+04  0.79881292623E+02 0.  0.
         25    2    1    2    0    0 -0.96891281730E+02 -0.43170467935E+02  0.51540808429E+02  0.17191949994E+03  0.12509296442E+03 0.  0.
        -24    2    1    2    0    0  0.51445042553E+02  0.33052978651E+02  0.32038431257E+02  0.10866324791E+03  0.83917510498E+02 0.  0.
        -13    1    3    3    0    0  0.13393860041E+02 -0.25292759764E+02 -0.14311611644E+03  0.14594979263E+03  0.00000000000E+00 0.  1.
         14    1    3    3    0    0  0.32052379136E+02  0.35410249049E+02 -0.89583037662E+03  0.89710272791E+03  0.00000000000E+00 0. -1.
         13    1    5    5    0    0  0.29098986077E+02  0.61010971014E+02  0.25697213590E+02  0.72314841914E+02  0.00000000000E+00 0. -1.
        -14    1    5    5    0    0  0.22346056476E+02 -0.27957992363E+02  0.63412176670E+01  0.36348405997E+02  0.00000000000E+00 0.  1.
          5    1    4    4  501    0 -0.21532807946E+02  0.12724705948E+02  0.71534857882E+02  0.75896562845E+02  0.41800000000E+01 0.  1.
         -5    1    4    4    0  501 -0.75358473784E+02 -0.55895173884E+02 -0.19994049452E+02  0.96022937094E+02  0.41800000000E+01 0.  1.
</event>
<event>
11    1  0.7157190E-009  0.1603551E+03  0.7561462E-02  0.1086744E+00
         22   -1    0    0    0    0  0.00000000000E+00  0.00000000000E+00  0.26551928837E+03  0.26551928837E+03  0.00000000000E+00 0.  1.
         22   -1    0    0    0    0 -0.00000000000E+00 -0.00000000000E+00 -0.89680421805E+03  0.89680421805E+03  0.00000000000E+00 0.  1.
         24    2    1    2    0    0  0.42749321984E+02  0.22086114885E+02 -0.80541518795E+03  0.81078483310E+03  0.79769164448E+02 0.  0.
         25    2    1    2    0    0  0.61141893551E+02  0.26310586953E+02  0.18155823867E+02  0.14285689849E+03  0.12509149201E+03 0.  0.
        -24    2    1    2    0    0 -0.10389121553E+03 -0.48396701838E+02  0.15597443441E+03  0.20868177483E+03  0.78002779065E+02 0.  0.
        -13    1    3    3    0    0  0.64503185604E+02  0.83481828569E+01 -0.65097930967E+03  0.65422046340E+03  0.00000000000E+00 0.  1.
         14    1    3    3    0    0 -0.21753863620E+02  0.13737932028E+02 -0.15443587828E+03  0.15656436970E+03  0.00000000000E+00 0. -1.
         13    1    5    5    0    0 -0.10676954210E+03 -0.23668550860E+02  0.10336829133E+03  0.15048235469E+03  0.00000000000E+00 0. -1.
        -14    1    5    5    0    0  0.28783265687E+01 -0.24728150979E+02  0.52606143078E+02  0.58199420136E+02  0.00000000000E+00 0.  1.
          5    1    4    4  501    0  0.73879383119E+02 -0.12147866065E+02  0.50872387863E+02  0.90615705851E+02  0.41800000000E+01 0.  1.
         -5    1    4    4    0  501 -0.12737489569E+02  0.38458453018E+02 -0.32716563996E+02  0.52241192643E+02  0.41800000000E+01 0.  1.
</event>
<event>
11    1  0.7157190E-009  0.1394080E+03  0.7561462E-02  0.1108221E+00
         22   -1    0    0    0    0  0.00000000000E+00  0.00000000000E+00  0.48574749113E+03  0.48574749113E+03  0.00000000000E+00 0.  1.
         22   -1    0    0    0    0 -0.00000000000E+00 -0.00000000000E+00 -0.43209906078E+03  0.43209906078E+03  0.00000000000E+00 0.  1.
         24    2    1    2    0    0 -0.25997473412E+01  0.23983540642E+01 -0.36946964901E+03  0.37793852055E+03  0.79480771139E+02 0.  0.
         25    2    1    2    0    0  0.57653925019E+02  0.24785138228E+02  0.42628573830E+02  0.14629588917E+03  0.12508802394E+03 0.  0.
        -24    2    1    2    0    0 -0.55054177678E+02 -0.27183492292E+02  0.38048950553E+03  0.39361214219E+03  0.79927153861E+02 0.  0.
        -11    1    3    3    0    0  0.16414710681E+02  0.23024009653E+02 -0.31855120934E+03  0.31980372218E+03  0.00000000000E+00 0.  1.
         12    1    3    3    0    0 -0.19014458022E+02 -0.20625655589E+02 -0.50918439677E+02  0.58134798370E+02  0.00000000000E+00 0. -1.
         11    1    5    5    0    0 -0.41452650410E+01 -0.21052307964E+02  0.27976663588E+03  0.28058822756E+03  0.00000000000E+00 0. -1.
        -12    1    5    5    0    0 -0.50908912637E+02 -0.61311843288E+01  0.10072286966E+03  0.11302391463E+03  0.00000000000E+00 0.  1.
          5    1    4    4  501    0  0.48743627716E+02 -0.43092196965E+02 -0.64593077920E+00  0.65197916445E+02  0.41800000000E+01 0. -1.
         -5    1    4    4    0  501  0.89102973030E+01  0.67877335193E+02  0.43274504609E+02  0.81097972725E+02  0.41800000000E+01 0. -1.
</event>
<event>
11    1  0.7157190E-009  0.1675709E+03  0.7561462E-02  0.1080165E+00
         22   -1    0    0    0    0  0.00000000000E+00  0.00000000000E+00  0.10638892172E+04  0.10638892172E+04  0.00000000000E+00 0. -1.
         22   -1    0    0    0    0 -0.00000000000E+00 -0.00000000000E+00 -0.17067733012E+03  0.17067733012E+03  0.00000000000E+00 0.  1.
        -24    2    1    2    0    0 -0.25316712725E+02 -0.53797334267E+02 -0.87631412107E+02  0.13314992984E+03  0.80712764241E+02 0.  0.
         25    2    1    2    0    0 -0.14316452773E+02  0.15408575011E+03  0.12512914587E+03  0.23506024726E+03  0.12509451423E+03 0.  0.
         24    2    1    2    0    0  0.39633165498E+02 -0.10028841584E+03  0.85571415334E+03  0.86635637024E+03  0.81841883286E+02 0.  0.
        -13    1    5    5    0    0 -0.20529361748E+02 -0.27224055366E+01  0.12327936781E+03  0.12500667467E+03  0.00000000000E+00 0.  1.
         14    1    5    5    0    0  0.60162527246E+02 -0.97566010303E+02  0.73243478554E+03  0.74134969557E+03  0.00000000000E+00 0. -1.
         11    1    3    3    0    0 -0.15940845503E+02  0.13810279034E+02  0.11990678479E+01  0.21125153870E+02  0.00000000000E+00 0. -1.
        -12    1    3    3    0    0 -0.93758672225E+01 -0.67607613301E+02 -0.88830479955E+02  0.11202477597E+03  0.00000000000E+00 0.  1.
          5    1    4    4  501    0  0.46192976616E+02  0.98271733221E+02  0.10297709878E+03  0.14970931806E+03  0.41800000000E+01 0. -1.
         -5    1    4    4    0  501 -0.60509429389E+02  0.55814016886E+02  0.22152047088E+02  0.85350929204E+02  0.41800000000E+01 0. -1.
</event>
<event>
11    1  0.7157190E-009  0.1768203E+03  0.7561462E-02  0.1072244E+00
         22   -1    0    0    0    0  0.00000000000E+00  0.00000000000E+00  0.10965872173E+04  0.10965872173E+04  0.00000000000E+00 0. -1.
         22   -1    0    0    0    0 -0.00000000000E+00 -0.00000000000E+00 -0.59223984334E+03  0.59223984334E+03  0.00000000000E+00 0.  1.
        -24    2    1    2    0    0  0.57198078495E+02  0.35988315731E+02 -0.50203805127E+03  0.51285218541E+03  0.80052358539E+02 0.  0.
         25    2    1    2    0    0 -0.17422613016E+03 -0.65392373478E+02  0.79741594321E+02  0.23798588370E+03  0.12509057533E+03 0.  0.
         24    2    1    2    0    0  0.11702805167E+03  0.29404057748E+02  0.92664383091E+03  0.93798899153E+03  0.81205882608E+02 0.  0.
        -11    1    5    5    0    0  0.73625651513E+01 -0.20632581448E+02  0.22521709525E+03  0.22628002734E+03  0.00000000000E+00 0.  1.
         12    1    5    5    0    0  0.10966548652E+03  0.50036639196E+02  0.70142673566E+03  0.71170896418E+03  0.00000000000E+00 0. -1.
         13    1    3    3    0    0  0.76375769363E+02  0.21116413812E+02 -0.34750578783E+03  0.35642591608E+03  0.00000000000E+00 0. -1.
        -14    1    3    3    0    0 -0.19177690868E+02  0.14871901918E+02 -0.15453226343E+03  0.15642626933E+03  0.00000000000E+00 0.  1.
          5    1    4    4  501    0 -0.14125227188E+03 -0.92973141345E+02  0.92702510160E+02  0.19289229407E+03  0.41800000000E+01 0.  1.
         -5    1    4    4    0  501 -0.32973858283E+02  0.27580767866E+02 -0.12960915839E+02  0.45093589628E+02  0.41800000000E+01 0.  1.
</event>
<event>
11    1  0.7157190E-009  0.1533065E+03  0.7561462E-02  0.1093547E+00
         22   -1    0    0    0    0  0.00000000000E+00  0.00000000000E+00  0.91119089754E+03  0.91119089754E+03  0.00000000000E+00 0.  1.
         22   -1    0    0    0    0 -0.00000000000E+00 -0.00000000000E+00 -0.16207338874E+03  0.16207338874E+03  0.00000000000E+00 0.  1.
        -24    2    1    2    0    0 -0.39579308154E+02 -0.56687089026E+02 -0.11015038329E+03  0.15313042300E+03  0.80844738928E+02 0.  0.
         25    2    1    2    0    0  0.21685241673E+02 -0.42186761035E+02  0.15717657415E+03  0.20640068991E+03  0.12508715689E+03 0.  0.
         24    2    1    2    0    0  0.17894066481E+02  0.98873850061E+02  0.70209131794E+03  0.71373317337E+03  0.79916132327E+02 0.  0.
        -13    1    5    5    0    0  0.13674451809E+02  0.24009143084E+01  0.29573478351E+03  0.29606049584E+03  0.00000000000E+00 0.  1.
         14    1    5    5    0    0  0.42196146724E+01  0.96472935753E+02  0.40635653443E+03  0.41767267753E+03  0.00000000000E+00 0. -1.
         13    1    3    3    0    0 -0.13259336684E+02  0.20683329220E+02 -0.22960466703E+02  0.33627267926E+02  0.00000000000E+00 0. -1.
        -14    1    3    3    0    0 -0.26319971470E+02 -0.77370418246E+02 -0.87189916584E+02  0.11950315507E+03  0.00000000000E+00 0.  1.
          5    1    4    4  501    0 -0.78528677715E+01  0.31020081197E+02  0.10933794404E+03  0.11400075165E+03  0.41800000000E+01 0.  1.
         -5    1    4    4    0  501  0.29538109444E+02 -0.73206842232E+02  0.47838630106E+02  0.92399938255E+02  0.41800000000E+01 0.  1.
</event>
<event>
11    1  0.7157190E-009  0.2068961E+03  0.7561462E-02  0.1049751E+00
         22   -1    0    0    0    0  0.00000000000E+00  0.00000000000E+00  0.13470437269E+04  0.13470437269E+04  0.00000000000E+00 0. -1.
         22   -1    0    0    0    0 -0.00000000000E+00 -0.00000000000E+00 -0.12688248161E+04  0.12688248161E+04  0.00000000000E+00 0. -1.
        -24    2    1    2    0    0  0.16361819746E+03  0.12048337662E+02 -0.11662606058E+04  0.11804697950E+04  0.80181415156E+02 0.  0.
         25    2    1    2    0    0 -0.17784063506E+03 -0.74133483958E+01  0.30736007376E+02  0.21970966791E+03  0.12508152066E+03 0.  0.
         24    2    1    2    0    0  0.14222437605E+02 -0.46349892658E+01  0.12137435092E+04  0.12156890801E+04  0.67103446638E+02 0.  0.
        -13    1    5    5    0    0 -0.12137341823E+02  0.47630767766E+01  0.52039111528E+02  0.53647656943E+02  0.00000000000E+00 0.  1.
         14    1    5    5    0    0  0.26359779428E+02 -0.93980660424E+01  0.11617043976E+04  0.11620414231E+04  0.00000000000E+00 0. -1.
         13    1    3    3    0    0  0.97364864683E+02  0.43717699305E+02 -0.78266145991E+03  0.78990513034E+03  0.00000000000E+00 0. -1.
        -14    1    3    3    0    0  0.66253332774E+02 -0.31669361643E+02 -0.38359914586E+03  0.39056466465E+03  0.00000000000E+00 0.  1.
          5    1    4    4  501    0 -0.47929121694E+02 -0.60305749819E+02  0.13666287564E+02  0.78346818591E+02  0.41800000000E+01 0.  1.
         -5    1    4    4    0  501 -0.12991151337E+03  0.52892401423E+02  0.17069719812E+02  0.14136284932E+03  0.41800000000E+01 0.  1.
</event>
<event>
11    1  0.7157190E-009  0.1381392E+03  0.7561462E-02  0.1109654E+00
         22   -1    0    0    0    0  0.00000000000E+00  0.00000000000E+00  0.10042149982E+04  0.10042149982E+04  0.00000000000E+00 0.  1.
         22   -1    0    0    0    0 -0.00000000000E+00 -0.00000000000E+00 -0.31919151586E+03  0.31919151586E+03  0.00000000000E+00 0. -1.
        -24    2    1    2    0    0  0.43778824036E+02  0.24773140938E+02 -0.29315016796E+03  0.30871817900E+03  0.82701868904E+02 0.  0.
         25    2    1    2    0    0 -0.36750521396E+01 -0.69385247369E+02  0.34301175206E+03  0.37166062389E+03  0.12508692474E+03 0.  0.
         24    2    1    2    0    0 -0.40103771896E+02  0.44612106431E+02  0.63516189822E+03  0.64302771115E+03  0.80345801305E+02 0.  0.
        -13    1    5    5    0    0 -0.53397252544E+02  0.46952103491E+02  0.33027559572E+03  0.33784276776E+03  0.00000000000E+00 0.  1.
         14    1    5    5    0    0  0.13293480648E+02 -0.23399970600E+01  0.30488630251E+03  0.30518494339E+03  0.00000000000E+00 0. -1.
         11    1    3    3    0    0  0.19769275530E+02  0.27851459991E+02 -0.27815447352E+03  0.28024353555E+03  0.00000000000E+00 0. -1.
        -12    1    3    3    0    0  0.24009548505E+02 -0.30783190531E+01 -0.14995694446E+02  0.28474643449E+02  0.00000000000E+00 0.  1.
          5    1    4    4  501    0  0.24944584078E+02 -0.65813224522E+02  0.33369851828E+03  0.34106566274E+03  0.41800000000E+01 0. -1.
         -5    1    4    4    0  501 -0.28619636218E+02 -0.35720228469E+01  0.93132337745E+01  0.30594961150E+02  0.41800000000E+01 0. -1.
</event>
<event>
11    1  0.7157190E-009  0.1285668E+03  0.7561462E-02  0.1121042E+00
         22   -1    0    0    0    0  0.00000000000E+00  0.00000000000E+00  0.38444131382E+03  0.38444131382E+03  0.00000000000E+00 0. -1.
         22   -1    0    0    0    0 -0.00000000000E+00 -0.00000000000E+00 -0.25603285346E+03  0.25603285346E+03  0.00000000000E+00 0.  1.
        -24    2    1    2    0    0 -0.21348979574E+02  0.21298839113E+02 -0.21884828294E+03  0.23489402689E+03  0.79819881270E+02 0.  0.
         25    2    1    2    0    0  0.43846823941E+01 -0.19848346135E+02  0.19951541704E+03  0.23636231505E+03  0.12509020768E+03 0.  0.
         24    2    1    2    0    0  0.16964297180E+02 -0.14504929774E+01  0.14774132626E+03  0.16921782534E+03  0.80729682378E+02 0.  0.
        -11    1    5    5    0    0  0.39792200081E+02  0.23651183354E+02  0.10418586864E+03  0.11400654755E+03  0.00000000000E+00 0.  1.
         12    1    5    5    0    0 -0.22827902900E+02 -0.25101676331E+02  0.43555457627E+02  0.55211277784E+02  0.00000000000E+00 0. -1.
         13    1    3    3    0    0  0.22707484634E+01  0.32639894074E+02 -0.30493295302E+02  0.44725384762E+02  0.00000000000E+00 0. -1.
        -14    1    3    3    0    0 -0.23619728038E+02 -0.11341054961E+02 -0.18835498764E+03  0.19016864213E+03  0.00000000000E+00 0.  1.
          5    1    4    4  501    0  0.38700050364E+02  0.32496629916E+02  0.14374236662E+03  0.15242396536E+03  0.41800000000E+01 0.  1.
         -5    1    4    4    0  501 -0.34315367970E+02 -0.52344976051E+02  0.55773050416E+02  0.83938349695E+02  0.41800000000E+01 0.  1.
</event>
<event>
11    1  0.7157190E-009  0.1477318E+03  0.7561462E-02  0.1099219E+00
         22   -1    0    0    0    0  0.00000000000E+00  0.00000000000E+00  0.83831717013E+03  0.83831717013E+03  0.00000000000E+00 0.  1.
         22   -1    0    0    0    0 -0.00000000000E+00 -0.00000000000E+00 -0.16092942600E+04  0.16092942600E+04  0.00000000000E+00 0. -1.
        -24    2    1    2    0    0 -0.73876431167E+01 -0.76889136394E+02 -0.13050429048E+04  0.13098292386E+04  0.80926721242E+02 0.  0.
         25    2    1    2    0    0  0.15922509823E+02  0.88527751863E+02 -0.27993885734E+03  0.31953968882E+03  0.12509660152E+03 0.  0.
         24    2    1    2    0    0 -0.85348667066E+01 -0.11638615469E+02  0.81400467231E+03  0.81824250272E+03  0.81907785963E+02 0.  0.
        -13    1    5    5    0    0 -0.36792025151E+02 -0.31612178265E+02  0.49011585959E+03  0.49251044532E+03  0.00000000000E+00 0.  1.
         14    1    5    5    0    0  0.28257158445E+02  0.19973562796E+02  0.32388881272E+03  0.32573205740E+03  0.00000000000E+00 0. -1.
         13    1    3    3    0    0 -0.11198165569E+02 -0.92983744019E+02 -0.11774401360E+04  0.11811590280E+04  0.00000000000E+00 0. -1.
        -14    1    3    3    0    0  0.38105224525E+01  0.16094607625E+02 -0.12760276881E+03  0.12867021055E+03  0.00000000000E+00 0.  1.
          5    1    4    4  501    0  0.56735373012E+02  0.51391317444E+02 -0.23817879877E+03  0.25021307449E+03  0.41800000000E+01 0. -1.
         -5    1    4    4    0  501 -0.40812863188E+02  0.37136434420E+02 -0.41760058568E+02  0.69326614331E+02  0.41800000000E+01 0. -1.
</event>
<event>
11    1  0.7157190E-009  0.1403806E+03  0.7561462E-02  0.1107134E+00
         22   -1    0    0    0    0  0.00000000000E+00  0.00000000000E+00  0.26290920298E+04  0.26290920298E+04  0.00000000000E+00 0.  1.
         22   -1    0    0    0    0 -0.00000000000E+00 -0.00000000000E+00 -0.13913120410E+04  0.13913120410E+04  0.00000000000E+00 0.  1.
         24    2    1    2    0    0 -0.40613965145E+02 -0.75675179565E+01 -0.13625929101E+04  0.13656194150E+04  0.80933221186E+02 0.  0.
         25    2    1    2    0    0 -0.94012372208E+01  0.48616455868E+02  0.14657395463E+03  0.19895286961E+03  0.12508547920E+03 0.  0.
        -24    2    1    2    0    0  0.50015202365E+02 -0.41048937912E+02  0.24537989443E+04  0.24558317863E+04  0.76118117830E+02 0.  0.
        -13    1    3    3    0    0 -0.30338178262E+02 -0.20515274757E+02 -0.13095175329E+04  0.13100295609E+04  0.00000000000E+00 0.  1.
         14    1    3    3    0    0 -0.10275786883E+02  0.12947756800E+02 -0.53075377211E+02  0.55589854005E+02  0.00000000000E+00 0. -1.
         13    1    5    5    0    0 -0.20191547975E+02 -0.73712386470E+01  0.43298390296E+03  0.43351712076E+03  0.00000000000E+00 0. -1.
        -14    1    5    5    0    0  0.70206750341E+02 -0.33677699265E+02  0.20208150413E+04  0.20223146656E+04  0.00000000000E+00 0.  1.
          5    1    4    4  501    0 -0.85973810506E+01  0.86340715885E+02  0.13255555867E+03  0.15848369858E+03  0.41800000000E+01 0.  1.
         -5    1    4    4    0  501 -0.80385617018E+00 -0.37724260017E+02  0.14018395958E+02  0.40469171030E+02  0.41800000000E+01 0.  1.
</event>
<event>
11    1  0.7157190E-009  0.1639496E+03  0.7561462E-02  0.1083420E+00
         22   -1    0    0    0    0  0.00000000000E+00  0.00000000000E+00  0.17988331330E+03  0.17988331330E+03  0.00000000000E+00 0. -1.
         22   -1    0    0    0    0 -0.00000000000E+00 -0.00000000000E+00 -0.12290603887E+04  0.12290603887E+04  0.00000000000E+00 0.  1.
        -24    2    1    2    0    0  0.98423730244E+02 -0.40853791076E+02 -0.82108853899E+03  0.83176659687E+03  0.79328556548E+02 0.  0.
         25    2    1    2    0    0 -0.11887004832E+03 -0.29480355477E+02 -0.36337549147E+03  0.40334692524E+03  0.12509122492E+03 0.  0.
         24    2    1    2    0    0  0.20446318081E+02  0.70334146553E+02  0.13528695506E+03  0.17383017989E+03  0.80928531038E+02 0.  0.
        -11    1    5    5    0    0 -0.22704965340E+02  0.11256589933E+02  0.74567829955E+02  0.78756507872E+02  0.00000000000E+00 0.  1.
         12    1    5    5    0    0  0.43151283421E+02  0.59077556620E+02  0.60719125109E+02  0.95073672019E+02  0.00000000000E+00 0. -1.
         13    1    3    3    0    0  0.40255576442E+02 -0.54732182229E+02 -0.32074082718E+03  0.32785789822E+03  0.00000000000E+00 0. -1.
        -14    1    3    3    0    0  0.58168153802E+02  0.13878391153E+02 -0.50034771182E+03  0.50390869865E+03  0.00000000000E+00 0.  1.
          5    1    4    4  501    0 -0.57631080773E+02 -0.68607756353E+02 -0.12327748868E+03  0.15245713272E+03  0.41800000000E+01 0.  1.
         -5    1    4    4    0  501 -0.61238967552E+02  0.39127400876E+02 -0.24009800279E+03  0.25088979251E+03  0.41800000000E+01 0.  1.
</event>
<event>
11    1  0.7157190E-009  0.1728412E+03  0.7561462E-02  0.1075585E+00
         22   -1    0    0    0    0  0.00000000000E+00  0.00000000000E+00  0.35817442093E+03  0.35817442093E+03  0.00000000000E+00 0.  1.
         22   -1    0    0    0    0 -0.00000000000E+00 -0.00000000000E+00 -0.17381670847E+03  0.17381670847E+03  0.00000000000E+00 0. -1.
         24    2    1    2    0    0 -0.24918846232E+02 -0.11492955713E+03 -0.16922972490E+02  0.14306166620E+03  0.79690032878E+02 0.  0.
         25    2    1    2    0    0  0.25801379190E+02  0.11886116533E+03  0.22453616605E+01  0.17448653903E+03  0.12508726099E+03 0.  0.
        -24    2    1    2    0    0 -0.88253295813E+00 -0.39316082040E+01  0.19903532328E+03  0.21444292417E+03  0.79714938392E+02 0.  0.
        -11    1    3    3    0    0  0.79424343829E+01 -0.75416645492E+01  0.21695927898E+02  0.24303749823E+02  0.00000000000E+00 0.  1.
         12    1    3    3    0    0 -0.32861280615E+02 -0.10738789258E+03 -0.38618900387E+02  0.11875791638E+03  0.00000000000E+00 0. -1.
         13    1    5    5    0    0  0.28072718177E+02  0.16405274764E+02  0.40146376777E+02  0.51661805178E+02  0.00000000000E+00 0. -1.
        -14    1    5    5    0    0 -0.28955251135E+02 -0.20336882968E+02  0.15888894651E+03  0.16278111899E+03  0.00000000000E+00 0.  1.
          5    1    4    4  501    0 -0.42647584912E+02  0.10853263085E+02 -0.11870226192E+02  0.45771000516E+02  0.41800000000E+01 0. -1.
         -5    1    4    4    0  501  0.68448964102E+02  0.10800790225E+03  0.14115587852E+02  0.12871553851E+03  0.41800000000E+01 0. -1.
</event>
<event>
11    1  0.7157190E-009  0.1778254E+03  0.7561462E-02  0.1071416E+00
         22   -1    0    0    0    0  0.00000000000E+00  0.00000000000E+00  0.20565728326E+03  0.20565728326E+03  0.00000000000E+00 0. -1.
         22   -1    0    0    0    0 -0.00000000000E+00 -0.00000000000E+00 -0.61647265642E+03  0.61647265642E+03  0.00000000000E+00 0.  1.
         24    2    1    2    0    0  0.42030496902E+02 -0.92335136682E+01 -0.44299300084E+03  0.45215090468E+03  0.79660663843E+02 0.  0.
         25    2    1    2    0    0  0.58724438242E+02 -0.81050369679E+02 -0.78309336290E+02  0.17832025618E+03  0.12509212422E+03 0.  0.
        -24    2    1    2    0    0 -0.10075493514E+03  0.90283883347E+02  0.11048696398E+03  0.19165877882E+03  0.78885877954E+02 0.  0.
        -13    1    3    3    0    0  0.35426533380E+02  0.74940711006E+01 -0.42558158662E+03  0.42711928924E+03  0.00000000000E+00 0.  1.
         14    1    3    3    0    0  0.66039635218E+01 -0.16727584769E+02 -0.17411414217E+02  0.25031615438E+02  0.00000000000E+00 0. -1.
         11    1    5    5    0    0 -0.69375601009E+02  0.99165053995E+02  0.10117438681E+03  0.15774326767E+03  0.00000000000E+00 0. -1.
        -12    1    5    5    0    0 -0.31379334136E+02 -0.88811706479E+01  0.93125771700E+01  0.33915511148E+02  0.00000000000E+00 0.  1.
          5    1    4    4  501    0 -0.12173803137E+02  0.16965612859E+02 -0.49515284375E+02  0.53900549990E+02  0.41800000000E+01 0. -1.
         -5    1    4    4    0  501  0.70898241379E+02 -0.98015982538E+02 -0.28794051915E+02  0.12441970619E+03  0.41800000000E+01 0. -1.
</event>
<event>
11    1  0.7157190E-009  0.1355140E+03  0.7561462E-02  0.1112674E+00
         22   -1    0    0    0    0  0.00000000000E+00  0.00000000000E+00  0.10384870648E+03  0.10384870648E+03  0.00000000000E+00 0. -1.
         22   -1    0    0    0    0 -0.00000000000E+00 -0.00000000000E+00 -0.12310695850E+04  0.12310695850E+04  0.00000000000E+00 0. -1.
         24    2    1    2    0    0  0.47270351019E+01  0.16636823242E+02 -0.10665904918E+04  0.10696192978E+04  0.78555944783E+02 0.  0.
         25    2    1    2    0    0 -0.37706694053E+02 -0.52468695021E+02 -0.88322653471E+02  0.16620546797E+03  0.12509439530E+03 0.  0.
        -24    2    1    2    0    0  0.32979658951E+02  0.35831871779E+02  0.27692266720E+02  0.99093525659E+02  0.81737899726E+02 0.  0.
        -11    1    3    3    0    0 -0.12275648446E+02 -0.12720653677E+02 -0.62395763913E+02  0.64851660958E+02  0.00000000000E+00 0.  1.
         12    1    3    3    0    0  0.17002683548E+02  0.29357476919E+02 -0.10041947278E+04  0.10047676369E+04  0.00000000000E+00 0. -1.
         11    1    5    5    0    0  0.31748123313E+02  0.61559978979E+02  0.22412800208E+02  0.72800466750E+02  0.00000000000E+00 0. -1.
        -12    1    5    5    0    0  0.12315356387E+01 -0.25728107200E+02  0.52794665117E+01  0.26293058909E+02  0.00000000000E+00 0.  1.
          5    1    4    4  501    0 -0.61406130973E+02  0.95068448864E+01 -0.76556079727E+02  0.98688392245E+02  0.41800000000E+01 0.  1.
         -5    1    4    4    0  501  0.23699436920E+02 -0.61975539907E+02 -0.11766573744E+02  0.67517075728E+02  0.41800000000E+01 0.  1.
</event>
<event>
11    1  0.7157190E-009  0.3604735E+03  0.7561462E-02  0.9774168E-01
         22   -1    0    0    0    0  0.00000000000E+00  0.00000000000E+00  0.14495020071E+04  0.14495020071E+04  0.00000000000E+00 0. -1.
         22   -1    0    0    0    0 -0.00000000000E+00 -0.00000000000E+00 -0.76423396220E+03  0.76423396220E+03  0.00000000000E+00 0. -1.
        -24    2    1    2    0    0 -0.21796020731E+03 -0.25669098951E+03 -0.65701965841E+03  0.74263370661E+03  0.80206449751E+02 0.  0.
         25    2    1    2    0    0  0.19249730524E+03  0.30372604637E+03  0.52773827393E+03  0.65073794469E+03  0.12508982024E+03 0.  0.
         24    2    1    2    0    0  0.25462902076E+02 -0.47035056859E+02  0.81454942937E+03  0.82036431797E+03  0.81524139746E+02 0.  0.
        -13    1    5    5    0    0 -0.14768493613E+02  0.86944426325E+01  0.52609704281E+02  0.55330667092E+02  0.00000000000E+00 0.  1.
         14    1    5    5    0    0  0.40231395689E+02 -0.55729499492E+02  0.76193972509E+03  0.76503365088E+03  0.00000000000E+00 0. -1.
         11    1    3    3    0    0 -0.36269603727E+02 -0.55567711187E+02 -0.20616142204E+03  0.21657743792E+03  0.00000000000E+00 0. -1.
        -12    1    3    3    0    0 -0.18169060359E+03 -0.20112327832E+03 -0.45085823638E+03  0.52605626869E+03  0.00000000000E+00 0.  1.
          5    1    4    4  501    0  0.18779725367E+02  0.49304255744E+01  0.94218800194E+02  0.96289365411E+02  0.41800000000E+01 0. -1.
         -5    1    4    4    0  501  0.17371757987E+03  0.29879562079E+03  0.43351947373E+03  0.55444857928E+03  0.41800000000E+01 0. -1.
</event>
<event>
11    1  0.7157190E-009  0.1394838E+03  0.7561462E-02  0.1108136E+00
         22   -1    0    0    0    0  0.00000000000E+00  0.00000000000E+00  0.59187412457E+03  0.59187412457E+03  0.00000000000E+00 0. -1.
         22   -1    0    0    0    0 -0.00000000000E+00 -0.00000000000E+00 -0.15417665344E+04  0.15417665344E+04  0.00000000000E+00 0.  1.
        -24    2    1    2    0    0  0.21906159437E+02  0.63236151804E+02 -0.39850686655E+03  0.41394443690E+03  0.89797457854E+02 0.  0.
         25    2    1    2    0    0 -0.40778034331E+02 -0.44937671052E+02 -0.11285342249E+04  0.11370664635E+04  0.12509357882E+03 0.  0.
         24    2    1    2    0    0  0.18871874893E+02 -0.18298480752E+02  0.57714868156E+03  0.58262975854E+03  0.75271859636E+02 0.  0.
        -13    1    5    5    0    0 -0.22940367583E+02  0.58782817106E+01  0.88975199676E+02  0.92072801728E+02  0.00000000000E+00 0.  1.
         14    1    5    5    0    0  0.41812242476E+02 -0.24176762462E+02  0.48817348188E+03  0.49055695681E+03  0.00000000000E+00 0. -1.
         11    1    3    3    0    0  0.28607259120E+02  0.37350355915E+02 -0.69939933643E+02  0.84291272854E+02  0.00000000000E+00 0. -1.
        -12    1    3    3    0    0 -0.67010996832E+01  0.25885795889E+02 -0.32856693291E+03  0.32965316405E+03  0.00000000000E+00 0.  1.
          5    1    4    4  501    0 -0.34769733142E+02 -0.85160099412E+02 -0.60846609552E+03  0.61539388904E+03  0.41800000000E+01 0.  1.
         -5    1    4    4    0  501 -0.60083011882E+01  0.40222428360E+02 -0.52006812934E+03  0.52167257449E+03  0.41800000000E+01 0.  1.
</event>
<event>
11    1  0.7157190E-009  0.1424778E+03  0.7561462E-02  0.1104823E+00
         22   -1    0    0    0    0  0.00000000000E+00  0.00000000000E+00  0.83160579785E+02  0.83160579785E+02  0.00000000000E+00 0.  1.
         22   -1    0    0    0    0 -0.00000000000E+00 -0.00000000000E+00 -0.96816625259E+03  0.96816625259E+03  0.00000000000E+00 0. -1.
        -24    2    1    2    0    0  0.37746102548E+02 -0.12479375053E+02 -0.37095068185E+03  0.38153716139E+03  0.79910538074E+02 0.  0.
         25    2    1    2    0    0  0.84665782674E-02 -0.46839611716E+02 -0.54287342267E+03  0.55906470326E+03  0.12509132701E+03 0.  0.
         24    2    1    2    0    0 -0.37754569127E+02  0.59318986769E+02  0.28818431716E+02  0.11072496773E+03  0.80531775033E+02 0.  0.
        -11    1    5    5    0    0 -0.51632010226E+02  0.70042151157E+02  0.14783465955E+02  0.88262779722E+02  0.00000000000E+00 0.  1.
         12    1    5    5    0    0  0.13877441099E+02 -0.10723164389E+02  0.14034965761E+02  0.22462188003E+02  0.00000000000E+00 0. -1.
         11    1    3    3    0    0  0.19151449578E+02  0.33020270391E+02 -0.20229539614E+03  0.20586535303E+03  0.00000000000E+00 0. -1.
        -12    1    3    3    0    0  0.18594652970E+02 -0.45499645444E+02 -0.16865528571E+03  0.17567180836E+03  0.00000000000E+00 0.  1.
          5    1    4    4  501    0  0.52271211798E+02 -0.11022972002E+02 -0.38796768757E+03  0.39165058980E+03  0.41800000000E+01 0. -1.
         -5    1    4    4    0  501 -0.52262745219E+02 -0.35816639714E+02 -0.15490573510E+03  0.16741411345E+03  0.41800000000E+01 0. -1.
</event>
<event>
11    1  0.7157190E-009  0.2229077E+03  0.7561462E-02  0.1039411E+00
         22   -1    0    0    0    0  0.00000000000E+00  0.00000000000E+00  0.75664870753E+03  0.75664870753E+03  0.00000000000E+00 0. -1.
         22   -1    0    0    0    0 -0.00000000000E+00 -0.00000000000E+00 -0.11436718046E+03  0.11436718046E+03  0.00000000000E+00 0.  1.
        -24    2    1    2    0    0 -0.39257956768E+02  0.89369603747E+02  0.16990952709E+03  0.21199426236E+03  0.80896270836E+02 0.  0.
         25    2    1    2    0    0 -0.16822831698E+03 -0.59367514555E+02  0.14882570205E+03  0.26385948237E+03  0.12508984142E+03 0.  0.
         24    2    1    2    0    0  0.20748627375E+03 -0.30002089192E+02  0.32354629793E+03  0.39516214325E+03  0.86719279334E+02 0.  0.
        -13    1    5    5    0    0  0.11469407978E+03  0.23475814677E+02  0.13843343109E+03  0.18129991907E+03  0.00000000000E+00 0.  1.
         14    1    5    5    0    0  0.92792193965E+02 -0.53477903869E+02  0.18511286684E+03  0.21386222418E+03  0.00000000000E+00 0. -1.
         11    1    3    3    0    0 -0.65461113981E+01  0.91124860512E+02  0.14254706567E+03  0.16931112695E+03  0.00000000000E+00 0. -1.
        -12    1    3    3    0    0 -0.32711845370E+02 -0.17552567649E+01  0.27362461425E+02  0.42683135418E+02  0.00000000000E+00 0.  1.
          5    1    4    4  501    0 -0.96870919744E+02  0.23760931594E+02  0.34913013245E+02  0.10575891384E+03  0.41800000000E+01 0.  1.
         -5    1    4    4    0  501 -0.71357397237E+02 -0.83128446149E+02  0.11391268881E+03  0.15810056854E+03  0.41800000000E+01 0.  1.
</event>
<event>
11    1  0.7157190E-009  0.1400218E+03  0.7561462E-02  0.1107534E+00
         22   -1    0    0    0    0  0.00000000000E+00  0.00000000000E+00  0.33379365422E+03  0.33379365422E+03  0.00000000000E+00 0. -1.
         22   -1    0    0    0    0 -0.00000000000E+00 -0.00000000000E+00 -0.48731312677E+03  0.48731312677E+03  0.00000000000E+00 0. -1.
         24    2    1    2    0    0 -0.13980262069E+02  0.21887663051E+02 -0.41766033507E+03  0.42597509700E+03  0.79624809272E+02 0.  0.
         25    2    1    2    0    0  0.32066917343E+02 -0.77867943304E+02  0.48766401729E+02  0.15848392973E+03  0.12508912928E+03 0.  0.
        -24    2    1    2    0    0 -0.18086655274E+02  0.55980280254E+02  0.21537446078E+03  0.23664775426E+03  0.78454332958E+02 0.  0.
        -11    1    3    3    0    0 -0.96436454139E+01 -0.24875270307E+02 -0.65932393113E+02  0.71125659444E+02  0.00000000000E+00 0.  1.
         12    1    3    3    0    0 -0.43366166550E+01  0.46762933358E+02 -0.35172794195E+03  0.35484943755E+03  0.00000000000E+00 0. -1.
         11    1    5    5    0    0 -0.42794793559E+02  0.22042942990E+02  0.67342112896E+02  0.82778293415E+02  0.00000000000E+00 0. -1.
        -12    1    5    5    0    0  0.24708138285E+02  0.33937337264E+02  0.14803234789E+03  0.15386946084E+03  0.00000000000E+00 0.  1.
          5    1    4    4  501    0  0.57088256329E+02 -0.10090244970E+03  0.43085862011E+02  0.12375070614E+03  0.41800000000E+01 0. -1.
         -5    1    4    4    0  501 -0.25021338985E+02  0.23034506394E+02  0.56805397182E+01  0.34733223589E+02  0.41800000000E+01 0. -1.
</event>
<event>
11    1  0.7157190E-009  0.1399622E+03  0.7561462E-02  0.1107601E+00
         22   -1    0    0    0    0  0.00000000000E+00  0.00000000000E+00  0.12462682042E+04  0.12462682042E+04  0.00000000000E+00 0. -1.
         22   -1    0    0    0    0 -0.00000000000E+00 -0.00000000000E+00 -0.43099537050E+03  0.43099537050E+03  0.00000000000E+00 0.  1.
        -24    2    1    2    0    0 -0.34311163140E+02  0.52215713006E+02 -0.40785416574E+03  0.42038466111E+03  0.80464316193E+02 0.  0.
         25    2    1    2    0    0  0.41983987532E+02 -0.69716193646E+02  0.35839642330E+03  0.38822381702E+03  0.12508690180E+03 0.  0.
         24    2    1    2    0    0 -0.76728243915E+01  0.17500480640E+02  0.86473057610E+03  0.86865509653E+03  0.80234459081E+02 0.  0.
        -11    1    5    5    0    0 -0.28333005663E+02  0.37229497071E+02  0.34736147597E+03  0.35049791675E+03  0.00000000000E+00 0.  1.
         12    1    5    5    0    0  0.20660181272E+02 -0.19729016431E+02  0.51736910014E+03  0.51815717978E+03  0.00000000000E+00 0. -1.
         11    1    3    3    0    0 -0.50356792882E+02  0.11890660137E+02 -0.14463314068E+03  0.15360969947E+03  0.00000000000E+00 0. -1.
        -12    1    3    3    0    0  0.16045629742E+02  0.40325052869E+02 -0.26322102506E+03  0.26677496164E+03  0.00000000000E+00 0.  1.
          5    1    4    4  501    0 -0.10754578367E+02  0.10665680887E+01  0.24103411353E+03  0.24131248374E+03  0.41800000000E+01 0.  1.
         -5    1    4    4    0  501  0.52738565899E+02 -0.70782761734E+02  0.11736230978E+03  0.14691133329E+03  0.41800000000E+01 0.  1.
</event>
<event>
11    1  0.7157190E-009  0.1567648E+03  0.7561462E-02  0.1090160E+00
         22   -1    0    0    0    0  0.00000000000E+00  0.00000000000E+00  0.51434614073E+03  0.51434614073E+03  0.00000000000E+00 0. -1.
         22   -1    0    0    0    0 -0.00000000000E+00 -0.00000000000E+00 -0.27520759024E+03  0.27520759024E+03  0.00000000000E+00 0.  1.
        -24    2    1    2    0    0 -0.74245885731E+02 -0.12006646127E+02 -0.21479394508E+03  0.24148004134E+03  0.80743794942E+02 0.  0.
         25    2    1    2    0    0  0.12572148510E+03  0.68091319848E+02  0.23830104771E+03  0.30475635840E+03  0.12508688577E+03 0.  0.
         24    2    1    2    0    0 -0.51475599365E+02 -0.56084673721E+02  0.21563144786E+03  0.24331733123E+03  0.83133473493E+02 0.  0.
        -13    1    5    5    0    0  0.22865960904E+02 -0.10250077668E+02  0.40681546019E+02  0.47779749337E+02  0.00000000000E+00 0.  1.
         14    1    5    5    0    0 -0.74341560269E+02 -0.45834596054E+02  0.17494990184E+03  0.19553758189E+03  0.00000000000E+00 0. -1.
         13    1    3    3    0    0 -0.66199701128E+02 -0.22441520779E+02 -0.80798583731E+02  0.10683835181E+03  0.00000000000E+00 0. -1.
        -14    1    3    3    0    0 -0.80461846026E+01  0.10434874652E+02 -0.13399536135E+03  0.13464168953E+03  0.00000000000E+00 0.  1.
          5    1    4    4  501    0  0.79599995727E+02 -0.22692702127E+02  0.14270098217E+03  0.16502169785E+03  0.41800000000E+01 0.  1.
         -5    1    4    4    0  501  0.46121489368E+02  0.90784021975E+02  0.95600065544E+02  0.13973466055E+03  0.41800000000E+01 0.  1.
</event>
<event>
11    1  0.7157190E-009  0.1833696E+03  0.7561462E-02  0.1066949E+00
         22   -1    0    0    0    0  0.00000000000E+00  0.00000000000E+00  0.28144087904E+03  0.28144087904E+03  0.00000000000E+00 0. -1.
         22   -1    0    0    0    0 -0.00000000000E+00 -0.00000000000E+00 -0.21435357715E+04  0.21435357715E+04  0.00000000000E+00 0.  1.
        -24    2    1    2    0    0 -0.37217489680E+02 -0.12833451167E+03 -0.19335954949E+04  0.19398243243E+04  0.79195849954E+02 0.  0.
         25    2    1    2    0    0  0.38110662524E+02  0.13518107021E+03 -0.15551198755E+03  0.24404870159E+03  0.12509774632E+03 0.  0.
         24    2    1    2    0    0 -0.89317284384E+00 -0.68465585395E+01  0.22701259002E+03  0.24110362466E+03  0.80923227066E+02 0.  0.
        -11    1    5    5    0    0  0.23662425080E+02 -0.29763871840E+02  0.62186816076E+02  0.72890318433E+02  0.00000000000E+00 0.  1.
         12    1    5    5    0    0 -0.24555597924E+02  0.22917313301E+02  0.16482577394E+03  0.16821330623E+03  0.00000000000E+00 0. -1.
         13    1    3    3    0    0 -0.78329374660E+00 -0.19812297745E+01 -0.40767608004E+00  0.21691058755E+01  0.00000000000E+00 0. -1.
        -14    1    3    3    0    0 -0.36434195934E+02 -0.12635328189E+03 -0.19331878188E+04  0.19376552184E+04  0.00000000000E+00 0.  1.
          5    1    4    4  501    0 -0.12361891562E+02  0.12968481066E+03 -0.13887245973E+03  0.19045734154E+03  0.41800000000E+01 0. -1.
         -5    1    4    4    0  501  0.50472554086E+02  0.54962595519E+01 -0.16639527823E+02  0.53591360043E+02  0.41800000000E+01 0. -1.
</event>
<event>
11    1  0.7157190E-009  0.1315332E+03  0.7561462E-02  0.1117399E+00
         22   -1    0    0    0    0  0.00000000000E+00  0.00000000000E+00  0.12091458160E+04  0.12091458160E+04  0.00000000000E+00 0. -1.
         22   -1    0    0    0    0 -0.00000000000E+00 -0.00000000000E+00 -0.42662269121E+03  0.42662269121E+03  0.00000000000E+00 0. -1.
         24    2    1    2    0    0  0.22373905198E+02  0.21999350904E+02 -0.39542778213E+03  0.40480740531E+03  0.80754823002E+02 0.  0.
         25    2    1    2    0    0 -0.32984830966E+02  0.18484521411E+02  0.14966909725E+03  0.19867803128E+03  0.12506975988E+03 0.  0.
        -24    2    1    2    0    0  0.10610925768E+02 -0.40483872315E+02  0.10282818097E+04  0.10322830707E+04  0.80581152278E+02 0.  0.
        -13    1    3    3    0    0  0.37494080696E+02 -0.15798605114E+02 -0.12834044826E+03  0.13463533217E+03  0.00000000000E+00 0.  1.
         14    1    3    3    0    0 -0.15120175498E+02  0.37797956018E+02 -0.26708733387E+03  0.27017207314E+03  0.00000000000E+00 0. -1.
         13    1    5    5    0    0  0.23150337895E+02 -0.90757291859E+01  0.87331859164E+03  0.87367251846E+03  0.00000000000E+00 0. -1.
        -14    1    5    5    0    0 -0.12539412127E+02 -0.31408143130E+02  0.15496321807E+03  0.15861055219E+03  0.00000000000E+00 0.  1.
          5    1    4    4  501    0 -0.13369085320E+02  0.72061982157E+02  0.86588591811E+02  0.11351968264E+03  0.41800000000E+01 0.  1.
         -5    1    4    4    0  501 -0.19615745646E+02 -0.53577460746E+02  0.63080505438E+02  0.85158348643E+02  0.41800000000E+01 0.  1.
</event>
<event>
11    1  0.7157190E-009  0.1305322E+03  0.7561462E-02  0.1118617E+00
         22   -1    0    0    0    0  0.00000000000E+00  0.00000000000E+00  0.15182107909E+04  0.15182107909E+04  0.00000000000E+00 0.  1.
         22   -1    0    0    0    0 -0.00000000000E+00 -0.00000000000E+00 -0.45346907217E+03  0.45346907217E+03  0.00000000000E+00 0. -1.
        -24    2    1    2    0    0  0.37426816438E+02 -0.46908824439E+02 -0.41002760103E+03  0.41809545325E+03  0.55497477648E+02 0.  0.
         25    2    1    2    0    0 -0.45227372794E+02  0.90032350115E+01  0.79174535275E+02  0.15505438856E+03  0.12508670147E+03 0.  0.
         24    2    1    2    0    0  0.78005563553E+01  0.37905589427E+02  0.13955947845E+04  0.13985300212E+04  0.81876342583E+02 0.  0.
        -13    1    5    5    0    0  0.30144229694E+02  0.29825957889E+02  0.12699896268E+04  0.12706974126E+04  0.00000000000E+00 0.  1.
         14    1    5    5    0    0 -0.22343673339E+02  0.80796315380E+01  0.12560515771E+03  0.12783260863E+03  0.00000000000E+00 0. -1.
         13    1    3    3    0    0  0.22023411540E+02 -0.15066090605E+02 -0.32375597498E+03  0.32485373489E+03  0.00000000000E+00 0. -1.
        -14    1    3    3    0    0  0.15403404898E+02 -0.31842733834E+02 -0.86271626052E+02  0.93241718357E+02  0.00000000000E+00 0.  1.
          5    1    4    4  501    0 -0.24224423843E+02 -0.37627779270E+02 -0.15354268774E+02  0.47496299360E+02  0.41800000000E+01 0. -1.
         -5    1    4    4    0  501 -0.21002948951E+02  0.46631014281E+02  0.94528804049E+02  0.10755808920E+03  0.41800000000E+01 0. -1.
</event>
<event>
11    1  0.7157190E-009  0.2999613E+03  0.7561462E-02  0.1000208E+00
         22   -1    0    0    0    0  0.00000000000E+00  0.00000000000E+00  0.75506867767E+03  0.75506867767E+03  0.00000000000E+00 0. -1.
         22   -1    0    0    0    0 -0.00000000000E+00 -0.00000000000E+00 -0.15814121390E+04  0.15814121390E+04  0.00000000000E+00 0. -1.
        -24    2    1    2    0    0 -0.30402180250E+02  0.74929521741E+01 -0.11399406480E+04  0.11432329102E+04  0.80847813923E+02 0.  0.
         25    2    1    2    0    0 -0.16503036291E+03  0.18512174784E+03 -0.36403149054E+03  0.45789888941E+03  0.12508950639E+03 0.  0.
         24    2    1    2    0    0  0.19543254316E+03 -0.19261470001E+03  0.67762867729E+03  0.73534901701E+03  0.79140703484E+02 0.  0.
        -13    1    5    5    0    0  0.19316251557E+02 -0.89910097024E+01  0.16486873038E+02  0.26940170977E+02  0.00000000000E+00 0.  1.
         14    1    5    5    0    0  0.17611629160E+03 -0.18362369031E+03  0.66114180426E+03  0.70840884604E+03  0.00000000000E+00 0. -1.
         13    1    3    3    0    0 -0.14580527357E+02  0.26116758107E+02 -0.10370062910E+04  0.10374375762E+04  0.00000000000E+00 0. -1.
        -14    1    3    3    0    0 -0.15821652893E+02 -0.18623805933E+02 -0.10293435700E+03  0.10579533401E+03  0.00000000000E+00 0.  1.
          5    1    4    4  501    0 -0.16790123374E+02  0.13409094023E+02 -0.13041252948E+03  0.13223695509E+03  0.41800000000E+01 0. -1.
         -5    1    4    4    0  501 -0.14824023954E+03  0.17171265381E+03 -0.23361896107E+03  0.32566193432E+03  0.41800000000E+01 0. -1.
</event>
<event>
11    1  0.7157190E-009  0.1636666E+03  0.7561462E-02  0.1083678E+00
         22   -1    0    0    0    0  0.00000000000E+00  0.00000000000E+00  0.63528528073E+03  0.63528528073E+03  0.00000000000E+00 0.  1.
         22   -1    0    0    0    0 -0.00000000000E+00 -0.00000000000E+00 -0.12586245201E+04  0.12586245201E+04  0.00000000000E+00 0. -1.
        -24    2    1    2    0    0 -0.55483455085E+02  0.21685173819E+02 -0.11773568508E+04  0.11815729970E+04  0.79980827110E+02 0.  0.
         25    2    1    2    0    0 -0.13800696455E+02 -0.10372616318E+03  0.23027015332E+02  0.16471284421E+03  0.12510196426E+03 0.  0.
         24    2    1    2    0    0  0.69284151540E+02  0.82040989361E+02  0.53099059607E+03  0.54762395959E+03  0.80062290860E+02 0.  0.
        -11    1    5    5    0    0  0.70315344785E+02  0.94913541764E+02  0.43438412643E+03  0.45015819154E+03  0.00000000000E+00 0.  1.
         12    1    5    5    0    0 -0.10311932456E+01 -0.12872552403E+02  0.96606469642E+02  0.97465768050E+02  0.00000000000E+00 0. -1.
         13    1    3    3    0    0 -0.30340081652E+02  0.16015427941E+02 -0.10888282839E+04  0.10893686457E+04  0.00000000000E+00 0. -1.
        -14    1    3    3    0    0 -0.25143373433E+02  0.56697458780E+01 -0.88528566852E+02  0.92204351279E+02  0.00000000000E+00 0.  1.
          5    1    4    4  501    0 -0.15063271846E+02 -0.81601874399E+02 -0.43983505376E+02  0.94009516589E+02  0.41800000000E+01 0. -1.
         -5    1    4    4    0  501  0.12625753909E+01 -0.22124288780E+02  0.67010520708E+02  0.70703327617E+02  0.41800000000E+01 0. -1.
</event>
<event>
11    1  0.7157190E-009  0.1724872E+03  0.7561462E-02  0.1075887E+00
         22   -1    0    0    0    0  0.00000000000E+00  0.00000000000E+00  0.14859743937E+03  0.14859743937E+03  0.00000000000E+00 0.  1.
         22   -1    0    0    0    0 -0.00000000000E+00 -0.00000000000E+00 -0.13559278641E+04  0.13559278641E+04  0.00000000000E+00 0. -1.
        -24    2    1    2    0    0  0.11521071284E+03 -0.26344356730E+02 -0.10873080708E+04  0.10971013199E+04  0.86168043288E+02 0.  0.
         25    2    1    2    0    0 -0.12516903832E+03  0.42024813245E+00 -0.21851316824E+03  0.28117635349E+03  0.12507866447E+03 0.  0.
         24    2    1    2    0    0  0.99583254746E+01  0.25924108597E+02  0.98490814360E+02  0.12624763008E+03  0.73937784223E+02 0.  0.
        -11    1    5    5    0    0 -0.31974496503E+02  0.86198609988E+01  0.34636866594E+02  0.47920590122E+02  0.00000000000E+00 0.  1.
         12    1    5    5    0    0  0.41932821977E+02  0.17304247599E+02  0.63853947766E+02  0.78327039962E+02  0.00000000000E+00 0. -1.
         13    1    3    3    0    0  0.10710564488E+03 -0.17856483593E+02 -0.60606985950E+03  0.61572002384E+03  0.00000000000E+00 0. -1.
        -14    1    3    3    0    0  0.81050679618E+01 -0.84878731370E+01 -0.48123821134E+03  0.48138129604E+03  0.00000000000E+00 0.  1.
          5    1    4    4  501    0 -0.15492297211E+02  0.50700270851E+02 -0.92285212344E+02  0.10651085182E+03  0.41800000000E+01 0. -1.
         -5    1    4    4    0  501 -0.10967674111E+03 -0.50280022719E+02 -0.12622795590E+03  0.17466550167E+03  0.41800000000E+01 0. -1.
</event>
<event>
11    1  0.7157190E-009  0.1480270E+03  0.7561462E-02  0.1098912E+00
         22   -1    0    0    0    0  0.00000000000E+00  0.00000000000E+00  0.15160928077E+04  0.15160928077E+04  0.00000000000E+00 0. -1.
         22   -1    0    0    0    0 -0.00000000000E+00 -0.00000000000E+00 -0.81930875787E+03  0.81930875787E+03  0.00000000000E+00 0.  1.
        -24    2    1    2    0    0  0.72766796135E+02 -0.31688573724E+02 -0.80672755210E+03  0.81446061366E+03  0.78978323397E+02 0.  0.
         25    2    1    2    0    0 -0.32558204040E+02  0.27452495727E+02  0.63945245273E+03  0.65296421571E+03  0.12509656882E+03 0.  0.
         24    2    1    2    0    0 -0.40208592095E+02  0.42360779974E+01  0.86405914922E+03  0.86797673621E+03  0.71768558676E+02 0.  0.
        -13    1    5    5    0    0 -0.53767336782E+02  0.16347874629E+01  0.38730324516E+03  0.39102097482E+03  0.00000000000E+00 0.  1.
         14    1    5    5    0    0  0.13558744687E+02  0.26012905345E+01  0.47675590406E+03  0.47695576139E+03  0.00000000000E+00 0. -1.
         13    1    3    3    0    0  0.24953048444E+02 -0.45949697914E+00 -0.53102860082E+02  0.58675203562E+02  0.00000000000E+00 0. -1.
        -14    1    3    3    0    0  0.47813747691E+02 -0.31229076745E+02 -0.75362469202E+03  0.75578541010E+03  0.00000000000E+00 0.  1.
          5    1    4    4  501    0  0.17849346055E+02 -0.40432781632E+02  0.15768434124E+03  0.16381462956E+03  0.41800000000E+01 0. -1.
         -5    1    4    4    0  501 -0.50407550095E+02  0.67885277359E+02  0.48176811149E+03  0.48914958616E+03  0.41800000000E+01 0. -1.
</event>
<event>
11    1  0.7157190E-009  0.1562056E+03  0.7561462E-02  0.1090701E+00
         22   -1    0    0    0    0  0.00000000000E+00  0.00000000000E+00  0.83386783810E+03  0.83386783810E+03  0.00000000000E+00 0.  1.
         22   -1    0    0    0    0 -0.00000000000E+00 -0.00000000000E+00 -0.23660632503E+04  0.23660632503E+04  0.00000000000E+00 0. -1.
        -24    2    1    2    0    0  0.10676834950E+02  0.93107575423E+02 -0.21174511663E+04  0.21219149876E+04  0.10070132898E+03 0.  0.
         25    2    1    2    0    0  0.28293438368E+02 -0.94856780800E+02 -0.21788598552E+03  0.27003751671E+03  0.12509048815E+03 0.  0.
         24    2    1    2    0    0 -0.38970273318E+02  0.17492053769E+01  0.80314173963E+03  0.80797858405E+03  0.79189623205E+02 0.  0.
        -11    1    5    5    0    0 -0.57633119813E+02  0.20431059432E+02  0.51089823345E+03  0.51454446808E+03  0.00000000000E+00 0.  1.
         12    1    5    5    0    0  0.18662846495E+02 -0.18681854055E+02  0.29224350618E+03  0.29343411597E+03  0.00000000000E+00 0. -1.
         13    1    3    3    0    0  0.27216688545E+02  0.10518435642E+03 -0.14148895343E+04  0.14190549289E+04  0.00000000000E+00 0. -1.
        -14    1    3    3    0    0 -0.16539853595E+02 -0.12076780995E+02 -0.70256163201E+03  0.70286005873E+03  0.00000000000E+00 0.  1.
          5    1    4    4  501    0 -0.16726266420E+01  0.25200586645E+02 -0.88496495884E+01  0.27086083972E+02  0.41800000000E+01 0.  1.
         -5    1    4    4    0  501  0.29966065010E+02 -0.12005736744E+03 -0.20903633593E+03  0.24295143274E+03  0.41800000000E+01 0.  1.
</event>
<event>
11    1  0.7157190E-009  0.1259367E+03  0.7561462E-02  0.1124365E+00
         22   -1    0    0    0    0  0.00000000000E+00  0.00000000000E+00  0.18640283199E+03  0.18640283199E+03  0.00000000000E+00 0. -1.
         22   -1    0    0    0    0 -0.00000000000E+00 -0.00000000000E+00 -0.68522034376E+03  0.68522034376E+03  0.00000000000E+00 0.  1.
        -24    2    1    2    0    0  0.11683815590E+02  0.89281248473E+01 -0.49220392050E+03  0.49890093769E+03  0.80132535875E+02 0.  0.
         25    2    1    2    0    0 -0.40969312266E+01  0.44098122290E+01 -0.15696947754E+03  0.20080626014E+03  0.12508999138E+03 0.  0.
         24    2    1    2    0    0 -0.75868843635E+01 -0.13337937076E+02  0.15035588627E+03  0.17191597793E+03  0.81931370980E+02 0.  0.
        -13    1    5    5    0    0  0.12226649338E+02 -0.44435360168E+02  0.91766103085E+02  0.10268889844E+03  0.00000000000E+00 0.  1.
         14    1    5    5    0    0 -0.19813533702E+02  0.31097423091E+02  0.58589783188E+02  0.69227079490E+02  0.00000000000E+00 0. -1.
         11    1    3    3    0    0 -0.11405949978E+02 -0.14731270573E+02 -0.28683265768E+02  0.34202861908E+02  0.00000000000E+00 0. -1.
        -12    1    3    3    0    0  0.23089765569E+02  0.23659395421E+02 -0.46352065473E+03  0.46469807578E+03  0.00000000000E+00 0.  1.
          5    1    4    4  501    0  0.35078088668E+02  0.48456973276E+02 -0.11013446688E+03  0.12540184911E+03  0.41800000000E+01 0. -1.
         -5    1    4    4    0  501 -0.39175019894E+02 -0.44047161047E+02 -0.46835010654E+02  0.75404411031E+02  0.41800000000E+01 0. -1.
</event>
<event>
11    1  0.7157190E-009  0.1263051E+03  0.7561462E-02  0.1123894E+00
         22   -1    0    0    0    0  0.00000000000E+00  0.00000000000E+00  0.71237348704E+03  0.71237348704E+03  0.00000000000E+00 0. -1.
         22   -1    0    0    0    0 -0.00000000000E+00 -0.00000000000E+00 -0.16971537420E+03  0.16971537420E+03  0.00000000000E+00 0. -1.
         24    2    1    2    0    0  0.15834965715E+02 -0.66538607426E+01 -0.11057528659E+03  0.13792652348E+03  0.80633813465E+02 0.  0.
         25    2    1    2    0    0 -0.79527813431E+01  0.27052833391E+02  0.53033167359E+02  0.13876387381E+03  0.12509114001E+03 0.  0.
        -24    2    1    2    0    0 -0.78821843721E+01 -0.20398972649E+02  0.60020023206E+03  0.60539846395E+03  0.76083734591E+02 0.  0.
        -11    1    3    3    0    0  0.31416535548E+02  0.51791450290E+01 -0.71063209236E+01  0.32623948966E+02  0.00000000000E+00 0.  1.
         12    1    3    3    0    0 -0.15581569833E+02 -0.11833005772E+02 -0.10346896566E+03  0.10530257451E+03  0.00000000000E+00 0. -1.
         13    1    5    5    0    0 -0.23281191974E+02 -0.43330759573E+02  0.44990480202E+03  0.45258579243E+03  0.00000000000E+00 0. -1.
        -14    1    5    5    0    0  0.15399007602E+02  0.22931786924E+02  0.15029543004E+03  0.15281267152E+03  0.00000000000E+00 0.  1.
          5    1    4    4  501    0  0.69228010677E+01  0.42548237005E+02  0.87675242327E+02  0.97789049305E+02  0.41800000000E+01 0. -1.
         -5    1    4    4    0  501 -0.14875582411E+02 -0.15495403614E+02 -0.34642074968E+02  0.40974824506E+02  0.41800000000E+01 0. -1.
</event>
<event>
11    1  0.7157190E-009  0.1547757E+03  0.7561462E-02  0.1092096E+00
         22   -1    0    0    0    0  0.00000000000E+00  0.00000000000E+00  0.14211772667E+03  0.14211772667E+03  0.00000000000E+00 0. -1.
         22   -1    0    0    0    0 -0.00000000000E+00 -0.00000000000E+00 -0.27003872279E+03  0.27003872279E+03  0.00000000000E+00 0.  1.
        -24    2    1    2    0    0  0.39720171778E+02 -0.53856131219E+02 -0.50453049399E+02  0.11614774411E+03  0.80415255716E+02 0.  0.
         25    2    1    2    0    0  0.71009652636E+02  0.26021973650E+02 -0.38224803741E+02  0.15108740969E+03  0.12508699320E+03 0.  0.
         24    2    1    2    0    0 -0.11072982441E+03  0.27834157569E+02 -0.39243142985E+02  0.14492129566E+03  0.80164351933E+02 0.  0.
        -11    1    5    5    0    0 -0.57929551219E+02  0.53191640456E+02 -0.94669805151E+01  0.79213680882E+02  0.00000000000E+00 0.  1.
         12    1    5    5    0    0 -0.52800273195E+02 -0.25357482887E+02 -0.29776162470E+02  0.65707614774E+02  0.00000000000E+00 0. -1.
         11    1    3    3    0    0 -0.55260881163E+01  0.12969095584E+02 -0.29614368027E+02  0.32798565270E+02  0.00000000000E+00 0. -1.
        -12    1    3    3    0    0  0.45246259894E+02 -0.66825226803E+02 -0.20838681372E+02  0.83349178839E+02  0.00000000000E+00 0.  1.
          5    1    4    4  501    0 -0.29444215277E+02 -0.11215712474E+02  0.10287660831E+02  0.33407519886E+02  0.41800000000E+01 0. -1.
         -5    1    4    4    0  501  0.10045386791E+03  0.37237686124E+02 -0.48512464571E+02  0.11767988981E+03  0.41800000000E+01 0. -1.
</event>
<event>
11    1  0.7157190E-009  0.1532597E+03  0.7561462E-02  0.1093594E+00
         22   -1    0    0    0    0  0.00000000000E+00  0.00000000000E+00  0.54490549201E+03  0.54490549201E+03  0.00000000000E+00 0.  1.
         22   -1    0    0    0    0 -0.00000000000E+00 -0.00000000000E+00 -0.13989107101E+04  0.13989107101E+04  0.00000000000E+00 0. -1.
         24    2    1    2    0    0 -0.34961370459E+02 -0.68527705661E+00 -0.70546141879E+03  0.71068953905E+03  0.78619593521E+02 0.  0.
         25    2    1    2    0    0  0.11461553169E+03 -0.37242750853E+02 -0.67285959366E+03  0.69491969371E+03  0.12509838263E+03 0.  0.
        -24    2    1    2    0    0 -0.79654161227E+02  0.37928027909E+02  0.52431579433E+03  0.53820696937E+03  0.83524660931E+02 0.  0.
        -13    1    3    3    0    0 -0.18471752394E+02  0.35527143728E+02 -0.22111320275E+03  0.22470966158E+03  0.00000000000E+00 0.  1.
         14    1    3    3    0    0 -0.16489618065E+02 -0.36212420784E+02 -0.48434821605E+03  0.48597987748E+03  0.00000000000E+00 0. -1.
         13    1    5    5    0    0 -0.24937476209E+02  0.53430312230E+02  0.34760352818E+03  0.35256898444E+03  0.00000000000E+00 0. -1.
        -14    1    5    5    0    0 -0.54716685019E+02 -0.15502284320E+02  0.17671226615E+03  0.18563798492E+03  0.00000000000E+00 0.  1.
          5    1    4    4  501    0  0.44210177366E+02  0.12756855186E+02 -0.58687332968E+02  0.74692386411E+02  0.41800000000E+01 0. -1.
         -5    1    4    4    0  501  0.70405354320E+02 -0.49999606039E+02 -0.61417226069E+03  0.62022730730E+03  0.41800000000E+01 0. -1.
</event>
<event>
11    1  0.7157190E-009  0.2537462E+03  0.7561462E-02  0.1021922E+00
         22   -1    0    0    0    0  0.00000000000E+00  0.00000000000E+00  0.11591450090E+03  0.11591450090E+03  0.00000000000E+00 0. -1.
         22   -1    0    0    0    0 -0.00000000000E+00 -0.00000000000E+00 -0.29020912723E+04  0.29020912723E+04  0.00000000000E+00 0.  1.
         24    2    1    2    0    0 -0.76674988589E+02  0.28943138027E+02 -0.14223386499E+04  0.14269592926E+04  0.80304597353E+02 0.  0.
         25    2    1    2    0    0  0.28436367450E+03 -0.77008982552E+02 -0.13204171407E+04  0.13586558417E+04  0.12510470798E+03 0.  0.
        -24    2    1    2    0    0 -0.20768868591E+03  0.48065844525E+02 -0.43420980678E+02  0.23239063887E+03  0.81701357449E+02 0.  0.
        -13    1    3    3    0    0 -0.78567628134E+02  0.49495019843E+02 -0.12353648124E+04  0.12388498089E+04  0.00000000000E+00 0.  1.
         14    1    3    3    0    0  0.18926395456E+01 -0.20551881816E+02 -0.18697383751E+03  0.18810948367E+03  0.00000000000E+00 0. -1.
         11    1    5    5    0    0 -0.18513363417E+03  0.68083751398E+02 -0.44504972937E+02  0.20221412493E+03  0.00000000000E+00 0. -1.
        -12    1    5    5    0    0 -0.22555051738E+02 -0.20017906873E+02  0.10839922597E+01  0.30176513942E+02  0.00000000000E+00 0.  1.
          5    1    4    4  501    0  0.24806481768E+02  0.25936342759E+02 -0.90772212477E+02  0.97699142122E+02  0.41800000000E+01 0. -1.
         -5    1    4    4    0  501  0.25955719273E+03 -0.10294532531E+03 -0.12296449283E+04  0.12609566996E+04  0.41800000000E+01 0. -1.
</event>
<event>
11    1  0.7157190E-009  0.1562656E+03  0.7561462E-02  0.1090643E+00
         22   -1    0    0    0    0  0.00000000000E+00  0.00000000000E+00  0.50842197555E+03  0.50842197555E+03  0.00000000000E+00 0. -1.
         22   -1    0    0    0    0 -0.00000000000E+00 -0.00000000000E+00 -0.24030388934E+04  0.24030388934E+04  0.00000000000E+00 0.  1.
         24    2    1    2    0    0  0.67095778091E+02  0.65341458047E+02 -0.23457282892E+04  0.23489830534E+04  0.80677312935E+02 0.  0.
         25    2    1    2    0    0 -0.26951195956E+02 -0.10684278827E+03  0.92657140050E+02  0.19071924201E+03  0.12508691099E+03 0.  0.
        -24    2    1    2    0    0 -0.40144582134E+02  0.41501330227E+02  0.35845423130E+03  0.37175857355E+03  0.79881494626E+02 0.  0.
        -13    1    3    3    0    0  0.15401292723E+01 -0.50262866741E+01 -0.91989515383E+03  0.91991017475E+03  0.00000000000E+00 0.  1.
         14    1    3    3    0    0  0.65555648818E+02  0.70367744721E+02 -0.14258331353E+04  0.14290728786E+04  0.00000000000E+00 0. -1.
         13    1    5    5    0    0 -0.53601712061E+02  0.53010318833E+02  0.32780435535E+03  0.33636131292E+03  0.00000000000E+00 0. -1.
        -14    1    5    5    0    0  0.13457129926E+02 -0.11508988606E+02  0.30649875947E+02  0.35397260631E+02  0.00000000000E+00 0.  1.
          5    1    4    4  501    0 -0.58362143380E+02 -0.11252926240E+03  0.94961500998E+02  0.15844284064E+03  0.41800000000E+01 0.  1.
         -5    1    4    4    0  501  0.31410947424E+02  0.56864741308E+01 -0.23043609480E+01  0.32276401371E+02  0.41800000000E+01 0.  1.
</event>
<event>
11    1  0.7157190E-009  0.1502140E+03  0.7561462E-02  0.1096660E+00
         22   -1    0    0    0    0  0.00000000000E+00  0.00000000000E+00  0.93013517417E+03  0.93013517417E+03  0.00000000000E+00 0.  1.
         22   -1    0    0    0    0 -0.00000000000E+00 -0.00000000000E+00 -0.67584678216E+03  0.67584678216E+03  0.00000000000E+00 0.  1.
        -24    2    1    2    0    0  0.79273340406E+02 -0.10484041616E+01 -0.47201929323E+03  0.48533119195E+03  0.80366604056E+02 0.  0.
         25    2    1    2    0    0 -0.10223022911E+03  0.23588941208E+02 -0.16093960257E+03  0.22925775582E+03  0.12510037985E+03 0.  0.
         24    2    1    2    0    0  0.22956888701E+02 -0.22540537046E+02  0.88724728781E+03  0.89139300855E+03  0.79615648074E+02 0.  0.
        -11    1    5    5    0    0  0.95913752702E+01 -0.22103315199E+02  0.86568718401E+03  0.86602243134E+03  0.00000000000E+00 0.  1.
         12    1    5    5    0    0  0.13365513431E+02 -0.43722184793E+00  0.21560103799E+02  0.25370577212E+02  0.00000000000E+00 0. -1.
         13    1    3    3    0    0  0.92281397666E+01 -0.25422518216E+02 -0.50012367194E+02  0.56856836602E+02  0.00000000000E+00 0. -1.
        -14    1    3    3    0    0  0.70045200639E+02  0.24374114055E+02 -0.42200692604E+03  0.42847435535E+03  0.00000000000E+00 0.  1.
          5    1    4    4  501    0 -0.67380787234E+02 -0.43356842587E+02 -0.11686885840E+03  0.14175961608E+03  0.41800000000E+01 0.  1.
         -5    1    4    4    0  501 -0.34849441874E+02  0.66945783795E+02 -0.44070744178E+02  0.87498139747E+02  0.41800000000E+01 0.  1.
</event>
<event>
11    1  0.7157190E-009  0.1699329E+03  0.7561462E-02  0.1078090E+00
         22   -1    0    0    0    0  0.00000000000E+00  0.00000000000E+00  0.20810029061E+03  0.20810029061E+03  0.00000000000E+00 0. -1.
         22   -1    0    0    0    0 -0.00000000000E+00 -0.00000000000E+00 -0.14750476418E+04  0.14750476418E+04  0.00000000000E+00 0.  1.
         24    2    1    2    0    0 -0.76305921592E+02  0.16597781591E+02 -0.12898484571E+04  0.12946143325E+04  0.78861572999E+02 0.  0.
         25    2    1    2    0    0  0.14654029713E+03 -0.92682085446E+02 -0.75004602934E+02  0.22657905169E+03  0.12509335937E+03 0.  0.
        -24    2    1    2    0    0 -0.70234375541E+02  0.76084303855E+02  0.97905708872E+02  0.16195454815E+03  0.76954915597E+02 0.  0.
        -11    1    3    3    0    0 -0.17358756451E+02  0.42241175451E+02 -0.62453067672E+03  0.62619821901E+03  0.00000000000E+00 0.  1.
         12    1    3    3    0    0 -0.58947165141E+02 -0.25643393860E+02 -0.66531778039E+03  0.66841611353E+03  0.00000000000E+00 0. -1.
         13    1    5    5    0    0 -0.83113104404E+02  0.59454907585E+02  0.59722637720E+02  0.11836159688E+03  0.00000000000E+00 0. -1.
        -14    1    5    5    0    0  0.12878728863E+02  0.16629396270E+02  0.38183071153E+02  0.43592951266E+02  0.00000000000E+00 0.  1.
          5    1    4    4  501    0  0.65066301838E+02 -0.79652567700E+02  0.15435031971E+02  0.10408586738E+03  0.41800000000E+01 0. -1.
         -5    1    4    4    0  501  0.81473995296E+02 -0.13029517746E+02 -0.90439634904E+02  0.12249318432E+03  0.41800000000E+01 0. -1.
</event>
<event>
11    1  0.7157190E-009  0.2540094E+03  0.7561462E-02  0.1021785E+00
         22   -1    0    0    0    0  0.00000000000E+00  0.00000000000E+00  0.36252320005E+03  0.36252320005E+03  0.00000000000E+00 0.  1.
         22   -1    0    0    0    0 -0.00000000000E+00 -0.00000000000E+00 -0.22046901472E+04  0.22046901472E+04  0.00000000000E+00 0. -1.
         24    2    1    2    0    0 -0.16432215091E+03 -0.11881006258E+03 -0.13758974307E+04  0.13929892619E+04  0.78789236822E+02 0.  0.
         25    2    1    2    0    0  0.17462318290E+03  0.25365251933E+03 -0.76628903212E+03  0.83527189144E+03  0.12508954922E+03 0.  0.
        -24    2    1    2    0    0 -0.10301031988E+02 -0.13484245675E+03  0.30001951564E+03  0.33895219388E+03  0.81168223908E+02 0.  0.
        -13    1    3    3    0    0 -0.67126059448E+02 -0.26381334618E+02 -0.71434885710E+03  0.71798062113E+03  0.00000000000E+00 0.  1.
         14    1    3    3    0    0 -0.97196091462E+02 -0.92428727962E+02 -0.66154857360E+03  0.67500864082E+03  0.00000000000E+00 0. -1.
         13    1    5    5    0    0  0.14318960799E+02 -0.94947971523E+02  0.26051297071E+03  0.27764574163E+03  0.00000000000E+00 0. -1.
        -14    1    5    5    0    0 -0.24619992786E+02 -0.39894485224E+02  0.39506544927E+02  0.61306452255E+02  0.00000000000E+00 0.  1.
          5    1    4    4  501    0  0.20435658509E+01  0.73631823873E+02 -0.10348165635E+03  0.12708952455E+03  0.41800000000E+01 0. -1.
         -5    1    4    4    0  501  0.17257961705E+03  0.18002069545E+03 -0.66280737577E+03  0.70818236689E+03  0.41800000000E+01 0. -1.
</event>
<event>
11    1  0.7157190E-009  0.1259453E+03  0.7561462E-02  0.1124354E+00
         22   -1    0    0    0    0  0.00000000000E+00  0.00000000000E+00  0.13165538269E+03  0.13165538269E+03  0.00000000000E+00 0.  1.
         22   -1    0    0    0    0 -0.00000000000E+00 -0.00000000000E+00 -0.17937756526E+03  0.17937756526E+03  0.00000000000E+00 0. -1.
        -24    2    1    2    0    0  0.34893030825E+02  0.36452167117E+02 -0.30269657884E+01  0.74857586670E+02  0.55210611956E+02 0.  0.
         25    2    1    2    0    0 -0.53533949355E+01 -0.26550956754E+02 -0.64696538842E+02  0.14341157940E+03  0.12509047456E+03 0.  0.
         24    2    1    2    0    0 -0.29539635890E+02 -0.99012103630E+01  0.20001322060E+02  0.92763781888E+02  0.85055524752E+02 0.  0.
        -13    1    5    5    0    0 -0.13469536353E+02  0.13062205309E+02  0.48978524634E+02  0.52449456550E+02  0.00000000000E+00 0.  1.
         14    1    5    5    0    0 -0.16070099537E+02 -0.22963415672E+02 -0.28977202574E+02  0.40314325338E+02  0.00000000000E+00 0. -1.
         13    1    3    3    0    0  0.24687219832E+02 -0.53286193436E+01 -0.16044887812E+02  0.29921420956E+02  0.00000000000E+00 0. -1.
        -14    1    3    3    0    0  0.10205810993E+02  0.41780786460E+02  0.13017922023E+02  0.44936165714E+02  0.00000000000E+00 0.  1.
          5    1    4    4  501    0 -0.37477037365E+02  0.35021091242E+02 -0.49432591108E+01  0.51700226035E+02  0.41800000000E+01 0.  1.
         -5    1    4    4    0  501  0.32123642430E+02 -0.61572047995E+02 -0.59753279731E+02  0.91711353364E+02  0.41800000000E+01 0.  1.
</event>
<event>
11    1  0.7157190E-009  0.1637597E+03  0.7561462E-02  0.1083594E+00
         22   -1    0    0    0    0  0.00000000000E+00  0.00000000000E+00  0.16867419895E+03  0.16867419895E+03  0.00000000000E+00 0.  1.
         22   -1    0    0    0    0 -0.00000000000E+00 -0.00000000000E+00 -0.11945962067E+04  0.11945962067E+04  0.00000000000E+00 0. -1.
        -24    2    1    2    0    0  0.97148246315E+02 -0.83565987756E+00 -0.84682588879E+03  0.85629868920E+03  0.81822240943E+02 0.  0.
         25    2    1    2    0    0 -0.16902892397E+03 -0.27758422066E+02 -0.28354551165E+03  0.35409990758E+03  0.12508948890E+03 0.  0.
         24    2    1    2    0    0  0.71880677660E+02  0.28594081944E+02  0.10444939266E+03  0.15287180891E+03  0.80471491774E+02 0.  0.
        -13    1    5    5    0    0  0.75512415734E+02 -0.67259713560E+01  0.65745009275E+02  0.10034824296E+03  0.00000000000E+00 0.  1.
         14    1    5    5    0    0 -0.36317380737E+01  0.35320053299E+02  0.38704383385E+02  0.52523565947E+02  0.00000000000E+00 0. -1.
         11    1    3    3    0    0  0.59874116552E+02 -0.19911802434E+02 -0.71956715457E+03  0.72232837383E+03  0.00000000000E+00 0. -1.
        -12    1    3    3    0    0  0.37274129763E+02  0.19076142556E+02 -0.12725873422E+03  0.13397031537E+03  0.00000000000E+00 0.  1.
          5    1    4    4  501    0 -0.90470825199E+02 -0.55828923512E+02 -0.77083546179E+02  0.13138182677E+03  0.41800000000E+01 0.  1.
         -5    1    4    4    0  501 -0.78558098775E+02  0.28070501446E+02 -0.20646196547E+03  0.22271808081E+03  0.41800000000E+01 0.  1.
</event>
<event>
11    1  0.7157190E-009  0.1504191E+03  0.7561462E-02  0.1096451E+00
         22   -1    0    0    0    0  0.00000000000E+00  0.00000000000E+00  0.64722388408E+03  0.64722388408E+03  0.00000000000E+00 0. -1.
         22   -1    0    0    0    0 -0.00000000000E+00 -0.00000000000E+00 -0.62253736553E+03  0.62253736553E+03  0.00000000000E+00 0.  1.
        -24    2    1    2    0    0  0.69339155073E+02 -0.45456088731E+02 -0.55284748416E+03  0.56684352112E+03  0.93792655674E+02 0.  0.
         25    2    1    2    0    0 -0.91600106679E+02  0.29027581106E+02  0.45487764797E+02  0.16416859940E+03  0.12509601223E+03 0.  0.
         24    2    1    2    0    0  0.22260951606E+02  0.16428507626E+02  0.53204623792E+03  0.53874912909E+03  0.80074833635E+02 0.  0.
        -13    1    5    5    0    0  0.46570534800E+02  0.30109131485E+02  0.30556332175E+03  0.31055485523E+03  0.00000000000E+00 0.  1.
         14    1    5    5    0    0 -0.24309583193E+02 -0.13680623859E+02  0.22648291616E+03  0.22819427385E+03  0.00000000000E+00 0. -1.
         13    1    3    3    0    0 -0.18260895564E+02  0.77627799865E+01 -0.52943466384E+02  0.56539647086E+02  0.00000000000E+00 0. -1.
        -14    1    3    3    0    0  0.87600050637E+02 -0.53218868718E+02 -0.49990401778E+03  0.51030387403E+03  0.00000000000E+00 0.  1.
          5    1    4    4  501    0 -0.27082518607E+02  0.65272680715E+02 -0.10115957795E+02  0.71510773062E+02  0.41800000000E+01 0. -1.
         -5    1    4    4    0  501 -0.64517588072E+02 -0.36245099609E+02  0.55603722592E+02  0.92657826342E+02  0.41800000000E+01 0. -1.
</event>
<event>
11    1  0.7157190E-009  0.1409631E+03  0.7561462E-02  0.1106488E+00
         22   -1    0    0    0    0  0.00000000000E+00  0.00000000000E+00  0.14712859806E+04  0.14712859806E+04  0.00000000000E+00 0. -1.
         22   -1    0    0    0    0 -0.00000000000E+00 -0.00000000000E+00 -0.57210259975E+03  0.57210259975E+03  0.00000000000E+00 0.  1.
         24    2    1    2    0    0  0.81675098693E+00  0.55186688830E+00 -0.39638901286E+03  0.40471809168E+03  0.81679327683E+02 0.  0.
         25    2    1    2    0    0 -0.65743617392E+02 -0.29257797554E+01 -0.13996473096E+03  0.19891968107E+03  0.12509248654E+03 0.  0.
        -24    2    1    2    0    0  0.64926866405E+02  0.23739128671E+01  0.14355371247E+04  0.14397508077E+04  0.88850538856E+02 0.  0.
        -13    1    3    3    0    0  0.34414222854E+02  0.22702983209E+02 -0.21523526136E+03  0.21914831032E+03  0.00000000000E+00 0.  1.
         14    1    3    3    0    0 -0.33597471867E+02 -0.22151116321E+02 -0.18115375150E+03  0.18556978136E+03  0.00000000000E+00 0. -1.
         13    1    5    5    0    0  0.81826981631E+02 -0.14464084835E+02  0.94971678845E+03  0.95334508072E+03  0.00000000000E+00 0. -1.
        -14    1    5    5    0    0 -0.16900115227E+02  0.16837997702E+02  0.48582033626E+03  0.48640572693E+03  0.00000000000E+00 0.  1.
          5    1    4    4  501    0 -0.77729565941E+02  0.39023140329E+02 -0.54091509824E+02  0.10250880322E+03  0.41800000000E+01 0. -1.
         -5    1    4    4    0  501  0.11985948549E+02 -0.41948920085E+02 -0.85873221139E+02  0.96410877850E+02  0.41800000000E+01 0. -1.
</event>
<event>
11    1  0.7157190E-009  0.2972801E+03  0.7561462E-02  0.1001349E+00
         22   -1    0    0    0    0  0.00000000000E+00  0.00000000000E+00  0.19165590886E+04  0.19165590886E+04  0.00000000000E+00 0.  1.
         22   -1    0    0    0    0 -0.00000000000E+00 -0.00000000000E+00 -0.85273128620E+03  0.85273128620E+03  0.00000000000E+00 0.  1.
        -24    2    1    2    0    0  0.85959848444E+02 -0.64240350555E+02 -0.66069612757E+03  0.67461657392E+03  0.84096555452E+02 0.  0.
         25    2    1    2    0    0 -0.32409455742E+03 -0.55872539605E+02  0.42335270078E+01  0.35188676680E+03  0.12508937231E+03 0.  0.
         24    2    1    2    0    0  0.23813470897E+03  0.12011289016E+03  0.17202904030E+04  0.17427870341E+04  0.82294165345E+02 0.  0.
        -11    1    5    5    0    0  0.17826328218E+03  0.96886594648E+02  0.14885383644E+04  0.15023019911E+04  0.00000000000E+00 0.  1.
         12    1    5    5    0    0  0.59871426799E+02  0.23226295511E+02  0.23175203856E+03  0.24048504304E+03  0.00000000000E+00 0. -1.
         11    1    3    3    0    0  0.66208231199E+00  0.69979702857E+01 -0.30770628642E+01  0.76732168598E+01  0.00000000000E+00 0. -1.
        -12    1    3    3    0    0  0.85297766132E+02 -0.71238320841E+02 -0.65761906471E+03  0.66694335706E+03  0.00000000000E+00 0.  1.
          5    1    4    4  501    0 -0.28962397634E+03 -0.74446963151E+02 -0.28847837344E+02  0.30045643297E+03  0.41800000000E+01 0. -1.
         -5    1    4    4    0  501 -0.34470581076E+02  0.18574423547E+02  0.33081364351E+02  0.51430333823E+02  0.41800000000E+01 0. -1.
</event>
<event>
11    1  0.7157190E-009  0.2678377E+03  0.7561462E-02  0.1014804E+00
         22   -1    0    0    0    0  0.00000000000E+00  0.00000000000E+00  0.14830842613E+04  0.14830842613E+04  0.00000000000E+00 0.  1.
         22   -1    0    0    0    0 -0.00000000000E+00 -0.00000000000E+00 -0.30610538955E+03  0.30610538955E+03  0.00000000000E+00 0. -1.
        -24    2    1    2    0    0 -0.10346111867E+03  0.13722190277E+03 -0.20518020349E+03  0.27957659679E+03  0.80809058219E+02 0.  0.
         25    2    1    2    0    0 -0.15273042953E+03 -0.43075908128E+02  0.16871644610E+03  0.26323257532E+03  0.12507610306E+03 0.  0.
         24    2    1    2    0    0  0.25619154820E+03 -0.94145994643E+02  0.12134426292E+04  0.12463804788E+04  0.80769461501E+02 0.  0.
        -13    1    5    5    0    0  0.76267609482E+02 -0.64573989937E+02  0.50937900235E+03  0.51908912189E+03  0.00000000000E+00 0.  1.
         14    1    5    5    0    0  0.17992393872E+03 -0.29572004706E+02  0.70406362683E+03  0.72729135689E+03  0.00000000000E+00 0. -1.
         11    1    3    3    0    0 -0.89474519032E+02  0.53680882728E+02 -0.12636483713E+03  0.16387616907E+03  0.00000000000E+00 0. -1.
        -12    1    3    3    0    0 -0.13986599642E+02  0.83541020044E+02 -0.78815366350E+02  0.11570042771E+03  0.00000000000E+00 0.  1.
          5    1    4    4  501    0 -0.13739149256E+03 -0.67642702082E+02  0.17573977205E+03  0.23313922289E+03  0.41800000000E+01 0.  1.
         -5    1    4    4    0  501 -0.15338936974E+02  0.24566793954E+02 -0.70233259475E+01  0.30093352423E+02  0.41800000000E+01 0.  1.
</event>
<event>
11    1  0.7157190E-009  0.1474350E+03  0.7561462E-02  0.1099529E+00
         22   -1    0    0    0    0  0.00000000000E+00  0.00000000000E+00  0.82801740559E+02  0.82801740559E+02  0.00000000000E+00 0. -1.
         22   -1    0    0    0    0 -0.00000000000E+00 -0.00000000000E+00 -0.11488376639E+04  0.11488376639E+04  0.00000000000E+00 0.  1.
         24    2    1    2    0    0  0.81253504410E+02  0.18132374760E+02 -0.94397094121E+03  0.95111221483E+03  0.81255106633E+02 0.  0.
         25    2    1    2    0    0 -0.24603335721E+02 -0.42297682459E+02 -0.12002907120E+03  0.18013695749E+03  0.12509167619E+03 0.  0.
        -24    2    1    2    0    0 -0.56650168689E+02  0.24165307699E+02 -0.20359109751E+01  0.10039023218E+03  0.79251814335E+02 0.  0.
        -11    1    3    3    0    0  0.72915960142E+02 -0.20933451735E+02 -0.57408949143E+03  0.57908003835E+03  0.00000000000E+00 0.  1.
         12    1    3    3    0    0  0.83375442680E+01  0.39065826495E+02 -0.36988144978E+03  0.37203217648E+03  0.00000000000E+00 0. -1.
         13    1    5    5    0    0 -0.55036930632E+02 -0.79782805155E+01  0.22427373572E+02  0.59964187469E+02  0.00000000000E+00 0. -1.
        -14    1    5    5    0    0 -0.16132380566E+01  0.32143588215E+02 -0.24463284547E+02  0.40426044713E+02  0.00000000000E+00 0.  1.
          5    1    4    4  501    0  0.33464005759E+02 -0.54946077136E+01  0.76963507577E+01  0.35024799933E+02  0.41800000000E+01 0.  1.
         -5    1    4    4    0  501 -0.58067341479E+02 -0.36803074746E+02 -0.12772542196E+03  0.14511215756E+03  0.41800000000E+01 0.  1.
</event>
<event>
11    1  0.7157190E-009  0.1720535E+03  0.7561462E-02  0.1076258E+00
         22   -1    0    0    0    0  0.00000000000E+00  0.00000000000E+00  0.73387162857E+03  0.73387162857E+03  0.00000000000E+00 0.  1.
         22   -1    0    0    0    0 -0.00000000000E+00 -0.00000000000E+00 -0.11205124072E+03  0.11205124072E+03  0.00000000000E+00 0.  1.
        -24    2    1    2    0    0 -0.22590805536E+02 -0.15276949534E+02 -0.39389372895E+02  0.95444896880E+02  0.82549839258E+02 0.  0.
         25    2    1    2    0    0 -0.98947643164E+02  0.33696726082E+02  0.16301146715E+03  0.23053573375E+03  0.12509148923E+03 0.  0.
         24    2    1    2    0    0  0.12153844870E+03 -0.18419776547E+02  0.49819829359E+03  0.51994223866E+03  0.83830239909E+02 0.  0.
        -11    1    5    5    0    0  0.13339316189E+03 -0.14127830278E+02  0.42500215401E+03  0.44566821980E+03  0.00000000000E+00 0.  1.
         12    1    5    5    0    0 -0.11854713190E+02 -0.42919462689E+01  0.73196139581E+02  0.74274018857E+02  0.00000000000E+00 0. -1.
         11    1    3    3    0    0 -0.19622598271E+02 -0.20027637644E+02  0.20852892391E+02  0.34942749657E+02  0.00000000000E+00 0. -1.
        -12    1    3    3    0    0 -0.29682072655E+01  0.47506881101E+01 -0.60242265285E+02  0.60502147223E+02  0.00000000000E+00 0.  1.
          5    1    4    4  501    0  0.22849832887E+02  0.15523028806E+01  0.70349790481E+02  0.74101888828E+02  0.41800000000E+01 0. -1.
         -5    1    4    4    0  501 -0.12179747605E+03  0.32144423201E+02  0.92661676669E+02  0.15643384493E+03  0.41800000000E+01 0. -1.
</event>
<event>
11    1  0.7157190E-009  0.1312929E+03  0.7561462E-02  0.1117691E+00
         22   -1    0    0    0    0  0.00000000000E+00  0.00000000000E+00  0.22659856537E+03  0.22659856537E+03  0.00000000000E+00 0. -1.
         22   -1    0    0    0    0 -0.00000000000E+00 -0.00000000000E+00 -0.13562770726E+04  0.13562770726E+04  0.00000000000E+00 0. -1.
         24    2    1    2    0    0  0.95693206947E+01 -0.24609669283E+02 -0.62536394690E+03  0.63072749059E+03  0.77716752231E+02 0.  0.
         25    2    1    2    0    0 -0.44242205362E+02  0.47582130281E+01 -0.71140888381E+03  0.72369095487E+03  0.12508391134E+03 0.  0.
        -24    2    1    2    0    0  0.34672884668E+02  0.19851456255E+02  0.20709432353E+03  0.22845719247E+03  0.87797156594E+02 0.  0.
        -11    1    3    3    0    0  0.17628581766E+02 -0.33175718081E+02 -0.13249580897E+03  0.13771904211E+03  0.00000000000E+00 0.  1.
         12    1    3    3    0    0 -0.80592610713E+01  0.85660487986E+01 -0.49286813793E+03  0.49300844848E+03  0.00000000000E+00 0. -1.
         13    1    5    5    0    0  0.56654089579E+02 -0.33037423075E+01  0.17148219653E+03  0.18062874717E+03  0.00000000000E+00 0. -1.
        -14    1    5    5    0    0 -0.21981204912E+02  0.23155198562E+02  0.35612127002E+02  0.47828445296E+02  0.00000000000E+00 0.  1.
          5    1    4    4  501    0  0.20652904798E+02 -0.19996874156E+02 -0.44377319733E+02  0.53039950597E+02  0.41800000000E+01 0. -1.
         -5    1    4    4    0  501 -0.64895110160E+02  0.24755087184E+02 -0.66703156407E+03  0.67065100427E+03  0.41800000000E+01 0. -1.
</event>
<event>
11    1  0.7157190E-009  0.1349881E+03  0.7561462E-02  0.1113288E+00
         22   -1    0    0    0    0  0.00000000000E+00  0.00000000000E+00  0.30442744957E+02  0.30442744957E+02  0.00000000000E+00 0.  1.
         22   -1    0    0    0    0 -0.00000000000E+00 -0.00000000000E+00 -0.26606545881E+04  0.26606545881E+04  0.00000000000E+00 0.  1.
        -24    2    1    2    0    0 -0.25575172411E+02  0.29515217473E+02 -0.14799190950E+04  0.14825761863E+04  0.79664189590E+02 0.  0.
         25    2    1    2    0    0  0.22956421533E+02 -0.77987350769E+02 -0.10838155976E+04  0.10940349301E+04  0.12508858664E+03 0.  0.
         24    2    1    2    0    0  0.26187508782E+01  0.48472133297E+02 -0.66477150515E+02  0.11448621657E+03  0.79570576736E+02 0.  0.
        -11    1    5    5    0    0 -0.84963801255E+01  0.69159688693E+02 -0.51243479091E+02  0.86493613433E+02  0.00000000000E+00 0.  1.
         12    1    5    5    0    0  0.11115131004E+02 -0.20687555396E+02 -0.15233671424E+02  0.27992603140E+02  0.00000000000E+00 0. -1.
         13    1    3    3    0    0  0.13773532075E+02  0.13605711931E+02 -0.92323288752E+02  0.94331411677E+02  0.00000000000E+00 0. -1.
        -14    1    3    3    0    0 -0.39348704487E+02  0.15909505541E+02 -0.13875958062E+04  0.13882447746E+04  0.00000000000E+00 0.  1.
          5    1    4    4  501    0  0.74820671504E+02 -0.50136872054E+02 -0.65951480240E+03  0.66564937152E+03  0.41800000000E+01 0.  1.
         -5    1    4    4    0  501 -0.51864249971E+02 -0.27850478716E+02 -0.42430079523E+03  0.42838555861E+03  0.41800000000E+01 0.  1.
</event>
<event>
11    1  0.7157190E-009  0.2148689E+03  0.7561462E-02  0.1044480E+00
         22   -1    0    0    0    0  0.00000000000E+00  0.00000000000E+00  0.56317178570E+03  0.56317178570E+03  0.00000000000E+00 0.  1.
         22   -1    0    0    0    0 -0.00000000000E+00 -0.00000000000E+00 -0.84137345444E+03  0.84137345444E+03  0.00000000000E+00 0.  1.
         24    2    1    2    0    0 -0.30478312719E+02  0.11188247136E+02 -0.70684036873E+03  0.71231011577E+03  0.81904149708E+02 0.  0.
         25    2    1    2    0    0  0.39188990046E+00  0.16339875808E+03 -0.16327597301E+02  0.20642881346E+03  0.12508779667E+03 0.  0.
        -24    2    1    2    0    0  0.30086422819E+02 -0.17458700521E+03  0.44496629730E+03  0.48580631091E+03  0.81406085528E+02 0.  0.
        -11    1    3    3    0    0 -0.47624322107E+02  0.22370321661E+02 -0.64557062019E+03  0.64771130375E+03  0.00000000000E+00 0.  1.
         12    1    3    3    0    0  0.17146009388E+02 -0.11182074524E+02 -0.61269748542E+02  0.64598812025E+02  0.00000000000E+00 0. -1.
         11    1    5    5    0    0  0.28084896141E+02 -0.14766775057E+02  0.44780885357E+02  0.54883027706E+02  0.00000000000E+00 0. -1.
        -12    1    5    5    0    0  0.20015266773E+01 -0.15982023015E+03  0.40018541194E+03  0.43092328320E+03  0.00000000000E+00 0.  1.
          5    1    4    4  501    0 -0.59595845993E+02  0.67874454583E+02  0.86121334922E+01  0.90830874090E+02  0.41800000000E+01 0. -1.
         -5    1    4    4    0  501  0.59987735893E+02  0.95524303492E+02 -0.24939730793E+02  0.11559793937E+03  0.41800000000E+01 0. -1.
</event>
<event>
11    1  0.7157190E-009  0.1364754E+03  0.7561462E-02  0.1111559E+00
         22   -1    0    0    0    0  0.00000000000E+00  0.00000000000E+00  0.67390995814E+03  0.67390995814E+03  0.00000000000E+00 0.  1.
         22   -1    0    0    0    0 -0.00000000000E+00 -0.00000000000E+00 -0.21458899144E+03  0.21458899144E+03  0.00000000000E+00 0.  1.
        -24    2    1    2    0    0  0.13042193923E+02  0.43876567869E+02 -0.99916384005E+02  0.13605355232E+03  0.80199958077E+02 0.  0.
         25    2    1    2    0    0  0.41550590893E+02 -0.49516566533E+02 -0.39114621443E+02  0.14613809682E+03  0.12509215709E+03 0.  0.
         24    2    1    2    0    0 -0.54592784816E+02  0.56399986632E+01  0.59835197214E+03  0.60630730044E+03  0.81063421215E+02 0.  0.
        -11    1    5    5    0    0 -0.71415599919E+02 -0.95888187563E+01  0.51103024074E+03  0.51608530333E+03  0.00000000000E+00 0.  1.
         12    1    5    5    0    0  0.16822815104E+02  0.15228817420E+02  0.87321731401E+02  0.90221997112E+02  0.00000000000E+00 0. -1.
         13    1    3    3    0    0 -0.16100158331E+01 -0.23206072926E+02 -0.31131309908E+02  0.38862223665E+02  0.00000000000E+00 0. -1.
        -14    1    3    3    0    0  0.14652209756E+02  0.67082640795E+02 -0.68785074097E+02  0.97191328653E+02  0.00000000000E+00 0.  1.
          5    1    4    4  501    0  0.69949645892E+01  0.10867309213E+02 -0.68984785521E+02  0.70309323510E+02  0.41800000000E+01 0.  1.
         -5    1    4    4    0  501  0.34555626304E+02 -0.60383875746E+02  0.29870164077E+02  0.75828773308E+02  0.41800000000E+01 0.  1.
</event>
<event>
11    1  0.7157190E-009  0.1329047E+03  0.7561462E-02  0.1115751E+00
         22   -1    0    0    0    0  0.00000000000E+00  0.00000000000E+00  0.70379655909E+03  0.70379655909E+03  0.00000000000E+00 0. -1.
         22   -1    0    0    0    0 -0.00000000000E+00 -0.00000000000E+00 -0.26471183115E+03  0.26471183115E+03  0.00000000000E+00 0. -1.
         24    2    1    2    0    0  0.32106000570E+02  0.12764317696E+02 -0.11956982841E+03  0.14776973073E+03  0.79656929231E+02 0.  0.
         25    2    1    2    0    0 -0.35946840208E+02 -0.57113689205E+02 -0.88325800004E+02  0.16734148479E+03  0.12509027448E+03 0.  0.
        -24    2    1    2    0    0  0.38408396379E+01  0.44349371509E+02  0.64698035635E+03  0.65339717472E+03  0.79766331339E+02 0.  0.
        -13    1    3    3    0    0  0.97451064583E+00  0.42177352200E+02 -0.44347031701E+02  0.61208969361E+02  0.00000000000E+00 0.  1.
         14    1    3    3    0    0  0.31131489924E+02 -0.29413034504E+02 -0.75222796709E+02  0.86560761366E+02  0.00000000000E+00 0. -1.
         11    1    5    5    0    0  0.27112148281E+02  0.49686088071E+02  0.56989764328E+03  0.57270158001E+03  0.00000000000E+00 0. -1.
        -12    1    5    5    0    0 -0.23271308643E+02 -0.53367165625E+01  0.77082713076E+02  0.80695594704E+02  0.00000000000E+00 0.  1.
          5    1    4    4  501    0 -0.54921022460E+01 -0.64710339686E+02  0.83510731727E+01  0.65611005727E+02  0.41800000000E+01 0. -1.
         -5    1    4    4    0  501 -0.30454737962E+02  0.75966504812E+01 -0.96676873177E+02  0.10173047906E+03  0.41800000000E+01 0. -1.
</event>
<event>
11    1  0.7157190E-009  0.1353345E+03  0.7561462E-02  0.1112883E+00
         22   -1    0    0    0    0  0.00000000000E+00  0.00000000000E+00  0.82373084939E+03  0.82373084939E+03  0.00000000000E+00 0. -1.
         22   -1    0    0    0    0 -0.00000000000E+00 -0.00000000000E+00 -0.71840485464E+02  0.71840485464E+02  0.00000000000E+00 0. -1.
        -24    2    1    2    0    0 -0.16663529146E+02  0.12387694675E+02  0.21677118769E+02  0.86102271674E+02  0.80700529902E+02 0.  0.
         25    2    1    2    0    0  0.35796936260E+02 -0.58614565822E+02  0.10521703958E+03  0.17729983256E+03  0.12509003652E+03 0.  0.
         24    2    1    2    0    0 -0.19133407114E+02  0.46226871148E+02  0.62499620558E+03  0.63216923061E+03  0.80713494924E+02 0.  0.
        -11    1    5    5    0    0 -0.62063969131E+01  0.14433649668E+02  0.16787030580E+02  0.22992477054E+02  0.00000000000E+00 0.  1.
         12    1    5    5    0    0 -0.12927010201E+02  0.31793221480E+02  0.60820917500E+03  0.60917675356E+03  0.00000000000E+00 0. -1.
         11    1    3    3    0    0  0.14637027045E+02 -0.19036567824E+01 -0.24447084150E+02  0.28557422736E+02  0.00000000000E+00 0. -1.
        -12    1    3    3    0    0 -0.31300556192E+02  0.14291351457E+02  0.46124202920E+02  0.57544848938E+02  0.00000000000E+00 0.  1.
          5    1    4    4  501    0  0.48541700160E+02 -0.88670347871E+02  0.49609963738E+02  0.11268251039E+03  0.41800000000E+01 0. -1.
         -5    1    4    4    0  501 -0.12744763900E+02  0.30055782049E+02  0.55607075838E+02  0.64617322172E+02  0.41800000000E+01 0. -1.
</event>
<event>
11    1  0.7157190E-009  0.6269713E+03  0.7561462E-02  0.9147434E-01
         22   -1    0    0    0    0  0.00000000000E+00  0.00000000000E+00  0.60676760775E+03  0.60676760775E+03  0.00000000000E+00 0.  1.
         22   -1    0    0    0    0 -0.00000000000E+00 -0.00000000000E+00 -0.21051557570E+04  0.21051557570E+04  0.00000000000E+00 0. -1.
         24    2    1    2    0    0  0.34266277289E+03  0.53566256054E+03 -0.15982821915E+04  0.17219583222E+04  0.79261244408E+02 0.  0.
         25    2    1    2    0    0 -0.29974426946E+03 -0.46193905554E+03 -0.25242369224E+03  0.61854600353E+03  0.12508844857E+03 0.  0.
        -24    2    1    2    0    0 -0.42918503428E+02 -0.73723505005E+02  0.35231773454E+03  0.37141903903E+03  0.80914543551E+02 0.  0.
        -11    1    3    3    0    0  0.72819412465E+02  0.15823800702E+03 -0.50905245329E+03  0.53803004925E+03  0.00000000000E+00 0.  1.
         12    1    3    3    0    0  0.26984336043E+03  0.37742455352E+03 -0.10892297382E+04  0.11839282729E+04  0.00000000000E+00 0. -1.
         13    1    5    5    0    0 -0.29416785574E+02 -0.26389762429E+02  0.43774643552E+02  0.58974454238E+02  0.00000000000E+00 0. -1.
        -14    1    5    5    0    0 -0.13501717854E+02 -0.47333742576E+02  0.30854309099E+03  0.31244458479E+03  0.00000000000E+00 0.  1.
          5    1    4    4  501    0 -0.68761720636E+02 -0.19780802663E+03 -0.57838683167E+02  0.21729927588E+03  0.41800000000E+01 0. -1.
         -5    1    4    4    0  501 -0.23098254883E+03 -0.26413102890E+03 -0.19458500908E+03  0.40124672765E+03  0.41800000000E+01 0. -1.
</event>
<event>
11    1  0.7157190E-009  0.1454336E+03  0.7561462E-02  0.1101638E+00
         22   -1    0    0    0    0  0.00000000000E+00  0.00000000000E+00  0.12899232462E+04  0.12899232462E+04  0.00000000000E+00 0.  1.
         22   -1    0    0    0    0 -0.00000000000E+00 -0.00000000000E+00 -0.21927797058E+03  0.21927797058E+03  0.00000000000E+00 0. -1.
         24    2    1    2    0    0  0.71728391268E+02 -0.24631334924E+02 -0.17715193096E+03  0.20981069625E+03  0.82982268246E+02 0.  0.
         25    2    1    2    0    0 -0.42833459182E+02  0.40882261652E+02  0.17399963829E+03  0.22232734615E+03  0.12509000830E+03 0.  0.
        -24    2    1    2    0    0 -0.28894932086E+02 -0.16250926728E+02  0.10737975683E+04  0.10770631744E+04  0.76973074833E+02 0.  0.
        -11    1    3    3    0    0  0.83532692107E+02 -0.12376132168E+02 -0.10037921494E+03  0.13117494460E+03  0.00000000000E+00 0.  1.
         12    1    3    3    0    0 -0.11804300838E+02 -0.12255202756E+02 -0.76772716015E+02  0.78635751648E+02  0.00000000000E+00 0. -1.
         13    1    5    5    0    0 -0.23872091920E+02 -0.99118554981E+01  0.10174570500E+03  0.10497766494E+03  0.00000000000E+00 0. -1.
        -14    1    5    5    0    0 -0.50228401665E+01 -0.63390712294E+01  0.97205186333E+03  0.97208550948E+03  0.00000000000E+00 0.  1.
          5    1    4    4  501    0 -0.47506459547E+02 -0.22124980193E+02  0.14192361015E+03  0.15134781784E+03  0.41800000000E+01 0.  1.
         -5    1    4    4    0  501  0.46730003652E+01  0.63007241844E+02  0.32076028140E+02  0.70979528306E+02  0.41800000000E+01 0.  1.
</event>
<event>
11    1  0.7157190E-009  0.1462357E+03  0.7561462E-02  0.1100788E+00
         22   -1    0    0    0    0  0.00000000000E+00  0.00000000000E+00  0.38830811713E+03  0.38830811713E+03  0.00000000000E+00 0. -1.
         22   -1    0    0    0    0 -0.00000000000E+00 -0.00000000000E+00 -0.55065781515E+03  0.55065781515E+03  0.00000000000E+00 0.  1.
        -24    2    1    2    0    0 -0.73296908342E+02 -0.75070318707E+01 -0.43354829563E+03  0.44693669966E+03  0.79746451710E+02 0.  0.
         25    2    1    2    0    0  0.96315862366E+02 -0.17681535503E+02 -0.43265515096E+02  0.16464580014E+03  0.12508777985E+03 0.  0.
         24    2    1    2    0    0 -0.23018954024E+02  0.25188567374E+02  0.31446411271E+03  0.32738343248E+03  0.84426876705E+02 0.  0.
        -11    1    5    5    0    0 -0.38849855641E+02  0.21239178540E+02  0.73065703833E+02  0.85434249952E+02  0.00000000000E+00 0.  1.
         12    1    5    5    0    0  0.15830901616E+02  0.39493888338E+01  0.24139840887E+03  0.24194918253E+03  0.00000000000E+00 0. -1.
         13    1    3    3    0    0 -0.11126015621E+02 -0.26864668354E+02 -0.25919866831E+03  0.26082455461E+03  0.00000000000E+00 0. -1.
        -14    1    3    3    0    0 -0.62170892721E+02  0.19357636484E+02 -0.17434962732E+03  0.18611214506E+03  0.00000000000E+00 0.  1.
          5    1    4    4  501    0  0.11026881402E+03 -0.49627218999E+02 -0.20281252329E+02  0.12268200278E+03  0.41800000000E+01 0.  1.
         -5    1    4    4    0  501 -0.13952951655E+02  0.31945683496E+02 -0.22984262767E+02  0.41963797360E+02  0.41800000000E+01 0.  1.
</event>
<event>
11    1  0.7157190E-009  0.1453177E+03  0.7561462E-02  0.1101761E+00
         22   -1    0    0    0    0  0.00000000000E+00  0.00000000000E+00  0.17978164020E+03  0.17978164020E+03  0.00000000000E+00 0. -1.
         22   -1    0    0    0    0 -0.00000000000E+00 -0.00000000000E+00 -0.11387401430E+04  0.11387401430E+04  0.00000000000E+00 0.  1.
        -24    2    1    2    0    0 -0.34350389110E+02 -0.72905134934E+02 -0.95553318457E+03  0.96227817700E+03  0.80252820425E+02 0.  0.
         25    2    1    2    0    0  0.20670201062E+02  0.17568917223E+02 -0.13900150937E+03  0.18895794421E+03  0.12509101090E+03 0.  0.
         24    2    1    2    0    0  0.13680188047E+02  0.55336217711E+02  0.13557619114E+03  0.16728566200E+03  0.79714142872E+02 0.  0.
        -11    1    5    5    0    0 -0.60582728702E+01  0.15985415484E+02 -0.66947839728E+01  0.18359093409E+02  0.00000000000E+00 0.  1.
         12    1    5    5    0    0  0.19738460918E+02  0.39350802227E+02  0.14227097511E+03  0.14892656859E+03  0.00000000000E+00 0. -1.
         13    1    3    3    0    0 -0.19207908835E+02 -0.85516986953E+02 -0.61973118283E+03  0.62589842450E+03  0.00000000000E+00 0. -1.
        -14    1    3    3    0    0 -0.15142480274E+02  0.12611852020E+02 -0.33580200174E+03  0.33637975250E+03  0.00000000000E+00 0.  1.
          5    1    4    4  501    0  0.46843790171E+02 -0.10348989711E+02 -0.14239068962E+03  0.15031308378E+03  0.41800000000E+01 0.  1.
         -5    1    4    4    0  501 -0.26173589108E+02  0.27917906934E+02  0.33891802511E+01  0.38644860423E+02  0.41800000000E+01 0.  1.
</event>
<event>
11    1  0.7157190E-009  0.1397308E+03  0.7561462E-02  0.1107859E+00
         22   -1    0    0    0    0  0.00000000000E+00  0.00000000000E+00  0.51117270202E+03  0.51117270202E+03  0.00000000000E+00 0. -1.
         22   -1    0    0    0    0 -0.00000000000E+00 -0.00000000000E+00 -0.80869412851E+03  0.80869412851E+03  0.00000000000E+00 0.  1.
        -24    2    1    2    0    0  0.57090220356E+02 -0.17477733275E+02 -0.66859646561E+03  0.67854133375E+03  0.99158173386E+02 0.  0.
         25    2    1    2    0    0 -0.83137482643E+02  0.17256543448E+02 -0.87003743692E+02  0.17443971899E+03  0.12509969958E+03 0.  0.
         24    2    1    2    0    0  0.26047262287E+02  0.22118982751E+00  0.45807878282E+03  0.46688577778E+03  0.86415562450E+02 0.  0.
        -13    1    5    5    0    0 -0.15443689638E+02  0.16178030900E+02  0.33970114993E+03  0.34043664241E+03  0.00000000000E+00 0.  1.
         14    1    5    5    0    0  0.41490951924E+02 -0.15956841072E+02  0.11837763289E+03  0.12644913537E+03  0.00000000000E+00 0. -1.
         11    1    3    3    0    0  0.34803734018E+02 -0.18461772674E+01 -0.60387216477E+02  0.69723196900E+02  0.00000000000E+00 0. -1.
        -12    1    3    3    0    0  0.22286486338E+02 -0.15631556008E+02 -0.60820924914E+03  0.60881813685E+03  0.00000000000E+00 0.  1.
          5    1    4    4  501    0 -0.82564734959E+02 -0.38315973648E+02 -0.73569383516E+02  0.11711095545E+03  0.41800000000E+01 0.  1.
         -5    1    4    4    0  501 -0.57274768479E+00  0.55572517096E+02 -0.13434360176E+02  0.57328763545E+02  0.41800000000E+01 0.  1.
</event>
<event>
11    1  0.7157190E-009  0.1428702E+03  0.7561462E-02  0.1104395E+00
         22   -1    0    0    0    0  0.00000000000E+00  0.00000000000E+00  0.10249217617E+04  0.10249217617E+04  0.00000000000E+00 0. -1.
         22   -1    0    0    0    0 -0.00000000000E+00 -0.00000000000E+00 -0.11335315322E+03  0.11335315322E+03  0.00000000000E+00 0.  1.
         24    2    1    2    0    0  0.63324068027E+02  0.14950875268E+02 -0.56683131774E+02  0.11774090241E+03  0.80102911362E+02 0.  0.
         25    2    1    2    0    0 -0.11088830010E+03 -0.16507801648E+01  0.28278026374E+03  0.32849809533E+03  0.12508949157E+03 0.  0.
        -24    2    1    2    0    0  0.47564232075E+02 -0.13300095103E+02  0.68547147651E+03  0.69203591718E+03  0.81260795343E+02 0.  0.
        -13    1    3    3    0    0  0.31207028043E+02  0.41871345582E+02 -0.54937676225E+02  0.75797338008E+02  0.00000000000E+00 0.  1.
         14    1    3    3    0    0  0.32117039985E+02 -0.26920470314E+02 -0.17454555491E+01  0.41943564397E+02  0.00000000000E+00 0. -1.
         13    1    5    5    0    0  0.46292877261E+02  0.25271215919E+02  0.48696633020E+03  0.48981411943E+03  0.00000000000E+00 0. -1.
        -14    1    5    5    0    0  0.12713548148E+01 -0.38571311023E+02  0.19850514630E+03  0.20222179775E+03  0.00000000000E+00 0.  1.
          5    1    4    4  501    0 -0.82139505331E+02  0.58085177577E+02  0.17456048751E+03  0.20151829294E+03  0.41800000000E+01 0. -1.
         -5    1    4    4    0  501 -0.28748794771E+02 -0.59735957742E+02  0.10821977623E+03  0.12697980239E+03  0.41800000000E+01 0. -1.
</event>
<event>
11    1  0.7157190E-009  0.1817778E+03  0.7561462E-02  0.1068214E+00
         22   -1    0    0    0    0  0.00000000000E+00  0.00000000000E+00  0.17335494865E+04  0.17335494865E+04  0.00000000000E+00 0.  1.
         22   -1    0    0    0    0 -0.00000000000E+00 -0.00000000000E+00 -0.22573700021E+03  0.22573700021E+03  0.00000000000E+00 0.  1.
        -24    2    1    2    0    0 -0.72996060022E+01 -0.26455285385E+02 -0.17218304277E+03  0.19641846557E+03  0.90443612417E+02 0.  0.
         25    2    1    2    0    0  0.10103618698E+03  0.11598922218E+03  0.22483595544E+03  0.29976899836E+03  0.12509370398E+03 0.  0.
         24    2    1    2    0    0 -0.93736580981E+02 -0.89533936795E+02  0.14551595736E+04  0.14630990228E+04  0.79790308436E+02 0.  0.
        -13    1    5    5    0    0 -0.41096598109E+02 -0.29424080315E+02  0.97725063973E+03  0.97855685565E+03  0.00000000000E+00 0.  1.
         14    1    5    5    0    0 -0.52639982872E+02 -0.60109856480E+02  0.47790893389E+03  0.48454216714E+03  0.00000000000E+00 0. -1.
         11    1    3    3    0    0 -0.28185142728E+02 -0.52947404499E+02 -0.12203842331E+03  0.13598237635E+03  0.00000000000E+00 0. -1.
        -12    1    3    3    0    0  0.20885536726E+02  0.26492119114E+02 -0.50144619460E+02  0.60436089221E+02  0.00000000000E+00 0.  1.
          5    1    4    4  501    0  0.36844528845E+02  0.47294746137E+02  0.19022865837E+03  0.19949618338E+03  0.41800000000E+01 0.  1.
         -5    1    4    4    0  501  0.64191658138E+02  0.68694476043E+02  0.34607297071E+02  0.10027281498E+03  0.41800000000E+01 0.  1.
</event>
<event>
11    1  0.7157190E-009  0.1331301E+03  0.7561462E-02  0.1115482E+00
         22   -1    0    0    0    0  0.00000000000E+00  0.00000000000E+00  0.88569595101E+02  0.88569595101E+02  0.00000000000E+00 0. -1.
         22   -1    0    0    0    0 -0.00000000000E+00 -0.00000000000E+00 -0.11620249017E+04  0.11620249017E+04  0.00000000000E+00 0. -1.
        -24    2    1    2    0    0 -0.26282406770E+02  0.11189127345E+02 -0.70944039129E+03  0.71447211525E+03  0.79679189184E+02 0.  0.
         25    2    1    2    0    0  0.65771133368E+02 -0.30141299785E+02 -0.40989799652E+03  0.43462423021E+03  0.12509002355E+03 0.  0.
         24    2    1    2    0    0 -0.39488726598E+02  0.18952172440E+02  0.45883081241E+02  0.10149815132E+03  0.79234293141E+02 0.  0.
        -11    1    5    5    0    0  0.18860373489E+02  0.44904050544E+01 -0.78046887389E+01  0.20899535689E+02  0.00000000000E+00 0.  1.
         12    1    5    5    0    0 -0.58349100087E+02  0.14461767386E+02  0.53687769980E+02  0.80598615635E+02  0.00000000000E+00 0. -1.
         13    1    3    3    0    0 -0.13676096921E+02 -0.79465776844E+01 -0.65763309665E+03  0.65782328443E+03  0.00000000000E+00 0. -1.
        -14    1    3    3    0    0 -0.12606309850E+02  0.19135705029E+02 -0.51807294646E+02  0.56648830822E+02  0.00000000000E+00 0.  1.
          5    1    4    4  501    0 -0.27089946863E+02 -0.29697711343E+02 -0.21409858410E+03  0.21787954331E+03  0.41800000000E+01 0. -1.
         -5    1    4    4    0  501  0.92861080231E+02 -0.44358844238E+00 -0.19579941242E+03  0.21674468689E+03  0.41800000000E+01 0. -1.
</event>
<event>
11    1  0.7157190E-009  0.1653761E+03  0.7561462E-02  0.1082127E+00
         22   -1    0    0    0    0  0.00000000000E+00  0.00000000000E+00  0.47171332436E+03  0.47171332436E+03  0.00000000000E+00 0. -1.
         22   -1    0    0    0    0 -0.00000000000E+00 -0.00000000000E+00 -0.97989437499E+03  0.97989437499E+03  0.00000000000E+00 0.  1.
         24    2    1    2    0    0 -0.37106744374E+02 -0.46071774107E+02 -0.92144777152E+03  0.92674715158E+03  0.79339577013E+02 0.  0.
         25    2    1    2    0    0  0.71490039504E+02 -0.65441582824E+02  0.11698141114E+03  0.19678905664E+03  0.12509138959E+03 0.  0.
        -24    2    1    2    0    0 -0.34383295130E+02  0.11151335693E+03  0.29628530975E+03  0.32807149113E+03  0.78920711861E+02 0.  0.
        -11    1    3    3    0    0 -0.59540224066E+02 -0.24629477828E+02 -0.72569203535E+03  0.72854689597E+03  0.00000000000E+00 0.  1.
         12    1    3    3    0    0  0.22433479692E+02 -0.21442296279E+02 -0.19575573617E+03  0.19820025561E+03  0.00000000000E+00 0. -1.
         11    1    5    5    0    0 -0.54495969030E+01  0.34144374759E+02  0.19173523995E+03  0.19482797200E+03  0.00000000000E+00 0. -1.
        -12    1    5    5    0    0 -0.28933698227E+02  0.77368982172E+02  0.10455006980E+03  0.13324351913E+03  0.00000000000E+00 0.  1.
          5    1    4    4  501    0 -0.26146212494E+02 -0.18026003752E+01  0.62839267037E+02  0.68213779236E+02  0.41800000000E+01 0.  1.
         -5    1    4    4    0  501  0.97636251998E+02 -0.63638982449E+02  0.54142144099E+02  0.12857527740E+03  0.41800000000E+01 0.  1.
</event>
<event>
11    1  0.7157190E-009  0.1295729E+03  0.7561462E-02  0.1119795E+00
         22   -1    0    0    0    0  0.00000000000E+00  0.00000000000E+00  0.41634208404E+03  0.41634208404E+03  0.00000000000E+00 0.  1.
         22   -1    0    0    0    0 -0.00000000000E+00 -0.00000000000E+00 -0.17605592238E+03  0.17605592238E+03  0.00000000000E+00 0.  1.
         24    2    1    2    0    0  0.81444475245E+01 -0.31301880097E+02 -0.12571610685E+03  0.15368694755E+03  0.82273924197E+02 0.  0.
         25    2    1    2    0    0 -0.19946026488E+02  0.46984379718E+02  0.12540041852E+03  0.18431969451E+03  0.12507241465E+03 0.  0.
        -24    2    1    2    0    0  0.11801578964E+02 -0.15682499621E+02  0.24060184999E+03  0.25439136437E+03  0.80252713271E+02 0.  0.
        -11    1    3    3    0    0 -0.26362236655E+02 -0.44199900841E+02 -0.69636980110E+02  0.86590459952E+02  0.00000000000E+00 0.  1.
         12    1    3    3    0    0  0.34506684180E+02  0.12898020744E+02 -0.56079126742E+02  0.67096487600E+02  0.00000000000E+00 0. -1.
         13    1    5    5    0    0  0.37643978562E+02  0.35932938579E+01  0.59912274220E+02  0.70848157950E+02  0.00000000000E+00 0. -1.
        -14    1    5    5    0    0 -0.25842399598E+02 -0.19275793479E+02  0.18068957577E+03  0.18354320642E+03  0.00000000000E+00 0.  1.
          5    1    4    4  501    0  0.18813722112E+02 -0.35569380111E+02  0.58544051354E+02  0.71161894931E+02  0.41800000000E+01 0.  1.
         -5    1    4    4    0  501 -0.38759748600E+02  0.82553759830E+02  0.66856367169E+02  0.11315779957E+03  0.41800000000E+01 0.  1.
</event>
<event>
11    1  0.7157190E-009  0.1343208E+03  0.7561462E-02  0.1114071E+00
         22   -1    0    0    0    0  0.00000000000E+00  0.00000000000E+00  0.29816555476E+03  0.29816555476E+03  0.00000000000E+00 0. -1.
         22   -1    0    0    0    0 -0.00000000000E+00 -0.00000000000E+00 -0.74072005144E+03  0.74072005144E+03  0.00000000000E+00 0. -1.
         24    2    1    2    0    0  0.42419539012E+02  0.90561248956E+01 -0.56861095553E+03  0.57583355960E+03  0.79902684083E+02 0.  0.
         25    2    1    2    0    0 -0.32638182835E+02  0.39715108071E+02 -0.13157778549E+03  0.18868874683E+03  0.12509272065E+03 0.  0.
        -24    2    1    2    0    0 -0.97813561777E+01 -0.48771232966E+02  0.25763424433E+03  0.27436329976E+03  0.80159268403E+02 0.  0.
        -11    1    3    3    0    0  0.11653132343E+02 -0.35079184068E+02 -0.21538001084E+03  0.21852893108E+03  0.00000000000E+00 0.  1.
         12    1    3    3    0    0  0.30766406669E+02  0.44135308963E+02 -0.35323094469E+03  0.35730462852E+03  0.00000000000E+00 0. -1.
         11    1    5    5    0    0 -0.28660147857E+02 -0.28583799018E+02  0.23550003337E+03  0.23895334976E+03  0.00000000000E+00 0. -1.
        -12    1    5    5    0    0  0.18878791679E+02 -0.20187433949E+02  0.22134210959E+02  0.35409950007E+02  0.00000000000E+00 0.  1.
          5    1    4    4  501    0  0.27567542542E+02  0.64309914213E+01 -0.11403545494E+03  0.11757076352E+03  0.41800000000E+01 0.  1.
         -5    1    4    4    0  501 -0.60205725376E+02  0.33284116649E+02 -0.17542330551E+02  0.71117983312E+02  0.41800000000E+01 0.  1.
</event>
<event>
11    1  0.7157190E-009  0.1570117E+03  0.7561462E-02  0.1089922E+00
         22   -1    0    0    0    0  0.00000000000E+00  0.00000000000E+00  0.81310929090E+03  0.81310929090E+03  0.00000000000E+00 0. -1.
         22   -1    0    0    0    0 -0.00000000000E+00 -0.00000000000E+00 -0.43744838513E+03  0.43744838513E+03  0.00000000000E+00 0.  1.
         24    2    1    2    0    0 -0.96305997045E+01 -0.60318874991E+02 -0.34799298931E+03  0.36324080081E+03  0.84342418969E+02 0.  0.
         25    2    1    2    0    0 -0.80023531111E+02  0.89290517440E+02  0.21376399045E+02  0.17458761226E+03  0.12508925566E+03 0.  0.
        -24    2    1    2    0    0  0.89654130815E+02 -0.28971642449E+02  0.70227749604E+03  0.71272926295E+03  0.76890191779E+02 0.  0.
        -11    1    3    3    0    0 -0.11214480747E+02 -0.29434887155E+02 -0.31994350475E+03  0.32149031617E+03  0.00000000000E+00 0.  1.
         12    1    3    3    0    0  0.15838810422E+01 -0.30883987837E+02 -0.28049484555E+02  0.41750484640E+02  0.00000000000E+00 0. -1.
         13    1    5    5    0    0  0.29107018677E+02 -0.26540788798E+01  0.47912610971E+03  0.48001676187E+03  0.00000000000E+00 0. -1.
        -14    1    5    5    0    0  0.60547112139E+02 -0.26317563569E+02  0.22315138632E+03  0.23271250108E+03  0.00000000000E+00 0.  1.
          5    1    4    4  501    0  0.23965012423E+02  0.47974408522E+02  0.31200665865E+02  0.62183757074E+02  0.41800000000E+01 0.  1.
         -5    1    4    4    0  501 -0.10398854353E+03  0.41316108918E+02 -0.98242668191E+01  0.11240385519E+03  0.41800000000E+01 0.  1.
</event>
<event>
11    1  0.7157190E-009  0.1403245E+03  0.7561462E-02  0.1107197E+00
         22   -1    0    0    0    0  0.00000000000E+00  0.00000000000E+00  0.23127377611E+04  0.23127377611E+04  0.00000000000E+00 0.  1.
         22   -1    0    0    0    0 -0.00000000000E+00 -0.00000000000E+00 -0.21702131164E+03  0.21702131164E+03  0.00000000000E+00 0. -1.
         24    2    1    2    0    0 -0.19640804426E+02 -0.51896386584E+02 -0.10366478801E+03  0.14187391342E+03  0.79390319923E+02 0.  0.
         25    2    1    2    0    0 -0.35533271249E+02  0.19463574490E+02 -0.46737135916E+02  0.13958615808E+03  0.12513389451E+03 0.  0.
        -24    2    1    2    0    0  0.55174075675E+02  0.32432812095E+02  0.22461183734E+04  0.22482990012E+04  0.75528708333E+02 0.  0.
        -13    1    3    3    0    0  0.13184585762E+02 -0.48165631408E+02 -0.23544381778E+02  0.55209593948E+02  0.00000000000E+00 0.  1.
         14    1    3    3    0    0 -0.32825390188E+02 -0.37307551762E+01 -0.80120406227E+02  0.86664319470E+02  0.00000000000E+00 0. -1.
         13    1    5    5    0    0  0.84933178926E+01 -0.13639994143E+02  0.10934914915E+03  0.11052340164E+03  0.00000000000E+00 0. -1.
        -14    1    5    5    0    0  0.46680757783E+02  0.46072806237E+02  0.21367692242E+04  0.21377755996E+04  0.00000000000E+00 0.  1.
          5    1    4    4  501    0  0.42035156753E+01 -0.95898403738E+01  0.39020555650E+02  0.40616631392E+02  0.41800000000E+01 0. -1.
         -5    1    4    4    0  501 -0.39736786925E+02  0.29053414863E+02 -0.85757691565E+02  0.98969526688E+02  0.41800000000E+01 0. -1.
</event>
<event>
11    1  0.7157190E-009  0.1347029E+03  0.7561462E-02  0.1113622E+00
         22   -1    0    0    0    0  0.00000000000E+00  0.00000000000E+00  0.21484847885E+03  0.21484847885E+03  0.00000000000E+00 0. -1.
         22   -1    0    0    0    0 -0.00000000000E+00 -0.00000000000E+00 -0.14682386200E+04  0.14682386200E+04  0.00000000000E+00 0. -1.
         24    2    1    2    0    0  0.15112956883E+02  0.22460383614E+02 -0.12524013467E+04  0.12552791667E+04  0.80521940070E+02 0.  0.
         25    2    1    2    0    0 -0.86761248409E+01 -0.70854431935E+02 -0.17669882690E+03  0.22796009793E+03  0.12509078766E+03 0.  0.
        -24    2    1    2    0    0 -0.64368320421E+01  0.48394048321E+02  0.17571003247E+03  0.19984783419E+03  0.81741816699E+02 0.  0.
        -13    1    3    3    0    0 -0.11505717894E+02 -0.20484336142E+02 -0.16060619065E+03  0.16231555084E+03  0.00000000000E+00 0.  1.
         14    1    3    3    0    0  0.26618674777E+02  0.42944719756E+02 -0.10917951560E+04  0.10929636158E+04  0.00000000000E+00 0. -1.
         11    1    5    5    0    0  0.28787276411E+02  0.22193513330E+02  0.13558625592E+03  0.14037411482E+03  0.00000000000E+00 0. -1.
        -12    1    5    5    0    0 -0.35224108453E+02  0.26200534991E+02  0.40123776550E+02  0.59473719363E+02  0.00000000000E+00 0.  1.
          5    1    4    4  501    0  0.50094900572E+02 -0.94020522107E+01 -0.10446213429E+03  0.11630867358E+03  0.41800000000E+01 0.  1.
         -5    1    4    4    0  501 -0.58771025413E+02 -0.61452379725E+02 -0.72236692604E+02  0.11165142435E+03  0.41800000000E+01 0.  1.
</event>
<event>
11    1  0.7157190E-009  0.1296115E+03  0.7561462E-02  0.1119747E+00
         22   -1    0    0    0    0  0.00000000000E+00  0.00000000000E+00  0.25777774285E+03  0.25777774285E+03  0.00000000000E+00 0.  1.
         22   -1    0    0    0    0 -0.00000000000E+00 -0.00000000000E+00 -0.18060640160E+03  0.18060640160E+03  0.00000000000E+00 0. -1.
         24    2    1    2    0    0 -0.15302746746E+02  0.15389530635E+02 -0.11661495431E+03  0.14202460845E+03  0.78108451057E+02 0.  0.
         25    2    1    2    0    0 -0.12291836127E+02 -0.35718511885E+02  0.81454815254E+02  0.15398018283E+03  0.12509239964E+03 0.  0.
        -24    2    1    2    0    0  0.27594582873E+02  0.20328981250E+02  0.11233148031E+03  0.14237935317E+03  0.80490932759E+02 0.  0.
        -11    1    3    3    0    0 -0.21633721524E+02 -0.15392148156E+02 -0.10534432730E+03  0.10863868291E+03  0.00000000000E+00 0.  1.
         12    1    3    3    0    0  0.63309747781E+01  0.30781678791E+02 -0.11270627014E+02  0.33385925539E+02  0.00000000000E+00 0. -1.
         13    1    5    5    0    0  0.22367963238E+02 -0.39804843458E+01 -0.43035133155E+01  0.23123370470E+02  0.00000000000E+00 0. -1.
        -14    1    5    5    0    0  0.52266196351E+01  0.24309465596E+02  0.11663499363E+03  0.11925598269E+03  0.00000000000E+00 0.  1.
          5    1    4    4  501    0  0.42533993783E+02 -0.57278813252E+02  0.48185244450E+02  0.86193348104E+02  0.41800000000E+01 0.  1.
         -5    1    4    4    0  501 -0.54825829910E+02  0.21560301367E+02  0.33269570804E+02  0.67786834723E+02  0.41800000000E+01 0.  1.
</event>
<event>
11    1  0.7157190E-009  0.1289969E+03  0.7561462E-02  0.1120508E+00
         22   -1    0    0    0    0  0.00000000000E+00  0.00000000000E+00  0.21943199060E+03  0.21943199060E+03  0.00000000000E+00 0. -1.
         22   -1    0    0    0    0 -0.00000000000E+00 -0.00000000000E+00 -0.20342637026E+04  0.20342637026E+04  0.00000000000E+00 0.  1.
        -24    2    1    2    0    0  0.89035466939E+01  0.90559485839E+01 -0.16527937015E+04  0.16547211026E+04  0.78826544256E+02 0.  0.
         25    2    1    2    0    0 -0.16301977404E+02  0.21727890642E+02 -0.36039754782E+03  0.38245540698E+03  0.12509152712E+03 0.  0.
         24    2    1    2    0    0  0.73984307104E+01 -0.30783839226E+02  0.19835953734E+03  0.21651918366E+03  0.80818743532E+02 0.  0.
        -11    1    5    5    0    0 -0.51841526660E+01 -0.92286414785E+00 -0.69212853121E+01  0.86966262120E+01  0.00000000000E+00 0.  1.
         12    1    5    5    0    0  0.12582583376E+02 -0.29860975078E+02  0.20528082265E+03  0.20782255745E+03  0.00000000000E+00 0. -1.
         13    1    3    3    0    0 -0.18258489547E+02  0.96304937916E+01 -0.12554377651E+03  0.12722955110E+03  0.00000000000E+00 0. -1.
        -14    1    3    3    0    0  0.27162036241E+02 -0.57454520773E+00 -0.15272499250E+04  0.15274915515E+04  0.00000000000E+00 0.  1.
          5    1    4    4  501    0  0.35473286644E+02 -0.11497603849E+02 -0.27258828423E+03  0.27515885241E+03  0.41800000000E+01 0. -1.
         -5    1    4    4    0  501 -0.51775264048E+02  0.33225494491E+02 -0.87809263587E+02  0.10729655457E+03  0.41800000000E+01 0. -1.
</event>
<event>
11    1  0.7157190E-009  0.1726580E+03  0.7561462E-02  0.1075741E+00
         22   -1    0    0    0    0  0.00000000000E+00  0.00000000000E+00  0.10887747744E+04  0.10887747744E+04  0.00000000000E+00 0. -1.
         22   -1    0    0    0    0 -0.00000000000E+00 -0.00000000000E+00 -0.15459071794E+03  0.15459071794E+03  0.00000000000E+00 0.  1.
         24    2    1    2    0    0 -0.11250558231E+03 -0.21801276022E+02 -0.73945742044E+02  0.15752108538E+03  0.78816989838E+02 0.  0.
         25    2    1    2    0    0  0.15619766707E+03 -0.28308854739E+02  0.25548525141E+03  0.32575870680E+03  0.12508764491E+03 0.  0.
        -24    2    1    2    0    0 -0.43692084759E+02  0.50110130761E+02  0.75264454710E+03  0.76008570017E+03  0.82682730076E+02 0.  0.
        -11    1    3    3    0    0 -0.11882415889E+03 -0.34832660816E+02 -0.60731104491E+02  0.13791577882E+03  0.00000000000E+00 0.  1.
         12    1    3    3    0    0  0.63185765823E+01  0.13031384794E+02 -0.13214637554E+02  0.19605306561E+02  0.00000000000E+00 0. -1.
         13    1    5    5    0    0 -0.33632449666E+02  0.56113921069E+02  0.73985474269E+03  0.74274151229E+03  0.00000000000E+00 0. -1.
        -14    1    5    5    0    0 -0.10059635093E+02 -0.60037903081E+01  0.12789804414E+02  0.17344187880E+02  0.00000000000E+00 0.  1.
          5    1    4    4  501    0  0.17394782379E+03 -0.34835737920E+02  0.24810285277E+03  0.30503093612E+03  0.41800000000E+01 0.  1.
         -5    1    4    4    0  501 -0.17750156719E+02  0.65268831811E+01  0.73823986446E+01  0.20727770679E+02  0.41800000000E+01 0.  1.
</event>
<event>
11    1  0.1282803E-008  0.1551161E+03  0.7561462E-02  0.1091763E+00
         22   -1    0    0    0    0  0.00000000000E+00  0.00000000000E+00  0.15573073368E+04  0.15573073368E+04  0.00000000000E+00 0.  1.
         22   -1    0    0    0    0 -0.00000000000E+00 -0.00000000000E+00 -0.12566000055E+04  0.12566000055E+04  0.00000000000E+00 0. -1.
        -24    2    1    2    0    0 -0.30811634416E+02  0.71571414066E+02 -0.10793663930E+04  0.10854189444E+04  0.83848972628E+02 0.  0.
         25    2    1    2    0    0 -0.28181180728E+02  0.19774969713E-01 -0.14784855523E+03  0.19570730944E+03  0.12509187163E+03 0.  0.
         24    2    1    2    0    0  0.58992815145E+02 -0.71591189036E+02  0.15279222796E+04  0.15327810885E+04  0.79157577825E+02 0.  0.
        -13    1    5    5    0    0  0.74848395363E+02 -0.36275248298E+02  0.10648869704E+04  0.10681303458E+04  0.00000000000E+00 0.  1.
         14    1    5    5    0    0 -0.15855580218E+02 -0.35315940738E+02  0.46303530924E+03  0.46465074271E+03  0.00000000000E+00 0. -1.
         11    1    3    3    0    0  0.71390061488E-01  0.66193010459E+02 -0.95020864829E+03  0.95251141464E+03  0.00000000000E+00 0. -1.
        -12    1    3    3    0    0 -0.30883024478E+02  0.53784036075E+01 -0.12915774475E+03  0.13290752971E+03  0.00000000000E+00 0.  1.
          5    1    4    4  501    0  0.37900550686E+02 -0.19430749851E+02 -0.10764291101E+03  0.11583813911E+03  0.41800000000E+01 0. -1.
         -5    1    4    4    0  501 -0.66081731414E+02  0.19450524821E+02 -0.40205644220E+02  0.79869170333E+02  0.41800000000E+01 0. -1.
</event>
<event>
11    1  0.7157190E-009  0.2269079E+03  0.7561462E-02  0.1036974E+00
         22   -1    0    0    0    0  0.00000000000E+00  0.00000000000E+00  0.18055955005E+03  0.18055955005E+03  0.00000000000E+00 0.  1.
         22   -1    0    0    0    0 -0.00000000000E+00 -0.00000000000E+00 -0.47315456763E+03  0.47315456763E+03  0.00000000000E+00 0.  1.
         24    2    1    2    0    0 -0.24311091615E+02 -0.12874287780E+02 -0.15996954179E+03  0.18072475846E+03  0.79463246593E+02 0.  0.
         25    2    1    2    0    0 -0.15867693115E+02 -0.18288273542E+03 -0.32384100140E+01  0.22215568670E+03  0.12507910790E+03 0.  0.
        -24    2    1    2    0    0  0.40178784730E+02  0.19575702320E+03 -0.12938706579E+03  0.25083367252E+03  0.79002351881E+02 0.  0.
        -11    1    3    3    0    0 -0.49558074670E+02  0.50038633041E+01 -0.12180959147E+03  0.13160022032E+03  0.00000000000E+00 0.  1.
         12    1    3    3    0    0  0.25246983055E+02 -0.17878151084E+02 -0.38159950314E+02  0.49124538141E+02  0.00000000000E+00 0. -1.
         13    1    5    5    0    0  0.46902684243E+02  0.50672873444E+02 -0.50572994664E+02  0.85587555646E+02  0.00000000000E+00 0. -1.
        -14    1    5    5    0    0 -0.67238995125E+01  0.14508414976E+03 -0.78814071124E+02  0.16524611687E+03  0.00000000000E+00 0.  1.
          5    1    4    4  501    0 -0.26334240599E+02 -0.89321708339E+01  0.33780386708E+02  0.43952961560E+02  0.41800000000E+01 0. -1.
         -5    1    4    4    0  501  0.10466547484E+02 -0.17395056459E+03 -0.37018796722E+02  0.17820272514E+03  0.41800000000E+01 0. -1.
</event>
<event>
11    1  0.7157190E-009  0.1283236E+03  0.7561462E-02  0.1121346E+00
         22   -1    0    0    0    0  0.00000000000E+00  0.00000000000E+00  0.16061672441E+03  0.16061672441E+03  0.00000000000E+00 0. -1.
         22   -1    0    0    0    0 -0.00000000000E+00 -0.00000000000E+00 -0.43005470713E+03  0.43005470713E+03  0.00000000000E+00 0. -1.
        -24    2    1    2    0    0 -0.21387655890E+02  0.18552156128E+02 -0.35108719397E+03  0.36152835641E+03  0.81479570396E+02 0.  0.
         25    2    1    2    0    0  0.16458575550E+02 -0.33496589616E+02  0.35696778372E+02  0.13532153188E+03  0.12507897817E+03 0.  0.
         24    2    1    2    0    0  0.49290803399E+01  0.14944433488E+02  0.45952432875E+02  0.93821543249E+02  0.80269695185E+02 0.  0.
        -13    1    5    5    0    0 -0.19682021792E+02 -0.21049633888E+02 -0.21495234934E+01  0.28897915493E+02  0.00000000000E+00 0.  1.
         14    1    5    5    0    0  0.24611102132E+02  0.35994067376E+02  0.48101956369E+02  0.64923627755E+02  0.00000000000E+00 0. -1.
         11    1    3    3    0    0 -0.35639307048E+02  0.43090941048E+02 -0.26664705961E+03  0.27244750651E+03  0.00000000000E+00 0. -1.
        -12    1    3    3    0    0  0.14251651158E+02 -0.24538784920E+02 -0.84440134368E+02  0.89080849896E+02  0.00000000000E+00 0.  1.
          5    1    4    4  501    0  0.71085740706E+00  0.22480203984E+02 -0.36160140662E+02  0.42788936212E+02  0.41800000000E+01 0. -1.
         -5    1    4    4    0  501  0.15747718143E+02 -0.55976793601E+02  0.71856919034E+02  0.92532595671E+02  0.41800000000E+01 0. -1.
</event>
<event>
11    1  0.7157190E-009  0.1686430E+03  0.7561462E-02  0.1079219E+00
         22   -1    0    0    0    0  0.00000000000E+00  0.00000000000E+00  0.23245182501E+04  0.23245182501E+04  0.00000000000E+00 0.  1.
         22   -1    0    0    0    0 -0.00000000000E+00 -0.00000000000E+00 -0.19979308235E+03  0.19979308235E+03  0.00000000000E+00 0.  1.
        -24    2    1    2    0    0  0.10790036078E+03 -0.47256400054E+02 -0.13308224625E+03  0.19555843363E+03  0.81587753349E+02 0.  0.
         25    2    1    2    0    0 -0.10282005446E+03 -0.37793112684E+02  0.17065568675E+03  0.23826786999E+03  0.12509169232E+03 0.  0.
         24    2    1    2    0    0 -0.50803063154E+01  0.85049512738E+02  0.20871517273E+04  0.20904850288E+04  0.81646151046E+02 0.  0.
        -11    1    5    5    0    0 -0.21049040487E+01  0.50609722847E+02  0.18625553489E+04  0.18632439997E+04  0.00000000000E+00 0.  1.
         12    1    5    5    0    0 -0.29754022667E+01  0.34439789891E+02  0.22459637832E+03  0.22724102908E+03  0.00000000000E+00 0. -1.
         11    1    3    3    0    0  0.42734707128E+02  0.10151018079E+02 -0.10212606097E+02  0.45095406470E+02  0.00000000000E+00 0. -1.
        -12    1    3    3    0    0  0.65165653648E+02 -0.57407418133E+02 -0.12286964015E+03  0.15046302716E+03  0.00000000000E+00 0.  1.
          5    1    4    4  501    0 -0.37890468859E+02 -0.58487439260E+02  0.19621856432E+02  0.72518672294E+02  0.41800000000E+01 0.  1.
         -5    1    4    4    0  501 -0.64929585602E+02  0.20694326575E+02  0.15103383031E+03  0.16574919770E+03  0.41800000000E+01 0.  1.
</event>
<event>
11    1  0.7157190E-009  0.1493764E+03  0.7561462E-02  0.1097518E+00
         22   -1    0    0    0    0  0.00000000000E+00  0.00000000000E+00  0.18694247341E+04  0.18694247341E+04  0.00000000000E+00 0.  1.
         22   -1    0    0    0    0 -0.00000000000E+00 -0.00000000000E+00 -0.66784657777E+02  0.66784657777E+02  0.00000000000E+00 0. -1.
         24    2    1    2    0    0 -0.39750208285E+02 -0.71382080386E+02  0.19501405129E+02  0.11102770346E+03  0.72604171189E+02 0.  0.
         25    2    1    2    0    0  0.21516531484E+02  0.80619424635E+02  0.26426287646E+03  0.30404771823E+03  0.12509074439E+03 0.  0.
        -24    2    1    2    0    0  0.18233676801E+02 -0.92373442488E+01  0.15188757948E+04  0.15211339702E+04  0.80293710410E+02 0.  0.
        -11    1    3    3    0    0 -0.59401540981E+02 -0.39716105155E+02  0.73694441770E+01  0.71834676773E+02  0.00000000000E+00 0.  1.
         12    1    3    3    0    0  0.19651332696E+02 -0.31665975232E+02  0.12131960952E+02  0.39193026684E+02  0.00000000000E+00 0. -1.
         11    1    5    5    0    0 -0.30597967772E+02  0.80398928756E+00  0.76463038358E+03  0.76524277555E+03  0.00000000000E+00 0. -1.
        -12    1    5    5    0    0  0.48831644574E+02 -0.10041333536E+02  0.75424541120E+03  0.75589119469E+03  0.00000000000E+00 0.  1.
          5    1    4    4  501    0 -0.45434422467E+02  0.59981068652E+02  0.17469553835E+03  0.19025776952E+03  0.41800000000E+01 0.  1.
         -5    1    4    4    0  501  0.66950953951E+02  0.20638355983E+02  0.89567338106E+02  0.11378994871E+03  0.41800000000E+01 0.  1.
</event>
<event>
11    1  0.7157190E-009  0.1504382E+03  0.7561462E-02  0.1096432E+00
         22   -1    0    0    0    0  0.00000000000E+00  0.00000000000E+00  0.62690702071E+03  0.62690702071E+03  0.00000000000E+00 0.  1.
         22   -1    0    0    0    0 -0.00000000000E+00 -0.00000000000E+00 -0.17786463198E+04  0.17786463198E+04  0.00000000000E+00 0. -1.
         24    2    1    2    0    0  0.75542770986E+02 -0.31101345462E+02 -0.14054950730E+04  0.14101810005E+04  0.80746828088E+02 0.  0.
         25    2    1    2    0    0 -0.80229538488E+02  0.60318651158E+02 -0.34957116700E+03  0.38460712763E+03  0.12509006076E+03 0.  0.
        -24    2    1    2    0    0  0.46867675028E+01 -0.29217305696E+02  0.60332694082E+03  0.61076521238E+03  0.90305760566E+02 0.  0.
        -11    1    3    3    0    0  0.58852299985E+02  0.11048350746E+02 -0.50364308268E+03  0.50719031339E+03  0.00000000000E+00 0.  1.
         12    1    3    3    0    0  0.16690471001E+02 -0.42149696209E+02 -0.90185199028E+03  0.90299068715E+03  0.00000000000E+00 0. -1.
         11    1    5    5    0    0 -0.23919293111E+02  0.20244188797E+02  0.33268415528E+03  0.33415671015E+03  0.00000000000E+00 0. -1.
        -12    1    5    5    0    0  0.28606060614E+02 -0.49461494493E+02  0.27064278554E+03  0.27660850223E+03  0.00000000000E+00 0.  1.
          5    1    4    4  501    0 -0.53729051854E+02  0.87097577123E+02 -0.32155145896E+03  0.33746942397E+03  0.41800000000E+01 0.  1.
         -5    1    4    4    0  501 -0.26500486634E+02 -0.26778925965E+02 -0.28019708042E+02  0.47137703661E+02  0.41800000000E+01 0.  1.
</event>
<event>
11    1  0.7157190E-009  0.3455017E+03  0.7561462E-02  0.9825834E-01
         22   -1    0    0    0    0  0.00000000000E+00  0.00000000000E+00  0.25675175873E+04  0.25675175873E+04  0.00000000000E+00 0.  1.
         22   -1    0    0    0    0 -0.00000000000E+00 -0.00000000000E+00 -0.89462896152E+03  0.89462896152E+03  0.00000000000E+00 0.  1.
         24    2    1    2    0    0  0.21280619433E+03  0.19081257845E+03 -0.80857829508E+03  0.86147245597E+03  0.81486297443E+02 0.  0.
         25    2    1    2    0    0  0.17593752271E+03 -0.11630898172E+03  0.32727362402E+03  0.40894672629E+03  0.12509040266E+03 0.  0.
        -24    2    1    2    0    0 -0.38874371705E+03 -0.74503596734E+02  0.21541932969E+04  0.21917273666E+04  0.80297109100E+02 0.  0.
        -11    1    3    3    0    0  0.17969958800E+03  0.18531800981E+03 -0.64999289548E+03  0.69937505736E+03  0.00000000000E+00 0.  1.
         12    1    3    3    0    0  0.33106606335E+02  0.54945686435E+01 -0.15858539960E+03  0.16209739861E+03  0.00000000000E+00 0. -1.
         11    1    5    5    0    0 -0.14431556078E+03  0.72597894533E+00  0.63820858279E+03  0.65432232368E+03  0.00000000000E+00 0. -1.
        -12    1    5    5    0    0 -0.24442815627E+03 -0.75229575680E+02  0.15159847141E+04  0.15374050429E+04  0.00000000000E+00 0.  1.
          5    1    4    4  501    0  0.13716264885E+03 -0.85516353782E+02  0.32026145310E+03  0.35876386349E+03  0.41800000000E+01 0.  1.
         -5    1    4    4    0  501  0.38774873861E+02 -0.30792627938E+02  0.70121709253E+01  0.50182862805E+02  0.41800000000E+01 0.  1.
</event>
<event>
11    1  0.7157190E-009  0.1544064E+03  0.7561462E-02  0.1092460E+00
         22   -1    0    0    0    0  0.00000000000E+00  0.00000000000E+00  0.73838945167E+03  0.73838945167E+03  0.00000000000E+00 0. -1.
         22   -1    0    0    0    0 -0.00000000000E+00 -0.00000000000E+00 -0.17664109811E+04  0.17664109811E+04  0.00000000000E+00 0.  1.
         24    2    1    2    0    0 -0.36325588815E+02  0.30224325621E+02 -0.16418614803E+04  0.16456528520E+04  0.10114905058E+03 0.  0.
         25    2    1    2    0    0 -0.26928687280E+02 -0.95178403989E+02 -0.62754901221E+02  0.17137475912E+03  0.12508815952E+03 0.  0.
        -24    2    1    2    0    0  0.63254276095E+02  0.64954078368E+02  0.67659485209E+03  0.68777282169E+03  0.83849416487E+02 0.  0.
        -11    1    3    3    0    0 -0.16442196043E+02  0.14514404997E+02 -0.15553935266E+04  0.15555481466E+04  0.00000000000E+00 0.  1.
         12    1    3    3    0    0 -0.19883392772E+02  0.15709920624E+02 -0.86467953648E+02  0.90104705328E+02  0.00000000000E+00 0. -1.
         13    1    5    5    0    0  0.15200107795E+02  0.47335376820E+01  0.40895194190E+03  0.40926170166E+03  0.00000000000E+00 0. -1.
        -14    1    5    5    0    0  0.48054168300E+02  0.60220540686E+02  0.26764291018E+03  0.27851112003E+03  0.00000000000E+00 0.  1.
          5    1    4    4  501    0 -0.13984531993E+01 -0.85070252443E+02 -0.95808065193E+02  0.12820125303E+03  0.41800000000E+01 0.  1.
         -5    1    4    4    0  501 -0.25530234081E+02 -0.10108151546E+02  0.33053163971E+02  0.43173506094E+02  0.41800000000E+01 0.  1.
</event>
<event>
11    1  0.7157190E-009  0.1325214E+03  0.7561462E-02  0.1116209E+00
         22   -1    0    0    0    0  0.00000000000E+00  0.00000000000E+00  0.65908948477E+03  0.65908948477E+03  0.00000000000E+00 0.  1.
         22   -1    0    0    0    0 -0.00000000000E+00 -0.00000000000E+00 -0.87321231162E+03  0.87321231162E+03  0.00000000000E+00 0.  1.
        -24    2    1    2    0    0 -0.43109769882E+02 -0.12030363384E+02 -0.81486762296E+03  0.81993198921E+03  0.79221474791E+02 0.  0.
         25    2    1    2    0    0  0.45069780975E+01  0.29589874145E+02  0.26468698971E+02  0.13131576605E+03  0.12508942755E+03 0.  0.
         24    2    1    2    0    0  0.38602791785E+02 -0.17559510761E+02  0.57427609715E+03  0.58105404113E+03  0.77667567270E+02 0.  0.
        -11    1    5    5    0    0  0.28173139627E+02  0.27492320151E+02  0.33888736888E+03  0.34116594532E+03  0.00000000000E+00 0.  1.
         12    1    5    5    0    0  0.10429652158E+02 -0.45051830912E+02  0.23538872827E+03  0.23988809581E+03  0.00000000000E+00 0. -1.
         13    1    3    3    0    0  0.81434954792E+01 -0.24246157642E+02 -0.10341480112E+03  0.10653081136E+03  0.00000000000E+00 0. -1.
        -14    1    3    3    0    0 -0.51253265362E+02  0.12215794258E+02 -0.71145282184E+03  0.71340117784E+03  0.00000000000E+00 0.  1.
          5    1    4    4  501    0  0.28522521152E+02 -0.42935105627E+02  0.56543324853E+01  0.52023085106E+02  0.41800000000E+01 0.  1.
         -5    1    4    4    0  501 -0.24015543055E+02  0.72524979772E+02  0.20814366485E+02  0.79292680944E+02  0.41800000000E+01 0.  1.
</event>
<event>
11    1  0.7157190E-009  0.1327980E+03  0.7561462E-02  0.1115878E+00
         22   -1    0    0    0    0  0.00000000000E+00  0.00000000000E+00  0.66671298527E+03  0.66671298527E+03  0.00000000000E+00 0.  1.
         22   -1    0    0    0    0 -0.00000000000E+00 -0.00000000000E+00 -0.36170381737E+03  0.36170381737E+03  0.00000000000E+00 0. -1.
         24    2    1    2    0    0  0.47360994660E+01  0.44413457510E+01 -0.30645012208E+03  0.31673584725E+03  0.79798267014E+02 0.  0.
         25    2    1    2    0    0 -0.19495181339E+02  0.37853347621E+02  0.48258905495E+02  0.14067202603E+03  0.12508700542E+03 0.  0.
        -24    2    1    2    0    0  0.14759081873E+02 -0.42294693372E+02  0.56320038449E+03  0.57100892937E+03  0.82763837204E+02 0.  0.
        -13    1    3    3    0    0 -0.20941709417E+02  0.32656210384E+02 -0.11064653718E+03  0.11725032819E+03  0.00000000000E+00 0.  1.
         14    1    3    3    0    0  0.25677808883E+02 -0.28214864633E+02 -0.19580358490E+03  0.19948551906E+03  0.00000000000E+00 0. -1.
         11    1    5    5    0    0  0.76234943804E+01 -0.25225179853E+02  0.42679896020E+02  0.50159753682E+02  0.00000000000E+00 0. -1.
        -12    1    5    5    0    0  0.71355874926E+01 -0.17069513519E+02  0.52052048847E+03  0.52084917569E+03  0.00000000000E+00 0.  1.
          5    1    4    4  501    0 -0.31887311555E+02  0.52717783526E+02  0.81335933170E+02  0.10212233724E+03  0.41800000000E+01 0. -1.
         -5    1    4    4    0  501  0.12392130216E+02 -0.14864435904E+02 -0.33077027675E+02  0.38549688791E+02  0.41800000000E+01 0. -1.
</event>
<event>
11    1  0.7157190E-009  0.1699025E+03  0.7561462E-02  0.1078117E+00
         22   -1    0    0    0    0  0.00000000000E+00  0.00000000000E+00  0.11726540954E+04  0.11726540954E+04  0.00000000000E+00 0. -1.
         22   -1    0    0    0    0 -0.00000000000E+00 -0.00000000000E+00 -0.11667993913E+04  0.11667993913E+04  0.00000000000E+00 0. -1.
         24    2    1    2    0    0 -0.11510393569E+03  0.10970476941E+02 -0.11195811067E+04  0.11286647850E+04  0.83982587973E+02 0.  0.
         25    2    1    2    0    0  0.93550920155E+02 -0.37361035137E+01  0.10878961075E+03  0.19039158602E+03  0.12509213999E+03 0.  0.
        -24    2    1    2    0    0  0.21553015539E+02 -0.72343734270E+01  0.10166462000E+04  0.10203971157E+04  0.84403253348E+02 0.  0.
        -11    1    3    3    0    0 -0.82946275407E+00 -0.39296420325E+01 -0.96814648798E+00  0.41312713039E+01  0.00000000000E+00 0.  1.
         12    1    3    3    0    0 -0.11427447294E+03  0.14900118973E+02 -0.11186129602E+04  0.11245335137E+04  0.00000000000E+00 0. -1.
         11    1    5    5    0    0  0.31004337830E+02 -0.83827186147E+01  0.10042653847E+04  0.10047788323E+04  0.00000000000E+00 0. -1.
        -12    1    5    5    0    0 -0.94513222905E+01  0.11483451877E+01  0.12380815299E+02  0.15618283426E+02  0.00000000000E+00 0.  1.
          5    1    4    4  501    0  0.58083770495E+02  0.59466322450E+02  0.51099849872E+02  0.97665935502E+02  0.41800000000E+01 0.  1.
         -5    1    4    4    0  501  0.35467149660E+02 -0.63202425963E+02  0.57689760880E+02  0.92725650513E+02  0.41800000000E+01 0.  1.
</event>
<event>
11    1  0.7157190E-009  0.1826628E+03  0.7561462E-02  0.1067509E+00
         22   -1    0    0    0    0  0.00000000000E+00  0.00000000000E+00  0.91299434072E+03  0.91299434072E+03  0.00000000000E+00 0.  1.
         22   -1    0    0    0    0 -0.00000000000E+00 -0.00000000000E+00 -0.87131566495E+03  0.87131566495E+03  0.00000000000E+00 0. -1.
        -24    2    1    2    0    0  0.87978584191E+02 -0.31243687959E+02 -0.83234455485E+03  0.84143349700E+03  0.80600698254E+02 0.  0.
         25    2    1    2    0    0  0.69588586612E+02  0.70461035618E+02  0.28539511144E+03  0.32696322909E+03  0.12508898679E+03 0.  0.
         24    2    1    2    0    0 -0.15756717080E+03 -0.39217347659E+02  0.58862811918E+03  0.61591327958E+03  0.80626866452E+02 0.  0.
        -13    1    5    5    0    0 -0.15101870213E+03 -0.16397576863E+02  0.44198807293E+03  0.46736386845E+03  0.00000000000E+00 0.  1.
         14    1    5    5    0    0 -0.65484686737E+01 -0.22819770796E+02  0.14664004625E+03  0.14854941113E+03  0.00000000000E+00 0. -1.
         11    1    3    3    0    0  0.59604643984E+02 -0.28737564695E+02 -0.77059475082E+03  0.77343056004E+03  0.00000000000E+00 0. -1.
        -12    1    3    3    0    0  0.28373940208E+02 -0.25061232641E+01 -0.61749804029E+02  0.68002936954E+02  0.00000000000E+00 0.  1.
          5    1    4    4  501    0  0.49199481540E+01 -0.27986096082E+02  0.12298038824E+03  0.12628965023E+03  0.41800000000E+01 0.  1.
         -5    1    4    4    0  501  0.64668638458E+02  0.98447131700E+02  0.16241472320E+03  0.20067357886E+03  0.41800000000E+01 0.  1.
</event>
<event>
11    1  0.7157190E-009  0.1432929E+03  0.7561462E-02  0.1103936E+00
         22   -1    0    0    0    0  0.00000000000E+00  0.00000000000E+00  0.83044410491E+03  0.83044410491E+03  0.00000000000E+00 0.  1.
         22   -1    0    0    0    0 -0.00000000000E+00 -0.00000000000E+00 -0.45464496623E+03  0.45464496623E+03  0.00000000000E+00 0.  1.
         24    2    1    2    0    0 -0.30314795150E+02 -0.73884040708E+02 -0.30276693080E+03  0.32361158833E+03  0.81723970986E+02 0.  0.
         25    2    1    2    0    0  0.16053281479E+02  0.36850345792E+02 -0.10785804037E+03  0.16998999535E+03  0.12509031064E+03 0.  0.
        -24    2    1    2    0    0  0.14261513671E+02  0.37033694916E+02  0.78642410985E+03  0.79148748747E+03  0.80091678263E+02 0.  0.
        -11    1    3    3    0    0 -0.12850817281E+02 -0.85577777386E+02 -0.27784966616E+03  0.29101397986E+03  0.00000000000E+00 0.  1.
         12    1    3    3    0    0 -0.17463977869E+02  0.11693736678E+02 -0.24917264643E+02  0.32597608467E+02  0.00000000000E+00 0. -1.
         11    1    5    5    0    0  0.17489491912E+02 -0.22798439447E+02  0.20981069508E+03  0.21176916427E+03  0.00000000000E+00 0. -1.
        -12    1    5    5    0    0 -0.32279782407E+01  0.59832134363E+02  0.57661341478E+03  0.57971832319E+03  0.00000000000E+00 0.  1.
          5    1    4    4  501    0 -0.14753319055E+02 -0.42927579031E+02 -0.41802436485E+02  0.61849442687E+02  0.41800000000E+01 0.  1.
         -5    1    4    4    0  501  0.30806600534E+02  0.79777924823E+02 -0.66055603882E+02  0.10814055266E+03  0.41800000000E+01 0.  1.
</event>
<event>
11    1  0.7157190E-009  0.1295072E+03  0.7561462E-02  0.1119876E+00
         22   -1    0    0    0    0  0.00000000000E+00  0.00000000000E+00  0.49744835185E+03  0.49744835185E+03  0.00000000000E+00 0. -1.
         22   -1    0    0    0    0 -0.00000000000E+00 -0.00000000000E+00 -0.26265849665E+03  0.26265849665E+03  0.00000000000E+00 0. -1.
         24    2    1    2    0    0 -0.19927887396E+02  0.13168967049E+02 -0.70800244637E+02  0.11016167356E+03  0.80946755908E+02 0.  0.
         25    2    1    2    0    0  0.24108868295E+02 -0.46041135244E+02 -0.14055768632E+03  0.19520608733E+03  0.12509168511E+03 0.  0.
        -24    2    1    2    0    0 -0.41809808998E+01  0.32872168195E+02  0.44614778615E+03  0.45473908761E+03  0.81496813862E+02 0.  0.
        -11    1    3    3    0    0  0.30589543763E+02  0.13973671643E+02 -0.24238524220E+02  0.41454670945E+02  0.00000000000E+00 0.  1.
         12    1    3    3    0    0 -0.50517431159E+02 -0.80470459337E+00 -0.46561720417E+02  0.68707002617E+02  0.00000000000E+00 0. -1.
         13    1    5    5    0    0  0.12484430803E+02  0.84442078829E+01  0.39765891712E+03  0.39794444339E+03  0.00000000000E+00 0. -1.
        -14    1    5    5    0    0 -0.16665411703E+02  0.24427960312E+02  0.48488869029E+02  0.56794644218E+02  0.00000000000E+00 0.  1.
          5    1    4    4  501    0  0.26605206323E+01  0.21321250063E+02 -0.11926381226E+03  0.12125594167E+03  0.41800000000E+01 0.  1.
         -5    1    4    4    0  501  0.21448347663E+02 -0.67362385307E+02 -0.21293874052E+02  0.73950145665E+02  0.41800000000E+01 0.  1.
</event>
<event>
11    1  0.7157190E-009  0.1269756E+03  0.7561462E-02  0.1123042E+00
         22   -1    0    0    0    0  0.00000000000E+00  0.00000000000E+00  0.13526357775E+04  0.13526357775E+04  0.00000000000E+00 0.  1.
         22   -1    0    0    0    0 -0.00000000000E+00 -0.00000000000E+00 -0.23373389060E+03  0.23373389060E+03  0.00000000000E+00 0.  1.
         24    2    1    2    0    0  0.12330326282E+02  0.44457980734E+02 -0.18331107266E+03  0.20551345622E+03  0.80649130981E+02 0.  0.
         25    2    1    2    0    0  0.10011028292E+02 -0.44261031307E+02  0.81897128684E+02  0.15625205773E+03  0.12509319038E+03 0.  0.
        -24    2    1    2    0    0 -0.22341354574E+02 -0.19694942622E+00  0.12203158308E+04  0.12246041541E+04  0.99927135318E+02 0.  0.
        -13    1    3    3    0    0  0.14877543350E+02  0.42102011183E+02 -0.19149083023E+03  0.19662822459E+03  0.00000000000E+00 0.  1.
         14    1    3    3    0    0 -0.25472170673E+01  0.23559695503E+01  0.81797575656E+01  0.88852316313E+01  0.00000000000E+00 0. -1.
         11    1    5    5    0    0  0.26058727593E+01  0.44112783071E+02  0.34593475817E+03  0.34874573132E+03  0.00000000000E+00 0. -1.
        -12    1    5    5    0    0 -0.24947227334E+02 -0.44309732497E+02  0.87438107267E+03  0.87585842280E+03  0.00000000000E+00 0.  1.
          5    1    4    4  501    0 -0.30475476574E+02 -0.72765292492E+02  0.30281039175E+02  0.84604705528E+02  0.41800000000E+01 0.  1.
         -5    1    4    4    0  501  0.40486504866E+02  0.28504261185E+02  0.51616089508E+02  0.71647352206E+02  0.41800000000E+01 0.  1.
</event>
<event>
11    1  0.7157190E-009  0.1341381E+03  0.7561462E-02  0.1114287E+00
         22   -1    0    0    0    0  0.00000000000E+00  0.00000000000E+00  0.26308155268E+03  0.26308155268E+03  0.00000000000E+00 0.  1.
         22   -1    0    0    0    0 -0.00000000000E+00 -0.00000000000E+00 -0.14488555130E+04  0.14488555130E+04  0.00000000000E+00 0. -1.
         24    2    1    2    0    0  0.21021719012E+02 -0.44455973110E+02 -0.13820837361E+04  0.13854180768E+04  0.82519983364E+02 0.  0.
         25    2    1    2    0    0 -0.26091848427E+02  0.39831315365E+01  0.21252699789E+02  0.12959762213E+03  0.12508883453E+03 0.  0.
        -24    2    1    2    0    0  0.50701294151E+01  0.40472841573E+02  0.17505707596E+03  0.19692136680E+03  0.80431882618E+02 0.  0.
        -11    1    3    3    0    0 -0.55309108614E+01 -0.30596013317E+02 -0.16143122213E+03  0.16439813406E+03  0.00000000000E+00 0.  1.
         12    1    3    3    0    0  0.26552629873E+02 -0.13859959792E+02 -0.12206525140E+04  0.12210199427E+04  0.00000000000E+00 0. -1.
         13    1    5    5    0    0  0.37801298762E+02  0.28711826597E+02  0.58778933242E+02  0.75553095024E+02  0.00000000000E+00 0. -1.
        -14    1    5    5    0    0 -0.32731169347E+02  0.11761014976E+02  0.11627814272E+03  0.12136827178E+03  0.00000000000E+00 0.  1.
          5    1    4    4  501    0  0.14671205614E+02 -0.44354117759E+02  0.41957716282E+02  0.62932141168E+02  0.41800000000E+01 0. -1.
         -5    1    4    4    0  501 -0.40763054041E+02  0.48337249296E+02 -0.20705016494E+02  0.66665480965E+02  0.41800000000E+01 0. -1.
</event>
<event>
11    1  0.7157190E-009  0.1717556E+03  0.7561462E-02  0.1076514E+00
         22   -1    0    0    0    0  0.00000000000E+00  0.00000000000E+00  0.39698354002E+04  0.39698354002E+04  0.00000000000E+00 0. -1.
         22   -1    0    0    0    0 -0.00000000000E+00 -0.00000000000E+00 -0.65976774292E+03  0.65976774292E+03  0.00000000000E+00 0. -1.
        -24    2    1    2    0    0  0.45481197881E+02 -0.35427068125E+02 -0.62000512107E+03  0.62690139664E+03  0.72631910605E+02 0.  0.
         25    2    1    2    0    0  0.49928966571E+02  0.10530578251E+03  0.17397769370E+03  0.24392125427E+03  0.12508849207E+03 0.  0.
         24    2    1    2    0    0 -0.95410164452E+02 -0.69878714380E+02  0.37560950847E+04  0.37587804922E+04  0.78704316558E+02 0.  0.
        -13    1    5    5    0    0  0.76476280488E+01  0.60011602491E+01  0.61855063736E+03  0.61862702100E+03  0.00000000000E+00 0.  1.
         14    1    5    5    0    0 -0.10305779250E+03 -0.75879874629E+02  0.31375444473E+04  0.31401534712E+04  0.00000000000E+00 0. -1.
         11    1    3    3    0    0  0.35075009006E+02  0.15857063783E+02 -0.32726053105E+03  0.32951655180E+03  0.00000000000E+00 0. -1.
        -12    1    3    3    0    0  0.10406188875E+02 -0.51284131908E+02 -0.29274459002E+03  0.29738484484E+03  0.00000000000E+00 0.  1.
          5    1    4    4  501    0  0.41420182169E+02  0.88404515762E+02  0.35301039131E+02  0.10389718794E+03  0.41800000000E+01 0.  1.
         -5    1    4    4    0  501  0.85087844023E+01  0.16901266744E+02  0.13867665456E+03  0.14002406633E+03  0.41800000000E+01 0.  1.
</event>
<event>
11    1  0.7157190E-009  0.1540384E+03  0.7561462E-02  0.1092822E+00
         22   -1    0    0    0    0  0.00000000000E+00  0.00000000000E+00  0.44685899302E+03  0.44685899302E+03  0.00000000000E+00 0. -1.
         22   -1    0    0    0    0 -0.00000000000E+00 -0.00000000000E+00 -0.95333851262E+02  0.95333851262E+02  0.00000000000E+00 0. -1.
        -24    2    1    2    0    0 -0.61530701118E+02 -0.68128613800E+01  0.23726074406E+02  0.10401588222E+03  0.80149453442E+02 0.  0.
         25    2    1    2    0    0 -0.46098050107E+02  0.56572502027E+02  0.20150811979E+03  0.24814855924E+03  0.12508679747E+03 0.  0.
         24    2    1    2    0    0  0.10762875123E+03 -0.49759640647E+02  0.12629094757E+03  0.19002840283E+03  0.78111590151E+02 0.  0.
        -11    1    5    5    0    0 -0.10439811403E+02 -0.16376210407E+01 -0.35939461210E-02  0.10567472627E+02  0.00000000000E+00 0.  1.
         12    1    5    5    0    0  0.11806856263E+03 -0.48122019606E+02  0.12629454152E+03  0.17946093020E+03  0.00000000000E+00 0. -1.
         13    1    3    3    0    0 -0.27169375081E+02  0.44769270930E+01  0.51509776863E+02  0.58407832788E+02  0.00000000000E+00 0. -1.
        -14    1    3    3    0    0 -0.34361326037E+02 -0.11289788473E+02 -0.27783702457E+02  0.45608049432E+02  0.00000000000E+00 0.  1.
          5    1    4    4  501    0 -0.38617012019E+02  0.43942675508E+02  0.14363039726E+02  0.60382130289E+02  0.41800000000E+01 0. -1.
         -5    1    4    4    0  501 -0.74810380876E+01  0.12629826519E+02  0.18714508006E+03  0.18776642895E+03  0.41800000000E+01 0. -1.
</event>
<event>
11    1  0.7157190E-009  0.1419916E+03  0.7561462E-02  0.1105355E+00
         22   -1    0    0    0    0  0.00000000000E+00  0.00000000000E+00  0.24091571409E+04  0.24091571409E+04  0.00000000000E+00 0.  1.
         22   -1    0    0    0    0 -0.00000000000E+00 -0.00000000000E+00 -0.90438734633E+03  0.90438734633E+03  0.00000000000E+00 0. -1.
         24    2    1    2    0    0  0.39604323961E+02 -0.11319623567E+02 -0.89391675937E+03  0.89846399120E+03  0.80335138236E+02 0.  0.
         25    2    1    2    0    0 -0.24037195926E+02  0.75542676010E+02  0.87024060910E+03  0.88275158803E+03  0.12508863158E+03 0.  0.
        -24    2    1    2    0    0 -0.15567128035E+02 -0.64223052444E+02  0.15284459448E+04  0.15323289080E+04  0.86706055475E+02 0.  0.
        -11    1    3    3    0    0  0.15024182466E+02  0.33962996118E+02 -0.29342701701E+03  0.29576785741E+03  0.00000000000E+00 0.  1.
         12    1    3    3    0    0  0.24580141495E+02 -0.45282619684E+02 -0.60048974236E+03  0.60269613379E+03  0.00000000000E+00 0. -1.
         11    1    5    5    0    0 -0.24371677351E+02  0.29906082943E+01  0.88135850880E+03  0.88170048397E+03  0.00000000000E+00 0. -1.
        -12    1    5    5    0    0  0.88045493160E+01 -0.67213660738E+02  0.64708743601E+03  0.65062842400E+03  0.00000000000E+00 0.  1.
          5    1    4    4  501    0 -0.70935131331E+02  0.46652973836E+02  0.65682435096E+03  0.66230204080E+03  0.41800000000E+01 0.  1.
         -5    1    4    4    0  501  0.46897935405E+02  0.28889702174E+02  0.21341625814E+03  0.22044954723E+03  0.41800000000E+01 0.  1.
</event>
<event>
11    1  0.7157190E-009  0.1424835E+03  0.7561462E-02  0.1104816E+00
         22   -1    0    0    0    0  0.00000000000E+00  0.00000000000E+00  0.28263622555E+03  0.28263622555E+03  0.00000000000E+00 0. -1.
         22   -1    0    0    0    0 -0.00000000000E+00 -0.00000000000E+00 -0.23657938579E+03  0.23657938579E+03  0.00000000000E+00 0. -1.
        -24    2    1    2    0    0 -0.79383599259E+02 -0.19107201171E+02 -0.11301528597E+03  0.16050142271E+03  0.79507300680E+02 0.  0.
         25    2    1    2    0    0  0.39092076524E+02  0.12769261415E+02 -0.42076271941E+02  0.13823649759E+03  0.12509065561E+03 0.  0.
         24    2    1    2    0    0  0.40291522736E+02  0.63379397564E+01  0.20114839767E+03  0.22047769103E+03  0.80536687759E+02 0.  0.
        -11    1    5    5    0    0 -0.21922589085E+02  0.12003769075E+02  0.35291201683E+02  0.43245338482E+02  0.00000000000E+00 0.  1.
         12    1    5    5    0    0  0.62214111821E+02 -0.56658293187E+01  0.16585719598E+03  0.17723235255E+03  0.00000000000E+00 0. -1.
         11    1    3    3    0    0  0.91901866589E+01  0.12592213915E+02 -0.34896006992E+02  0.38219820593E+02  0.00000000000E+00 0. -1.
        -12    1    3    3    0    0 -0.88573785918E+02 -0.31699415087E+02 -0.78119278982E+02  0.12228160212E+03  0.00000000000E+00 0.  1.
          5    1    4    4  501    0  0.55404338065E+02  0.41906362186E+02 -0.66809900091E+02  0.96471856094E+02  0.41800000000E+01 0.  1.
         -5    1    4    4    0  501 -0.16312261541E+02 -0.29137100771E+02  0.24733628150E+02  0.41764641497E+02  0.41800000000E+01 0.  1.
</event>
<event>
11    1  0.7157190E-009  0.1541971E+03  0.7561462E-02  0.1092666E+00
         22   -1    0    0    0    0  0.00000000000E+00  0.00000000000E+00  0.24991063707E+03  0.24991063707E+03  0.00000000000E+00 0. -1.
         22   -1    0    0    0    0 -0.00000000000E+00 -0.00000000000E+00 -0.19629125785E+04  0.19629125785E+04  0.00000000000E+00 0.  1.
         24    2    1    2    0    0 -0.64864505008E+02  0.53135222199E+02 -0.14535972487E+04  0.14581929744E+04  0.79693371250E+02 0.  0.
         25    2    1    2    0    0  0.13399418786E+03 -0.58220417860E+02 -0.47593953332E+03  0.51333244818E+03  0.12509078120E+03 0.  0.
        -24    2    1    2    0    0 -0.69129682853E+02  0.50851956607E+01  0.21653484056E+03  0.24129779299E+03  0.80823978272E+02 0.  0.
        -11    1    3    3    0    0 -0.70719744937E+02  0.60001753475E+02 -0.14287639724E+04  0.14317709250E+04  0.00000000000E+00 0.  1.
         12    1    3    3    0    0  0.58552399292E+01 -0.68665312761E+01 -0.24833276244E+02  0.26422049417E+02  0.00000000000E+00 0. -1.
         13    1    5    5    0    0 -0.55499104771E+02  0.31760912441E+02  0.19264977916E+03  0.20298483588E+03  0.00000000000E+00 0. -1.
        -14    1    5    5    0    0 -0.13630578082E+02 -0.26675716781E+02  0.23885061398E+02  0.38312957111E+02  0.00000000000E+00 0.  1.
          5    1    4    4  501    0  0.38455194053E+02 -0.84686350558E+02 -0.22855046803E+03  0.24678607894E+03  0.41800000000E+01 0.  1.
         -5    1    4    4    0  501  0.95538993807E+02  0.26465932699E+02 -0.24738906528E+03  0.26654636924E+03  0.41800000000E+01 0.  1.
</event>
<event>
11    1  0.7157190E-009  0.1353961E+03  0.7561462E-02  0.1112811E+00
         22   -1    0    0    0    0  0.00000000000E+00  0.00000000000E+00  0.12009333754E+04  0.12009333754E+04  0.00000000000E+00 0.  1.
         22   -1    0    0    0    0 -0.00000000000E+00 -0.00000000000E+00 -0.10277312649E+04  0.10277312649E+04  0.00000000000E+00 0.  1.
        -24    2    1    2    0    0  0.19559764633E+02  0.81142375928E+01 -0.99693560097E+03  0.10005387471E+04  0.82150877797E+02 0.  0.
         25    2    1    2    0    0 -0.57161423787E+02  0.26480524290E+02  0.15664915207E+03  0.21013249401E+03  0.12509221263E+03 0.  0.
         24    2    1    2    0    0  0.37601659154E+02 -0.34594761883E+02  0.10134885594E+04  0.10179933992E+04  0.80875326569E+02 0.  0.
        -13    1    5    5    0    0  0.53889211941E+02 -0.35567573572E+02  0.95753005118E+03  0.95970458912E+03  0.00000000000E+00 0.  1.
         14    1    5    5    0    0 -0.16287552788E+02  0.97281168896E+00  0.55958508222E+02  0.58288810083E+02  0.00000000000E+00 0. -1.
         13    1    3    3    0    0  0.63130252308E+01 -0.26821474230E+02 -0.77427476377E+03  0.77476490343E+03  0.00000000000E+00 0. -1.
        -14    1    3    3    0    0  0.13246739402E+02  0.34935711823E+02 -0.22266083720E+03  0.22577384367E+03  0.00000000000E+00 0.  1.
          5    1    4    4  501    0  0.33654685461E+02  0.87348032646E+01  0.88377531063E+02  0.95063110818E+02  0.41800000000E+01 0. -1.
         -5    1    4    4    0  501 -0.90816109248E+02  0.17745721025E+02  0.68271621003E+02  0.11506938319E+03  0.41800000000E+01 0. -1.
</event>
<event>
11    1  0.7157190E-009  0.1860794E+03  0.7561462E-02  0.1064829E+00
         22   -1    0    0    0    0  0.00000000000E+00  0.00000000000E+00  0.31804465336E+03  0.31804465336E+03  0.00000000000E+00 0.  1.
         22   -1    0    0    0    0 -0.00000000000E+00 -0.00000000000E+00 -0.64955331348E+03  0.64955331348E+03  0.00000000000E+00 0.  1.
        -24    2    1    2    0    0 -0.15136845850E+02  0.13801174958E+03 -0.55700041624E+03  0.57961664950E+03  0.80184970956E+02 0.  0.
         25    2    1    2    0    0  0.59038386638E+02 -0.11969078506E+03  0.54636057755E+02  0.19090315431E+03  0.12508996919E+03 0.  0.
         24    2    1    2    0    0 -0.43901540788E+02 -0.18320964516E+02  0.17085569836E+03  0.19707816304E+03  0.85936777096E+02 0.  0.
        -11    1    5    5    0    0 -0.23699271616E+02  0.21352615250E+02  0.13828073476E+03  0.14191247746E+03  0.00000000000E+00 0.  1.
         12    1    5    5    0    0 -0.20202269172E+02 -0.39673579766E+02  0.32574963603E+02  0.55165685575E+02  0.00000000000E+00 0. -1.
         11    1    3    3    0    0 -0.42364239048E+02  0.42605134992E+02 -0.17911810931E+03  0.18892650254E+03  0.00000000000E+00 0. -1.
        -12    1    3    3    0    0  0.27227393199E+02  0.95406614585E+02 -0.37788230692E+03  0.39069014696E+03  0.00000000000E+00 0.  1.
          5    1    4    4  501    0  0.64752844209E+02 -0.54592156876E+02  0.83800864504E+02  0.11921951064E+03  0.41800000000E+01 0. -1.
         -5    1    4    4    0  501 -0.57144575715E+01 -0.65098628185E+02 -0.29164806749E+02  0.71683643669E+02  0.41800000000E+01 0. -1.
</event>
<event>
11    1  0.7157190E-009  0.1300490E+03  0.7561462E-02  0.1119209E+00
         22   -1    0    0    0    0  0.00000000000E+00  0.00000000000E+00  0.47143904018E+03  0.47143904018E+03  0.00000000000E+00 0.  1.
         22   -1    0    0    0    0 -0.00000000000E+00 -0.00000000000E+00 -0.13843159807E+03  0.13843159807E+03  0.00000000000E+00 0.  1.
        -24    2    1    2    0    0  0.38743132389E+02  0.10292726523E+02 -0.74003215089E+02  0.11753155898E+03  0.82037924076E+02 0.  0.
         25    2    1    2    0    0 -0.60665054446E+01 -0.23231913803E+02  0.72748114110E+02  0.14668257503E+03  0.12508783075E+03 0.  0.
         24    2    1    2    0    0 -0.32676626944E+02  0.12939187281E+02  0.33426254309E+03  0.34565650424E+03  0.80695642332E+02 0.  0.
        -13    1    5    5    0    0 -0.33118109260E+02 -0.29096012166E+02  0.13526847510E+03  0.14227068371E+03  0.00000000000E+00 0.  1.
         14    1    5    5    0    0  0.44148231626E+00  0.42035199447E+02  0.19899406799E+03  0.20338582053E+03  0.00000000000E+00 0. -1.
         13    1    3    3    0    0  0.16408360660E+02  0.10278844384E+02  0.15801259753E+02  0.24991373536E+02  0.00000000000E+00 0. -1.
        -14    1    3    3    0    0  0.22334771729E+02  0.13882138293E-01 -0.89804474842E+02  0.92540185447E+02  0.00000000000E+00 0.  1.
          5    1    4    4  501    0 -0.22324349980E+02 -0.11553584714E+02 -0.31460910652E+02  0.40486086756E+02  0.41800000000E+01 0.  1.
         -5    1    4    4    0  501  0.16257844535E+02 -0.11678329090E+02  0.10420902476E+03  0.10619648827E+03  0.41800000000E+01 0.  1.
</event>
<event>
11    1  0.7157190E-009  0.1720115E+03  0.7561462E-02  0.1076294E+00
         22   -1    0    0    0    0  0.00000000000E+00  0.00000000000E+00  0.93452074331E+02  0.93452074331E+02  0.00000000000E+00 0.  1.
         22   -1    0    0    0    0 -0.00000000000E+00 -0.00000000000E+00 -0.97730746126E+03  0.97730746126E+03  0.00000000000E+00 0.  1.
         24    2    1    2    0    0 -0.31925591857E+02  0.85766418798E+02 -0.43156767036E+03  0.44819983354E+03  0.79103190029E+02 0.  0.
         25    2    1    2    0    0 -0.86261553345E+02 -0.10558349332E+03 -0.44179514747E+03  0.47897941897E+03  0.12509756924E+03 0.  0.
        -24    2    1    2    0    0  0.11818714520E+03  0.19817074522E+02 -0.10492569099E+02  0.14358028308E+03  0.78385495778E+02 0.  0.
        -11    1    3    3    0    0 -0.54085640582E+02  0.45721202245E+02 -0.31729160950E+03  0.32509944681E+03  0.00000000000E+00 0.  1.
         12    1    3    3    0    0  0.22160048725E+02  0.40045216553E+02 -0.11427606086E+03  0.12310038673E+03  0.00000000000E+00 0. -1.
         13    1    5    5    0    0  0.86950083287E+02  0.41405057388E+02 -0.30028844757E+02  0.10087827952E+03  0.00000000000E+00 0. -1.
        -14    1    5    5    0    0  0.31237061915E+02 -0.21587982866E+02  0.19536275659E+02  0.42702003559E+02  0.00000000000E+00 0.  1.
          5    1    4    4  501    0 -0.52089709476E+02 -0.89469966033E+02 -0.42495659043E+03  0.43740574849E+03  0.41800000000E+01 0. -1.
         -5    1    4    4    0  501 -0.34171843869E+02 -0.16113527287E+02 -0.16838557032E+02  0.41573670489E+02  0.41800000000E+01 0. -1.
</event>
<event>
11    1  0.7157190E-009  0.1676254E+03  0.7561462E-02  0.1080117E+00
         22   -1    0    0    0    0  0.00000000000E+00  0.00000000000E+00  0.64769581021E+03  0.64769581021E+03  0.00000000000E+00 0.  1.
         22   -1    0    0    0    0 -0.00000000000E+00 -0.00000000000E+00 -0.64849541803E+03  0.64849541803E+03  0.00000000000E+00 0. -1.
         24    2    1    2    0    0 -0.10028707236E+03 -0.48564893388E+02 -0.59503179845E+03  0.61049418748E+03  0.78894017686E+02 0.  0.
         25    2    1    2    0    0  0.94871506265E+02  0.67874410602E+02  0.13183492668E+03  0.21595340584E+03  0.12509151565E+03 0.  0.
        -24    2    1    2    0    0  0.54155660957E+01 -0.19309517215E+02  0.46239726396E+03  0.46974363492E+03  0.80284911523E+02 0.  0.
        -13    1    3    3    0    0 -0.60827390705E+02 -0.23669277676E+02 -0.15760084589E+03  0.17058204123E+03  0.00000000000E+00 0.  1.
         14    1    3    3    0    0 -0.39459681655E+02 -0.24895615712E+02 -0.43743095256E+03  0.43991214625E+03  0.00000000000E+00 0. -1.
         11    1    5    5    0    0  0.28856109419E+02  0.20743837080E+02  0.16872709800E+03  0.17242916060E+03  0.00000000000E+00 0. -1.
        -12    1    5    5    0    0 -0.23440543324E+02 -0.40053354294E+02  0.29367016596E+03  0.29731447431E+03  0.00000000000E+00 0.  1.
          5    1    4    4  501    0  0.11401978719E+03  0.84994234325E+02  0.95869002880E+02  0.17156010566E+03  0.41800000000E+01 0.  1.
         -5    1    4    4    0  501 -0.19148280926E+02 -0.17119823722E+02  0.35965923799E+02  0.44393300186E+02  0.41800000000E+01 0.  1.
</event>
<event>
11    1  0.7157190E-009  0.1736645E+03  0.7561462E-02  0.1074886E+00
         22   -1    0    0    0    0  0.00000000000E+00  0.00000000000E+00  0.73427020670E+03  0.73427020670E+03  0.00000000000E+00 0.  1.
         22   -1    0    0    0    0 -0.00000000000E+00 -0.00000000000E+00 -0.30956454359E+03  0.30956454359E+03  0.00000000000E+00 0.  1.
        -24    2    1    2    0    0 -0.70651930555E+02 -0.84626011978E+02 -0.15960876046E+03  0.21121555385E+03  0.83569112589E+02 0.  0.
         25    2    1    2    0    0  0.11401867198E+03  0.10337755648E+03 -0.39129558457E+02  0.20213513955E+03  0.12506124720E+03 0.  0.
         24    2    1    2    0    0 -0.43366741429E+02 -0.18751544499E+02  0.62344398202E+03  0.63048405689E+03  0.81212391863E+02 0.  0.
        -13    1    5    5    0    0 -0.41398008178E+02 -0.11907137617E+02  0.62164865408E+03  0.62313932962E+03  0.00000000000E+00 0.  1.
         14    1    5    5    0    0 -0.19687332511E+01 -0.68444068825E+01  0.17953279417E+01  0.73447272656E+01  0.00000000000E+00 0. -1.
         13    1    3    3    0    0  0.14306759899E+02 -0.39540251108E+02 -0.44775584375E+02  0.61424488542E+02  0.00000000000E+00 0. -1.
        -14    1    3    3    0    0 -0.84958690454E+02 -0.45085760870E+02 -0.11483317609E+03  0.14979106531E+03  0.00000000000E+00 0.  1.
          5    1    4    4  501    0  0.15734550134E+02  0.80230130065E+02  0.21031873506E+02  0.84523735964E+02  0.41800000000E+01 0.  1.
         -5    1    4    4    0  501  0.98284121850E+02  0.23147426413E+02 -0.60161431963E+02  0.11761140358E+03  0.41800000000E+01 0.  1.
</event>
<event>
11    1  0.7157190E-009  0.2294460E+03  0.7561462E-02  0.1035456E+00
         22   -1    0    0    0    0  0.00000000000E+00  0.00000000000E+00  0.35578407342E+03  0.35578407342E+03  0.00000000000E+00 0. -1.
         22   -1    0    0    0    0 -0.00000000000E+00 -0.00000000000E+00 -0.20016862796E+04  0.20016862796E+04  0.00000000000E+00 0.  1.
         24    2    1    2    0    0 -0.11646611082E+03 -0.15052748112E+03 -0.16411963990E+04  0.16541053052E+04  0.79472404741E+02 0.  0.
         25    2    1    2    0    0  0.69706216773E+02  0.20528885950E+03 -0.29888226629E+03  0.38984658725E+03  0.12508908822E+03 0.  0.
        -24    2    1    2    0    0  0.46759894047E+02 -0.54761378389E+02  0.29417645910E+03  0.31351846055E+03  0.81047762234E+02 0.  0.
        -13    1    3    3    0    0 -0.90622468662E+02 -0.15485691874E+03 -0.14713106284E+04  0.14822105324E+04  0.00000000000E+00 0.  1.
         14    1    3    3    0    0 -0.25843642157E+02  0.43294376242E+01 -0.16988577056E+03  0.17189477278E+03  0.00000000000E+00 0. -1.
         11    1    5    5    0    0  0.25586158969E+02 -0.64995134559E+02  0.27325736153E+03  0.28204362194E+03  0.00000000000E+00 0. -1.
        -12    1    5    5    0    0  0.21173735078E+02  0.10233756170E+02  0.20919097575E+02  0.31474838615E+02  0.00000000000E+00 0.  1.
          5    1    4    4  501    0 -0.28478475762E+02  0.10599766922E+03 -0.14675225537E+03  0.18330364513E+03  0.41800000000E+01 0. -1.
         -5    1    4    4    0  501  0.98184692534E+02  0.99291190285E+02 -0.15213001092E+03  0.20654294212E+03  0.41800000000E+01 0. -1.
</event>
<event>
11    1  0.7157190E-009  0.2001380E+03  0.7561462E-02  0.1054426E+00
         22   -1    0    0    0    0  0.00000000000E+00  0.00000000000E+00  0.30546047364E+03  0.30546047364E+03  0.00000000000E+00 0.  1.
         22   -1    0    0    0    0 -0.00000000000E+00 -0.00000000000E+00 -0.89846918728E+03  0.89846918728E+03  0.00000000000E+00 0. -1.
        -24    2    1    2    0    0 -0.11592052374E+01 -0.17559130352E+02 -0.60202926728E+03  0.60788279885E+03  0.82295757261E+02 0.  0.
         25    2    1    2    0    0 -0.64826621031E+02  0.15747592580E+03 -0.22213450840E+03  0.30658338659E+03  0.12509386520E+03 0.  0.
         24    2    1    2    0    0  0.65985826269E+02 -0.13991679545E+03  0.23115506204E+03  0.28946347547E+03  0.80159852842E+02 0.  0.
        -13    1    5    5    0    0  0.71964909801E+02 -0.13002796616E+03  0.23432680895E+03  0.27748022203E+03  0.00000000000E+00 0.  1.
         14    1    5    5    0    0 -0.59790835323E+01 -0.98888292855E+01 -0.31717469078E+01  0.11983253438E+02  0.00000000000E+00 0. -1.
         11    1    3    3    0    0  0.19812143210E+02 -0.27789560541E+00 -0.53750143099E+03  0.53786651371E+03  0.00000000000E+00 0. -1.
        -12    1    3    3    0    0 -0.20971348448E+02 -0.17281234746E+02 -0.64527836287E+02  0.70016285148E+02  0.00000000000E+00 0.  1.
          5    1    4    4  501    0  0.20756023452E+02  0.10131430954E+03 -0.77326019001E+02  0.12919824860E+03  0.41800000000E+01 0. -1.
         -5    1    4    4    0  501 -0.85582644483E+02  0.56161616262E+02 -0.14480848940E+03  0.17738513799E+03  0.41800000000E+01 0. -1.
</event>
<event>
11    1  0.7157190E-009  0.3396872E+03  0.7561462E-02  0.9846662E-01
         22   -1    0    0    0    0  0.00000000000E+00  0.00000000000E+00  0.68140031415E+03  0.68140031415E+03  0.00000000000E+00 0. -1.
         22   -1    0    0    0    0 -0.00000000000E+00 -0.00000000000E+00 -0.15295273687E+03  0.15295273687E+03  0.00000000000E+00 0.  1.
         24    2    1    2    0    0  0.47788785215E+02 -0.13802591707E+03 -0.41107316570E+02  0.17119382424E+03  0.79262804693E+02 0.  0.
         25    2    1    2    0    0 -0.22879232769E+02 -0.47255747519E+02  0.24907261915E+03  0.28362239627E+03  0.12509168274E+03 0.  0.
        -24    2    1    2    0    0 -0.24909552446E+02  0.18528166459E+03  0.32048227470E+03  0.37953683052E+03  0.79934575049E+02 0.  0.
        -11    1    3    3    0    0  0.54970761316E+02 -0.10357245790E+03 -0.59494241979E+02  0.13148613411E+03  0.00000000000E+00 0.  1.
         12    1    3    3    0    0 -0.71819761007E+01 -0.34453459169E+02  0.18386925409E+02  0.39707690129E+02  0.00000000000E+00 0. -1.
         13    1    5    5    0    0 -0.36747733870E+02  0.43545599680E+02  0.12888589682E+03  0.14091908882E+03  0.00000000000E+00 0. -1.
        -14    1    5    5    0    0  0.11838181424E+02  0.14173606491E+03  0.19159637788E+03  0.23861774170E+03  0.00000000000E+00 0.  1.
          5    1    4    4  501    0 -0.55778688285E+02 -0.32201325900E+02  0.23641174638E+03  0.24506361150E+03  0.41800000000E+01 0. -1.
         -5    1    4    4    0  501  0.32899455516E+02 -0.15054421619E+02  0.12660872772E+02  0.38558784769E+02  0.41800000000E+01 0. -1.
</event>
<event>
11    1  0.7157190E-009  0.1945480E+03  0.7561462E-02  0.1058447E+00
         22   -1    0    0    0    0  0.00000000000E+00  0.00000000000E+00  0.12264419813E+04  0.12264419813E+04  0.00000000000E+00 0. -1.
         22   -1    0    0    0    0 -0.00000000000E+00 -0.00000000000E+00 -0.96495297588E+03  0.96495297588E+03  0.00000000000E+00 0.  1.
        -24    2    1    2    0    0  0.11329895831E+02  0.14617436438E+03 -0.82648870523E+03  0.84315634406E+03  0.79584730405E+02 0.  0.
         25    2    1    2    0    0  0.23371387762E+02 -0.17769435910E+03 -0.34856205087E+02  0.22132262158E+03  0.12508893144E+03 0.  0.
         24    2    1    2    0    0 -0.34701283593E+02  0.31519994715E+02  0.11228339157E+04  0.11269159915E+04  0.83582058590E+02 0.  0.
        -11    1    5    5    0    0  0.12878366242E+01 -0.22934007654E+02  0.13603248843E+03  0.13795820070E+03  0.00000000000E+00 0.  1.
         12    1    5    5    0    0 -0.35989120218E+02  0.54454002368E+02  0.98680142727E+03  0.98895779082E+03  0.00000000000E+00 0. -1.
         11    1    3    3    0    0  0.44100909046E+02  0.60848499392E+02 -0.34925757499E+03  0.35725100944E+03  0.00000000000E+00 0. -1.
        -12    1    3    3    0    0 -0.32771013214E+02  0.85325864991E+02 -0.47723113024E+03  0.48590533462E+03  0.00000000000E+00 0.  1.
          5    1    4    4  501    0 -0.96955772246E+00 -0.10732422161E+03 -0.80194059495E+02  0.13404472449E+03  0.41800000000E+01 0. -1.
         -5    1    4    4    0  501  0.24340945485E+02 -0.70370137491E+02  0.45337854408E+02  0.87277897086E+02  0.41800000000E+01 0. -1.
</event>
<event>
11    1  0.7157190E-009  0.1403279E+03  0.7561462E-02  0.1107193E+00
         22   -1    0    0    0    0  0.00000000000E+00  0.00000000000E+00  0.62294767157E+03  0.62294767157E+03  0.00000000000E+00 0.  1.
         22   -1    0    0    0    0 -0.00000000000E+00 -0.00000000000E+00 -0.59150591446E+03  0.59150591446E+03  0.00000000000E+00 0.  1.
         24    2    1    2    0    0  0.44584947440E+02 -0.43841428416E+01 -0.51278518687E+03  0.52112091073E+03  0.81310008541E+02 0.  0.
         25    2    1    2    0    0 -0.22433119367E+02 -0.56531332408E+02 -0.22307431834E+00  0.13908905881E+03  0.12508669046E+03 0.  0.
        -24    2    1    2    0    0 -0.22151828073E+02  0.60915475249E+02  0.54445001829E+03  0.55424361649E+03  0.80986204922E+02 0.  0.
        -11    1    3    3    0    0  0.45873405401E+02 -0.24605562472E+02 -0.47829302820E+03  0.48111747407E+03  0.00000000000E+00 0.  1.
         12    1    3    3    0    0 -0.12884579611E+01  0.20221419630E+02 -0.34492158664E+02  0.40003436666E+02  0.00000000000E+00 0. -1.
         13    1    5    5    0    0  0.26284324828E+02  0.85404099483E+00  0.15666307499E+03  0.15885500994E+03  0.00000000000E+00 0. -1.
        -14    1    5    5    0    0 -0.48436152901E+02  0.60061434254E+02  0.38778694330E+03  0.39538860654E+03  0.00000000000E+00 0.  1.
          5    1    4    4  501    0  0.50185219451E+02 -0.79709611395E+01  0.63699994622E+01  0.51382309854E+02  0.41800000000E+01 0.  1.
         -5    1    4    4    0  501 -0.72618338818E+02 -0.48560371268E+02 -0.65930737806E+01  0.87706748955E+02  0.41800000000E+01 0.  1.
</event>
<event>
11    1  0.7157190E-009  0.1676135E+03  0.7561462E-02  0.1080127E+00
         22   -1    0    0    0    0  0.00000000000E+00  0.00000000000E+00  0.74188612352E+02  0.74188612352E+02  0.00000000000E+00 0. -1.
         22   -1    0    0    0    0 -0.00000000000E+00 -0.00000000000E+00 -0.12388886557E+04  0.12388886557E+04  0.00000000000E+00 0. -1.
         24    2    1    2    0    0 -0.89856324494E+02  0.76483750509E+02 -0.96910765401E+03  0.97965594378E+03  0.81438320102E+02 0.  0.
         25    2    1    2    0    0  0.72678850471E+02 -0.37721927045E+02 -0.19063874627E+03  0.24227339190E+03  0.12509238888E+03 0.  0.
        -24    2    1    2    0    0  0.17177474022E+02 -0.38761823464E+02 -0.49536431194E+01  0.91147932425E+02  0.80534852289E+02 0.  0.
        -11    1    3    3    0    0  0.84602892594E+01 -0.19643980627E+01 -0.21150505368E+03  0.21168330847E+03  0.00000000000E+00 0.  1.
         12    1    3    3    0    0 -0.98316613753E+02  0.78448148572E+02 -0.75760260033E+03  0.76797263531E+03  0.00000000000E+00 0. -1.
         11    1    5    5    0    0  0.38967620757E+02 -0.14892640181E+02  0.23680010109E+02  0.47968834443E+02  0.00000000000E+00 0. -1.
        -12    1    5    5    0    0 -0.21790146735E+02 -0.23869183283E+02 -0.28633653228E+02  0.43179097982E+02  0.00000000000E+00 0.  1.
          5    1    4    4  501    0  0.69785797272E+02 -0.69484591121E+02 -0.79679569034E+02  0.12674569825E+03  0.41800000000E+01 0.  1.
         -5    1    4    4    0  501  0.28930531994E+01  0.31762664075E+02 -0.11095917724E+03  0.11552769364E+03  0.41800000000E+01 0.  1.
</event>
<event>
11    1  0.7157190E-009  0.2560298E+03  0.7561462E-02  0.1020735E+00
         22   -1    0    0    0    0  0.00000000000E+00  0.00000000000E+00  0.58577713264E+02  0.58577713264E+02  0.00000000000E+00 0. -1.
         22   -1    0    0    0    0 -0.00000000000E+00 -0.00000000000E+00 -0.42540135569E+04  0.42540135569E+04  0.00000000000E+00 0. -1.
        -24    2    1    2    0    0  0.89710220398E+02  0.19952262058E+03 -0.33281763004E+04  0.33363461447E+04  0.81184426355E+02 0.  0.
         25    2    1    2    0    0 -0.17725294354E+03 -0.19665733777E+03 -0.76689717070E+03  0.82089690760E+03  0.12509095888E+03 0.  0.
         24    2    1    2    0    0  0.87542723138E+02 -0.28652828110E+01 -0.10036237254E+03  0.15534821784E+03  0.79928247483E+02 0.  0.
        -11    1    5    5    0    0  0.42393352331E+02 -0.41264752796E+02 -0.46284252395E+02  0.75114633494E+02  0.00000000000E+00 0.  1.
         12    1    5    5    0    0  0.45149370807E+02  0.38399469985E+02 -0.54078120145E+02  0.80233584350E+02  0.00000000000E+00 0. -1.
         11    1    3    3    0    0  0.54767316169E+02  0.14885476646E+03 -0.28198506581E+04  0.28243078682E+04  0.00000000000E+00 0. -1.
        -12    1    3    3    0    0  0.34942904229E+02  0.50667854121E+02 -0.50832564223E+03  0.51203827645E+03  0.00000000000E+00 0.  1.
          5    1    4    4  501    0 -0.96917233616E+02 -0.15020039040E+03 -0.34152719449E+03  0.38550149730E+03  0.41800000000E+01 0. -1.
         -5    1    4    4    0  501 -0.80335709919E+02 -0.46456947366E+02 -0.42536997621E+03  0.43539541030E+03  0.41800000000E+01 0. -1.
</event>
<event>
11    1  0.7157190E-009  0.1345538E+03  0.7561462E-02  0.1113797E+00
         22   -1    0    0    0    0  0.00000000000E+00  0.00000000000E+00  0.13938189923E+04  0.13938189923E+04  0.00000000000E+00 0.  1.
         22   -1    0    0    0    0 -0.00000000000E+00 -0.00000000000E+00 -0.15749477347E+04  0.15749477347E+04  0.00000000000E+00 0.  1.
        -24    2    1    2    0    0 -0.42670444200E+02  0.22463830194E+02 -0.14334000069E+04  0.14364092588E+04  0.79439211535E+02 0.  0.
         25    2    1    2    0    0  0.83314198616E+02 -0.29242075005E+02 -0.96188962212E+02  0.18082158421E+03  0.12509106372E+03 0.  0.
         24    2    1    2    0    0 -0.40643754416E+02  0.67782448119E+01  0.13484602267E+04  0.13515358840E+04  0.81279784366E+02 0.  0.
        -13    1    5    5    0    0 -0.56980339852E+02 -0.17113124734E+02  0.10471587242E+04  0.10488474683E+04  0.00000000000E+00 0.  1.
         14    1    5    5    0    0  0.16336585436E+02  0.23891369545E+02  0.30130150255E+03  0.30268841571E+03  0.00000000000E+00 0. -1.
         13    1    3    3    0    0  0.45210634252E+01 -0.63346026586E+01 -0.14704628094E+02  0.16637105900E+02  0.00000000000E+00 0. -1.
        -14    1    3    3    0    0 -0.47191507625E+02  0.28798432852E+02 -0.14186953788E+04  0.14197721529E+04  0.00000000000E+00 0.  1.
          5    1    4    4  501    0  0.81059368714E+02 -0.68641864094E+02 -0.92595518086E+02  0.14097421442E+03  0.41800000000E+01 0.  1.
         -5    1    4    4    0  501  0.22548299022E+01  0.39399789088E+02 -0.35934441260E+01  0.39847369785E+02  0.41800000000E+01 0.  1.
</event>
<event>
11    1  0.7157190E-009  0.1400217E+03  0.7561462E-02  0.1107534E+00
         22   -1    0    0    0    0  0.00000000000E+00  0.00000000000E+00  0.82071056696E+03  0.82071056696E+03  0.00000000000E+00 0. -1.
         22   -1    0    0    0    0 -0.00000000000E+00 -0.00000000000E+00 -0.36888570078E+03  0.36888570078E+03  0.00000000000E+00 0. -1.
         24    2    1    2    0    0 -0.12735006227E+02 -0.20587935040E+02 -0.19421671966E+03  0.21280957638E+03  0.83556795956E+02 0.  0.
         25    2    1    2    0    0  0.55715882518E+02  0.65910298396E+02 -0.12655571365E+03  0.19776665686E+03  0.12508746903E+03 0.  0.
        -24    2    1    2    0    0 -0.42980876291E+02 -0.45322363356E+02  0.77259729950E+03  0.77902003450E+03  0.77872682081E+02 0.  0.
        -13    1    3    3    0    0 -0.38350538212E+02  0.35289548201E+01 -0.43757777798E+02  0.58292027080E+02  0.00000000000E+00 0.  1.
         14    1    3    3    0    0  0.25615531985E+02 -0.24116889860E+02 -0.15045894186E+03  0.15451754930E+03  0.00000000000E+00 0. -1.
         11    1    5    5    0    0 -0.23023864636E+02 -0.14753889187E+02  0.66177465329E+03  0.66233938983E+03  0.00000000000E+00 0. -1.
        -12    1    5    5    0    0 -0.19957011655E+02 -0.30568474168E+02  0.11082264621E+03  0.11668064467E+03  0.00000000000E+00 0.  1.
          5    1    4    4  501    0 -0.25072172101E+02  0.44926643403E+02 -0.95598151060E+02  0.10864389531E+03  0.41800000000E+01 0.  1.
         -5    1    4    4    0  501  0.80788054618E+02  0.20983654993E+02 -0.30957562595E+02  0.89122761558E+02  0.41800000000E+01 0.  1.
</event>
<event>
11    1  0.7157190E-009  0.1787328E+03  0.7561462E-02  0.1070672E+00
         22   -1    0    0    0    0  0.00000000000E+00  0.00000000000E+00  0.14461370711E+03  0.14461370711E+03  0.00000000000E+00 0.  1.
         22   -1    0    0    0    0 -0.00000000000E+00 -0.00000000000E+00 -0.29803564257E+04  0.29803564257E+04  0.00000000000E+00 0. -1.
        -24    2    1    2    0    0  0.15469216669E+02  0.76835349209E+02 -0.27495933723E+04  0.27519405327E+04  0.82280102681E+02 0.  0.
         25    2    1    2    0    0 -0.13723034630E+03 -0.69618344421E+02 -0.96043477279E+02  0.22034090513E+03  0.12508750186E+03 0.  0.
         24    2    1    2    0    0  0.12176112963E+03 -0.72170047879E+01  0.98941309763E+01  0.15268869494E+03  0.91313120018E+02 0.  0.
        -11    1    5    5    0    0  0.31751672086E+02  0.16041562607E+02 -0.34598680834E+02  0.49624279607E+02  0.00000000000E+00 0.  1.
         12    1    5    5    0    0  0.90009457546E+02 -0.23258567395E+02  0.44492811810E+02  0.10306441533E+03  0.00000000000E+00 0. -1.
         13    1    3    3    0    0 -0.35332746068E+01  0.68227115986E+02 -0.26002312891E+04  0.26011286358E+04  0.00000000000E+00 0. -1.
        -14    1    3    3    0    0  0.19002491276E+02  0.86082332226E+01 -0.14936208319E+03  0.15081189691E+03  0.00000000000E+00 0.  1.
          5    1    4    4  501    0 -0.60510927845E+02 -0.96405042676E+02 -0.74733374556E+02  0.13622794983E+03  0.41800000000E+01 0. -1.
         -5    1    4    4    0  501 -0.76719418455E+02  0.26786698255E+02 -0.21310102722E+02  0.84112955302E+02  0.41800000000E+01 0. -1.
</event>
<event>
11    1  0.7157190E-009  0.1308814E+03  0.7561462E-02  0.1118191E+00
         22   -1    0    0    0    0  0.00000000000E+00  0.00000000000E+00  0.78156048529E+03  0.78156048529E+03  0.00000000000E+00 0.  1.
         22   -1    0    0    0    0 -0.00000000000E+00 -0.00000000000E+00 -0.30208712449E+03  0.30208712449E+03  0.00000000000E+00 0.  1.
         24    2    1    2    0    0 -0.68184594581E+01 -0.39173565239E+02 -0.25945157720E+03  0.27452537331E+03  0.80423877525E+02 0.  0.
         25    2    1    2    0    0  0.21516326672E+02  0.13420914540E+02  0.93922669338E+02  0.15847098780E+03  0.12509401624E+03 0.  0.
        -24    2    1    2    0    0 -0.14697867214E+02  0.25752650699E+02  0.64500226866E+03  0.65065124866E+03  0.80248953154E+02 0.  0.
        -11    1    3    3    0    0  0.31877234557E+02 -0.33434371722E+02 -0.18179240378E+03  0.18756996925E+03  0.00000000000E+00 0.  1.
         12    1    3    3    0    0 -0.38695694015E+02 -0.57391935171E+01 -0.77659173427E+02  0.86955404058E+02  0.00000000000E+00 0. -1.
         13    1    5    5    0    0  0.26408870556E+02  0.34511524061E+02  0.31512579151E+03  0.31810806059E+03  0.00000000000E+00 0. -1.
        -14    1    5    5    0    0 -0.41106737770E+02 -0.87588733622E+01  0.32987647716E+03  0.33254318807E+03  0.00000000000E+00 0.  1.
          5    1    4    4  501    0 -0.21156536206E+02  0.75622387463E+01  0.10996736687E+03  0.11231687610E+03  0.41800000000E+01 0.  1.
         -5    1    4    4    0  501  0.42672862878E+02  0.58586757939E+01 -0.16044697535E+02  0.46154111705E+02  0.41800000000E+01 0.  1.
</event>
<event>
11    1  0.7157190E-009  0.1747823E+03  0.7561462E-02  0.1073943E+00
         22   -1    0    0    0    0  0.00000000000E+00  0.00000000000E+00  0.11589040644E+03  0.11589040644E+03  0.00000000000E+00 0.  1.
         22   -1    0    0    0    0 -0.00000000000E+00 -0.00000000000E+00 -0.10012259221E+04  0.10012259221E+04  0.00000000000E+00 0.  1.
        -24    2    1    2    0    0  0.59919553690E+02 -0.42686368274E+02 -0.71374229607E+03  0.72195575290E+03  0.79872179128E+02 0.  0.
         25    2    1    2    0    0 -0.11541399648E+03 -0.67660991335E+02 -0.16877029616E+03  0.24905560729E+03  0.12508749868E+03 0.  0.
         24    2    1    2    0    0  0.55494442786E+02  0.11034735961E+03 -0.28229233851E+01  0.14610496830E+03  0.77990511685E+02 0.  0.
        -11    1    5    5    0    0  0.66866582896E+02  0.48671492468E+02  0.52547113730E+01  0.82871382750E+02  0.00000000000E+00 0.  1.
         12    1    5    5    0    0 -0.11372140110E+02  0.61675867142E+02 -0.80776347581E+01  0.63233585551E+02  0.00000000000E+00 0. -1.
         13    1    3    3    0    0  0.50232816362E+01 -0.52366759371E+02 -0.32257209758E+03  0.32683370233E+03  0.00000000000E+00 0. -1.
        -14    1    3    3    0    0  0.54896272054E+02  0.96803910965E+01 -0.39117019850E+03  0.39512205057E+03  0.00000000000E+00 0.  1.
          5    1    4    4  501    0 -0.99142104646E+02 -0.32785950077E+02 -0.35647531998E+02  0.11041872293E+03  0.41800000000E+01 0.  1.
         -5    1    4    4    0  501 -0.16271891830E+02 -0.34875041259E+02 -0.13312276416E+03  0.13863688436E+03  0.41800000000E+01 0.  1.
</event>
<event>
11    1  0.7157190E-009  0.1465196E+03  0.7561462E-02  0.1100489E+00
         22   -1    0    0    0    0  0.00000000000E+00  0.00000000000E+00  0.17166756258E+03  0.17166756258E+03  0.00000000000E+00 0. -1.
         22   -1    0    0    0    0 -0.00000000000E+00 -0.00000000000E+00 -0.53746743408E+03  0.53746743408E+03  0.00000000000E+00 0. -1.
         24    2    1    2    0    0 -0.93782465542E+02  0.21915732694E+02 -0.36910948075E+03  0.38982190048E+03  0.80273626622E+02 0.  0.
         25    2    1    2    0    0  0.18977939925E+02 -0.45405803506E+00 -0.10424094329E+03  0.16393258761E+03  0.12508937065E+03 0.  0.
        -24    2    1    2    0    0  0.74804525617E+02 -0.21461674659E+02  0.10755055253E+03  0.15538050858E+03  0.80744415074E+02 0.  0.
        -13    1    3    3    0    0 -0.33547093344E+02  0.47633587891E+02 -0.14286719515E+03  0.15428999195E+03  0.00000000000E+00 0.  1.
         14    1    3    3    0    0 -0.60235372198E+02 -0.25717855197E+02 -0.22624228560E+03  0.23553190853E+03  0.00000000000E+00 0. -1.
         11    1    5    5    0    0  0.92404658203E+02 -0.18808964999E+02  0.92040450686E+02  0.13177193398E+03  0.00000000000E+00 0. -1.
        -12    1    5    5    0    0 -0.17600132586E+02 -0.26527096600E+01  0.15510101846E+02  0.23608574605E+02  0.00000000000E+00 0.  1.
          5    1    4    4  501    0 -0.37024833463E+02  0.36914751383E+02 -0.20287907633E+02  0.56237076372E+02  0.41800000000E+01 0. -1.
         -5    1    4    4    0  501  0.56002773388E+02 -0.37368809418E+02 -0.83953035653E+02  0.10769551123E+03  0.41800000000E+01 0. -1.
</event>
<event>
11    1  0.7157190E-009  0.1552686E+03  0.7561462E-02  0.1091614E+00
         22   -1    0    0    0    0  0.00000000000E+00  0.00000000000E+00  0.88737377886E+02  0.88737377886E+02  0.00000000000E+00 0.  1.
         22   -1    0    0    0    0 -0.00000000000E+00 -0.00000000000E+00 -0.16536263455E+04  0.16536263455E+04  0.00000000000E+00 0.  1.
        -24    2    1    2    0    0 -0.10460293031E+03 -0.64776047444E+02 -0.86987993586E+03  0.88218000839E+03  0.80079679270E+02 0.  0.
         25    2    1    2    0    0  0.29805180537E+02  0.56934122661E+02 -0.73065296839E+03  0.74406430838E+03  0.12509233259E+03 0.  0.
         24    2    1    2    0    0  0.74797749771E+02  0.78419247837E+01  0.35643936667E+02  0.11611940659E+03  0.80975472898E+02 0.  0.
        -11    1    5    5    0    0  0.35003128899E+01 -0.85998174261E+01  0.41680492976E+02  0.42702137474E+02  0.00000000000E+00 0.  1.
         12    1    5    5    0    0  0.71297436881E+02  0.16441742210E+02 -0.60365563094E+01  0.73417269118E+02  0.00000000000E+00 0. -1.
         13    1    3    3    0    0 -0.32598375187E+02 -0.26734229268E+01 -0.77556150496E+02  0.84171002933E+02  0.00000000000E+00 0. -1.
        -14    1    3    3    0    0 -0.72004555121E+02 -0.62102624518E+02 -0.79232378537E+03  0.79800900546E+03  0.00000000000E+00 0.  1.
          5    1    4    4  501    0 -0.38978058473E+02  0.25451622273E+02 -0.47845871695E+03  0.48073619621E+03  0.41800000000E+01 0. -1.
         -5    1    4    4    0  501  0.68783239011E+02  0.31482500388E+02 -0.25219425144E+03  0.26332811217E+03  0.41800000000E+01 0. -1.
</event>
<event>
11    1  0.7157190E-009  0.1321036E+03  0.7561462E-02  0.1116711E+00
         22   -1    0    0    0    0  0.00000000000E+00  0.00000000000E+00  0.38966180465E+03  0.38966180465E+03  0.00000000000E+00 0. -1.
         22   -1    0    0    0    0 -0.00000000000E+00 -0.00000000000E+00 -0.18365701970E+03  0.18365701970E+03  0.00000000000E+00 0.  1.
         24    2    1    2    0    0  0.13957485294E+02  0.44280454817E+02 -0.13341491625E+03  0.16221398260E+03  0.79738737122E+02 0.  0.
         25    2    1    2    0    0  0.29431839556E+01 -0.38589482781E+01  0.11750740779E+03  0.17169306473E+03  0.12508782425E+03 0.  0.
        -24    2    1    2    0    0 -0.16900669250E+02 -0.40421506539E+02  0.22191229341E+03  0.23941177703E+03  0.78443624342E+02 0.  0.
        -13    1    3    3    0    0 -0.21662830545E+02  0.49948315967E+02 -0.95181710435E+02  0.10965249882E+03  0.00000000000E+00 0.  1.
         14    1    3    3    0    0  0.35620315840E+02 -0.56678611501E+01 -0.38233205818E+02  0.52561483784E+02  0.00000000000E+00 0. -1.
         11    1    5    5    0    0  0.28010794265E+02 -0.29130051411E+02  0.13517060866E+03  0.14108245084E+03  0.00000000000E+00 0. -1.
        -12    1    5    5    0    0 -0.44911463515E+02 -0.11291455128E+02  0.86741684750E+02  0.98329326181E+02  0.00000000000E+00 0.  1.
          5    1    4    4  501    0  0.34966975638E+02 -0.41995500433E+02  0.13715461142E+02  0.56496882358E+02  0.41800000000E+01 0.  1.
         -5    1    4    4    0  501 -0.32023791682E+02  0.38136552154E+02  0.10379194665E+03  0.11519618237E+03  0.41800000000E+01 0.  1.
</event>
<event>
11    1  0.7157190E-009  0.1418775E+03  0.7561462E-02  0.1105480E+00
         22   -1    0    0    0    0  0.00000000000E+00  0.00000000000E+00  0.19170374899E+04  0.19170374899E+04  0.00000000000E+00 0. -1.
         22   -1    0    0    0    0 -0.00000000000E+00 -0.00000000000E+00 -0.17689131335E+03  0.17689131335E+03  0.00000000000E+00 0.  1.
         24    2    1    2    0    0  0.20349436129E+02  0.56334773033E+02 -0.13957087521E+03  0.17215308167E+03  0.81049047615E+02 0.  0.
         25    2    1    2    0    0 -0.13768282937E+02 -0.11856438607E+03  0.36714896291E+03  0.40582397383E+03  0.12509059724E+03 0.  0.
        -24    2    1    2    0    0 -0.65811531927E+01  0.62229613034E+02  0.15125680889E+04  0.15159517478E+04  0.79571613977E+02 0.  0.
        -11    1    3    3    0    0 -0.12867417028E+02  0.56124469239E+02 -0.12122717990E+03  0.13420713697E+03  0.00000000000E+00 0.  1.
         12    1    3    3    0    0  0.33216853157E+02  0.21030379354E+00 -0.18343695305E+02  0.37945944695E+02  0.00000000000E+00 0. -1.
         11    1    5    5    0    0  0.25921126550E+02  0.10131302860E+02  0.87278492932E+03  0.87322853879E+03  0.00000000000E+00 0. -1.
        -12    1    5    5    0    0 -0.32502279742E+02  0.52098310173E+02  0.63978315956E+03  0.64272320898E+03  0.00000000000E+00 0.  1.
          5    1    4    4  501    0 -0.44000777354E+02 -0.13224710172E+03  0.29831264163E+03  0.32929207230E+03  0.41800000000E+01 0.  1.
         -5    1    4    4    0  501  0.30232494418E+02  0.13682715653E+02  0.68836321275E+02  0.76531901538E+02  0.41800000000E+01 0.  1.
</event>
<event>
11    1  0.7157190E-009  0.1550167E+03  0.7561462E-02  0.1091860E+00
         22   -1    0    0    0    0  0.00000000000E+00  0.00000000000E+00  0.70065432197E+02  0.70065432197E+02  0.00000000000E+00 0.  1.
         22   -1    0    0    0    0 -0.00000000000E+00 -0.00000000000E+00 -0.11924114035E+04  0.11924114035E+04  0.00000000000E+00 0. -1.
         24    2    1    2    0    0  0.94925725864E+02 -0.53831636128E+01 -0.88362764617E+03  0.89236389566E+03  0.80471319861E+02 0.  0.
         25    2    1    2    0    0 -0.74254175835E+02  0.17141351624E+02 -0.24518632835E+03  0.28560681267E+03  0.12508959697E+03 0.  0.
        -24    2    1    2    0    0 -0.20671550029E+02 -0.11758188012E+02  0.64680031774E+01  0.84506127408E+02  0.80832434941E+02 0.  0.
        -11    1    3    3    0    0 -0.13315359998E+02 -0.10412659148E+01 -0.51040924931E+02  0.52759445263E+02  0.00000000000E+00 0.  1.
         12    1    3    3    0    0  0.10824108586E+03 -0.43418976980E+01 -0.83258672124E+03  0.83960445040E+03  0.00000000000E+00 0. -1.
         11    1    5    5    0    0 -0.42644069150E+02  0.15088718802E+02  0.16885481312E+02  0.48283595019E+02  0.00000000000E+00 0. -1.
        -12    1    5    5    0    0  0.21972519122E+02 -0.26846906814E+02 -0.10417478135E+02  0.36222532389E+02  0.00000000000E+00 0.  1.
          5    1    4    4  501    0 -0.20233735780E+02  0.64964205434E+02 -0.78748423113E+02  0.10415631807E+03  0.41800000000E+01 0.  1.
         -5    1    4    4    0  501 -0.54020440056E+02 -0.47822853810E+02 -0.16643790524E+03  0.18145049460E+03  0.41800000000E+01 0.  1.
</event>
<event>
11    1  0.7157190E-009  0.1303935E+03  0.7561462E-02  0.1118786E+00
         22   -1    0    0    0    0  0.00000000000E+00  0.00000000000E+00  0.57827382533E+03  0.57827382533E+03  0.00000000000E+00 0.  1.
         22   -1    0    0    0    0 -0.00000000000E+00 -0.00000000000E+00 -0.54274654436E+03  0.54274654436E+03  0.00000000000E+00 0. -1.
         24    2    1    2    0    0  0.57145685127E+02 -0.17249088624E+02 -0.51178624292E+03  0.51984652800E+03  0.68935432472E+02 0.  0.
         25    2    1    2    0    0 -0.51704788689E+02 -0.22769881964E+02  0.21115463150E+03  0.25184532777E+03  0.12509171843E+03 0.  0.
        -24    2    1    2    0    0 -0.54408964372E+01  0.40018970588E+02  0.33615889238E+03  0.34932851392E+03  0.86002839167E+02 0.  0.
        -11    1    3    3    0    0  0.35448786314E+02 -0.20810336977E+02 -0.10952233003E+03  0.11698216681E+03  0.00000000000E+00 0.  1.
         12    1    3    3    0    0  0.21696898812E+02  0.35612483536E+01 -0.40226391289E+03  0.40286436120E+03  0.00000000000E+00 0. -1.
         11    1    5    5    0    0 -0.19995298521E+01  0.59642831440E+02  0.14037204447E+03  0.15253057507E+03  0.00000000000E+00 0. -1.
        -12    1    5    5    0    0 -0.34413665851E+01 -0.19623860852E+02  0.19578684792E+03  0.19679793885E+03  0.00000000000E+00 0.  1.
          5    1    4    4  501    0 -0.78792692078E+02  0.21633815353E+02  0.15447182741E+03  0.17480082424E+03  0.41800000000E+01 0. -1.
         -5    1    4    4    0  501  0.27087903388E+02 -0.44403697317E+02  0.56682804086E+02  0.77044503532E+02  0.41800000000E+01 0. -1.
</event>
<event>
11    1  0.7157190E-009  0.2762117E+03  0.7561462E-02  0.1010794E+00
         22   -1    0    0    0    0  0.00000000000E+00  0.00000000000E+00  0.18879506542E+04  0.18879506542E+04  0.00000000000E+00 0. -1.
         22   -1    0    0    0    0 -0.00000000000E+00 -0.00000000000E+00 -0.39630943078E+03  0.39630943078E+03  0.00000000000E+00 0.  1.
         24    2    1    2    0    0  0.12935953353E+03 -0.19640697161E+03 -0.23709685651E+03  0.34413553947E+03  0.83094902048E+02 0.  0.
         25    2    1    2    0    0 -0.18998750027E+03  0.23256341422E+03  0.15084564997E+03  0.35857893629E+03  0.12507378441E+03 0.  0.
        -24    2    1    2    0    0  0.60627966736E+02 -0.36156442611E+02  0.15778924299E+04  0.15815456092E+04  0.80987374393E+02 0.  0.
        -11    1    3    3    0    0  0.13519784911E+03 -0.15053322355E+03 -0.20355941151E+03  0.28701070331E+03  0.00000000000E+00 0.  1.
         12    1    3    3    0    0 -0.58383155818E+01 -0.45873748053E+02 -0.33537444998E+02  0.57124836159E+02  0.00000000000E+00 0. -1.
         11    1    5    5    0    0  0.91502908236E+01 -0.12700240411E+02  0.11282533619E+04  0.11283619422E+04  0.00000000000E+00 0. -1.
        -12    1    5    5    0    0  0.51477675912E+02 -0.23456202201E+02  0.44963906804E+03  0.45318366702E+03  0.00000000000E+00 0.  1.
          5    1    4    4  501    0 -0.93745627717E+02  0.82313040277E+02 -0.10460125232E+00  0.12482452747E+03  0.41800000000E+01 0. -1.
         -5    1    4    4    0  501 -0.96241872549E+02  0.15025037394E+03  0.15095025122E+03  0.23375440883E+03  0.41800000000E+01 0. -1.
</event>
<event>
11    1  0.7157190E-009  0.1414789E+03  0.7561462E-02  0.1105918E+00
         22   -1    0    0    0    0  0.00000000000E+00  0.00000000000E+00  0.10998771928E+04  0.10998771928E+04  0.00000000000E+00 0.  1.
         22   -1    0    0    0    0 -0.00000000000E+00 -0.00000000000E+00 -0.39748433467E+03  0.39748433467E+03  0.00000000000E+00 0.  1.
         24    2    1    2    0    0 -0.42502407559E+02  0.49800706631E+02 -0.36450857588E+03  0.37842005793E+03  0.77773217292E+02 0.  0.
         25    2    1    2    0    0  0.63503778016E+02 -0.61692111594E+02  0.22240898774E+03  0.27009645068E+03  0.12509072062E+03 0.  0.
        -24    2    1    2    0    0 -0.21001370457E+02  0.11891404963E+02  0.84449244627E+03  0.84884501887E+03  0.82388780637E+02 0.  0.
        -13    1    3    3    0    0 -0.51413988480E+02  0.17448016830E+02 -0.12116375339E+03  0.13277231126E+03  0.00000000000E+00 0.  1.
         14    1    3    3    0    0  0.89115809209E+01  0.32352689801E+02 -0.24334482249E+03  0.24564774667E+03  0.00000000000E+00 0. -1.
         13    1    5    5    0    0 -0.31624303796E+02  0.95603728847E+01  0.12566573839E+03  0.12993604244E+03  0.00000000000E+00 0. -1.
        -14    1    5    5    0    0  0.10622933338E+02  0.23310320782E+01  0.71882670788E+03  0.71890897643E+03  0.00000000000E+00 0.  1.
          5    1    4    4  501    0  0.88951522623E+02 -0.81165900825E+02  0.18343384988E+03  0.21946691440E+03  0.41800000000E+01 0. -1.
         -5    1    4    4    0  501 -0.25447744607E+02  0.19473789232E+02  0.38975137866E+02  0.50629536284E+02  0.41800000000E+01 0. -1.
</event>
<event>
11    1  0.7157190E-009  0.1333648E+03  0.7561462E-02  0.1115203E+00
         22   -1    0    0    0    0  0.00000000000E+00  0.00000000000E+00  0.15110648750E+04  0.15110648750E+04  0.00000000000E+00 0. -1.
         22   -1    0    0    0    0 -0.00000000000E+00 -0.00000000000E+00 -0.77138588201E+02  0.77138588201E+02  0.00000000000E+00 0. -1.
        -24    2    1    2    0    0  0.25859543620E+02  0.80844304362E+01  0.40049266901E+01  0.87946067760E+02  0.83572707177E+02 0.  0.
         25    2    1    2    0    0 -0.67773631451E+02 -0.24454861516E+02  0.12175642646E+03  0.18884794937E+03  0.12509042819E+03 0.  0.
         24    2    1    2    0    0  0.41914087831E+02  0.16370431080E+02  0.13081649336E+04  0.13114094460E+04  0.80464028199E+02 0.  0.
        -13    1    5    5    0    0  0.59591041089E+02 -0.91198178929E+01  0.77368565629E+03  0.77603077130E+03  0.00000000000E+00 0.  1.
         14    1    5    5    0    0 -0.17676953258E+02  0.25490248973E+02  0.53447927732E+03  0.53537867473E+03  0.00000000000E+00 0. -1.
         13    1    3    3    0    0  0.33362053480E+02 -0.28155363078E+02  0.19516066670E+02  0.47818698651E+02  0.00000000000E+00 0. -1.
        -14    1    3    3    0    0 -0.75025098593E+01  0.36239793514E+02 -0.15511139979E+02  0.40127369109E+02  0.00000000000E+00 0.  1.
          5    1    4    4  501    0 -0.44298386255E+02  0.26785693950E+02 -0.28602996861E+01  0.52014172487E+02  0.41800000000E+01 0.  1.
         -5    1    4    4    0  501 -0.23475245196E+02 -0.51240555466E+02  0.12461672614E+03  0.13683377688E+03  0.41800000000E+01 0.  1.
</event>
<event>
11    1  0.7157190E-009  0.2241428E+03  0.7561462E-02  0.1038653E+00
         22   -1    0    0    0    0  0.00000000000E+00  0.00000000000E+00  0.18602202131E+04  0.18602202131E+04  0.00000000000E+00 0. -1.
         22   -1    0    0    0    0 -0.00000000000E+00 -0.00000000000E+00 -0.74261276808E+03  0.74261276808E+03  0.00000000000E+00 0. -1.
        -24    2    1    2    0    0 -0.86343398447E+02 -0.15800984550E+03 -0.55017978157E+03  0.58472698795E+03  0.82374538938E+02 0.  0.
         25    2    1    2    0    0 -0.23668237523E+02  0.26691876033E+03 -0.42587590018E+02  0.29877506140E+03  0.12508806662E+03 0.  0.
         24    2    1    2    0    0  0.11001163597E+03 -0.10890891483E+03  0.17103748166E+04  0.17193309319E+04  0.82177418384E+02 0.  0.
        -11    1    5    5    0    0  0.67278686495E+01  0.11696363232E+02  0.24660936599E+03  0.24697823492E+03  0.00000000000E+00 0.  1.
         12    1    5    5    0    0  0.10328376732E+03 -0.12060527806E+03  0.14637654507E+04  0.14723526970E+04  0.00000000000E+00 0. -1.
         11    1    3    3    0    0 -0.86760868554E+02 -0.16700492292E+03 -0.53424772241E+03  0.56642627190E+03  0.00000000000E+00 0. -1.
        -12    1    3    3    0    0  0.41747010655E+00  0.89950774267E+01 -0.15932059152E+02  0.18300716052E+02  0.00000000000E+00 0.  1.
          5    1    4    4  501    0  0.15502427812E+02  0.23643329122E+03 -0.61476210918E+01  0.23705757130E+03  0.41800000000E+01 0.  1.
         -5    1    4    4    0  501 -0.39170665335E+02  0.30485469111E+02 -0.36439968927E+02  0.61717490107E+02  0.41800000000E+01 0.  1.
</event>
<event>
11    1  0.7157190E-009  0.2172136E+03  0.7561462E-02  0.1042977E+00
         22   -1    0    0    0    0  0.00000000000E+00  0.00000000000E+00  0.18654820090E+03  0.18654820090E+03  0.00000000000E+00 0.  1.
         22   -1    0    0    0    0 -0.00000000000E+00 -0.00000000000E+00 -0.58541479649E+03  0.58541479649E+03  0.00000000000E+00 0.  1.
        -24    2    1    2    0    0  0.59655006162E+01  0.14597625199E+02 -0.32765287606E+03  0.33778521514E+03  0.80583909793E+02 0.  0.
         25    2    1    2    0    0 -0.36011705200E+02  0.16506860600E+03 -0.99606609612E+02  0.23261609109E+03  0.12507710245E+03 0.  0.
         24    2    1    2    0    0  0.30046204584E+02 -0.17966623119E+03  0.28392890089E+02  0.20156169117E+03  0.81475334289E+02 0.  0.
        -13    1    5    5    0    0  0.25569554110E+02 -0.14103419741E+03  0.55983149891E+02  0.15387839357E+03  0.00000000000E+00 0.  1.
         14    1    5    5    0    0  0.44766504742E+01 -0.38632033787E+02 -0.27590259802E+02  0.47683297599E+02  0.00000000000E+00 0. -1.
         11    1    3    3    0    0 -0.12246346764E+02 -0.30826281767E+02 -0.13397532484E+03  0.13802036199E+03  0.00000000000E+00 0. -1.
        -12    1    3    3    0    0  0.18211847380E+02  0.45423906966E+02 -0.19367755122E+03  0.19976485315E+03  0.00000000000E+00 0.  1.
          5    1    4    4  501    0  0.39900616404E+02  0.23887092246E+02 -0.40205086906E+02  0.61616343437E+02  0.41800000000E+01 0.  1.
         -5    1    4    4    0  501 -0.75912321604E+02  0.14118151375E+03 -0.59401522706E+02  0.17099974765E+03  0.41800000000E+01 0.  1.
</event>
<event>
11    1  0.7157190E-009  0.1443647E+03  0.7561462E-02  0.1102780E+00
         22   -1    0    0    0    0  0.00000000000E+00  0.00000000000E+00  0.14749208880E+03  0.14749208880E+03  0.00000000000E+00 0. -1.
         22   -1    0    0    0    0 -0.00000000000E+00 -0.00000000000E+00 -0.19999823381E+04  0.19999823381E+04  0.00000000000E+00 0.  1.
         24    2    1    2    0    0 -0.15222867034E+02  0.91433208818E+01 -0.14489246650E+04  0.14515363991E+04  0.85205029113E+02 0.  0.
         25    2    1    2    0    0  0.71892268618E+02 -0.52540805526E+02 -0.51774765621E+03  0.54003893617E+03  0.12510148893E+03 0.  0.
        -24    2    1    2    0    0 -0.56669401584E+02  0.43397484645E+02  0.11418207196E+03  0.15589909162E+03  0.78563467732E+02 0.  0.
        -13    1    3    3    0    0 -0.36744525527E+02  0.28595824874E+02 -0.12039562885E+04  0.12048562677E+04  0.00000000000E+00 0.  1.
         14    1    3    3    0    0  0.21521658493E+02 -0.19452503992E+02 -0.24496837653E+03  0.24668013133E+03  0.00000000000E+00 0. -1.
         13    1    5    5    0    0 -0.46377768297E+02  0.23351507664E+02  0.12156237376E+03  0.13218774911E+03  0.00000000000E+00 0. -1.
        -14    1    5    5    0    0 -0.10291633286E+02  0.20045976980E+02 -0.73803017992E+01  0.23711342506E+02  0.00000000000E+00 0.  1.
          5    1    4    4  501    0  0.28317690926E+02 -0.52925525376E+01 -0.14199810474E+02  0.32388419987E+02  0.41800000000E+01 0. -1.
         -5    1    4    4    0  501  0.43574577692E+02 -0.47248252989E+02 -0.50354784574E+03  0.50765051618E+03  0.41800000000E+01 0. -1.
</event>
<event>
11    1  0.7157190E-009  0.1374756E+03  0.7561462E-02  0.1110410E+00
         22   -1    0    0    0    0  0.00000000000E+00  0.00000000000E+00  0.15041399972E+03  0.15041399972E+03  0.00000000000E+00 0.  1.
         22   -1    0    0    0    0 -0.00000000000E+00 -0.00000000000E+00 -0.86660948070E+03  0.86660948070E+03  0.00000000000E+00 0. -1.
        -24    2    1    2    0    0 -0.39915312823E+01  0.84612525804E+01 -0.66781361428E+03  0.67262688433E+03  0.79777045509E+02 0.  0.
         25    2    1    2    0    0 -0.51962171958E+02 -0.20558406649E+02 -0.14756822386E+03  0.20136385996E+03  0.12509319728E+03 0.  0.
         24    2    1    2    0    0  0.55953703241E+02  0.12097154069E+02  0.99186357158E+02  0.14303273613E+03  0.85692894195E+02 0.  0.
        -11    1    5    5    0    0  0.18386894643E+02 -0.21167959792E+02  0.86985401482E+02  0.91392671956E+02  0.00000000000E+00 0.  1.
         12    1    5    5    0    0  0.37566808598E+02  0.33265113861E+02  0.12200955677E+02  0.51640064174E+02  0.00000000000E+00 0. -1.
         13    1    3    3    0    0 -0.30405189612E+02  0.59587062163E+01 -0.58156128365E+03  0.58238604754E+03  0.00000000000E+00 0. -1.
        -14    1    3    3    0    0  0.26413658330E+02  0.25025463642E+01 -0.86252330633E+02  0.90240836788E+02  0.00000000000E+00 0.  1.
          5    1    4    4  501    0 -0.65013270290E+02  0.35253625573E+02 -0.54429623113E+02  0.91921704195E+02  0.41800000000E+01 0. -1.
         -5    1    4    4    0  501  0.13051098332E+02 -0.55812032222E+02 -0.93138600751E+02  0.10944215576E+03  0.41800000000E+01 0. -1.
</event>
<event>
11    1  0.7157190E-009  0.1310509E+03  0.7561462E-02  0.1117984E+00
         22   -1    0    0    0    0  0.00000000000E+00  0.00000000000E+00  0.51944044928E+03  0.51944044928E+03  0.00000000000E+00 0. -1.
         22   -1    0    0    0    0 -0.00000000000E+00 -0.00000000000E+00 -0.19396048854E+03  0.19396048854E+03  0.00000000000E+00 0.  1.
        -24    2    1    2    0    0  0.44514676355E+02 -0.15497931305E+02 -0.12178428964E+03  0.15007714062E+03  0.73959398631E+02 0.  0.
         25    2    1    2    0    0 -0.17511480849E+01  0.13395273829E+02  0.21152128468E+02  0.12758183002E+03  0.12508881217E+03 0.  0.
         24    2    1    2    0    0 -0.42763528270E+02  0.21026574765E+01  0.42611212192E+03  0.43574196719E+03  0.80413811056E+02 0.  0.
        -13    1    5    5    0    0  0.19054720468E+02  0.14822118194E+01  0.35971434961E+02  0.40733566713E+02  0.00000000000E+00 0.  1.
         14    1    5    5    0    0 -0.61818248738E+02  0.62044565711E+00  0.39014068696E+03  0.39500840048E+03  0.00000000000E+00 0. -1.
         13    1    3    3    0    0  0.69019305716E+01  0.82982568187E+01  0.76333542391E+01  0.13219901996E+02  0.00000000000E+00 0. -1.
        -14    1    3    3    0    0  0.37612745783E+02 -0.23796188124E+02 -0.12941764388E+03  0.13685723862E+03  0.00000000000E+00 0.  1.
          5    1    4    4  501    0 -0.42023530457E+02  0.31333861132E+02  0.51730957932E+02  0.73765522937E+02  0.41800000000E+01 0.  1.
         -5    1    4    4    0  501  0.40272382372E+02 -0.17938587303E+02 -0.30578829464E+02  0.53816307081E+02  0.41800000000E+01 0.  1.
</event>
<event>
11    1  0.7981963E-009  0.1882265E+03  0.7561462E-02  0.1063176E+00
         22   -1    0    0    0    0  0.00000000000E+00  0.00000000000E+00  0.18917915640E+04  0.18917915640E+04  0.00000000000E+00 0. -1.
         22   -1    0    0    0    0 -0.00000000000E+00 -0.00000000000E+00 -0.60697343269E+03  0.60697343269E+03  0.00000000000E+00 0. -1.
         24    2    1    2    0    0  0.58438865532E+02 -0.10009534588E+03 -0.52744908209E+03  0.54605223520E+03  0.80847573246E+02 0.  0.
         25    2    1    2    0    0 -0.16510500262E+03  0.68011285333E+01  0.95381936493E+02  0.22814645250E+03  0.12508865951E+03 0.  0.
        -24    2    1    2    0    0  0.10666613709E+03  0.93294217351E+02  0.17168852769E+04  0.17245663089E+04  0.79702096712E+02 0.  0.
        -13    1    3    3    0    0  0.27757340603E+02 -0.80494861843E+02 -0.21125036962E+03  0.22776437695E+03  0.00000000000E+00 0.  1.
         14    1    3    3    0    0  0.30681524929E+02 -0.19600484041E+02 -0.31619871247E+03  0.31828785826E+03  0.00000000000E+00 0. -1.
         11    1    5    5    0    0  0.55749258118E+02  0.67104054523E+02  0.13876149769E+04  0.13903547238E+04  0.00000000000E+00 0. -1.
        -12    1    5    5    0    0  0.50916878973E+02  0.26190162828E+02  0.32927029998E+03  0.33421158514E+03  0.00000000000E+00 0.  1.
          5    1    4    4  501    0 -0.15674265526E+03  0.37679754223E+02  0.43457474496E+02  0.16701511413E+03  0.41800000000E+01 0. -1.
         -5    1    4    4    0  501 -0.83623473618E+01 -0.30878625690E+02  0.51924461997E+02  0.61131338375E+02  0.41800000000E+01 0. -1.
</event>
<event>
11    1  0.7157190E-009  0.2092657E+03  0.7561462E-02  0.1048158E+00
         22   -1    0    0    0    0  0.00000000000E+00  0.00000000000E+00  0.15179576801E+04  0.15179576801E+04  0.00000000000E+00 0.  1.
         22   -1    0    0    0    0 -0.00000000000E+00 -0.00000000000E+00 -0.19017348855E+03  0.19017348855E+03  0.00000000000E+00 0. -1.
        -24    2    1    2    0    0 -0.15818365317E+03  0.34217976758E+01 -0.54163591991E+02  0.18578005028E+03  0.80912023552E+02 0.  0.
         25    2    1    2    0    0  0.19678664964E+03  0.18033455651E+02  0.13083928536E+03  0.26798040578E+03  0.12507752911E+03 0.  0.
         24    2    1    2    0    0 -0.38602996475E+02 -0.21455253327E+02  0.12511084982E+04  0.12543707126E+04  0.78885303659E+02 0.  0.
        -13    1    5    5    0    0 -0.44584500801E+01  0.14507380533E+02  0.85961502061E+03  0.85974898984E+03  0.00000000000E+00 0.  1.
         14    1    5    5    0    0 -0.34144546395E+02 -0.35962633860E+02  0.39149347759E+03  0.39462172276E+03  0.00000000000E+00 0. -1.
         11    1    3    3    0    0 -0.15411188251E+03 -0.94454753277E+01 -0.28821199644E+02  0.15706798172E+03  0.00000000000E+00 0. -1.
        -12    1    3    3    0    0 -0.40717706627E+01  0.12867273004E+02 -0.25342392348E+02  0.28712068556E+02  0.00000000000E+00 0.  1.
          5    1    4    4  501    0  0.60608229090E+02 -0.52394104405E+02  0.38811647158E+02  0.89119672155E+02  0.41800000000E+01 0. -1.
         -5    1    4    4    0  501  0.13617842055E+03  0.70427560056E+02  0.92027638205E+02  0.17886073363E+03  0.41800000000E+01 0. -1.
</event>
<event>
11    1  0.7157190E-009  0.1385750E+03  0.7561462E-02  0.1109160E+00
         22   -1    0    0    0    0  0.00000000000E+00  0.00000000000E+00  0.39897134710E+03  0.39897134710E+03  0.00000000000E+00 0. -1.
         22   -1    0    0    0    0 -0.00000000000E+00 -0.00000000000E+00 -0.25940763767E+03  0.25940763767E+03  0.00000000000E+00 0. -1.
         24    2    1    2    0    0  0.63739619658E+02  0.79379232699E+01 -0.15620255677E+03  0.20177038638E+03  0.11039157730E+03 0.  0.
         25    2    1    2    0    0 -0.48025986453E+02  0.30310941598E+02 -0.10083497697E+02  0.13774093826E+03  0.12508253512E+03 0.  0.
        -24    2    1    2    0    0 -0.15713633205E+02 -0.38248864868E+02  0.30584976389E+03  0.31886766013E+03  0.80141204592E+02 0.  0.
        -11    1    3    3    0    0  0.18227825067E+02 -0.46648401761E+02 -0.34432361325E+02  0.60777582215E+02  0.00000000000E+00 0.  1.
         12    1    3    3    0    0  0.45511794591E+02  0.54586325031E+02 -0.12177019544E+03  0.14099280416E+03  0.00000000000E+00 0. -1.
         13    1    5    5    0    0 -0.33609764771E+02 -0.18060983306E+02  0.27603255693E+03  0.27865711527E+03  0.00000000000E+00 0. -1.
        -14    1    5    5    0    0  0.17896131565E+02 -0.20187881562E+02  0.29817206957E+02  0.40210544857E+02  0.00000000000E+00 0.  1.
          5    1    4    4  501    0  0.32743432592E+02 -0.20884476309E+02 -0.15129958717E+02  0.41888921918E+02  0.41800000000E+01 0.  1.
         -5    1    4    4    0  501 -0.80769419045E+02  0.51195417907E+02  0.50464610197E+01  0.95852016340E+02  0.41800000000E+01 0.  1.
</event>
<event>
11    1  0.7157190E-009  0.1527931E+03  0.7561462E-02  0.1094059E+00
         22   -1    0    0    0    0  0.00000000000E+00  0.00000000000E+00  0.72861216937E+02  0.72861216937E+02  0.00000000000E+00 0.  1.
         22   -1    0    0    0    0 -0.00000000000E+00 -0.00000000000E+00 -0.25932131635E+04  0.25932131635E+04  0.00000000000E+00 0.  1.
        -24    2    1    2    0    0 -0.48628254513E+01 -0.18431937494E+02 -0.12689107895E+04  0.12716368247E+04  0.81007647166E+02 0.  0.
         25    2    1    2    0    0  0.79114252192E+02  0.64124677999E+02 -0.12647251254E+04  0.12749698574E+04  0.12508978811E+03 0.  0.
         24    2    1    2    0    0 -0.74251426741E+02 -0.45692740504E+02  0.13283968330E+02  0.11946769837E+03  0.80591353334E+02 0.  0.
        -13    1    5    5    0    0 -0.73488840226E+02 -0.96088593078E+01  0.29666924896E+02  0.79831486569E+02  0.00000000000E+00 0.  1.
         14    1    5    5    0    0 -0.76258651492E+00 -0.36083881197E+02 -0.16382956566E+02  0.39636211805E+02  0.00000000000E+00 0. -1.
         11    1    3    3    0    0 -0.51076113495E+01  0.12141172719E+01 -0.40683110627E+01  0.66417564958E+01  0.00000000000E+00 0. -1.
        -12    1    3    3    0    0  0.24478589813E+00 -0.19646054766E+02 -0.12648424784E+04  0.12649950682E+04  0.00000000000E+00 0.  1.
          5    1    4    4  501    0 -0.96792026201E+01 -0.18681399498E+02 -0.51660124684E+03  0.51704642179E+03  0.41800000000E+01 0.  1.
         -5    1    4    4    0  501  0.88793454812E+02  0.82806077497E+02 -0.74812387860E+03  0.75792343559E+03  0.41800000000E+01 0.  1.
</event>
<event>
11    1  0.7157190E-009  0.1339025E+03  0.7561462E-02  0.1114565E+00
         22   -1    0    0    0    0  0.00000000000E+00  0.00000000000E+00  0.16299699351E+04  0.16299699351E+04  0.00000000000E+00 0. -1.
         22   -1    0    0    0    0 -0.00000000000E+00 -0.00000000000E+00 -0.57697315287E+02  0.57697315287E+02  0.00000000000E+00 0.  1.
         24    2    1    2    0    0  0.41436741081E+01  0.48420209264E+02 -0.77180090685E+01  0.88297547717E+02  0.73315772987E+02 0.  0.
         25    2    1    2    0    0  0.10166216984E+02 -0.37679522434E+02  0.52365897510E+03  0.53980556730E+03  0.12509288512E+03 0.  0.
        -24    2    1    2    0    0 -0.14309891093E+02 -0.10740686830E+02  0.10563316537E+04  0.10595641353E+04  0.80743165895E+02 0.  0.
        -13    1    3    3    0    0 -0.25601244446E+02  0.51806921508E+02 -0.81374448373E+01  0.58357508873E+02  0.00000000000E+00 0.  1.
         14    1    3    3    0    0  0.29744918555E+02 -0.33867122445E+01  0.41943576885E+00  0.29940038844E+02  0.00000000000E+00 0. -1.
         11    1    5    5    0    0 -0.29700616267E+02 -0.99226157445E+01  0.10145057868E+04  0.10149889538E+04  0.00000000000E+00 0. -1.
        -12    1    5    5    0    0  0.15390725174E+02 -0.81807108570E+00  0.41825866940E+02  0.44575181513E+02  0.00000000000E+00 0.  1.
          5    1    4    4  501    0  0.59749708128E+02 -0.20863908069E+02  0.15579538630E+03  0.16821119188E+03  0.41800000000E+01 0. -1.
         -5    1    4    4    0  501 -0.49583491144E+02 -0.16815614365E+02  0.36786358880E+03  0.37159437542E+03  0.41800000000E+01 0. -1.
</event>
<event>
11    1  0.7157190E-009  0.1518534E+03  0.7561462E-02  0.1095000E+00
         22   -1    0    0    0    0  0.00000000000E+00  0.00000000000E+00  0.28646968940E+03  0.28646968940E+03  0.00000000000E+00 0.  1.
         22   -1    0    0    0    0 -0.00000000000E+00 -0.00000000000E+00 -0.69217854748E+03  0.69217854748E+03  0.00000000000E+00 0. -1.
         24    2    1    2    0    0 -0.73735787229E+02 -0.52994290359E+02 -0.61393075928E+03  0.62597286705E+03  0.81766080790E+02 0.  0.
         25    2    1    2    0    0  0.27546750593E+02  0.16523712830E+02  0.89001679510E+01  0.12945216575E+03  0.12508714432E+03 0.  0.
        -24    2    1    2    0    0  0.46189036636E+02  0.36470577529E+02  0.19932173325E+03  0.22322320408E+03  0.81461127931E+02 0.  0.
        -11    1    3    3    0    0  0.52967895568E+01  0.48195925209E+01 -0.39422572477E+01  0.81747075717E+01  0.00000000000E+00 0.  1.
         12    1    3    3    0    0 -0.79032576786E+02 -0.57813882880E+02 -0.60998850203E+03  0.61779815948E+03  0.00000000000E+00 0. -1.
         13    1    5    5    0    0 -0.33388148232E+00  0.36787336095E+02  0.29534992443E+02  0.47177699736E+02  0.00000000000E+00 0. -1.
        -14    1    5    5    0    0  0.46522918119E+02 -0.31675856566E+00  0.16978674080E+03  0.17604550434E+03  0.00000000000E+00 0.  1.
          5    1    4    4  501    0 -0.47764261877E+02  0.41952665778E+01  0.20193289737E+02  0.52194504737E+02  0.41800000000E+01 0. -1.
         -5    1    4    4    0  501  0.75311012470E+02  0.12328446252E+02 -0.11293121786E+02  0.77257661018E+02  0.41800000000E+01 0. -1.
</event>
<event>
11    1  0.7157190E-009  0.1346814E+03  0.7561462E-02  0.1113647E+00
         22   -1    0    0    0    0  0.00000000000E+00  0.00000000000E+00  0.11989371646E+04  0.11989371646E+04  0.00000000000E+00 0.  1.
         22   -1    0    0    0    0 -0.00000000000E+00 -0.00000000000E+00 -0.79807749832E+03  0.79807749832E+03  0.00000000000E+00 0.  1.
         24    2    1    2    0    0 -0.30376491353E+02  0.41374815157E+02 -0.72198190576E+03  0.72818690778E+03  0.79772763959E+02 0.  0.
         25    2    1    2    0    0 -0.40751772409E+01 -0.31717261891E+02 -0.12813479621E+02  0.12974490142E+03  0.12508781880E+03 0.  0.
        -24    2    1    2    0    0  0.34451668594E+02 -0.96575532654E+01  0.11356550516E+04  0.11390828537E+04  0.80728963044E+02 0.  0.
        -13    1    3    3    0    0 -0.56496542726E+02  0.38157650303E+02 -0.54836719863E+03  0.55258886177E+03  0.00000000000E+00 0.  1.
         14    1    3    3    0    0  0.26120051373E+02  0.32171648533E+01 -0.17361470713E+03  0.17559804601E+03  0.00000000000E+00 0. -1.
         13    1    5    5    0    0  0.13005687959E+02  0.16558355542E+02  0.75337245813E+02  0.78224214053E+02  0.00000000000E+00 0. -1.
        -14    1    5    5    0    0  0.21445980635E+02 -0.26215908807E+02  0.10603178058E+04  0.10608586396E+04  0.00000000000E+00 0.  1.
          5    1    4    4  501    0  0.22584317178E+02 -0.57071988459E+02 -0.48485071170E+02  0.78329673658E+02  0.41800000000E+01 0. -1.
         -5    1    4    4    0  501 -0.26659494419E+02  0.25354726568E+02  0.35671591549E+02  0.51415227761E+02  0.41800000000E+01 0. -1.
</event>
<event>
11    1  0.7157190E-009  0.1554596E+03  0.7561462E-02  0.1091427E+00
         22   -1    0    0    0    0  0.00000000000E+00  0.00000000000E+00  0.14411764689E+04  0.14411764689E+04  0.00000000000E+00 0. -1.
         22   -1    0    0    0    0 -0.00000000000E+00 -0.00000000000E+00 -0.93885634852E+02  0.93885634852E+02  0.00000000000E+00 0. -1.
        -24    2    1    2    0    0  0.97342749228E+02 -0.33697626719E+01 -0.22529857676E+02  0.12867495945E+03  0.81010397941E+02 0.  0.
         25    2    1    2    0    0 -0.63381650162E+02  0.54252742624E+01  0.28433131997E+03  0.31707324016E+03  0.12507786748E+03 0.  0.
         24    2    1    2    0    0 -0.33961099066E+02 -0.20555115905E+01  0.10854893717E+04  0.10893139041E+04  0.84616926144E+02 0.  0.
        -11    1    5    5    0    0  0.69054846950E+00 -0.37870788546E+02  0.32637887914E+03  0.32856939332E+03  0.00000000000E+00 0.  1.
         12    1    5    5    0    0 -0.34651647536E+02  0.35815276955E+02  0.75911049261E+03  0.76074451081E+03  0.00000000000E+00 0. -1.
         13    1    3    3    0    0  0.69182171377E+02 -0.36986195017E+02 -0.30378934625E+02  0.84125092137E+02  0.00000000000E+00 0. -1.
        -14    1    3    3    0    0  0.28160577851E+02  0.33616432345E+02  0.78490769490E+01  0.44549867311E+02  0.00000000000E+00 0.  1.
          5    1    4    4  501    0  0.37654044199E+02 -0.18150494846E+01  0.95325737494E+02  0.10259429847E+03  0.41800000000E+01 0. -1.
         -5    1    4    4    0  501 -0.10103569436E+03  0.72403237470E+01  0.18900558248E+03  0.21447894169E+03  0.41800000000E+01 0. -1.
</event>
<event>
11    1  0.7157190E-009  0.1352331E+03  0.7561462E-02  0.1113001E+00
         22   -1    0    0    0    0  0.00000000000E+00  0.00000000000E+00  0.24922754483E+03  0.24922754483E+03  0.00000000000E+00 0. -1.
         22   -1    0    0    0    0 -0.00000000000E+00 -0.00000000000E+00 -0.39170730041E+03  0.39170730041E+03  0.00000000000E+00 0. -1.
         24    2    1    2    0    0  0.35693680778E+02 -0.36671268776E+02 -0.30898790796E+03  0.32355441906E+03  0.81210307382E+02 0.  0.
         25    2    1    2    0    0 -0.60650283378E+02  0.13808007739E+02  0.12314362432E+02  0.14025723563E+03  0.12510527836E+03 0.  0.
        -24    2    1    2    0    0  0.24956602600E+02  0.22863261037E+02  0.15419378995E+03  0.17712319055E+03  0.80320228164E+02 0.  0.
        -13    1    3    3    0    0  0.39508189378E+02 -0.39685367850E+01 -0.57247543179E+02  0.69670133574E+02  0.00000000000E+00 0.  1.
         14    1    3    3    0    0 -0.38145086005E+01 -0.32702731991E+02 -0.25174036478E+03  0.25388428549E+03  0.00000000000E+00 0. -1.
         13    1    5    5    0    0 -0.10744673489E+02 -0.15053073008E+02  0.10100201878E+03  0.10268130703E+03  0.00000000000E+00 0. -1.
        -14    1    5    5    0    0  0.35701276089E+02  0.37916334044E+02  0.53191771168E+02  0.74441883518E+02  0.00000000000E+00 0.  1.
          5    1    4    4  501    0 -0.18633990791E+02 -0.16806346455E+02  0.62746571948E+02  0.67707337750E+02  0.41800000000E+01 0.  1.
         -5    1    4    4    0  501 -0.42016292587E+02  0.30614354194E+02 -0.50432209516E+02  0.72549897878E+02  0.41800000000E+01 0.  1.
</event>
<event>
11    1  0.7157190E-009  0.1732658E+03  0.7561462E-02  0.1075224E+00
         22   -1    0    0    0    0  0.00000000000E+00  0.00000000000E+00  0.41047887484E+03  0.41047887484E+03  0.00000000000E+00 0. -1.
         22   -1    0    0    0    0 -0.00000000000E+00 -0.00000000000E+00 -0.40695331586E+03  0.40695331586E+03  0.00000000000E+00 0. -1.
         24    2    1    2    0    0 -0.12022590017E+03 -0.47142014616E+02 -0.29949495016E+03  0.33597115443E+03  0.80639660348E+02 0.  0.
         25    2    1    2    0    0  0.86642132044E+02  0.75585767929E+01 -0.10965882171E+02  0.15274788397E+03  0.12509066455E+03 0.  0.
        -24    2    1    2    0    0  0.33583768130E+02  0.39583437823E+02  0.31398639131E+03  0.32871315230E+03  0.82281009567E+02 0.  0.
        -13    1    3    3    0    0 -0.84331579307E+02 -0.10965520794E+02 -0.10610515441E+03  0.13597926940E+03  0.00000000000E+00 0.  1.
         14    1    3    3    0    0 -0.35894320866E+02 -0.36176493822E+02 -0.19338979575E+03  0.19999188503E+03  0.00000000000E+00 0. -1.
         13    1    5    5    0    0  0.22041607092E+02  0.74019464279E+01  0.27838376946E+03  0.27935308187E+03  0.00000000000E+00 0. -1.
        -14    1    5    5    0    0  0.11542161038E+02  0.32181491395E+02  0.35602621852E+02  0.49360070427E+02  0.00000000000E+00 0.  1.
          5    1    4    4  501    0 -0.41319033914E+01  0.46144715251E+02  0.17975542718E+02  0.49869829629E+02  0.41800000000E+01 0.  1.
         -5    1    4    4    0  501  0.90774035435E+02 -0.38586138458E+02 -0.28941424890E+02  0.10287805434E+03  0.41800000000E+01 0.  1.
</event>
<event>
11    1  0.7157190E-009  0.1291736E+03  0.7561462E-02  0.1120289E+00
         22   -1    0    0    0    0  0.00000000000E+00  0.00000000000E+00  0.40773686189E+03  0.40773686189E+03  0.00000000000E+00 0. -1.
         22   -1    0    0    0    0 -0.00000000000E+00 -0.00000000000E+00 -0.92019516704E+03  0.92019516704E+03  0.00000000000E+00 0.  1.
         24    2    1    2    0    0  0.87109963691E+01 -0.15626479498E+02 -0.88595572254E+03  0.88988945335E+03  0.81643300808E+02 0.  0.
         25    2    1    2    0    0  0.24185766551E+02  0.21295240832E+02  0.14485956273E+03  0.19408799155E+03  0.12508963572E+03 0.  0.
        -24    2    1    2    0    0 -0.32896762920E+02 -0.56687613334E+01  0.22863785467E+03  0.24395458402E+03  0.78257514742E+02 0.  0.
        -11    1    3    3    0    0 -0.74650513854E+01 -0.19334687689E+02 -0.85038799108E+03  0.85064051897E+03  0.00000000000E+00 0.  1.
         12    1    3    3    0    0  0.16176047754E+02  0.37082081909E+01 -0.35567731461E+02  0.39248934383E+02  0.00000000000E+00 0. -1.
         11    1    5    5    0    0 -0.54773196122E+02 -0.78891151239E+01  0.20184721203E+03  0.20929557605E+03  0.00000000000E+00 0. -1.
        -12    1    5    5    0    0  0.21876433203E+02  0.22203537905E+01  0.26790642638E+02  0.34659007971E+02  0.00000000000E+00 0.  1.
          5    1    4    4  501    0  0.65352690218E+01 -0.39367704703E+02  0.11919530684E+03  0.12576772037E+03  0.41800000000E+01 0.  1.
         -5    1    4    4    0  501  0.17650497529E+02  0.60662945535E+02  0.25664255888E+02  0.68320271181E+02  0.41800000000E+01 0.  1.
</event>
<event>
11    1  0.7157190E-009  0.2400406E+03  0.7561462E-02  0.1029343E+00
         22   -1    0    0    0    0  0.00000000000E+00  0.00000000000E+00  0.12960076558E+04  0.12960076558E+04  0.00000000000E+00 0. -1.
         22   -1    0    0    0    0 -0.00000000000E+00 -0.00000000000E+00 -0.13888665574E+03  0.13888665574E+03  0.00000000000E+00 0. -1.
         24    2    1    2    0    0 -0.41867233233E+02  0.73244922317E+02 -0.13699705781E+00  0.11633285396E+03  0.80097629663E+02 0.  0.
         25    2    1    2    0    0 -0.88461482488E+02 -0.22529612542E+03  0.20222038137E+03  0.33930010303E+03  0.12509076410E+03 0.  0.
        -24    2    1    2    0    0  0.13032871572E+03  0.15205120310E+03  0.95503761578E+03  0.97926135459E+03  0.82163316168E+02 0.  0.
        -13    1    3    3    0    0 -0.12397824022E+02  0.83879182290E+02  0.30238702774E+01  0.84844369605E+02  0.00000000000E+00 0.  1.
         14    1    3    3    0    0 -0.29469409212E+02 -0.10634259973E+02 -0.31608673352E+01  0.31488484352E+02  0.00000000000E+00 0. -1.
         13    1    5    5    0    0  0.17194565544E+02  0.74802698958E+02  0.42058566530E+03  0.42753175170E+03  0.00000000000E+00 0. -1.
        -14    1    5    5    0    0  0.11313415018E+03  0.77248504143E+02  0.53445195049E+03  0.55172960289E+03  0.00000000000E+00 0.  1.
          5    1    4    4  501    0 -0.11412047110E+03 -0.21485927522E+03  0.17127303548E+03  0.29755657471E+03  0.41800000000E+01 0.  1.
         -5    1    4    4    0  501  0.25658988617E+02 -0.10436850202E+02  0.30947345895E+02  0.41743528324E+02  0.41800000000E+01 0.  1.
</event>
<event>
11    1  0.7157190E-009  0.1387289E+03  0.7561462E-02  0.1108986E+00
         22   -1    0    0    0    0  0.00000000000E+00  0.00000000000E+00  0.21414089780E+03  0.21414089780E+03  0.00000000000E+00 0. -1.
         22   -1    0    0    0    0 -0.00000000000E+00 -0.00000000000E+00 -0.31905952717E+03  0.31905952717E+03  0.00000000000E+00 0.  1.
         24    2    1    2    0    0  0.28946297408E+02 -0.51287574394E+02 -0.24156395669E+03  0.26061042248E+03  0.78079086264E+02 0.  0.
         25    2    1    2    0    0 -0.27023045731E+02  0.67557078257E+02  0.55309414806E+02  0.15491776343E+03  0.12508468426E+03 0.  0.
        -24    2    1    2    0    0 -0.19232516768E+01 -0.16269503864E+02  0.81335912517E+02  0.11767223905E+03  0.83443570907E+02 0.  0.
        -11    1    3    3    0    0 -0.13411703992E+02  0.47967181885E+01 -0.11468287663E+03  0.11556402771E+03  0.00000000000E+00 0.  1.
         12    1    3    3    0    0  0.42358001400E+02 -0.56084292582E+02 -0.12688108007E+03  0.14504639477E+03  0.00000000000E+00 0. -1.
         13    1    5    5    0    0 -0.14660237902E+02 -0.32806660009E+02  0.88569196183E+02  0.95580866437E+02  0.00000000000E+00 0. -1.
        -14    1    5    5    0    0  0.12736986225E+02  0.16537156145E+02 -0.72332836660E+01  0.22091372616E+02  0.00000000000E+00 0.  1.
          5    1    4    4  501    0 -0.12335146958E+02 -0.13162943143E+02  0.69169209602E+02  0.71604964072E+02  0.41800000000E+01 0.  1.
         -5    1    4    4    0  501 -0.14687898773E+02  0.80720021401E+02 -0.13859794796E+02  0.83312799359E+02  0.41800000000E+01 0.  1.
</event>
<event>
11    1  0.7157190E-009  0.1305160E+03  0.7561462E-02  0.1118637E+00
         22   -1    0    0    0    0  0.00000000000E+00  0.00000000000E+00  0.73958326910E+03  0.73958326910E+03  0.00000000000E+00 0.  1.
         22   -1    0    0    0    0 -0.00000000000E+00 -0.00000000000E+00 -0.23844331341E+03  0.23844331341E+03  0.00000000000E+00 0.  1.
        -24    2    1    2    0    0  0.14466597418E+02 -0.46418136806E+02 -0.13338307328E+03  0.16335757515E+03  0.80812915161E+02 0.  0.
         25    2    1    2    0    0 -0.24039182656E+02  0.88798912453E+01 -0.39797936751E+02  0.13374839662E+03  0.12509205833E+03 0.  0.
         24    2    1    2    0    0  0.95725852383E+01  0.37538245560E+02  0.67432096572E+03  0.68092061073E+03  0.86274903907E+02 0.  0.
        -11    1    5    5    0    0  0.14464092795E+02  0.65045083267E+02  0.47659076167E+03  0.48122637806E+03  0.00000000000E+00 0.  1.
         12    1    5    5    0    0 -0.48915075568E+01 -0.27506837707E+02  0.19773020405E+03  0.19969423267E+03  0.00000000000E+00 0. -1.
         13    1    3    3    0    0 -0.29780013244E+02 -0.38191545611E+02 -0.57986472845E+02  0.75550475696E+02  0.00000000000E+00 0. -1.
        -14    1    3    3    0    0  0.44246610662E+02 -0.82265911947E+01 -0.75396600431E+02  0.87807099453E+02  0.00000000000E+00 0.  1.
          5    1    4    4  501    0  0.23813857778E+02  0.15159235421E+02  0.34673525734E+02  0.44906881740E+02  0.41800000000E+01 0. -1.
         -5    1    4    4    0  501 -0.47853040434E+02 -0.62793441755E+01 -0.74471462485E+02  0.88841514883E+02  0.41800000000E+01 0. -1.
</event>
<event>
11    1  0.7157190E-009  0.1844768E+03  0.7561462E-02  0.1066078E+00
         22   -1    0    0    0    0  0.00000000000E+00  0.00000000000E+00  0.67367707564E+03  0.67367707564E+03  0.00000000000E+00 0.  1.
         22   -1    0    0    0    0 -0.00000000000E+00 -0.00000000000E+00 -0.24772826707E+03  0.24772826707E+03  0.00000000000E+00 0.  1.
         24    2    1    2    0    0  0.10344825531E+03  0.95420872939E+02 -0.18877165517E+03  0.25007754656E+03  0.84245812821E+02 0.  0.
         25    2    1    2    0    0 -0.83614952665E+02 -0.39996571354E+02  0.25703672858E+03  0.30050691024E+03  0.12508132249E+03 0.  0.
        -24    2    1    2    0    0 -0.19833302650E+02 -0.55424301584E+02  0.35768373516E+03  0.37082088591E+03  0.78136175561E+02 0.  0.
        -13    1    3    3    0    0  0.10701181490E+03  0.51034320449E+02 -0.12483181723E+03  0.17215984719E+03  0.00000000000E+00 0.  1.
         14    1    3    3    0    0 -0.35635595883E+01  0.44386552489E+02 -0.63939837942E+02  0.77917699368E+02  0.00000000000E+00 0. -1.
         11    1    5    5    0    0 -0.41846209657E+02 -0.96156949675E+01  0.21776813066E+03  0.22196063971E+03  0.00000000000E+00 0. -1.
        -12    1    5    5    0    0  0.22012907007E+02 -0.45808606617E+02  0.13991560450E+03  0.14886024620E+03  0.00000000000E+00 0.  1.
          5    1    4    4  501    0 -0.49937156369E+02 -0.78642449683E+02  0.21403607848E+03  0.23346792021E+03  0.41800000000E+01 0.  1.
         -5    1    4    4    0  501 -0.33677796296E+02  0.38645878329E+02  0.43000650098E+02  0.67038990029E+02  0.41800000000E+01 0.  1.
</event>
<event>
11    1  0.7157190E-009  0.1393181E+03  0.7561462E-02  0.1108322E+00
         22   -1    0    0    0    0  0.00000000000E+00  0.00000000000E+00  0.11404545368E+04  0.11404545368E+04  0.00000000000E+00 0. -1.
         22   -1    0    0    0    0 -0.00000000000E+00 -0.00000000000E+00 -0.44869725019E+03  0.44869725019E+03  0.00000000000E+00 0. -1.
         24    2    1    2    0    0  0.27530911136E+02  0.22369391354E+02 -0.41525849317E+03  0.42441447983E+03  0.80185371525E+02 0.  0.
         25    2    1    2    0    0 -0.85977551498E+02 -0.14384654744E+02  0.19625786187E+03  0.24852437029E+03  0.12509259222E+03 0.  0.
        -24    2    1    2    0    0  0.58446640362E+02 -0.79847366097E+01  0.91075791791E+03  0.91621293687E+03  0.80538157802E+02 0.  0.
        -11    1    3    3    0    0  0.13124854144E+02  0.97198948740E+01 -0.10975983045E+02  0.19677661357E+02  0.00000000000E+00 0.  1.
         12    1    3    3    0    0  0.14406056992E+02  0.12649496480E+02 -0.40428251012E+03  0.40473681848E+03  0.00000000000E+00 0. -1.
         13    1    5    5    0    0  0.69488292302E+02 -0.10534533512E+02  0.88812434003E+03  0.89090091622E+03  0.00000000000E+00 0. -1.
        -14    1    5    5    0    0 -0.11041651940E+02  0.25497969025E+01  0.22633577879E+02  0.25312020650E+02  0.00000000000E+00 0.  1.
          5    1    4    4  501    0 -0.66165903802E+02  0.36977890051E+02  0.46761942605E+02  0.89159648131E+02  0.41800000000E+01 0.  1.
         -5    1    4    4    0  501 -0.19811647696E+02 -0.51362544794E+02  0.14949591927E+03  0.15936472216E+03  0.41800000000E+01 0.  1.
</event>
<event>
11    1  0.7157190E-009  0.2252081E+03  0.7561462E-02  0.1038003E+00
         22   -1    0    0    0    0  0.00000000000E+00  0.00000000000E+00  0.15058494252E+04  0.15058494252E+04  0.00000000000E+00 0. -1.
         22   -1    0    0    0    0 -0.00000000000E+00 -0.00000000000E+00 -0.73356117697E+03  0.73356117697E+03  0.00000000000E+00 0. -1.
         24    2    1    2    0    0 -0.30721998644E+02 -0.40189619330E+02 -0.69761472474E+03  0.70509649738E+03  0.89082656828E+02 0.  0.
         25    2    1    2    0    0  0.89944539517E+02 -0.14847678120E+03  0.55530985183E+03  0.59510644076E+03  0.12508904646E+03 0.  0.
        -24    2    1    2    0    0 -0.59222540873E+02  0.18866640053E+03  0.91459312114E+03  0.93920766405E+03  0.80796899290E+02 0.  0.
        -11    1    3    3    0    0  0.69205658676E+01  0.25432625338E+02 -0.21010991912E+03  0.21175667823E+03  0.00000000000E+00 0.  1.
         12    1    3    3    0    0 -0.37642564511E+02 -0.65622244669E+02 -0.48750480562E+03  0.49333981915E+03  0.00000000000E+00 0. -1.
         13    1    5    5    0    0 -0.71228318136E+02  0.17994177934E+03  0.77375270438E+03  0.79758746529E+03  0.00000000000E+00 0. -1.
        -14    1    5    5    0    0  0.12005777263E+02  0.87246211908E+01  0.14084041677E+03  0.14162019876E+03  0.00000000000E+00 0.  1.
          5    1    4    4  501    0 -0.12742556066E+02 -0.30427533783E+02  0.24814603977E+03  0.25036400900E+03  0.41800000000E+01 0.  1.
         -5    1    4    4    0  501  0.10268709558E+03 -0.11804924742E+03  0.30716381206E+03  0.34474243176E+03  0.41800000000E+01 0.  1.
</event>
<event>
11    1  0.7157190E-009  0.1467217E+03  0.7561462E-02  0.1100276E+00
         22   -1    0    0    0    0  0.00000000000E+00  0.00000000000E+00  0.19476916476E+03  0.19476916476E+03  0.00000000000E+00 0. -1.
         22   -1    0    0    0    0 -0.00000000000E+00 -0.00000000000E+00 -0.14751755510E+04  0.14751755510E+04  0.00000000000E+00 0.  1.
         24    2    1    2    0    0  0.25331740865E+02  0.88274517574E+02 -0.71053747974E+03  0.72109475034E+03  0.81731519652E+02 0.  0.
         25    2    1    2    0    0 -0.21425728734E+02 -0.54498960689E+02 -0.74239964552E+03  0.75513851783E+03  0.12509096244E+03 0.  0.
        -24    2    1    2    0    0 -0.39060121305E+01 -0.33775556886E+02  0.17253073898E+03  0.19371144763E+03  0.81247916135E+02 0.  0.
        -13    1    3    3    0    0  0.21078803913E+02  0.92372595686E+02 -0.42236053053E+03  0.43285728613E+03  0.00000000000E+00 0.  1.
         14    1    3    3    0    0  0.42529369519E+01 -0.40980781122E+01 -0.28817694921E+03  0.28823746421E+03  0.00000000000E+00 0. -1.
         13    1    5    5    0    0 -0.11389398035E+02 -0.40077018314E+02  0.17778839348E+03  0.18260503454E+03  0.00000000000E+00 0. -1.
        -14    1    5    5    0    0  0.74833859047E+01  0.63014614289E+01 -0.52576545021E+01  0.11106413084E+02  0.00000000000E+00 0.  1.
          5    1    4    4  501    0  0.44510806485E+02 -0.30200329813E-01 -0.14805885838E+03  0.15466127747E+03  0.41800000000E+01 0.  1.
         -5    1    4    4    0  501 -0.65936535220E+02 -0.54468760359E+02 -0.59434078714E+03  0.60047724036E+03  0.41800000000E+01 0.  1.
</event>
<event>
11    1  0.7157190E-009  0.1974441E+03  0.7561462E-02  0.1056346E+00
         22   -1    0    0    0    0  0.00000000000E+00  0.00000000000E+00  0.46575487198E+03  0.46575487198E+03  0.00000000000E+00 0. -1.
         22   -1    0    0    0    0 -0.00000000000E+00 -0.00000000000E+00 -0.50647284561E+03  0.50647284561E+03  0.00000000000E+00 0. -1.
        -24    2    1    2    0    0  0.25800946513E+02 -0.30129209261E+02 -0.30356468501E+03  0.31441701449E+03  0.71645536660E+02 0.  0.
         25    2    1    2    0    0 -0.53458643590E+02  0.17711231058E+03 -0.10957469882E+03  0.24875906577E+03  0.12509141077E+03 0.  0.
         24    2    1    2    0    0  0.27657697077E+02 -0.14698310132E+03  0.37242141019E+03  0.40905163733E+03  0.79098387826E+02 0.  0.
        -13    1    5    5    0    0  0.17585773100E+01 -0.50704150422E+02  0.48703591953E+02  0.70328111970E+02  0.00000000000E+00 0.  1.
         14    1    5    5    0    0  0.25899119767E+02 -0.96278950896E+02  0.32371781824E+03  0.33872352536E+03  0.00000000000E+00 0. -1.
         11    1    3    3    0    0 -0.15087230862E+02  0.58884449850E+01 -0.16069373550E+03  0.16150781698E+03  0.00000000000E+00 0. -1.
        -12    1    3    3    0    0  0.40888177375E+02 -0.36017654246E+02 -0.14287094951E+03  0.15290919750E+03  0.00000000000E+00 0.  1.
          5    1    4    4  501    0 -0.65851120239E+02  0.19131055094E+03 -0.10801530072E+03  0.22939240294E+03  0.41800000000E+01 0. -1.
         -5    1    4    4    0  501  0.12392476649E+02 -0.14198240359E+02 -0.15593981004E+01  0.19366662832E+02  0.41800000000E+01 0. -1.
</event>
<event>
11    1  0.7157190E-009  0.1371209E+03  0.7561462E-02  0.1110817E+00
         22   -1    0    0    0    0  0.00000000000E+00  0.00000000000E+00  0.30469312287E+03  0.30469312287E+03  0.00000000000E+00 0.  1.
         22   -1    0    0    0    0 -0.00000000000E+00 -0.00000000000E+00 -0.47053027098E+03  0.47053027098E+03  0.00000000000E+00 0.  1.
        -24    2    1    2    0    0  0.54721397356E+02  0.22336451927E+02 -0.32681165423E+03  0.34170400029E+03  0.80389166334E+02 0.  0.
         25    2    1    2    0    0 -0.43071463689E+02 -0.74058912868E+01 -0.96145705634E+02  0.16371262413E+03  0.12509128018E+03 0.  0.
         24    2    1    2    0    0 -0.11649933667E+02 -0.14930560640E+02  0.25712021175E+03  0.26980676943E+03  0.79537707687E+02 0.  0.
        -13    1    5    5    0    0 -0.41006001576E+02  0.10905966141E+02  0.14373055057E+03  0.14986294882E+03  0.00000000000E+00 0.  1.
         14    1    5    5    0    0  0.29356067909E+02 -0.25836526781E+02  0.11338966119E+03  0.11994382061E+03  0.00000000000E+00 0. -1.
         11    1    3    3    0    0  0.55009769769E+02  0.18854550308E+02 -0.10631285279E+03  0.12117752063E+03  0.00000000000E+00 0. -1.
        -12    1    3    3    0    0 -0.28837241283E+00  0.34819016187E+01 -0.22049880144E+03  0.22052647967E+03  0.00000000000E+00 0.  1.
          5    1    4    4  501    0  0.95683741247E+01  0.29987105558E+02  0.14989840986E+02  0.35113359508E+02  0.41800000000E+01 0. -1.
         -5    1    4    4    0  501 -0.52639837814E+02 -0.37392996845E+02 -0.11113554662E+03  0.12859926462E+03  0.41800000000E+01 0. -1.
</event>
<event>
11    1  0.7157190E-009  0.1790594E+03  0.7561462E-02  0.1070406E+00
         22   -1    0    0    0    0  0.00000000000E+00  0.00000000000E+00  0.57202997418E+03  0.57202997418E+03  0.00000000000E+00 0. -1.
         22   -1    0    0    0    0 -0.00000000000E+00 -0.00000000000E+00 -0.48786162938E+03  0.48786162938E+03  0.00000000000E+00 0.  1.
        -24    2    1    2    0    0  0.42672043921E+02  0.25213627072E+02 -0.40662886381E+03  0.41755801467E+03  0.80938448308E+02 0.  0.
         25    2    1    2    0    0  0.87442676802E+02 -0.58210969709E+02  0.44879302877E+02  0.16940279221E+03  0.12509362678E+03 0.  0.
         24    2    1    2    0    0 -0.13011472072E+03  0.32997342637E+02  0.44591790572E+03  0.47293079668E+03  0.82474812102E+02 0.  0.
        -13    1    5    5    0    0 -0.43877276445E+02 -0.54690802087E+01  0.53978074030E+02  0.69776491045E+02  0.00000000000E+00 0.  1.
         14    1    5    5    0    0 -0.86237444278E+02  0.38466422846E+02  0.39193983169E+03  0.40315430563E+03  0.00000000000E+00 0. -1.
         13    1    3    3    0    0  0.64777523306E+01 -0.18647522493E+02 -0.25692971839E+02  0.32400928572E+02  0.00000000000E+00 0. -1.
        -14    1    3    3    0    0  0.36194291591E+02  0.43861149565E+02 -0.38093589197E+03  0.38515708610E+03  0.00000000000E+00 0.  1.
          5    1    4    4  501    0 -0.17410107652E+02 -0.55278795666E+02  0.20645026762E+02  0.61664792457E+02  0.41800000000E+01 0. -1.
         -5    1    4    4    0  501  0.10485278445E+03 -0.29321740431E+01  0.24234276115E+02  0.10773799975E+03  0.41800000000E+01 0. -1.
</event>
<event>
11    1  0.7157190E-009  0.1700822E+03  0.7561462E-02  0.1077960E+00
         22   -1    0    0    0    0  0.00000000000E+00  0.00000000000E+00  0.22963272027E+03  0.22963272027E+03  0.00000000000E+00 0.  1.
         22   -1    0    0    0    0 -0.00000000000E+00 -0.00000000000E+00 -0.80566192578E+03  0.80566192578E+03  0.00000000000E+00 0. -1.
         24    2    1    2    0    0  0.80557615874E+01 -0.50242408888E+01 -0.63236693769E+03  0.63745274725E+03  0.79799265676E+02 0.  0.
         25    2    1    2    0    0  0.10688296616E+03 -0.15041820856E+02 -0.95174917610E+02  0.19067033220E+03  0.12508671315E+03 0.  0.
        -24    2    1    2    0    0 -0.11493872775E+03  0.20066061745E+02  0.15151264979E+03  0.20717156661E+03  0.79689503659E+02 0.  0.
        -13    1    3    3    0    0 -0.29843179428E+02  0.16754940631E+02 -0.35716715294E+03  0.35880317520E+03  0.00000000000E+00 0.  1.
         14    1    3    3    0    0  0.37898941015E+02 -0.21779181520E+02 -0.27519978475E+03  0.27864957205E+03  0.00000000000E+00 0. -1.
         13    1    5    5    0    0 -0.73807013180E+02 -0.12095487877E+02  0.41827592745E+02  0.85693194224E+02  0.00000000000E+00 0. -1.
        -14    1    5    5    0    0 -0.41131714567E+02  0.32161549622E+02  0.10968505705E+03  0.12147837238E+03  0.00000000000E+00 0.  1.
          5    1    4    4  501    0  0.10878431507E+03  0.21344605501E+02 -0.28444848866E+02  0.11452598490E+03  0.41800000000E+01 0.  1.
         -5    1    4    4    0  501 -0.19013489137E+01 -0.36386426356E+02 -0.66730068744E+02  0.76144347297E+02  0.41800000000E+01 0.  1.
</event>
<event>
11    1  0.7157190E-009  0.1310415E+03  0.7561462E-02  0.1117996E+00
         22   -1    0    0    0    0  0.00000000000E+00  0.00000000000E+00  0.37913401884E+03  0.37913401884E+03  0.00000000000E+00 0.  1.
         22   -1    0    0    0    0 -0.00000000000E+00 -0.00000000000E+00 -0.28930580044E+04  0.28930580044E+04  0.00000000000E+00 0. -1.
        -24    2    1    2    0    0  0.23844443958E+02 -0.33107506252E+02 -0.16853693635E+04  0.16876750662E+04  0.78182947070E+02 0.  0.
         25    2    1    2    0    0 -0.62184315411E+02  0.26147039765E+02 -0.11971301695E+04  0.12055367118E+04  0.12509022381E+03 0.  0.
         24    2    1    2    0    0  0.38339871453E+02  0.69604664867E+01  0.36857554735E+03  0.37898024527E+03  0.79118255539E+02 0.  0.
        -13    1    5    5    0    0  0.61199116368E+02 -0.39799197001E+01  0.29019360049E+03  0.29660326594E+03  0.00000000000E+00 0.  1.
         14    1    5    5    0    0 -0.22859244914E+02  0.10940386187E+02  0.78381946865E+02  0.82376979323E+02  0.00000000000E+00 0. -1.
         11    1    3    3    0    0 -0.19940851819E+02 -0.38445294500E+02 -0.94637174802E+03  0.94736221356E+03  0.00000000000E+00 0. -1.
        -12    1    3    3    0    0  0.43785295776E+02  0.53377882482E+01 -0.73899761546E+03  0.74031285263E+03  0.00000000000E+00 0.  1.
          5    1    4    4  501    0  0.21085905361E+02  0.12659465394E+02 -0.56240994732E+02  0.61525599204E+02  0.41800000000E+01 0.  1.
         -5    1    4    4    0  501 -0.83270220773E+02  0.13487574371E+02 -0.11408891747E+04  0.11440111126E+04  0.41800000000E+01 0.  1.
</event>
<event>
11    1  0.7157190E-009  0.1964133E+03  0.7561462E-02  0.1057089E+00
         22   -1    0    0    0    0  0.00000000000E+00  0.00000000000E+00  0.63225627067E+03  0.63225627067E+03  0.00000000000E+00 0.  1.
         22   -1    0    0    0    0 -0.00000000000E+00 -0.00000000000E+00 -0.13588419836E+03  0.13588419836E+03  0.00000000000E+00 0. -1.
         24    2    1    2    0    0 -0.83127310440E+02  0.12120884535E+03  0.29789346126E+02  0.17239225375E+03  0.85029113123E+02 0.  0.
         25    2    1    2    0    0  0.77389147318E+02 -0.13938058657E+03  0.11192337063E+03  0.23149639265E+03  0.12509081053E+03 0.  0.
        -24    2    1    2    0    0  0.57381631220E+01  0.18171741219E+02  0.35465935556E+03  0.36425182263E+03  0.80826933062E+02 0.  0.
        -13    1    3    3    0    0  0.73440533235E+01  0.59231085203E+02  0.16513985003E+02  0.61927120668E+02  0.00000000000E+00 0.  1.
         14    1    3    3    0    0 -0.90471363764E+02  0.61977760151E+02  0.13275361123E+02  0.11046513309E+03  0.00000000000E+00 0. -1.
         13    1    5    5    0    0 -0.12091058967E+02 -0.25451240856E+02  0.65885437314E+02  0.71657869198E+02  0.00000000000E+00 0. -1.
        -14    1    5    5    0    0  0.17829222089E+02  0.43622982075E+02  0.28877391824E+03  0.29259395343E+03  0.00000000000E+00 0.  1.
          5    1    4    4  501    0  0.10851290835E+03 -0.13030767015E+03  0.98579635565E+02  0.19619010456E+03  0.41800000000E+01 0.  1.
         -5    1    4    4    0  501 -0.31123761030E+02 -0.90729164213E+01  0.13343735068E+02  0.35306288088E+02  0.41800000000E+01 0.  1.
</event>
<event>
11    1  0.7157190E-009  0.1369645E+03  0.7561462E-02  0.1110996E+00
         22   -1    0    0    0    0  0.00000000000E+00  0.00000000000E+00  0.99481783123E+03  0.99481783123E+03  0.00000000000E+00 0.  1.
         22   -1    0    0    0    0 -0.00000000000E+00 -0.00000000000E+00 -0.97517289433E+03  0.97517289433E+03  0.00000000000E+00 0. -1.
         24    2    1    2    0    0 -0.42683283974E+02  0.29597978477E+02 -0.82169733068E+03  0.82700457663E+03  0.77795651933E+02 0.  0.
         25    2    1    2    0    0  0.64079596503E+01 -0.72073765112E+02 -0.11320426579E+03  0.18357225896E+03  0.12509148213E+03 0.  0.
        -24    2    1    2    0    0  0.36275324324E+02  0.42475786636E+02  0.95454653337E+03  0.95941388998E+03  0.78713634840E+02 0.  0.
        -11    1    3    3    0    0 -0.35334211744E+02 -0.27930149313E+01 -0.13728345861E+03  0.14178524415E+03  0.00000000000E+00 0.  1.
         12    1    3    3    0    0 -0.73490722301E+01  0.32390993408E+02 -0.68441387207E+03  0.68521933248E+03  0.00000000000E+00 0. -1.
         13    1    5    5    0    0 -0.15372124536E+02  0.31517236753E+02  0.59263022261E+03  0.59366675769E+03  0.00000000000E+00 0. -1.
        -14    1    5    5    0    0  0.51647448860E+02  0.10958549883E+02  0.36191631075E+03  0.36574713229E+03  0.00000000000E+00 0.  1.
          5    1    4    4  501    0 -0.43175641652E+02 -0.21314072966E+02  0.18106930695E+01  0.48365036419E+02  0.41800000000E+01 0. -1.
         -5    1    4    4    0  501  0.49583601302E+02 -0.50759692146E+02 -0.11501495886E+03  0.13520722254E+03  0.41800000000E+01 0. -1.
</event>
<event>
11    1  0.7157190E-009  0.1501978E+03  0.7561462E-02  0.1096677E+00
         22   -1    0    0    0    0  0.00000000000E+00  0.00000000000E+00  0.33476553060E+03  0.33476553060E+03  0.00000000000E+00 0.  1.
         22   -1    0    0    0    0 -0.00000000000E+00 -0.00000000000E+00 -0.10675315712E+04  0.10675315712E+04  0.00000000000E+00 0.  1.
         24    2    1    2    0    0  0.83914689605E+02 -0.14312587545E+02 -0.97338672214E+03  0.98032219309E+03  0.79393741127E+02 0.  0.
         25    2    1    2    0    0  0.45588177582E+01 -0.22588620095E+02 -0.23989115886E+02  0.12943742550E+03  0.12509013095E+03 0.  0.
        -24    2    1    2    0    0 -0.88473507363E+02  0.36901207640E+02  0.26460979738E+03  0.29253748325E+03  0.79815873149E+02 0.  0.
        -11    1    3    3    0    0  0.43778792939E+02  0.13244011212E+02 -0.76325723846E+03  0.76462644383E+03  0.00000000000E+00 0.  1.
         12    1    3    3    0    0  0.40135896666E+02 -0.27556598757E+02 -0.21012948368E+03  0.21569574926E+03  0.00000000000E+00 0. -1.
         11    1    5    5    0    0 -0.16375314771E+02 -0.18780787519E+02  0.21465879694E+02  0.32888491980E+02  0.00000000000E+00 0. -1.
        -12    1    5    5    0    0 -0.72098192592E+02  0.55681995159E+02  0.24314391769E+03  0.25964899127E+03  0.00000000000E+00 0.  1.
          5    1    4    4  501    0 -0.40459291564E+02 -0.38079400225E+02  0.24936241657E+02  0.61043292370E+02  0.41800000000E+01 0.  1.
         -5    1    4    4    0  501  0.45018109323E+02  0.15490780130E+02 -0.48925357543E+02  0.68394133131E+02  0.41800000000E+01 0.  1.
</event>
<event>
11    1  0.7157190E-009  0.2088637E+03  0.7561462E-02  0.1048427E+00
         22   -1    0    0    0    0  0.00000000000E+00  0.00000000000E+00  0.37381445590E+03  0.37381445590E+03  0.00000000000E+00 0.  1.
         22   -1    0    0    0    0 -0.00000000000E+00 -0.00000000000E+00 -0.75111857782E+03  0.75111857782E+03  0.00000000000E+00 0.  1.
        -24    2    1    2    0    0 -0.46209968239E+02  0.44461863668E+02 -0.58046381049E+03  0.59097158970E+03  0.90537097712E+02 0.  0.
         25    2    1    2    0    0  0.95217234200E+02 -0.19309917639E+03 -0.18890507929E+02  0.24971534334E+03  0.12508911942E+03 0.  0.
         24    2    1    2    0    0 -0.49007265961E+02  0.14863731272E+03  0.22205019649E+03  0.28424610068E+03  0.83634879906E+02 0.  0.
        -13    1    5    5    0    0  0.98976248139E+01  0.97138654637E+02  0.14179849640E+03  0.17216473153E+03  0.00000000000E+00 0.  1.
         14    1    5    5    0    0 -0.58904890775E+02  0.51498658088E+02  0.80251700089E+02  0.11208136914E+03  0.00000000000E+00 0. -1.
         11    1    3    3    0    0 -0.33700528099E+02  0.31759629720E+01 -0.61353407373E+02  0.70071769859E+02  0.00000000000E+00 0. -1.
        -12    1    3    3    0    0 -0.12509440140E+02  0.41285900696E+02 -0.51911040311E+03  0.52089981984E+03  0.00000000000E+00 0.  1.
          5    1    4    4  501    0  0.10842786973E+03 -0.19602316469E+03 -0.36619784088E+02  0.22702459122E+03  0.41800000000E+01 0.  1.
         -5    1    4    4    0  501 -0.13210635531E+02  0.29239883015E+01  0.17729276159E+02  0.22690752121E+02  0.41800000000E+01 0.  1.
</event>
<event>
11    1  0.7157190E-009  0.1497327E+03  0.7561462E-02  0.1097152E+00
         22   -1    0    0    0    0  0.00000000000E+00  0.00000000000E+00  0.25310391245E+04  0.25310391245E+04  0.00000000000E+00 0.  1.
         22   -1    0    0    0    0 -0.00000000000E+00 -0.00000000000E+00 -0.11389243918E+04  0.11389243918E+04  0.00000000000E+00 0.  1.
        -24    2    1    2    0    0 -0.46101561414E+02  0.64583667948E+02 -0.10196129999E+04  0.10259069645E+04  0.81105031346E+02 0.  0.
         25    2    1    2    0    0 -0.35744729822E+02 -0.76554003726E+02 -0.65204066108E+02  0.16442734884E+03  0.12508629666E+03 0.  0.
         24    2    1    2    0    0  0.81846291236E+02  0.11970335778E+02  0.24769317988E+04  0.24796292029E+04  0.80794454611E+02 0.  0.
        -11    1    5    5    0    0  0.79852438286E+02 -0.18464745823E+02  0.20326529638E+04  0.20343046552E+04  0.00000000000E+00 0.  1.
         12    1    5    5    0    0  0.19938529500E+01  0.30435081601E+02  0.44427883498E+03  0.44532454778E+03  0.00000000000E+00 0. -1.
         13    1    3    3    0    0 -0.30425275464E+02  0.18822121945E+02 -0.12586593273E+03  0.13085183485E+03  0.00000000000E+00 0. -1.
        -14    1    3    3    0    0 -0.15676285950E+02  0.45761546003E+02 -0.89374706722E+03  0.89505512970E+03  0.00000000000E+00 0.  1.
          5    1    4    4  501    0 -0.65671575279E+02 -0.31616461441E+02 -0.79985793972E+02  0.10829384133E+03  0.41800000000E+01 0.  1.
         -5    1    4    4    0  501  0.29926845457E+02 -0.44937542285E+02  0.14781727864E+02  0.56133507501E+02  0.41800000000E+01 0.  1.
</event>
<event>
11    1  0.7157190E-009  0.1359380E+03  0.7561462E-02  0.1112181E+00
         22   -1    0    0    0    0  0.00000000000E+00  0.00000000000E+00  0.10058492577E+04  0.10058492577E+04  0.00000000000E+00 0.  1.
         22   -1    0    0    0    0 -0.00000000000E+00 -0.00000000000E+00 -0.14254903229E+03  0.14254903229E+03  0.00000000000E+00 0.  1.
         24    2    1    2    0    0  0.18294616742E+02 -0.18729986035E+01 -0.78912451701E+02  0.11485330094E+03  0.81399659575E+02 0.  0.
         25    2    1    2    0    0 -0.65393749640E+02 -0.20925400834E+02  0.75071358690E+02  0.16123657260E+03  0.12508920239E+03 0.  0.
        -24    2    1    2    0    0  0.47099132898E+02  0.22798399438E+02  0.86714131839E+03  0.87230841641E+03  0.79055752174E+02 0.  0.
        -11    1    3    3    0    0  0.36539879372E+02  0.16801518126E+02 -0.79108442719E+02  0.88744574511E+02  0.00000000000E+00 0.  1.
         12    1    3    3    0    0 -0.18245262629E+02 -0.18674516729E+02  0.19599101757E+00  0.26108726433E+02  0.00000000000E+00 0. -1.
         13    1    5    5    0    0 -0.14939600201E+01 -0.23825990316E+02  0.34792252913E+03  0.34874058555E+03  0.00000000000E+00 0. -1.
        -14    1    5    5    0    0  0.48593092918E+02  0.46624389754E+02  0.51921878926E+03  0.52356783086E+03  0.00000000000E+00 0.  1.
          5    1    4    4  501    0 -0.70841570617E+00  0.33958626166E+02  0.67854113695E+02  0.75995679411E+02  0.41800000000E+01 0. -1.
         -5    1    4    4    0  501 -0.64685333934E+02 -0.54884027000E+02  0.72172449954E+01  0.85240893186E+02  0.41800000000E+01 0. -1.
</event>
<event>
11    1  0.7157190E-009  0.1264025E+03  0.7561462E-02  0.1123770E+00
         22   -1    0    0    0    0  0.00000000000E+00  0.00000000000E+00  0.35166291602E+03  0.35166291602E+03  0.00000000000E+00 0.  1.
         22   -1    0    0    0    0 -0.00000000000E+00 -0.00000000000E+00 -0.36285983897E+03  0.36285983897E+03  0.00000000000E+00 0. -1.
         24    2    1    2    0    0 -0.79355043211E+01  0.17060776621E+02 -0.28432094067E+03  0.29625030478E+03  0.81066660542E+02 0.  0.
         25    2    1    2    0    0 -0.30080159346E+02 -0.22829892217E+02 -0.44641990931E+01  0.13074240094E+03  0.12509047272E+03 0.  0.
        -24    2    1    2    0    0  0.38015663667E+02  0.57691155963E+01  0.27758821681E+03  0.28753004927E+03  0.64341570886E+02 0.  0.
        -13    1    3    3    0    0 -0.60790167691E+01  0.49527191911E+02 -0.19164074260E+03  0.19803048101E+03  0.00000000000E+00 0.  1.
         14    1    3    3    0    0 -0.18564875520E+01 -0.32466415291E+02 -0.92680198065E+02  0.98219823769E+02  0.00000000000E+00 0. -1.
         11    1    5    5    0    0 -0.17953711684E+02 -0.21644877212E+01  0.79721053308E+02  0.81746358395E+02  0.00000000000E+00 0. -1.
        -12    1    5    5    0    0  0.55969375351E+02  0.79336033175E+01  0.19786716350E+03  0.20578369088E+03  0.00000000000E+00 0.  1.
          5    1    4    4  501    0  0.14586980910E+02  0.29166721911E+02  0.37804919778E+02  0.50101517328E+02  0.41800000000E+01 0. -1.
         -5    1    4    4    0  501 -0.44667140256E+02 -0.51996614128E+02 -0.42269118871E+02  0.80640883611E+02  0.41800000000E+01 0. -1.
</event>
<event>
11    1  0.7866881E-009  0.1544093E+03  0.7561462E-02  0.1092457E+00
         22   -1    0    0    0    0  0.00000000000E+00  0.00000000000E+00  0.13778269259E+04  0.13778269259E+04  0.00000000000E+00 0.  1.
         22   -1    0    0    0    0 -0.00000000000E+00 -0.00000000000E+00 -0.33001252363E+03  0.33001252363E+03  0.00000000000E+00 0.  1.
         24    2    1    2    0    0  0.84384870373E+01 -0.90505538768E+01 -0.22947813844E+03  0.24386559586E+03  0.81591005835E+02 0.  0.
         25    2    1    2    0    0 -0.73326343971E+02  0.71560850442E+02 -0.18185660532E+02  0.16273863635E+03  0.12512169067E+03 0.  0.
        -24    2    1    2    0    0  0.64887856933E+02 -0.62510296565E+02  0.12954782012E+04  0.13012352173E+04  0.82651979727E+02 0.  0.
        -11    1    3    3    0    0  0.88522537616E+01  0.74955577684E+01 -0.22680311627E+03  0.22709953618E+03  0.00000000000E+00 0.  1.
         12    1    3    3    0    0 -0.41376672427E+00 -0.16546111645E+02 -0.26750221652E+01  0.16766059676E+02  0.00000000000E+00 0. -1.
         11    1    5    5    0    0  0.41956312514E+02  0.64110763025E+01  0.28420517145E+03  0.28735694448E+03  0.00000000000E+00 0. -1.
        -12    1    5    5    0    0  0.22931544420E+02 -0.68921372868E+02  0.10112730297E+04  0.10138782728E+04  0.00000000000E+00 0.  1.
          5    1    4    4  501    0  0.11351051410E+02 -0.12273921117E+02 -0.38137279205E+02  0.41849969807E+02  0.41800000000E+01 0. -1.
         -5    1    4    4    0  501 -0.84677395381E+02  0.83834771559E+02  0.19951618672E+02  0.12088866654E+03  0.41800000000E+01 0. -1.
</event>
<event>
11    1  0.7157190E-009  0.1529035E+03  0.7561462E-02  0.1093948E+00
         22   -1    0    0    0    0  0.00000000000E+00  0.00000000000E+00  0.92123292865E+02  0.92123292865E+02  0.00000000000E+00 0. -1.
         22   -1    0    0    0    0 -0.00000000000E+00 -0.00000000000E+00 -0.38106838077E+04  0.38106838077E+04  0.00000000000E+00 0. -1.
        -24    2    1    2    0    0 -0.22738838187E+02  0.51022515821E+02 -0.35917183153E+04  0.35934884210E+04  0.97970525207E+02 0.  0.
         25    2    1    2    0    0 -0.73482121317E+02 -0.35844982349E+02 -0.97347406786E+02  0.17835081270E+03  0.12509200562E+03 0.  0.
         24    2    1    2    0    0  0.96220959504E+02 -0.15177533472E+02 -0.29494792715E+02  0.13096786679E+03  0.82424564087E+02 0.  0.
        -13    1    5    5    0    0 -0.52890752175E+01 -0.13768181252E+02 -0.25392472902E+02  0.29365197288E+02  0.00000000000E+00 0.  1.
         14    1    5    5    0    0  0.10151003472E+03 -0.14093522206E+01 -0.41023198128E+01  0.10160266951E+03  0.00000000000E+00 0. -1.
         11    1    3    3    0    0  0.11376188858E+02  0.91161262509E+01 -0.27493691242E+04  0.27494077731E+04  0.00000000000E+00 0. -1.
        -12    1    3    3    0    0 -0.34115027045E+02  0.41906389570E+02 -0.84234919106E+03  0.84408064794E+03  0.00000000000E+00 0.  1.
          5    1    4    4  501    0  0.28338687983E+02  0.11427268572E+00  0.54987686246E+01  0.29168530152E+02  0.41800000000E+01 0. -1.
         -5    1    4    4    0  501 -0.10182080930E+03 -0.35959255035E+02 -0.10284617541E+03  0.14918228255E+03  0.41800000000E+01 0. -1.
</event>
<event>
11    1  0.7157190E-009  0.1643803E+03  0.7561462E-02  0.1083028E+00
         22   -1    0    0    0    0  0.00000000000E+00  0.00000000000E+00  0.90674150453E+03  0.90674150453E+03  0.00000000000E+00 0.  1.
         22   -1    0    0    0    0 -0.00000000000E+00 -0.00000000000E+00 -0.41043693419E+03  0.41043693419E+03  0.00000000000E+00 0.  1.
         24    2    1    2    0    0 -0.84049112258E+02  0.66179273650E+02 -0.28655350298E+03  0.31611575889E+03  0.79826771295E+02 0.  0.
         25    2    1    2    0    0  0.93351141338E+02 -0.51082216943E+02 -0.44008717164E+02  0.17002575144E+03  0.12509260765E+03 0.  0.
        -24    2    1    2    0    0 -0.93020290801E+01 -0.15097056707E+02  0.82686679048E+03  0.83103692839E+03  0.81235695851E+02 0.  0.
        -11    1    3    3    0    0 -0.56397146096E+02  0.79072666011E+02 -0.25173265091E+03  0.26981929533E+03  0.00000000000E+00 0.  1.
         12    1    3    3    0    0 -0.27651966162E+02 -0.12893392361E+02 -0.34820852070E+02  0.46296463559E+02  0.00000000000E+00 0. -1.
         11    1    5    5    0    0  0.29926083852E+01 -0.21747673705E+02  0.57575065185E+02  0.61618220906E+02  0.00000000000E+00 0. -1.
        -12    1    5    5    0    0 -0.12294637465E+02  0.66506169982E+01  0.76929172530E+03  0.76941870749E+03  0.00000000000E+00 0.  1.
          5    1    4    4  501    0  0.10805251768E+03 -0.77019907879E+02 -0.44187379305E+02  0.13991929702E+03  0.41800000000E+01 0.  1.
         -5    1    4    4    0  501 -0.14701376346E+02  0.25937690936E+02  0.17866214181E+00  0.30106454420E+02  0.41800000000E+01 0.  1.
</event>
<event>
11    1  0.7157190E-009  0.1889032E+03  0.7561462E-02  0.1062660E+00
         22   -1    0    0    0    0  0.00000000000E+00  0.00000000000E+00  0.89179753796E+03  0.89179753796E+03  0.00000000000E+00 0. -1.
         22   -1    0    0    0    0 -0.00000000000E+00 -0.00000000000E+00 -0.44312893080E+03  0.44312893080E+03  0.00000000000E+00 0.  1.
         24    2    1    2    0    0  0.94892540765E+01 -0.14327457348E+03 -0.38045648653E+03  0.41457137788E+03  0.80651347552E+02 0.  0.
         25    2    1    2    0    0  0.89023495098E+02  0.11720445290E+03  0.19770009748E+03  0.27639525538E+03  0.12508773800E+03 0.  0.
        -24    2    1    2    0    0 -0.98512749175E+02  0.26070120582E+02  0.63142499622E+03  0.64395983549E+03  0.74848720329E+02 0.  0.
        -13    1    3    3    0    0  0.33589169318E+02 -0.12859637073E+03 -0.34163173313E+03  0.36657536734E+03  0.00000000000E+00 0.  1.
         14    1    3    3    0    0 -0.24099915242E+02 -0.14678202757E+02 -0.38824753404E+02  0.47996010539E+02  0.00000000000E+00 0. -1.
         11    1    5    5    0    0 -0.83410031274E+02  0.11420080760E+02  0.29229141537E+03  0.30417416567E+03  0.00000000000E+00 0. -1.
        -12    1    5    5    0    0 -0.15102717901E+02  0.14650039822E+02  0.33913358086E+03  0.33978566983E+03  0.00000000000E+00 0.  1.
          5    1    4    4  501    0  0.16936454112E+02  0.42388998966E+02  0.15895673906E+03  0.16543393849E+03  0.41800000000E+01 0. -1.
         -5    1    4    4    0  501  0.72087040986E+02  0.74815453936E+02  0.38743358417E+02  0.11096131690E+03  0.41800000000E+01 0. -1.
</event>
<event>
11    1  0.7157190E-009  0.1400032E+03  0.7561462E-02  0.1107555E+00
         22   -1    0    0    0    0  0.00000000000E+00  0.00000000000E+00  0.18032364579E+03  0.18032364579E+03  0.00000000000E+00 0.  1.
         22   -1    0    0    0    0 -0.00000000000E+00 -0.00000000000E+00 -0.10091343797E+04  0.10091343797E+04  0.00000000000E+00 0. -1.
         24    2    1    2    0    0 -0.60213678327E+02 -0.13791881769E+02 -0.89418844213E+03  0.89998150925E+03  0.81103908026E+02 0.  0.
         25    2    1    2    0    0  0.84816371950E+02  0.11978021885E+02 -0.37684086439E+02  0.15622209180E+03  0.12509181283E+03 0.  0.
        -24    2    1    2    0    0 -0.24602693623E+02  0.18138598836E+01  0.10306179470E+03  0.13325442440E+03  0.80786295085E+02 0.  0.
        -13    1    3    3    0    0 -0.69780358200E+02 -0.20409762277E+02 -0.46620179030E+03  0.47183680024E+03  0.00000000000E+00 0.  1.
         14    1    3    3    0    0  0.95666798735E+01  0.66178805085E+01 -0.42798665183E+03  0.42814470900E+03  0.00000000000E+00 0. -1.
         13    1    5    5    0    0  0.26027018309E+02 -0.14035384817E+02  0.24210450706E+02  0.38217059443E+02  0.00000000000E+00 0. -1.
        -14    1    5    5    0    0 -0.50629711933E+02  0.15849244701E+02  0.78851343993E+02  0.95037364955E+02  0.00000000000E+00 0.  1.
          5    1    4    4  501    0  0.90860106428E+02  0.53293513156E+02 -0.98765009479E+01  0.10588094803E+03  0.41800000000E+01 0. -1.
         -5    1    4    4    0  501 -0.60437344776E+01 -0.41315491270E+02 -0.27807585491E+02  0.50341143771E+02  0.41800000000E+01 0. -1.
</event>
<event>
11    1  0.7157190E-009  0.1983455E+03  0.7561462E-02  0.1055700E+00
         22   -1    0    0    0    0  0.00000000000E+00  0.00000000000E+00  0.79152962730E+02  0.79152962730E+02  0.00000000000E+00 0.  1.
         22   -1    0    0    0    0 -0.00000000000E+00 -0.00000000000E+00 -0.30160051562E+04  0.30160051562E+04  0.00000000000E+00 0.  1.
        -24    2    1    2    0    0  0.10539733099E+03  0.11419683356E+03 -0.26011328021E+04  0.26069581112E+04  0.78671627890E+02 0.  0.
         25    2    1    2    0    0 -0.16656833258E+03 -0.26671783815E+02 -0.26034055914E+03  0.33448677533E+03  0.12509117741E+03 0.  0.
         24    2    1    2    0    0  0.61171001584E+02 -0.87525049744E+02 -0.75378832187E+02  0.15371323240E+03  0.80890442602E+02 0.  0.
        -13    1    5    5    0    0  0.62578382788E+02 -0.77176122928E+02 -0.25262585430E+02  0.10252027197E+03  0.00000000000E+00 0.  1.
         14    1    5    5    0    0 -0.14073812034E+01 -0.10348926816E+02 -0.50116246757E+02  0.51192960425E+02  0.00000000000E+00 0. -1.
         11    1    3    3    0    0  0.31654336607E+02 -0.47599435398E+01 -0.34231271576E+03  0.34380612191E+03  0.00000000000E+00 0. -1.
        -12    1    3    3    0    0  0.73742994385E+02  0.11895677710E+03 -0.22588200864E+04  0.22631519893E+04  0.00000000000E+00 0.  1.
          5    1    4    4  501    0 -0.12531211902E+02 -0.49744047486E+02 -0.89663567153E+02  0.10338534329E+03  0.41800000000E+01 0. -1.
         -5    1    4    4    0  501 -0.15403712067E+03  0.23072263671E+02 -0.17067699199E+03  0.23110143204E+03  0.41800000000E+01 0. -1.
</event>
<event>
11    1  0.7157190E-009  0.2421015E+03  0.7561462E-02  0.1028193E+00
         22   -1    0    0    0    0  0.00000000000E+00  0.00000000000E+00  0.16567216372E+03  0.16567216372E+03  0.00000000000E+00 0.  1.
         22   -1    0    0    0    0 -0.00000000000E+00 -0.00000000000E+00 -0.57513755652E+03  0.57513755652E+03  0.00000000000E+00 0. -1.
         24    2    1    2    0    0  0.23865127087E+02 -0.24232005850E+02 -0.15908807849E+03  0.17959553474E+03  0.76084196678E+02 0.  0.
         25    2    1    2    0    0 -0.22348005364E+03  0.22801811163E+00 -0.22980089000E+03  0.34408372499E+03  0.12506707955E+03 0.  0.
        -24    2    1    2    0    0  0.19961492656E+03  0.24003987738E+02 -0.20576424308E+02  0.21713046051E+03  0.79372144438E+02 0.  0.
        -11    1    3    3    0    0  0.52520342349E-01 -0.42677169776E+02 -0.46797056867E+02  0.63334888568E+02  0.00000000000E+00 0.  1.
         12    1    3    3    0    0  0.23812606744E+02  0.18445163926E+02 -0.11229102162E+03  0.11626064617E+03  0.00000000000E+00 0. -1.
         13    1    5    5    0    0  0.41578041430E+02 -0.22365434219E+02 -0.22772155036E+02  0.52416764703E+02  0.00000000000E+00 0. -1.
        -14    1    5    5    0    0  0.15803688513E+03  0.46369421958E+02  0.21957307271E+01  0.16471369581E+03  0.00000000000E+00 0.  1.
          5    1    4    4  501    0 -0.67380314452E+02 -0.35744958150E+02 -0.14229407557E+03  0.16150196640E+03  0.41800000000E+01 0. -1.
         -5    1    4    4    0  501 -0.15609973919E+03  0.35972976261E+02 -0.87506814430E+02  0.18258175859E+03  0.41800000000E+01 0. -1.
</event>
<event>
11    1  0.7157190E-009  0.1327130E+03  0.7561462E-02  0.1115980E+00
         22   -1    0    0    0    0  0.00000000000E+00  0.00000000000E+00  0.14254149333E+03  0.14254149333E+03  0.00000000000E+00 0. -1.
         22   -1    0    0    0    0 -0.00000000000E+00 -0.00000000000E+00 -0.10445389151E+04  0.10445389151E+04  0.00000000000E+00 0.  1.
        -24    2    1    2    0    0 -0.37506569260E+02  0.22853377072E+02 -0.81627481771E+03  0.82136582311E+03  0.80051344565E+02 0.  0.
         25    2    1    2    0    0  0.23287540339E+02 -0.51640816083E+02 -0.18746618672E+03  0.23237971172E+03  0.12509067045E+03 0.  0.
         24    2    1    2    0    0  0.14219028920E+02  0.28787439011E+02  0.10174358268E+03  0.13333487358E+03  0.79972085544E+02 0.  0.
        -13    1    5    5    0    0  0.16951247136E+02  0.46917772945E+02  0.27711640283E+02  0.57066252766E+02  0.00000000000E+00 0.  1.
         14    1    5    5    0    0 -0.27322182158E+01 -0.18130333933E+02  0.74031942400E+02  0.76268620811E+02  0.00000000000E+00 0. -1.
         11    1    3    3    0    0 -0.90989483670E+01  0.27895065636E+02 -0.93067218087E+02  0.97582952562E+02  0.00000000000E+00 0. -1.
        -12    1    3    3    0    0 -0.28407620893E+02 -0.50416885646E+01 -0.72320759962E+03  0.72378287055E+03  0.00000000000E+00 0.  1.
          5    1    4    4  501    0  0.68039175349E+02 -0.57015771189E+01 -0.66510710840E+02  0.95409561472E+02  0.41800000000E+01 0. -1.
         -5    1    4    4    0  501 -0.44751635010E+02 -0.45939238964E+02 -0.12095547588E+03  0.13697015025E+03  0.41800000000E+01 0. -1.
</event>
<event>
11    1  0.7157190E-009  0.1671230E+03  0.7561462E-02  0.1080563E+00
         22   -1    0    0    0    0  0.00000000000E+00  0.00000000000E+00  0.34185204902E+03  0.34185204902E+03  0.00000000000E+00 0. -1.
         22   -1    0    0    0    0 -0.00000000000E+00 -0.00000000000E+00 -0.36615029749E+03  0.36615029749E+03  0.00000000000E+00 0. -1.
         24    2    1    2    0    0  0.11043691138E+03  0.11493524454E+02 -0.28161835818E+03  0.31327511323E+03  0.80647283925E+02 0.  0.
         25    2    1    2    0    0 -0.11125107276E+03  0.17992921150E+02  0.59460540832E+02  0.17856158567E+03  0.12509251599E+03 0.  0.
        -24    2    1    2    0    0  0.81416137654E+00 -0.29486445604E+02  0.19785956888E+03  0.21616564761E+03  0.81908881539E+02 0.  0.
        -11    1    3    3    0    0 -0.68445863834E+01 -0.14582781610E+02 -0.22655574546E+02  0.27798937754E+02  0.00000000000E+00 0.  1.
         12    1    3    3    0    0  0.11728149777E+03  0.26076306064E+02 -0.25896278363E+03  0.28547617548E+03  0.00000000000E+00 0. -1.
         13    1    5    5    0    0  0.34498758114E+01  0.28310534670E+02  0.78560843820E+02  0.83577474227E+02  0.00000000000E+00 0. -1.
        -14    1    5    5    0    0 -0.26357144349E+01 -0.57796980274E+02  0.11929872506E+03  0.13258817338E+03  0.00000000000E+00 0.  1.
          5    1    4    4  501    0 -0.10747466583E+03  0.17080968685E+02  0.93812581235E+02  0.14373877724E+03  0.41800000000E+01 0.  1.
         -5    1    4    4    0  501 -0.37764069346E+01  0.91195246523E+00 -0.34352040403E+02  0.34822808423E+02  0.41800000000E+01 0.  1.
</event>
<event>
11    1  0.7157190E-009  0.3061679E+03  0.7561462E-02  0.9976141E-01
         22   -1    0    0    0    0  0.00000000000E+00  0.00000000000E+00  0.16861068709E+03  0.16861068709E+03  0.00000000000E+00 0. -1.
         22   -1    0    0    0    0 -0.00000000000E+00 -0.00000000000E+00 -0.20071033396E+04  0.20071033396E+04  0.00000000000E+00 0. -1.
        -24    2    1    2    0    0 -0.46446333619E+02 -0.18016358086E+02 -0.14138895243E+04  0.14172777349E+04  0.84325202900E+02 0.  0.
         25    2    1    2    0    0  0.30804524145E+03 -0.23335449218E+02 -0.32198115604E+03  0.46341735717E+03  0.12508944043E+03 0.  0.
         24    2    1    2    0    0 -0.26159890783E+03  0.41351807304E+02 -0.10262197221E+03  0.29501893466E+03  0.79755514427E+02 0.  0.
        -13    1    5    5    0    0 -0.16026096012E+03  0.11904607213E+02 -0.10035771785E+03  0.18946494806E+03  0.00000000000E+00 0.  1.
         14    1    5    5    0    0 -0.10133794771E+03  0.29447200091E+02 -0.22642543636E+01  0.10555398660E+03  0.00000000000E+00 0. -1.
         13    1    3    3    0    0 -0.66839113900E+02  0.51663722859E+01 -0.95224500572E+03  0.95460185913E+03  0.00000000000E+00 0. -1.
        -14    1    3    3    0    0  0.20392780281E+02 -0.23182730372E+02 -0.46164451854E+03  0.46267587572E+03  0.00000000000E+00 0.  1.
          5    1    4    4  501    0  0.20805185552E+03  0.26637837898E+02 -0.14862749210E+03  0.25710455617E+03  0.41800000000E+01 0.  1.
         -5    1    4    4    0  501  0.99993385928E+02 -0.49973287116E+02 -0.17335366394E+03  0.20631280100E+03  0.41800000000E+01 0.  1.
</event>
<event>
11    1  0.7157190E-009  0.1408757E+03  0.7561462E-02  0.1106584E+00
         22   -1    0    0    0    0  0.00000000000E+00  0.00000000000E+00  0.12176191351E+04  0.12176191351E+04  0.00000000000E+00 0. -1.
         22   -1    0    0    0    0 -0.00000000000E+00 -0.00000000000E+00 -0.13779035218E+04  0.13779035218E+04  0.00000000000E+00 0. -1.
         24    2    1    2    0    0  0.56471434513E+01  0.88826082401E+01 -0.10634929731E+04  0.10668000430E+04  0.83272065627E+02 0.  0.
         25    2    1    2    0    0  0.50386570466E+02  0.23775930314E+02 -0.29572180874E+03  0.32588751892E+03  0.12508871044E+03 0.  0.
        -24    2    1    2    0    0 -0.56033713918E+02 -0.32658538554E+02  0.11989303951E+04  0.12028350950E+04  0.71915340786E+02 0.  0.
        -13    1    3    3    0    0  0.38518432093E+02 -0.12520597807E+02 -0.37269535310E+03  0.37488966537E+03  0.00000000000E+00 0.  1.
         14    1    3    3    0    0 -0.32871288642E+02  0.21403206047E+02 -0.69079762000E+03  0.69191037761E+03  0.00000000000E+00 0. -1.
         11    1    5    5    0    0 -0.70745883771E+02 -0.31851518643E+02  0.11085338422E+04  0.11112455978E+04  0.00000000000E+00 0. -1.
        -12    1    5    5    0    0  0.14712169854E+02 -0.80701991185E+00  0.90396552828E+02  0.91589497139E+02  0.00000000000E+00 0.  1.
          5    1    4    4  501    0 -0.32585355784E+02  0.36508650129E+02 -0.14791587081E+03  0.15585655002E+03  0.41800000000E+01 0. -1.
         -5    1    4    4    0  501  0.82971926251E+02 -0.12732719814E+02 -0.14780593793E+03  0.17003096890E+03  0.41800000000E+01 0. -1.
</event>
<event>
11    1  0.7157190E-009  0.1263798E+03  0.7561462E-02  0.1123799E+00
         22   -1    0    0    0    0  0.00000000000E+00  0.00000000000E+00  0.12794533522E+03  0.12794533522E+03  0.00000000000E+00 0. -1.
         22   -1    0    0    0    0 -0.00000000000E+00 -0.00000000000E+00 -0.26528617726E+04  0.26528617726E+04  0.00000000000E+00 0.  1.
        -24    2    1    2    0    0  0.82339208359E+01  0.27790230770E+01 -0.25095337750E+04  0.25107644957E+04  0.78122112320E+02 0.  0.
         25    2    1    2    0    0 -0.98030618764E+01 -0.20278856741E+02 -0.92941527944E+02  0.15745594069E+03  0.12508762365E+03 0.  0.
         24    2    1    2    0    0  0.15691410404E+01  0.17499833664E+02  0.77558865591E+02  0.11258667142E+03  0.79697393738E+02 0.  0.
        -11    1    5    5    0    0 -0.30810056939E+02 -0.19990214153E+01  0.57042427299E+01  0.31397357856E+02  0.00000000000E+00 0.  1.
         12    1    5    5    0    0  0.32379197979E+02  0.19498855080E+02  0.71854622861E+02  0.81189313568E+02  0.00000000000E+00 0. -1.
         13    1    3    3    0    0 -0.20024339954E+02 -0.29431843675E+02 -0.10603398478E+04  0.10609372274E+04  0.00000000000E+00 0. -1.
        -14    1    3    3    0    0  0.28258260790E+02  0.32210866752E+02 -0.14491939272E+04  0.14498272683E+04  0.00000000000E+00 0.  1.
          5    1    4    4  501    0 -0.54092145187E+01 -0.73347479270E+02 -0.52495867525E+02  0.90456623993E+02  0.41800000000E+01 0.  1.
         -5    1    4    4    0  501 -0.43938473577E+01  0.53068622529E+02 -0.40445660419E+02  0.66999316702E+02  0.41800000000E+01 0.  1.
</event>
<event>
11    1  0.7157190E-009  0.1595838E+03  0.7561462E-02  0.1087469E+00
         22   -1    0    0    0    0  0.00000000000E+00  0.00000000000E+00  0.29363493858E+03  0.29363493858E+03  0.00000000000E+00 0. -1.
         22   -1    0    0    0    0 -0.00000000000E+00 -0.00000000000E+00 -0.61473195559E+03  0.61473195559E+03  0.00000000000E+00 0.  1.
         24    2    1    2    0    0  0.10271278027E+03 -0.11047058653E+02 -0.52278170367E+03  0.53940708063E+03  0.83590287716E+02 0.  0.
         25    2    1    2    0    0 -0.56205377491E+02 -0.73578824539E+02  0.32841977571E+02  0.15905361845E+03  0.12508625093E+03 0.  0.
        -24    2    1    2    0    0 -0.46507402776E+02  0.84625883192E+02  0.16884270909E+03  0.20990619509E+03  0.78919400062E+02 0.  0.
        -13    1    3    3    0    0  0.39758859835E+01 -0.17726195956E+02 -0.22245564573E+03  0.22319619175E+03  0.00000000000E+00 0.  1.
         14    1    3    3    0    0  0.98736894284E+02  0.66791373027E+01 -0.30032605794E+03  0.31621088888E+03  0.00000000000E+00 0. -1.
         13    1    5    5    0    0 -0.23303038080E+02  0.95604861037E+02  0.12480562579E+03  0.15893321008E+03  0.00000000000E+00 0. -1.
        -14    1    5    5    0    0 -0.23204364696E+02 -0.10978977845E+02  0.44037083296E+02  0.50972985009E+02  0.00000000000E+00 0.  1.
          5    1    4    4  501    0 -0.65224121716E+02 -0.80319500502E+02  0.66669525381E+02  0.12315724189E+03  0.41800000000E+01 0. -1.
         -5    1    4    4    0  501  0.90187442248E+01  0.67406759632E+01 -0.33827547810E+02  0.35896376567E+02  0.41800000000E+01 0. -1.
</event>
<event>
11    1  0.7157190E-009  0.1875602E+03  0.7561462E-02  0.1063686E+00
         22   -1    0    0    0    0  0.00000000000E+00  0.00000000000E+00  0.53095447023E+03  0.53095447023E+03  0.00000000000E+00 0.  1.
         22   -1    0    0    0    0 -0.00000000000E+00 -0.00000000000E+00 -0.14070630501E+04  0.14070630501E+04  0.00000000000E+00 0. -1.
        -24    2    1    2    0    0  0.13859199430E+03 -0.23957076100E+02 -0.13597852491E+04  0.13692703099E+04  0.78125382735E+02 0.  0.
         25    2    1    2    0    0 -0.73491726407E+02  0.92700809316E+02  0.24374291309E+03  0.29841786988E+03  0.12509253968E+03 0.  0.
         24    2    1    2    0    0 -0.65100267896E+02 -0.68743733216E+02  0.23993375619E+03  0.27032934054E+03  0.80907349834E+02 0.  0.
        -13    1    5    5    0    0 -0.71231017909E+02 -0.30235939262E+02  0.20030924809E+03  0.21473673371E+03  0.00000000000E+00 0.  1.
         14    1    5    5    0    0  0.61307500137E+01 -0.38507793954E+02  0.39624508102E+02  0.55592606822E+02  0.00000000000E+00 0. -1.
         11    1    3    3    0    0  0.10801072263E+03 -0.29674072683E+02 -0.71370874400E+03  0.72244517996E+03  0.00000000000E+00 0. -1.
        -12    1    3    3    0    0  0.30581271668E+02  0.57169965830E+01 -0.64607650511E+03  0.64682512991E+03  0.00000000000E+00 0.  1.
          5    1    4    4  501    0 -0.65452298409E+02 -0.11685875280E+02  0.81212915288E+02  0.10504081615E+03  0.41800000000E+01 0.  1.
         -5    1    4    4    0  501 -0.80394279974E+01  0.10438668460E+03  0.16252999780E+03  0.19337705373E+03  0.41800000000E+01 0.  1.
</event>
<event>
11    1  0.7157190E-009  0.2003088E+03  0.7561462E-02  0.1054306E+00
         22   -1    0    0    0    0  0.00000000000E+00  0.00000000000E+00  0.15094085074E+03  0.15094085074E+03  0.00000000000E+00 0.  1.
         22   -1    0    0    0    0 -0.00000000000E+00 -0.00000000000E+00 -0.10599234592E+04  0.10599234592E+04  0.00000000000E+00 0. -1.
        -24    2    1    2    0    0 -0.21029003632E+02  0.16335317805E+03 -0.88826147370E+03  0.90701497659E+03  0.80877947088E+02 0.  0.
         25    2    1    2    0    0 -0.56410658456E+02 -0.10039958171E+03 -0.31328865741E+02  0.17289156712E+03  0.12509099790E+03 0.  0.
         24    2    1    2    0    0  0.77439662088E+02 -0.62953596340E+02  0.10607731000E+02  0.13095776622E+03  0.84127023121E+02 0.  0.
        -11    1    5    5    0    0  0.56756287320E+02  0.50418740997E+01  0.17361009193E+02  0.59565940645E+02  0.00000000000E+00 0.  1.
         12    1    5    5    0    0  0.20683374768E+02 -0.67995470440E+02 -0.67532781928E+01  0.71391825572E+02  0.00000000000E+00 0. -1.
         13    1    3    3    0    0 -0.41593942430E+02  0.15035274434E+03 -0.81570071172E+03  0.83048398833E+03  0.00000000000E+00 0. -1.
        -14    1    3    3    0    0  0.20564938798E+02  0.13000433714E+02 -0.72560761987E+02  0.76530988263E+02  0.00000000000E+00 0.  1.
          5    1    4    4  501    0  0.33284564556E+02 -0.48949801238E+02  0.12266014225E+02  0.60595979932E+02  0.41800000000E+01 0. -1.
         -5    1    4    4    0  501 -0.89695223012E+02 -0.51449780472E+02 -0.43594879966E+02  0.11229558718E+03  0.41800000000E+01 0. -1.
</event>
<event>
11    1  0.7157190E-009  0.1343616E+03  0.7561462E-02  0.1114023E+00
         22   -1    0    0    0    0  0.00000000000E+00  0.00000000000E+00  0.51953090973E+03  0.51953090973E+03  0.00000000000E+00 0. -1.
         22   -1    0    0    0    0 -0.00000000000E+00 -0.00000000000E+00 -0.13152768029E+04  0.13152768029E+04  0.00000000000E+00 0. -1.
         24    2    1    2    0    0 -0.47535014706E+02 -0.96282200381E+01 -0.12415000158E+04  0.12454312334E+04  0.86164886691E+02 0.  0.
         25    2    1    2    0    0  0.63591192413E+02  0.40426765029E+02  0.11516521920E+02  0.14649025888E+03  0.12509437472E+03 0.  0.
        -24    2    1    2    0    0 -0.16056177707E+02 -0.30798544991E+02  0.43423760069E+03  0.44288622034E+03  0.79872142150E+02 0.  0.
        -13    1    3    3    0    0 -0.70225391508E+02 -0.36328992142E+01 -0.72608382619E+03  0.72948099785E+03  0.00000000000E+00 0.  1.
         14    1    3    3    0    0  0.22690376803E+02 -0.59953208239E+01 -0.51541618958E+03  0.51595023554E+03  0.00000000000E+00 0. -1.
         11    1    5    5    0    0 -0.34255399191E+02  0.71179082144E+01  0.30446122947E+03  0.30646490377E+03  0.00000000000E+00 0. -1.
        -12    1    5    5    0    0  0.18199221484E+02 -0.37916453205E+02  0.12977637122E+03  0.13642131657E+03  0.00000000000E+00 0.  1.
          5    1    4    4  501    0  0.10108810758E+03  0.21039836190E+02  0.12269864410E+02  0.10406489405E+03  0.41800000000E+01 0. -1.
         -5    1    4    4    0  501 -0.37496915163E+02  0.19386928839E+02 -0.75334248952E+00  0.42425364835E+02  0.41800000000E+01 0. -1.
</event>
<event>
11    1  0.7157190E-009  0.1636745E+03  0.7561462E-02  0.1083671E+00
         22   -1    0    0    0    0  0.00000000000E+00  0.00000000000E+00  0.31780558368E+03  0.31780558368E+03  0.00000000000E+00 0.  1.
         22   -1    0    0    0    0 -0.00000000000E+00 -0.00000000000E+00 -0.27130435718E+03  0.27130435718E+03  0.00000000000E+00 0.  1.
         24    2    1    2    0    0  0.53177431309E+02  0.91766158253E+02 -0.16866560398E+03  0.21469488639E+03  0.79980880683E+02 0.  0.
         25    2    1    2    0    0 -0.98462414772E+02 -0.59141892541E+02  0.62465060279E+02  0.18094880321E+03  0.12509186645E+03 0.  0.
        -24    2    1    2    0    0  0.45284983463E+02 -0.32624265712E+02  0.15270177020E+03  0.19346625127E+03  0.10486318380E+03 0.  0.
        -11    1    3    3    0    0  0.20405821844E+02  0.61655615470E+01 -0.94250630858E+02  0.96631222343E+02  0.00000000000E+00 0.  1.
         12    1    3    3    0    0  0.32771609465E+02  0.85600596706E+02 -0.74414973119E+02  0.11806366404E+03  0.00000000000E+00 0. -1.
         11    1    5    5    0    0 -0.39510675315E+01  0.15461940481E+02 -0.85766632677E+01  0.18117441621E+02  0.00000000000E+00 0. -1.
        -12    1    5    5    0    0  0.49236050994E+02 -0.48086206193E+02  0.16127843346E+03  0.17534880965E+03  0.00000000000E+00 0.  1.
          5    1    4    4  501    0  0.68441870795E+01 -0.28163335799E+02  0.64764101950E+02  0.71076562111E+02  0.41800000000E+01 0.  1.
         -5    1    4    4    0  501 -0.10530660185E+03 -0.30978556743E+02 -0.22990416711E+01  0.10987224110E+03  0.41800000000E+01 0.  1.
</event>
<event>
11    1  0.7157190E-009  0.1405400E+03  0.7561462E-02  0.1106957E+00
         22   -1    0    0    0    0  0.00000000000E+00  0.00000000000E+00  0.15782423793E+04  0.15782423793E+04  0.00000000000E+00 0. -1.
         22   -1    0    0    0    0 -0.00000000000E+00 -0.00000000000E+00 -0.81402780753E+03  0.81402780753E+03  0.00000000000E+00 0. -1.
        -24    2    1    2    0    0  0.59734760465E+02  0.23347513646E+02 -0.78343931853E+03  0.79005505747E+03  0.79350362394E+02 0.  0.
         25    2    1    2    0    0 -0.57456631575E+02 -0.16258680280E+02  0.15812167938E+03  0.21027797924E+03  0.12509497939E+03 0.  0.
         24    2    1    2    0    0 -0.22781288902E+01 -0.70888333664E+01  0.13895322109E+04  0.13919371501E+04  0.81448285663E+02 0.  0.
        -11    1    5    5    0    0  0.23808102246E+02  0.28548796770E+02  0.56308437815E+03  0.56431008891E+03  0.00000000000E+00 0.  1.
         12    1    5    5    0    0 -0.26086231136E+02 -0.35637630136E+02  0.82644783274E+03  0.82762706117E+03  0.00000000000E+00 0. -1.
         13    1    3    3    0    0  0.42422749822E+02  0.21638698196E+02 -0.75643431110E+03  0.75793191645E+03  0.00000000000E+00 0. -1.
        -14    1    3    3    0    0  0.17312010643E+02  0.17088154502E+01 -0.27005007433E+02  0.32123141024E+02  0.00000000000E+00 0.  1.
          5    1    4    4  501    0  0.35050185810E+02 -0.23226855815E+02  0.29074004177E+02  0.51291056484E+02  0.41800000000E+01 0. -1.
         -5    1    4    4    0  501 -0.92506817385E+02  0.69681755353E+01  0.12904767520E+03  0.15898692276E+03  0.41800000000E+01 0. -1.
</event>
<event>
11    1  0.7157190E-009  0.1700094E+03  0.7561462E-02  0.1078023E+00
         22   -1    0    0    0    0  0.00000000000E+00  0.00000000000E+00  0.25644901395E+04  0.25644901395E+04  0.00000000000E+00 0. -1.
         22   -1    0    0    0    0 -0.00000000000E+00 -0.00000000000E+00 -0.10750555864E+03  0.10750555864E+03  0.00000000000E+00 0. -1.
        -24    2    1    2    0    0  0.37841968635E+02 -0.33122802752E+02 -0.74441623519E+02  0.12096679212E+03  0.81007868946E+02 0.  0.
         25    2    1    2    0    0  0.24353467468E+02  0.12476421363E+03  0.13727666163E+04  0.13843030031E+04  0.12508965241E+03 0.  0.
         24    2    1    2    0    0 -0.62195436103E+02 -0.91641410875E+02  0.11586595881E+04  0.11667259030E+04  0.80565942515E+02 0.  0.
        -11    1    5    5    0    0 -0.33231918740E+02 -0.72080132495E+01  0.13633372289E+03  0.14051049738E+03  0.00000000000E+00 0.  1.
         12    1    5    5    0    0 -0.28963517363E+02 -0.84433397625E+02  0.10223258652E+04  0.10262154056E+04  0.00000000000E+00 0. -1.
         13    1    3    3    0    0  0.55601913567E+02 -0.41806187323E+02 -0.73462518821E+02  0.10117347361E+03  0.00000000000E+00 0. -1.
        -14    1    3    3    0    0 -0.17759944932E+02  0.86833845715E+01 -0.97910469785E+00  0.19793318509E+02  0.00000000000E+00 0.  1.
          5    1    4    4  501    0  0.69326112050E+02  0.59069347078E+02  0.92611895780E+03  0.93059609604E+03  0.41800000000E+01 0.  1.
         -5    1    4    4    0  501 -0.44972644583E+02  0.65694866548E+02  0.44664765848E+03  0.45370690702E+03  0.41800000000E+01 0.  1.
</event>
<event>
11    1  0.7157190E-009  0.1275943E+03  0.7561462E-02  0.1122261E+00
         22   -1    0    0    0    0  0.00000000000E+00  0.00000000000E+00  0.30775127543E+03  0.30775127543E+03  0.00000000000E+00 0.  1.
         22   -1    0    0    0    0 -0.00000000000E+00 -0.00000000000E+00 -0.28809253727E+04  0.28809253727E+04  0.00000000000E+00 0. -1.
         24    2    1    2    0    0 -0.11356829331E+02  0.26360483943E+02 -0.22094660925E+04  0.22111053024E+04  0.80139827239E+02 0.  0.
         25    2    1    2    0    0  0.10836830477E+02 -0.98896388143E+00 -0.65864145972E+03  0.67050388572E+03  0.12509385820E+03 0.  0.
        -24    2    1    2    0    0  0.51999885434E+00 -0.25371520062E+02  0.29493345497E+03  0.30706745995E+03  0.81613097416E+02 0.  0.
        -11    1    3    3    0    0 -0.21924280785E+02  0.17200314177E+02 -0.24347694214E+03  0.24506641191E+03  0.00000000000E+00 0.  1.
         12    1    3    3    0    0  0.10567451453E+02  0.91601697664E+01 -0.19659891504E+04  0.19660388905E+04  0.00000000000E+00 0. -1.
         13    1    5    5    0    0  0.15351791632E+02 -0.43669786644E+02  0.26482513694E+03  0.26884025169E+03  0.00000000000E+00 0. -1.
        -14    1    5    5    0    0 -0.14831792777E+02  0.18298266582E+02  0.30108318029E+02  0.38227208261E+02  0.00000000000E+00 0.  1.
          5    1    4    4  501    0  0.67202464062E+02  0.32930729049E+01 -0.40811343875E+03  0.41364364711E+03  0.41800000000E+01 0. -1.
         -5    1    4    4    0  501 -0.56365633585E+02 -0.42820367863E+01 -0.25052802096E+03  0.25686023861E+03  0.41800000000E+01 0. -1.
</event>
<event>
11    1  0.7157190E-009  0.1781331E+03  0.7561462E-02  0.1071163E+00
         22   -1    0    0    0    0  0.00000000000E+00  0.00000000000E+00  0.23115151224E+03  0.23115151224E+03  0.00000000000E+00 0. -1.
         22   -1    0    0    0    0 -0.00000000000E+00 -0.00000000000E+00 -0.88973603597E+03  0.88973603597E+03  0.00000000000E+00 0. -1.
        -24    2    1    2    0    0 -0.36415314771E+02 -0.11679057964E+03 -0.65530467584E+03  0.67160270730E+03  0.81607987614E+02 0.  0.
         25    2    1    2    0    0 -0.40834735436E+02  0.17595965381E+03 -0.14233739064E+03  0.26179037451E+03  0.12507994253E+03 0.  0.
         24    2    1    2    0    0  0.77250050207E+02 -0.59169074176E+02  0.13905754275E+03  0.18749446640E+03  0.79678260145E+02 0.  0.
        -13    1    5    5    0    0  0.24179884184E+02  0.13543308639E+02  0.86475902618E+01  0.29032203246E+02  0.00000000000E+00 0.  1.
         14    1    5    5    0    0  0.53070166024E+02 -0.72712382814E+02  0.13040995249E+03  0.15846226316E+03  0.00000000000E+00 0. -1.
         11    1    3    3    0    0 -0.79625795082E+01 -0.10661870923E+03 -0.38353195479E+03  0.39815538698E+03  0.00000000000E+00 0. -1.
        -12    1    3    3    0    0 -0.28452735263E+02 -0.10171870410E+02 -0.27177272104E+03  0.27344732033E+03  0.00000000000E+00 0.  1.
          5    1    4    4  501    0  0.13843691124E+01  0.22364070941E+02 -0.91850432802E+02  0.94636370137E+02  0.41800000000E+01 0. -1.
         -5    1    4    4    0  501 -0.42219104548E+02  0.15359558287E+03 -0.50486957843E+02  0.16715400438E+03  0.41800000000E+01 0. -1.
</event>
<event>
11    1  0.7157190E-009  0.1373007E+03  0.7561462E-02  0.1110611E+00
         22   -1    0    0    0    0  0.00000000000E+00  0.00000000000E+00  0.56843066109E+03  0.56843066109E+03  0.00000000000E+00 0. -1.
         22   -1    0    0    0    0 -0.00000000000E+00 -0.00000000000E+00 -0.27349193202E+03  0.27349193202E+03  0.00000000000E+00 0. -1.
         24    2    1    2    0    0 -0.20473393865E+02 -0.12919580787E+02 -0.23263147987E+03  0.24734507772E+03  0.80474260634E+02 0.  0.
         25    2    1    2    0    0  0.27608570201E+02  0.64939665846E+02  0.18040940323E+03  0.23059418958E+03  0.12508690637E+03 0.  0.
        -24    2    1    2    0    0 -0.71351763364E+01 -0.52020085059E+02  0.34716080570E+03  0.36398332581E+03  0.95949134754E+02 0.  0.
        -11    1    3    3    0    0  0.33934116054E+01  0.16122612324E+02 -0.58720908675E+01  0.17491006879E+02  0.00000000000E+00 0.  1.
         12    1    3    3    0    0 -0.23866805470E+02 -0.29042193111E+02 -0.22675938900E+03  0.22985407084E+03  0.00000000000E+00 0. -1.
         11    1    5    5    0    0 -0.24267507089E+02 -0.29519152610E+02  0.32706454795E+03  0.32928940280E+03  0.00000000000E+00 0. -1.
        -12    1    5    5    0    0  0.17132330753E+02 -0.22500932449E+02  0.20096257755E+02  0.34693923011E+02  0.00000000000E+00 0.  1.
          5    1    4    4  501    0  0.77603962824E+02  0.35599413797E+02  0.10911237327E+03  0.13860979659E+03  0.41800000000E+01 0. -1.
         -5    1    4    4    0  501 -0.49995392623E+02  0.29340252049E+02  0.71297029957E+02  0.91984392994E+02  0.41800000000E+01 0. -1.
</event>
<event>
11    1  0.7157190E-009  0.1666095E+03  0.7561462E-02  0.1081020E+00
         22   -1    0    0    0    0  0.00000000000E+00  0.00000000000E+00  0.89442402433E+03  0.89442402433E+03  0.00000000000E+00 0. -1.
         22   -1    0    0    0    0 -0.00000000000E+00 -0.00000000000E+00 -0.38414896611E+03  0.38414896611E+03  0.00000000000E+00 0.  1.
         24    2    1    2    0    0  0.53131900738E+02  0.94534673705E+02 -0.32332747015E+03  0.35040922492E+03  0.80536752749E+02 0.  0.
         25    2    1    2    0    0 -0.15363903716E+02 -0.14581696506E+03  0.17139097955E+03  0.25791653615E+03  0.12508970747E+03 0.  0.
        -24    2    1    2    0    0 -0.37767997021E+02  0.51282291353E+02  0.66221154883E+03  0.67024722936E+03  0.81553160977E+02 0.  0.
        -13    1    3    3    0    0  0.45165344495E+02  0.99774973063E+02 -0.21148885012E+03  0.23816483225E+03  0.00000000000E+00 0.  1.
         14    1    3    3    0    0  0.79665562428E+01 -0.52402993573E+01 -0.11183862003E+03  0.11224439267E+03  0.00000000000E+00 0. -1.
         11    1    5    5    0    0 -0.78216697404E+01  0.40256964583E+02  0.58846734469E+03  0.58989458167E+03  0.00000000000E+00 0. -1.
        -12    1    5    5    0    0 -0.29946327281E+02  0.11025326770E+02  0.73744204137E+02  0.80352647696E+02  0.00000000000E+00 0.  1.
          5    1    4    4  501    0 -0.10881977219E+01 -0.11986331012E+03  0.45114533779E+02  0.12814519439E+03  0.41800000000E+01 0. -1.
         -5    1    4    4    0  501 -0.14275705995E+02 -0.25953654936E+02  0.12627644577E+03  0.12977134176E+03  0.41800000000E+01 0. -1.
</event>
<event>
11    1  0.7157190E-009  0.1621508E+03  0.7561462E-02  0.1085072E+00
         22   -1    0    0    0    0  0.00000000000E+00  0.00000000000E+00  0.26234609375E+03  0.26234609375E+03  0.00000000000E+00 0. -1.
         22   -1    0    0    0    0 -0.00000000000E+00 -0.00000000000E+00 -0.62473680642E+03  0.62473680642E+03  0.00000000000E+00 0.  1.
         24    2    1    2    0    0  0.79504268705E+02 -0.79422200377E+02 -0.39276249316E+03  0.41625963375E+03  0.79880485752E+02 0.  0.
         25    2    1    2    0    0 -0.50317810550E+02  0.65933700258E+02 -0.18546621505E+03  0.23858754517E+03  0.12508862817E+03 0.  0.
        -24    2    1    2    0    0 -0.29186458155E+02  0.13488500119E+02  0.21583799554E+03  0.23223572124E+03  0.79458170927E+02 0.  0.
        -13    1    3    3    0    0  0.66035756271E+02 -0.40459551938E+02 -0.34302396636E+03  0.35165769997E+03  0.00000000000E+00 0.  1.
         14    1    3    3    0    0  0.13468512434E+02 -0.38962648439E+02 -0.49738526801E+02  0.64601933786E+02  0.00000000000E+00 0. -1.
         11    1    5    5    0    0 -0.44038906947E+02  0.42302561681E+01  0.20869430381E+03  0.21333221237E+03  0.00000000000E+00 0. -1.
        -12    1    5    5    0    0  0.14852448793E+02  0.92582439508E+01  0.71436917336E+01  0.18903508875E+02  0.00000000000E+00 0.  1.
          5    1    4    4  501    0 -0.69417674514E+02  0.37432794663E+01 -0.14757799526E+03  0.16318566959E+03  0.41800000000E+01 0.  1.
         -5    1    4    4    0  501  0.19099863964E+02  0.62190420792E+02 -0.37888219793E+02  0.75401875579E+02  0.41800000000E+01 0.  1.
</event>
<event>
11    1  0.7157190E-009  0.1483544E+03  0.7561462E-02  0.1098572E+00
         22   -1    0    0    0    0  0.00000000000E+00  0.00000000000E+00  0.49858920123E+03  0.49858920123E+03  0.00000000000E+00 0. -1.
         22   -1    0    0    0    0 -0.00000000000E+00 -0.00000000000E+00 -0.69181392401E+03  0.69181392401E+03  0.00000000000E+00 0. -1.
        -24    2    1    2    0    0  0.25581995657E+02  0.67189464376E+02 -0.60896237335E+03  0.61759172174E+03  0.73590080679E+02 0.  0.
         25    2    1    2    0    0 -0.97691287188E+02 -0.32432022277E+02  0.21806869966E+02  0.16345849258E+03  0.12509082923E+03 0.  0.
         24    2    1    2    0    0  0.72109291531E+02 -0.34757442099E+02  0.39393078061E+03  0.40935291093E+03  0.77333796397E+02 0.  0.
        -11    1    5    5    0    0  0.76336498670E+01 -0.42341196627E+02  0.11045782818E+03  0.11854105343E+03  0.00000000000E+00 0.  1.
         12    1    5    5    0    0  0.64475641664E+02  0.75837545280E+01  0.28347295243E+03  0.29081185750E+03  0.00000000000E+00 0. -1.
         13    1    3    3    0    0  0.29309175107E+02  0.72574990078E+02 -0.35418429119E+03  0.36272947090E+03  0.00000000000E+00 0. -1.
        -14    1    3    3    0    0 -0.37271794497E+01 -0.53855257028E+01 -0.25477808216E+03  0.25486225084E+03  0.00000000000E+00 0.  1.
          5    1    4    4  501    0 -0.11961895180E+03  0.10797193569E+01  0.49283257186E+01  0.11979824798E+03  0.41800000000E+01 0. -1.
         -5    1    4    4    0  501  0.21927664613E+02 -0.33511741634E+02  0.16878544247E+02  0.43660244601E+02  0.41800000000E+01 0. -1.
</event>
<event>
11    1  0.7157190E-009  0.1415261E+03  0.7561462E-02  0.1105866E+00
         22   -1    0    0    0    0  0.00000000000E+00  0.00000000000E+00  0.11644436769E+04  0.11644436769E+04  0.00000000000E+00 0.  1.
         22   -1    0    0    0    0 -0.00000000000E+00 -0.00000000000E+00 -0.51892518716E+03  0.51892518716E+03  0.00000000000E+00 0. -1.
        -24    2    1    2    0    0 -0.48494150726E+02  0.45572737607E+02 -0.46135953388E+03  0.47292823598E+03  0.79874525486E+02 0.  0.
         25    2    1    2    0    0  0.62599763020E+02 -0.20866235418E+02  0.49718895613E+02  0.14991053642E+03  0.12508824980E+03 0.  0.
         24    2    1    2    0    0 -0.14105612293E+02 -0.24706502189E+02  0.10571591280E+04  0.10605300916E+04  0.79556733528E+02 0.  0.
        -13    1    5    5    0    0 -0.43486228768E+02 -0.22483278218E+02  0.83380466606E+03  0.83524054681E+03  0.00000000000E+00 0.  1.
         14    1    5    5    0    0  0.29380616475E+02 -0.22232239711E+01  0.22335446192E+03  0.22528954483E+03  0.00000000000E+00 0. -1.
         13    1    3    3    0    0  0.87629975632E+01 -0.16991856787E+02 -0.89771668734E+02  0.91784888902E+02  0.00000000000E+00 0. -1.
        -14    1    3    3    0    0 -0.57257148289E+02  0.62564594393E+02 -0.37158786514E+03  0.38114334708E+03  0.00000000000E+00 0.  1.
          5    1    4    4  501    0 -0.12563547915E-01 -0.30090979639E+02 -0.33534398927E+02  0.45249259937E+02  0.41800000000E+01 0. -1.
         -5    1    4    4    0  501  0.62612326567E+02  0.92247442209E+01  0.83253294539E+02  0.10466127649E+03  0.41800000000E+01 0. -1.
</event>
<event>
11    1  0.7157190E-009  0.1782944E+03  0.7561462E-02  0.1071031E+00
         22   -1    0    0    0    0  0.00000000000E+00  0.00000000000E+00  0.11068888767E+04  0.11068888767E+04  0.00000000000E+00 0. -1.
         22   -1    0    0    0    0 -0.00000000000E+00 -0.00000000000E+00 -0.13611215367E+04  0.13611215367E+04  0.00000000000E+00 0.  1.
        -24    2    1    2    0    0  0.70234943197E+02 -0.11078678677E+03 -0.12664954785E+04  0.12757229755E+04  0.79067400572E+02 0.  0.
         25    2    1    2    0    0 -0.44986639206E+02  0.58161634131E+02 -0.27330397476E+02  0.14765370646E+03  0.12509233795E+03 0.  0.
         24    2    1    2    0    0 -0.25248303991E+02  0.52625152643E+02  0.10395932160E+04  0.10446337314E+04  0.84253750449E+02 0.  0.
        -11    1    5    5    0    0  0.60226356253E+01 -0.13277694005E+02  0.43605726470E+02  0.45978567604E+02  0.00000000000E+00 0.  1.
         12    1    5    5    0    0 -0.31270939616E+02  0.65902846648E+02  0.99598748955E+03  0.99865516381E+03  0.00000000000E+00 0. -1.
         11    1    3    3    0    0  0.37853724332E+02 -0.39778604978E+02 -0.23719558153E+03  0.24346865457E+03  0.00000000000E+00 0. -1.
        -12    1    3    3    0    0  0.32381218865E+02 -0.71008181796E+02 -0.10292998969E+04  0.10322543209E+04  0.00000000000E+00 0.  1.
          5    1    4    4  501    0 -0.34068289995E+02 -0.26033774441E+02 -0.43393195497E+02  0.61146116886E+02  0.41800000000E+01 0. -1.
         -5    1    4    4    0  501 -0.10918349211E+02  0.84195408571E+02  0.16062798021E+02  0.86507589576E+02  0.41800000000E+01 0. -1.
</event>
<event>
11    1  0.7157190E-009  0.1921311E+03  0.7561462E-02  0.1060232E+00
         22   -1    0    0    0    0  0.00000000000E+00  0.00000000000E+00  0.62885498487E+03  0.62885498487E+03  0.00000000000E+00 0. -1.
         22   -1    0    0    0    0 -0.00000000000E+00 -0.00000000000E+00 -0.39935384924E+03  0.39935384924E+03  0.00000000000E+00 0. -1.
         24    2    1    2    0    0  0.36737041755E+02 -0.13238695663E+02 -0.30423372591E+03  0.31746640355E+03  0.81865035904E+02 0.  0.
         25    2    1    2    0    0 -0.17355037413E+03 -0.19537214535E+02  0.79796808642E+02  0.22917306123E+03  0.12510526052E+03 0.  0.
        -24    2    1    2    0    0  0.13681333238E+03  0.32775910198E+02  0.45393805289E+03  0.48156936933E+03  0.77827716169E+02 0.  0.
        -13    1    3    3    0    0  0.49461297369E+02 -0.20128579957E+02 -0.10586433489E+03  0.11856996698E+03  0.00000000000E+00 0.  1.
         14    1    3    3    0    0 -0.12724255614E+02  0.68898842932E+01 -0.19836939102E+03  0.19889643657E+03  0.00000000000E+00 0. -1.
         13    1    5    5    0    0  0.12804163123E+03  0.38355580294E+02  0.45152992720E+03  0.47089816843E+03  0.00000000000E+00 0. -1.
        -14    1    5    5    0    0  0.87717011439E+01 -0.55796700955E+01  0.24081256927E+01  0.10671200902E+02  0.00000000000E+00 0.  1.
          5    1    4    4  501    0 -0.14546374154E+03  0.27802382692E+02  0.89547889651E+02  0.17311548033E+03  0.41800000000E+01 0. -1.
         -5    1    4    4    0  501 -0.28086632588E+02 -0.47339597227E+02 -0.97510810095E+01  0.56057580902E+02  0.41800000000E+01 0. -1.
</event>
<event>
11    1  0.7157190E-009  0.2518093E+03  0.7561462E-02  0.1022940E+00
         22   -1    0    0    0    0  0.00000000000E+00  0.00000000000E+00  0.27146614375E+03  0.27146614375E+03  0.00000000000E+00 0. -1.
         22   -1    0    0    0    0 -0.00000000000E+00 -0.00000000000E+00 -0.16498853256E+04  0.16498853256E+04  0.00000000000E+00 0. -1.
        -24    2    1    2    0    0  0.49157037025E+02  0.17814928063E+03 -0.10838722135E+04  0.11022776969E+04  0.77997213205E+02 0.  0.
         25    2    1    2    0    0 -0.24402190235E+03 -0.70850136959E+02 -0.45296163989E+03  0.53421754664E+03  0.12509080380E+03 0.  0.
         24    2    1    2    0    0  0.19486486532E+03 -0.10729914367E+03  0.15841467159E+03  0.28485622582E+03  0.81008883743E+02 0.  0.
        -11    1    5    5    0    0  0.25321558557E+02 -0.10641479416E+02  0.60645605146E+02  0.66575609914E+02  0.00000000000E+00 0.  1.
         12    1    5    5    0    0  0.16954330677E+03 -0.96657664251E+02  0.97769066444E+02  0.21828061591E+03  0.00000000000E+00 0. -1.
         13    1    3    3    0    0  0.63681298043E+02  0.14921764514E+03 -0.98413833249E+03  0.99742141085E+03  0.00000000000E+00 0. -1.
        -14    1    3    3    0    0 -0.14524261018E+02  0.28931635489E+02 -0.99733881042E+02  0.10485628602E+03  0.00000000000E+00 0.  1.
          5    1    4    4  501    0 -0.17575855043E+03 -0.47556327433E+02 -0.19715244583E+03  0.26840125116E+03  0.41800000000E+01 0. -1.
         -5    1    4    4    0  501 -0.68263351916E+02 -0.23293809526E+02 -0.25580919406E+03  0.26581629548E+03  0.41800000000E+01 0. -1.
</event>
<event>
11    1  0.7157190E-009  0.1557494E+03  0.7561462E-02  0.1091145E+00
         22   -1    0    0    0    0  0.00000000000E+00  0.00000000000E+00  0.26505193549E+03  0.26505193549E+03  0.00000000000E+00 0.  1.
         22   -1    0    0    0    0 -0.00000000000E+00 -0.00000000000E+00 -0.14748117150E+04  0.14748117150E+04  0.00000000000E+00 0. -1.
         24    2    1    2    0    0 -0.10462742747E+02 -0.72447685436E+02 -0.11739537102E+04  0.11777899888E+04  0.60529397318E+02 0.  0.
         25    2    1    2    0    0  0.72502898727E+01  0.16137745111E+03 -0.24630789950E+03  0.32001629448E+03  0.12509036312E+03 0.  0.
        -24    2    1    2    0    0  0.32124528742E+01 -0.88929765678E+02  0.21050183017E+03  0.24205736722E+03  0.79761679053E+02 0.  0.
        -13    1    3    3    0    0  0.83475573181E+01 -0.38098141335E+02 -0.25157896104E+03  0.25458421735E+03  0.00000000000E+00 0.  1.
         14    1    3    3    0    0 -0.18810300065E+02 -0.34349544102E+02 -0.92237474912E+03  0.92320577142E+03  0.00000000000E+00 0. -1.
         11    1    5    5    0    0  0.12420032733E+02 -0.58260467150E+02  0.48202063441E+02  0.76628833775E+02  0.00000000000E+00 0. -1.
        -12    1    5    5    0    0 -0.92075798587E+01 -0.30669298527E+02  0.16229976672E+03  0.16542853345E+03  0.00000000000E+00 0.  1.
          5    1    4    4  501    0  0.25950842246E+02  0.17430835600E+03 -0.23634345260E+03  0.29484326205E+03  0.41800000000E+01 0.  1.
         -5    1    4    4    0  501 -0.18700552373E+02 -0.12930904884E+02 -0.99644468973E+01  0.25173032439E+02  0.41800000000E+01 0.  1.
</event>
<event>
11    1  0.7157190E-009  0.1771205E+03  0.7561462E-02  0.1071996E+00
         22   -1    0    0    0    0  0.00000000000E+00  0.00000000000E+00  0.93214895058E+03  0.93214895058E+03  0.00000000000E+00 0.  1.
         22   -1    0    0    0    0 -0.00000000000E+00 -0.00000000000E+00 -0.14021154769E+04  0.14021154769E+04  0.00000000000E+00 0. -1.
         24    2    1    2    0    0  0.19856449592E+02  0.12262801256E+03 -0.13420733682E+04  0.13502945476E+04  0.81868990536E+02 0.  0.
         25    2    1    2    0    0 -0.70459985075E+01 -0.21810507126E+03  0.27025992782E+03  0.36919829851E+03  0.12508991499E+03 0.  0.
        -24    2    1    2    0    0 -0.12810451085E+02  0.95477058698E+02  0.60184691400E+03  0.61477158143E+03  0.80277101662E+02 0.  0.
        -13    1    3    3    0    0 -0.23580564097E+02  0.26543251284E+02 -0.56286844638E+03  0.56398712319E+03  0.00000000000E+00 0.  1.
         14    1    3    3    0    0  0.43437013690E+02  0.96084761276E+02 -0.77920492177E+03  0.78630742437E+03  0.00000000000E+00 0. -1.
         13    1    5    5    0    0 -0.35590098964E+01 -0.21552886106E+01  0.23516206783E+03  0.23519887322E+03  0.00000000000E+00 0. -1.
        -14    1    5    5    0    0 -0.92514411884E+01  0.97632347309E+02  0.36668484617E+03  0.37957270821E+03  0.00000000000E+00 0.  1.
          5    1    4    4  501    0 -0.19688111423E+02 -0.13887002711E+03  0.77356128758E+02  0.16023092466E+03  0.41800000000E+01 0.  1.
         -5    1    4    4    0  501  0.12642112915E+02 -0.79235044152E+02  0.19290379907E+03  0.20896737385E+03  0.41800000000E+01 0.  1.
</event>
<event>
11    1  0.7157190E-009  0.1423053E+03  0.7561462E-02  0.1105011E+00
         22   -1    0    0    0    0  0.00000000000E+00  0.00000000000E+00  0.27297633647E+03  0.27297633647E+03  0.00000000000E+00 0.  1.
         22   -1    0    0    0    0 -0.00000000000E+00 -0.00000000000E+00 -0.24628836103E+03  0.24628836103E+03  0.00000000000E+00 0. -1.
         24    2    1    2    0    0 -0.13384215398E+02  0.30207044227E+02 -0.16610934196E+03  0.18634995703E+03  0.77732813241E+02 0.  0.
         25    2    1    2    0    0  0.73386690595E+02  0.16979976454E+01  0.44146721410E+02  0.15161003654E+03  0.12509268810E+03 0.  0.
        -24    2    1    2    0    0 -0.60002475198E+02 -0.31905041873E+02  0.14865059599E+03  0.18130470393E+03  0.78461246819E+02 0.  0.
        -13    1    3    3    0    0 -0.95956803745E+01  0.40868728433E+02 -0.34729126950E+02  0.54483413111E+02  0.00000000000E+00 0.  1.
         14    1    3    3    0    0 -0.37885350230E+01 -0.10661684206E+02 -0.13138021501E+03  0.13186654391E+03  0.00000000000E+00 0. -1.
         11    1    5    5    0    0  0.10950156337E+02  0.45429887670E+01 -0.81800667306E+00  0.11883341519E+02  0.00000000000E+00 0. -1.
        -12    1    5    5    0    0 -0.70952631535E+02 -0.36448030640E+02  0.14946860266E+03  0.16942136241E+03  0.00000000000E+00 0.  1.
          5    1    4    4  501    0  0.84385024688E+02 -0.87239667633E+01 -0.18578214624E+02  0.86945744268E+02  0.41800000000E+01 0.  1.
         -5    1    4    4    0  501 -0.10998334093E+02  0.10421964409E+02  0.62724936033E+02  0.64664292274E+02  0.41800000000E+01 0.  1.
</event>
<event>
11    1  0.7157190E-009  0.1557775E+03  0.7561462E-02  0.1091117E+00
         22   -1    0    0    0    0  0.00000000000E+00  0.00000000000E+00  0.61685075634E+02  0.61685075634E+02  0.00000000000E+00 0. -1.
         22   -1    0    0    0    0 -0.00000000000E+00 -0.00000000000E+00 -0.23368172487E+04  0.23368172487E+04  0.00000000000E+00 0. -1.
        -24    2    1    2    0    0 -0.63980787038E+02 -0.28056654047E+02 -0.15562660949E+04  0.15600063250E+04  0.82309531316E+02 0.  0.
         25    2    1    2    0    0  0.89174589004E+02  0.11264803237E+03 -0.69039598579E+03  0.71620330701E+03  0.12513541965E+03 0.  0.
         24    2    1    2    0    0 -0.25193801966E+02 -0.84591378319E+02 -0.28470092328E+02  0.12229269229E+03  0.79715290163E+02 0.  0.
        -13    1    5    5    0    0 -0.35205042024E+02 -0.72749981669E+01 -0.25866029138E+02  0.44287380207E+02  0.00000000000E+00 0.  1.
         14    1    5    5    0    0  0.10011240058E+02 -0.77316380152E+02 -0.26040631903E+01  0.78005312078E+02  0.00000000000E+00 0. -1.
         13    1    3    3    0    0 -0.49708890633E+02 -0.56486262422E+02 -0.11808748681E+04  0.11832696759E+04  0.00000000000E+00 0. -1.
        -14    1    3    3    0    0 -0.14271896405E+02  0.28429608375E+02 -0.37539122676E+03  0.37673664912E+03  0.00000000000E+00 0.  1.
          5    1    4    4  501    0  0.41953870850E+02 -0.18805774554E+02 -0.24805605164E+03  0.25231540101E+03  0.41800000000E+01 0.  1.
         -5    1    4    4    0  501  0.47220718155E+02  0.13145380692E+03 -0.44233993415E+03  0.46388790599E+03  0.41800000000E+01 0.  1.
</event>
<event>
11    1  0.7157190E-009  0.1503371E+03  0.7561462E-02  0.1096535E+00
         22   -1    0    0    0    0  0.00000000000E+00  0.00000000000E+00  0.10382717227E+04  0.10382717227E+04  0.00000000000E+00 0. -1.
         22   -1    0    0    0    0 -0.00000000000E+00 -0.00000000000E+00 -0.50338050056E+03  0.50338050056E+03  0.00000000000E+00 0.  1.
        -24    2    1    2    0    0 -0.67039959675E+01  0.13728751149E+02 -0.42829079542E+03  0.43619368867E+03  0.81231191195E+02 0.  0.
         25    2    1    2    0    0  0.73031205127E+02 -0.63136203214E+02  0.24799444837E+02  0.15994518200E+03  0.12509081382E+03 0.  0.
         24    2    1    2    0    0 -0.66327209160E+02  0.49407452065E+02  0.93838257273E+03  0.94551335260E+03  0.81198843242E+02 0.  0.
        -11    1    5    5    0    0 -0.53935004169E+02 -0.92207915928E+01  0.37882872371E+03  0.38275998952E+03  0.00000000000E+00 0.  1.
         12    1    5    5    0    0 -0.12392204991E+02  0.58628243658E+02  0.55955384902E+03  0.56275336308E+03  0.00000000000E+00 0. -1.
         13    1    3    3    0    0 -0.38922483518E+01  0.33963938224E+02 -0.76276928957E+02  0.83587490620E+02  0.00000000000E+00 0. -1.
        -14    1    3    3    0    0 -0.28117476156E+01 -0.20235187075E+02 -0.35201386646E+03  0.35260619805E+03  0.00000000000E+00 0.  1.
          5    1    4    4  501    0  0.41655197555E+01 -0.42362199152E+01  0.61616997174E+02  0.62043725345E+02  0.41800000000E+01 0. -1.
         -5    1    4    4    0  501  0.68865685372E+02 -0.58899983299E+02 -0.36817552337E+02  0.97901456651E+02  0.41800000000E+01 0. -1.
</event>
<event>
11    1  0.7157190E-009  0.1300359E+03  0.7561462E-02  0.1119225E+00
         22   -1    0    0    0    0  0.00000000000E+00  0.00000000000E+00  0.95243314834E+03  0.95243314834E+03  0.00000000000E+00 0. -1.
         22   -1    0    0    0    0 -0.00000000000E+00 -0.00000000000E+00 -0.17599985388E+04  0.17599985388E+04  0.00000000000E+00 0. -1.
         24    2    1    2    0    0 -0.29329197376E+02 -0.11098406856E+02 -0.17137764724E+04  0.17159757177E+04  0.80990678542E+02 0.  0.
         25    2    1    2    0    0  0.56691471868E+02  0.31031905979E+02  0.73381832371E+02  0.15878406514E+03  0.12510229355E+03 0.  0.
        -24    2    1    2    0    0 -0.27362274492E+02 -0.19933499123E+02  0.83282924959E+03  0.83767190426E+03  0.83328397091E+02 0.  0.
        -11    1    3    3    0    0  0.14631010083E+02 -0.95369449049E+01 -0.94403402345E+02  0.96005323542E+02  0.00000000000E+00 0.  1.
         12    1    3    3    0    0 -0.43960207459E+02 -0.15614619516E+01 -0.16193730701E+04  0.16199703942E+04  0.00000000000E+00 0. -1.
         11    1    5    5    0    0 -0.88271788923E+01 -0.48908541604E+02  0.62904472915E+03  0.63100494118E+03  0.00000000000E+00 0. -1.
        -12    1    5    5    0    0 -0.18535095600E+02  0.28975042481E+02  0.20378452044E+03  0.20666696308E+03  0.00000000000E+00 0.  1.
          5    1    4    4  501    0  0.42917919276E+02 -0.44252978773E+02  0.18449037749E+02  0.64483434456E+02  0.41800000000E+01 0. -1.
         -5    1    4    4    0  501  0.13773552592E+02  0.75284884753E+02  0.54932794622E+02  0.94300630688E+02  0.41800000000E+01 0. -1.
</event>
<event>
11    1  0.7157190E-009  0.1396590E+03  0.7561462E-02  0.1107940E+00
         22   -1    0    0    0    0  0.00000000000E+00  0.00000000000E+00  0.16214598302E+04  0.16214598302E+04  0.00000000000E+00 0. -1.
         22   -1    0    0    0    0 -0.00000000000E+00 -0.00000000000E+00 -0.66960062483E+02  0.66960062483E+02  0.00000000000E+00 0.  1.
        -24    2    1    2    0    0 -0.43893666775E+02 -0.51100160852E+02  0.50564165052E+02  0.11644799933E+03  0.80408465593E+02 0.  0.
         25    2    1    2    0    0 -0.11456338333E+02  0.68002731499E+02  0.12590932744E+03  0.19041460251E+03  0.12509573508E+03 0.  0.
         24    2    1    2    0    0  0.55350005108E+02 -0.16902570648E+02  0.13780262752E+04  0.13815572908E+04  0.79967572781E+02 0.  0.
        -11    1    5    5    0    0 -0.20925892680E+01  0.22688627450E+02  0.59286517949E+03  0.59330285167E+03  0.00000000000E+00 0.  1.
         12    1    5    5    0    0  0.57442594376E+02 -0.39591198097E+02  0.78516109572E+03  0.78825443916E+03  0.00000000000E+00 0. -1.
         13    1    3    3    0    0 -0.43351718875E+02 -0.28075926389E+02  0.69529220846E+02  0.86613750198E+02  0.00000000000E+00 0. -1.
        -14    1    3    3    0    0 -0.54194789994E+00 -0.23024234462E+02 -0.18965055794E+02  0.29834249133E+02  0.00000000000E+00 0.  1.
          5    1    4    4  501    0  0.12014067901E+02  0.15501609068E+02  0.13100391957E+03  0.13252975912E+03  0.41800000000E+01 0. -1.
         -5    1    4    4    0  501 -0.23470406234E+02  0.52501122431E+02 -0.50945921286E+01  0.57884843390E+02  0.41800000000E+01 0. -1.
</event>
<event>
11    1  0.7157190E-009  0.1329202E+03  0.7561462E-02  0.1115732E+00
         22   -1    0    0    0    0  0.00000000000E+00  0.00000000000E+00  0.20843383974E+03  0.20843383974E+03  0.00000000000E+00 0. -1.
         22   -1    0    0    0    0 -0.00000000000E+00 -0.00000000000E+00 -0.92942041372E+03  0.92942041372E+03  0.00000000000E+00 0. -1.
         24    2    1    2    0    0  0.17880676828E+02 -0.36334317600E+02 -0.69862675334E+03  0.70450704565E+03  0.81307660432E+02 0.  0.
         25    2    1    2    0    0 -0.42064967274E+02  0.73899529933E+02 -0.19033665120E+03  0.24311753996E+03  0.12508994943E+03 0.  0.
        -24    2    1    2    0    0  0.24184290447E+02 -0.37565212333E+02  0.16797683056E+03  0.19022966786E+03  0.77298679465E+02 0.  0.
        -13    1    3    3    0    0  0.12303848653E+02 -0.40095093848E+02 -0.14769961981E+03  0.15353885155E+03  0.00000000000E+00 0.  1.
         14    1    3    3    0    0  0.55768281744E+01  0.37607762484E+01 -0.55092713353E+03  0.55096819410E+03  0.00000000000E+00 0. -1.
         11    1    5    5    0    0  0.33729712627E+02  0.14041125862E+02  0.76221028132E+02  0.84525096030E+02  0.00000000000E+00 0. -1.
        -12    1    5    5    0    0 -0.95454221802E+01 -0.51606338195E+02  0.91755802427E+02  0.10570457183E+03  0.00000000000E+00 0.  1.
          5    1    4    4  501    0 -0.46530588622E+02  0.22297081337E+02 -0.18355294941E+03  0.19071290767E+03  0.41800000000E+01 0. -1.
         -5    1    4    4    0  501  0.44656213479E+01  0.51602448596E+02 -0.67837017885E+01  0.52404632286E+02  0.41800000000E+01 0. -1.
</event>
<event>
11    1  0.7157190E-009  0.1319692E+03  0.7561462E-02  0.1116873E+00
         22   -1    0    0    0    0  0.00000000000E+00  0.00000000000E+00  0.86042094418E+03  0.86042094418E+03  0.00000000000E+00 0. -1.
         22   -1    0    0    0    0 -0.00000000000E+00 -0.00000000000E+00 -0.13034361643E+03  0.13034361643E+03  0.00000000000E+00 0. -1.
        -24    2    1    2    0    0  0.26421106993E+02 -0.22150185459E+02 -0.98101348834E+02  0.13212310107E+03  0.81510328070E+02 0.  0.
         25    2    1    2    0    0  0.10562980368E+02  0.46077799855E+02  0.49659703987E+03  0.51428091292E+03  0.12506597139E+03 0.  0.
         24    2    1    2    0    0 -0.36984087360E+02 -0.23927614395E+02  0.33158163672E+03  0.34436054662E+03  0.81837954565E+02 0.  0.
        -13    1    5    5    0    0 -0.17652219028E+02 -0.60407632518E+01  0.90160218400E+01  0.20721493843E+02  0.00000000000E+00 0.  1.
         14    1    5    5    0    0 -0.19331868333E+02 -0.17886851143E+02  0.32256561488E+03  0.32363905278E+03  0.00000000000E+00 0. -1.
         13    1    3    3    0    0  0.46080254965E+02 -0.10712323321E+02 -0.98611904160E+02  0.10937299214E+03  0.00000000000E+00 0. -1.
        -14    1    3    3    0    0 -0.19659147972E+02 -0.11437862138E+02  0.51055532585E+00  0.22750108924E+02  0.00000000000E+00 0.  1.
          5    1    4    4  501    0  0.55032759328E+01  0.56105460457E+02  0.49888712769E+03  0.50207962248E+03  0.41800000000E+01 0.  1.
         -5    1    4    4    0  501  0.50597044348E+01 -0.10027660602E+02 -0.22900878238E+01  0.12201290438E+02  0.41800000000E+01 0.  1.
</event>
<event>
11    1  0.7157190E-009  0.1355004E+03  0.7561462E-02  0.1112690E+00
         22   -1    0    0    0    0  0.00000000000E+00  0.00000000000E+00  0.68624590555E+03  0.68624590555E+03  0.00000000000E+00 0. -1.
         22   -1    0    0    0    0 -0.00000000000E+00 -0.00000000000E+00 -0.13376460375E+04  0.13376460375E+04  0.00000000000E+00 0. -1.
         24    2    1    2    0    0 -0.20822500945E+02  0.31978800819E+02 -0.11813153652E+04  0.11845786392E+04  0.79147584990E+02 0.  0.
         25    2    1    2    0    0 -0.81392078818E+01  0.12337190491E+02 -0.12492066583E+03  0.17740595898E+03  0.12509695662E+03 0.  0.
        -24    2    1    2    0    0  0.28961708827E+02 -0.44315991310E+02  0.65483589908E+03  0.66190734484E+03  0.80675837578E+02 0.  0.
        -11    1    3    3    0    0  0.14825871963E+02 -0.76274773860E+01 -0.68932136745E+02  0.70919844663E+02  0.00000000000E+00 0.  1.
         12    1    3    3    0    0 -0.35648372908E+02  0.39606278205E+02 -0.11123832284E+04  0.11136587946E+04  0.00000000000E+00 0. -1.
         13    1    5    5    0    0  0.69144310218E+01 -0.65496148206E+02  0.45814122880E+03  0.46285088345E+03  0.00000000000E+00 0. -1.
        -14    1    5    5    0    0  0.22047277805E+02  0.21180156896E+02  0.19669467028E+03  0.19905646139E+03  0.00000000000E+00 0.  1.
          5    1    4    4  501    0  0.18751684531E+02  0.21484505787E+02  0.16425515062E+02  0.33173477459E+02  0.41800000000E+01 0. -1.
         -5    1    4    4    0  501 -0.26890892413E+02 -0.91473152963E+01 -0.14134618090E+03  0.14423248152E+03  0.41800000000E+01 0. -1.
</event>
<event>
11    1  0.7157190E-009  0.1430831E+03  0.7561462E-02  0.1104164E+00
         22   -1    0    0    0    0  0.00000000000E+00  0.00000000000E+00  0.13923253666E+04  0.13923253666E+04  0.00000000000E+00 0. -1.
         22   -1    0    0    0    0 -0.00000000000E+00 -0.00000000000E+00 -0.19496127173E+04  0.19496127173E+04  0.00000000000E+00 0. -1.
         24    2    1    2    0    0  0.20290162478E+02  0.41648050237E+02 -0.17411226659E+04  0.17436460262E+04  0.81529604045E+02 0.  0.
         25    2    1    2    0    0  0.13507360525E+02  0.19537554556E+02 -0.18556139204E+03  0.22504211885E+03  0.12508701058E+03 0.  0.
        -24    2    1    2    0    0 -0.33797523004E+02 -0.61185604794E+02  0.13693967072E+04  0.13732499388E+04  0.75379719252E+02 0.  0.
        -11    1    3    3    0    0 -0.10819024455E+02 -0.55015993863E+01 -0.45753005353E+02  0.47335572086E+02  0.00000000000E+00 0.  1.
         12    1    3    3    0    0  0.31109186933E+02  0.47149649623E+02 -0.16953696606E+04  0.16963104542E+04  0.00000000000E+00 0. -1.
         11    1    5    5    0    0 -0.36826041871E+02 -0.76801205068E+02  0.12307634752E+04  0.12337071429E+04  0.00000000000E+00 0. -1.
        -12    1    5    5    0    0  0.30285188673E+01  0.15615600275E+02  0.13863323196E+03  0.13954279595E+03  0.00000000000E+00 0.  1.
          5    1    4    4  501    0  0.67866563638E+02  0.24702096440E+02 -0.11204604521E+03  0.13337110885E+03  0.41800000000E+01 0.  1.
         -5    1    4    4    0  501 -0.54359203113E+02 -0.51645418832E+01 -0.73515346824E+02  0.91671010001E+02  0.41800000000E+01 0.  1.
</event>
<event>
11    1  0.7157190E-009  0.1656492E+03  0.7561462E-02  0.1081881E+00
         22   -1    0    0    0    0  0.00000000000E+00  0.00000000000E+00  0.31277285884E+03  0.31277285884E+03  0.00000000000E+00 0.  1.
         22   -1    0    0    0    0 -0.00000000000E+00 -0.00000000000E+00 -0.74074173525E+03  0.74074173525E+03  0.00000000000E+00 0.  1.
         24    2    1    2    0    0 -0.77033710808E+02  0.86379335238E+02 -0.54408463524E+03  0.56223773312E+03  0.81777723600E+02 0.  0.
         25    2    1    2    0    0  0.64165495109E+02 -0.54884553076E+02 -0.14939274626E+03  0.21235619914E+03  0.12508971881E+03 0.  0.
        -24    2    1    2    0    0  0.12868215699E+02 -0.31494782162E+02  0.26550850509E+03  0.27892066184E+03  0.78386587152E+02 0.  0.
        -11    1    3    3    0    0 -0.88322293935E+02  0.63578350843E+02 -0.35098126284E+03  0.36746548296E+03  0.00000000000E+00 0.  1.
         12    1    3    3    0    0  0.11288583127E+02  0.22800984396E+02 -0.19310337241E+03  0.19477225016E+03  0.00000000000E+00 0. -1.
         13    1    5    5    0    0  0.19587975056E+01  0.15618675920E+02  0.95021603911E+01  0.18386706537E+02  0.00000000000E+00 0. -1.
        -14    1    5    5    0    0  0.10909418193E+02 -0.47113458082E+02  0.25600634470E+03  0.26053395530E+03  0.00000000000E+00 0.  1.
          5    1    4    4  501    0  0.55325839890E+02 -0.34553855838E+02 -0.42834778831E+01  0.65503725814E+02  0.41800000000E+01 0.  1.
         -5    1    4    4    0  501  0.88396552193E+01 -0.20330697238E+02 -0.14510926837E+03  0.14685247333E+03  0.41800000000E+01 0.  1.
</event>
<event>
11    1  0.7157190E-009  0.1515493E+03  0.7561462E-02  0.1095306E+00
         22   -1    0    0    0    0  0.00000000000E+00  0.00000000000E+00  0.10446656153E+04  0.10446656153E+04  0.00000000000E+00 0.  1.
         22   -1    0    0    0    0 -0.00000000000E+00 -0.00000000000E+00 -0.43164610805E+03  0.43164610805E+03  0.00000000000E+00 0. -1.
        -24    2    1    2    0    0  0.26307645719E+02 -0.84849750126E+02 -0.35751644565E+03  0.37676959765E+03  0.79030047987E+02 0.  0.
         25    2    1    2    0    0 -0.29922512771E+02  0.52823378552E+02  0.13921273169E+02  0.13973616357E+03  0.12508687969E+03 0.  0.
         24    2    1    2    0    0  0.36148670518E+01  0.32026371574E+02  0.95661467977E+03  0.95980596217E+03  0.71253657655E+02 0.  0.
        -13    1    5    5    0    0  0.18532551538E+02  0.35811187601E+02  0.90614855403E+03  0.90704525719E+03  0.00000000000E+00 0.  1.
         14    1    5    5    0    0 -0.14917684486E+02 -0.37848160264E+01  0.50466125744E+02  0.52760704984E+02  0.00000000000E+00 0. -1.
         13    1    3    3    0    0  0.54721124094E+02 -0.58244716138E+02 -0.23484804396E+03  0.24807348131E+03  0.00000000000E+00 0. -1.
        -14    1    3    3    0    0 -0.28413478375E+02 -0.26605033988E+02 -0.12266840169E+03  0.12869611634E+03  0.00000000000E+00 0.  1.
          5    1    4    4  501    0 -0.15699878568E+02  0.62016013457E+02  0.61636509790E+02  0.88932580370E+02  0.41800000000E+01 0. -1.
         -5    1    4    4    0  501 -0.14222634202E+02 -0.91926349054E+01 -0.47715236621E+02  0.50803583200E+02  0.41800000000E+01 0. -1.
</event>
<event>
11    1  0.7157190E-009  0.1502558E+03  0.7561462E-02  0.1096618E+00
         22   -1    0    0    0    0  0.00000000000E+00  0.00000000000E+00  0.35917610179E+03  0.35917610179E+03  0.00000000000E+00 0. -1.
         22   -1    0    0    0    0 -0.00000000000E+00 -0.00000000000E+00 -0.14744888504E+04  0.14744888504E+04  0.00000000000E+00 0.  1.
        -24    2    1    2    0    0 -0.37029958188E+02  0.69694835450E+02 -0.13474295334E+04  0.13523019659E+04  0.83220620517E+02 0.  0.
         25    2    1    2    0    0 -0.47510344750E+02 -0.81791316365E+02 -0.58992824747E+02  0.16755763412E+03  0.12509338548E+03 0.  0.
         24    2    1    2    0    0  0.84540302938E+02  0.12096480915E+02  0.29110960947E+03  0.31380535221E+03  0.80222233080E+02 0.  0.
        -11    1    5    5    0    0  0.16951956250E+02  0.40303123656E+02  0.11803649587E+03  0.12587424262E+03  0.00000000000E+00 0.  1.
         12    1    5    5    0    0  0.67588346688E+02 -0.28206642741E+02  0.17307311360E+03  0.18793110959E+03  0.00000000000E+00 0. -1.
         11    1    3    3    0    0  0.87995436355E+01 -0.50359944662E+01 -0.54564927267E+03  0.54574345803E+03  0.00000000000E+00 0. -1.
        -12    1    3    3    0    0 -0.45829501823E+02  0.74730829916E+02 -0.80178026069E+03  0.80655850787E+03  0.00000000000E+00 0.  1.
          5    1    4    4  501    0 -0.88163057623E+02 -0.38143467428E+02 -0.27653946506E+02  0.10004929782E+03  0.41800000000E+01 0. -1.
         -5    1    4    4    0  501  0.40652712873E+02 -0.43647848937E+02 -0.31338878241E+02  0.67508336301E+02  0.41800000000E+01 0. -1.
</event>
<event>
11    1  0.7157190E-009  0.1357854E+03  0.7561462E-02  0.1112358E+00
         22   -1    0    0    0    0  0.00000000000E+00  0.00000000000E+00  0.18859608215E+03  0.18859608215E+03  0.00000000000E+00 0.  1.
         22   -1    0    0    0    0 -0.00000000000E+00 -0.00000000000E+00 -0.99698487653E+03  0.99698487653E+03  0.00000000000E+00 0.  1.
         24    2    1    2    0    0 -0.45679903017E+02  0.27104536395E+02 -0.86254603189E+03  0.86799460094E+03  0.81287518702E+02 0.  0.
         25    2    1    2    0    0  0.27212580115E+02 -0.47450773002E+02 -0.80581057207E+02  0.15854559420E+03  0.12510514891E+03 0.  0.
        -24    2    1    2    0    0  0.18467322902E+02  0.20346236607E+02  0.13473829472E+03  0.15904076355E+03  0.79903348163E+02 0.  0.
        -13    1    3    3    0    0 -0.12866183536E+02 -0.17459260415E+02 -0.56057072968E+03  0.56099011349E+03  0.00000000000E+00 0.  1.
         14    1    3    3    0    0 -0.32813719481E+02  0.44563796811E+02 -0.30197530221E+03  0.30700448745E+03  0.00000000000E+00 0. -1.
         11    1    5    5    0    0  0.48329707166E+02  0.29543082056E+01  0.93026056494E+02  0.10487295037E+03  0.00000000000E+00 0. -1.
        -12    1    5    5    0    0 -0.29862384263E+02  0.17391928401E+02  0.41712238224E+02  0.54167813183E+02  0.00000000000E+00 0.  1.
          5    1    4    4  501    0 -0.37416926707E+02 -0.42039346205E+01 -0.70480761751E+02  0.80016933504E+02  0.41800000000E+01 0.  1.
         -5    1    4    4    0  501  0.64629506821E+02 -0.43246838381E+02 -0.10100295456E+02  0.78528660693E+02  0.41800000000E+01 0.  1.
</event>
<event>
11    1  0.7157190E-009  0.1465923E+03  0.7561462E-02  0.1100413E+00
         22   -1    0    0    0    0  0.00000000000E+00  0.00000000000E+00  0.19895837774E+04  0.19895837774E+04  0.00000000000E+00 0. -1.
         22   -1    0    0    0    0 -0.00000000000E+00 -0.00000000000E+00 -0.98092313415E+03  0.98092313415E+03  0.00000000000E+00 0. -1.
        -24    2    1    2    0    0 -0.87178825584E+01  0.50515670286E+02 -0.95064330112E+03  0.95579073820E+03  0.84766826248E+02 0.  0.
         25    2    1    2    0    0  0.68103154541E+02 -0.94800990467E+02  0.25577092633E+03  0.30771869063E+03  0.12508700314E+03 0.  0.
         24    2    1    2    0    0 -0.59385271983E+02  0.44285320181E+02  0.17035330180E+04  0.17069974827E+04  0.79547862141E+02 0.  0.
        -13    1    5    5    0    0 -0.93765575575E+01  0.37820528738E+02  0.29501537996E+03  0.29757753046E+03  0.00000000000E+00 0.  1.
         14    1    5    5    0    0 -0.50008714425E+02  0.64647914431E+01  0.14085176381E+04  0.14094199523E+04  0.00000000000E+00 0. -1.
         11    1    3    3    0    0  0.37002157412E+02  0.34541723645E+02 -0.47822519164E+03  0.48089668770E+03  0.00000000000E+00 0. -1.
        -12    1    3    3    0    0 -0.45720039970E+02  0.15973946641E+02 -0.47241810949E+03  0.47489405050E+03  0.00000000000E+00 0.  1.
          5    1    4    4  501    0 -0.21088670594E+02 -0.73380524836E+02  0.14421573887E+03  0.16323322330E+03  0.41800000000E+01 0. -1.
         -5    1    4    4    0  501  0.89191825135E+02 -0.21420465631E+02  0.11155518746E+03  0.14448546733E+03  0.41800000000E+01 0. -1.
</event>
<event>
11    1  0.7157190E-009  0.2794940E+03  0.7561462E-02  0.1009264E+00
         22   -1    0    0    0    0  0.00000000000E+00  0.00000000000E+00  0.28601199391E+02  0.28601199391E+02  0.00000000000E+00 0.  1.
         22   -1    0    0    0    0 -0.00000000000E+00 -0.00000000000E+00 -0.18841735752E+04  0.18841735752E+04  0.00000000000E+00 0. -1.
        -24    2    1    2    0    0  0.47212442652E+02 -0.11687248838E+03 -0.65157815938E+03  0.66842661913E+03  0.79698520063E+02 0.  0.
         25    2    1    2    0    0  0.26747499858E+02 -0.19539366235E+02 -0.67010178885E+03  0.68248225078E+03  0.12509356348E+03 0.  0.
         24    2    1    2    0    0 -0.73959942510E+02  0.13641185461E+03 -0.53389242761E+03  0.56186590472E+03  0.81079611777E+02 0.  0.
        -13    1    5    5    0    0 -0.13052332861E+02  0.86175056150E+02 -0.19015760379E+03  0.20918034797E+03  0.00000000000E+00 0.  1.
         14    1    5    5    0    0 -0.60907609650E+02  0.50236798463E+02 -0.34373482382E+03  0.35268555675E+03  0.00000000000E+00 0. -1.
         13    1    3    3    0    0  0.60245383451E+02 -0.80468281806E+02 -0.56108758964E+03  0.57002099422E+03  0.00000000000E+00 0. -1.
        -14    1    3    3    0    0 -0.13032940799E+02 -0.36404206572E+02 -0.90490569733E+02  0.98405624904E+02  0.00000000000E+00 0.  1.
          5    1    4    4  501    0 -0.40713855880E+02 -0.10135798688E+02 -0.10310103887E+03  0.11138962740E+03  0.41800000000E+01 0. -1.
         -5    1    4    4    0  501  0.67461355738E+02 -0.94035675478E+01 -0.56700074998E+03  0.57109262338E+03  0.41800000000E+01 0. -1.
</event>
<event>
11    1  0.7157190E-009  0.2913388E+03  0.7561462E-02  0.1003925E+00
         22   -1    0    0    0    0  0.00000000000E+00  0.00000000000E+00  0.42297041319E+03  0.42297041319E+03  0.00000000000E+00 0. -1.
         22   -1    0    0    0    0 -0.00000000000E+00 -0.00000000000E+00 -0.16702113168E+04  0.16702113168E+04  0.00000000000E+00 0.  1.
        -24    2    1    2    0    0 -0.24856575898E+02 -0.38342388709E+02 -0.10675812380E+04  0.10718484623E+04  0.83913277109E+02 0.  0.
         25    2    1    2    0    0  0.58522483540E+02 -0.22546870145E+03 -0.51985830036E+03  0.58323329683E+03  0.12508960653E+03 0.  0.
         24    2    1    2    0    0 -0.33665907642E+02  0.26381109015E+03  0.34019863476E+03  0.43809997095E+03  0.73937736190E+02 0.  0.
        -11    1    5    5    0    0  0.19823718122E+02  0.13403557594E+03  0.17493447995E+03  0.22127039498E+03  0.00000000000E+00 0.  1.
         12    1    5    5    0    0 -0.53489625765E+02  0.12977551421E+03  0.16526415480E+03  0.21682957597E+03  0.00000000000E+00 0. -1.
         11    1    3    3    0    0  0.15143426557E+02 -0.42019045254E+02 -0.30977720890E+03  0.31298057876E+03  0.00000000000E+00 0. -1.
        -12    1    3    3    0    0 -0.40000002455E+02  0.36766565449E+01 -0.75780402915E+03  0.75886788349E+03  0.00000000000E+00 0.  1.
          5    1    4    4  501    0  0.44435427947E+01 -0.37012917964E+02 -0.12902316728E+02  0.39669173746E+02  0.41800000000E+01 0.  1.
         -5    1    4    4    0  501  0.54078940745E+02 -0.18845578348E+03 -0.50695598363E+03  0.54356412308E+03  0.41800000000E+01 0.  1.
</event>
<event>
11    1  0.7157190E-009  0.1401602E+03  0.7561462E-02  0.1107380E+00
         22   -1    0    0    0    0  0.00000000000E+00  0.00000000000E+00  0.12091074204E+03  0.12091074204E+03  0.00000000000E+00 0. -1.
         22   -1    0    0    0    0 -0.00000000000E+00 -0.00000000000E+00 -0.59414940439E+03  0.59414940439E+03  0.00000000000E+00 0. -1.
        -24    2    1    2    0    0 -0.27397582707E+01  0.37783897910E+02 -0.44522729395E+03  0.45379626245E+03  0.79174334984E+02 0.  0.
         25    2    1    2    0    0 -0.55072291978E+02 -0.95211490629E-01 -0.60011408791E+02  0.14927143317E+03  0.12509046793E+03 0.  0.
         24    2    1    2    0    0  0.57812050249E+02 -0.37688686420E+02  0.32000040392E+02  0.11199245081E+03  0.82192677384E+02 0.  0.
        -11    1    5    5    0    0 -0.67389749259E+01  0.13264445841E+02 -0.11642345508E+02  0.18891890204E+02  0.00000000000E+00 0.  1.
         12    1    5    5    0    0  0.64551025175E+02 -0.50953132261E+02  0.43642385900E+02  0.93100560607E+02  0.00000000000E+00 0. -1.
         11    1    3    3    0    0 -0.27555960469E+02 -0.27214258327E+01 -0.29358109219E+03  0.29488403620E+03  0.00000000000E+00 0. -1.
        -12    1    3    3    0    0  0.24816202198E+02  0.40505323743E+02 -0.15164620176E+03  0.15891222625E+03  0.00000000000E+00 0.  1.
          5    1    4    4  501    0  0.32621533643E+01 -0.67863471467E+01  0.35800131391E+02  0.36821433429E+02  0.41800000000E+01 0.  1.
         -5    1    4    4    0  501 -0.58334445343E+02  0.66911356561E+01 -0.95811540182E+02  0.11244999974E+03  0.41800000000E+01 0.  1.
</event>
<event>
11    1  0.7157190E-009  0.1482421E+03  0.7561462E-02  0.1098689E+00
         22   -1    0    0    0    0  0.00000000000E+00  0.00000000000E+00  0.23272875436E+03  0.23272875436E+03  0.00000000000E+00 0.  1.
         22   -1    0    0    0    0 -0.00000000000E+00 -0.00000000000E+00 -0.48865752824E+03  0.48865752824E+03  0.00000000000E+00 0. -1.
         24    2    1    2    0    0  0.11348382024E+02  0.24724635092E+02 -0.30770974671E+03  0.32472789420E+03  0.10011405344E+03 0.  0.
         25    2    1    2    0    0 -0.13468097003E+02  0.57201567598E+02 -0.12466581658E+03  0.18612550855E+03  0.12509088750E+03 0.  0.
        -24    2    1    2    0    0  0.21197149790E+01 -0.81926202690E+02  0.17644678940E+03  0.21053287985E+03  0.80462588374E+02 0.  0.
        -13    1    3    3    0    0 -0.39686107874E+02 -0.73159305313E+01 -0.86375804584E+02  0.95337765944E+02  0.00000000000E+00 0.  1.
         14    1    3    3    0    0  0.51034489898E+02  0.32040565624E+02 -0.22133394212E+03  0.22939012825E+03  0.00000000000E+00 0. -1.
         11    1    5    5    0    0  0.36196645753E+02 -0.14037231916E+02  0.56341797740E+02  0.68422505188E+02  0.00000000000E+00 0. -1.
        -12    1    5    5    0    0 -0.34076930774E+02 -0.67888970775E+02  0.12010499167E+03  0.14211037466E+03  0.00000000000E+00 0.  1.
          5    1    4    4  501    0  0.18846712916E+02  0.85747178411E+02 -0.10908681091E+03  0.14008990651E+03  0.41800000000E+01 0.  1.
         -5    1    4    4    0  501 -0.32314809919E+02 -0.28545610813E+02 -0.15579005674E+02  0.46035602033E+02  0.41800000000E+01 0.  1.
</event>
<event>
11    1  0.7157190E-009  0.1675244E+03  0.7561462E-02  0.1080206E+00
         22   -1    0    0    0    0  0.00000000000E+00  0.00000000000E+00  0.36266086169E+03  0.36266086169E+03  0.00000000000E+00 0. -1.
         22   -1    0    0    0    0 -0.00000000000E+00 -0.00000000000E+00 -0.17116432898E+04  0.17116432898E+04  0.00000000000E+00 0. -1.
         24    2    1    2    0    0  0.80699834340E+02 -0.10428157001E+03 -0.12586361008E+04  0.12680279886E+04  0.79643183574E+02 0.  0.
         25    2    1    2    0    0 -0.23796436757E+02  0.59995659952E+02 -0.42848921369E+03  0.45101662156E+03  0.12508891661E+03 0.  0.
        -24    2    1    2    0    0 -0.56903397583E+02  0.44285910058E+02  0.33814288629E+03  0.35525954136E+03  0.81666955956E+02 0.  0.
        -13    1    3    3    0    0 -0.84302061011E+01 -0.10658563656E+02 -0.34408741010E+02  0.36995064698E+02  0.00000000000E+00 0.  1.
         14    1    3    3    0    0  0.89130040442E+02 -0.93623006354E+02 -0.12242273597E+04  0.12310329239E+04  0.00000000000E+00 0. -1.
         13    1    5    5    0    0 -0.64512426240E+02  0.99378811017E+00  0.21699816882E+03  0.22638693872E+03  0.00000000000E+00 0. -1.
        -14    1    5    5    0    0  0.76090286571E+01  0.43292121948E+02  0.12114471747E+03  0.12887260264E+03  0.00000000000E+00 0.  1.
          5    1    4    4  501    0  0.20357561948E+01  0.36551427896E+02 -0.21798677882E+02  0.42811282880E+02  0.41800000000E+01 0. -1.
         -5    1    4    4    0  501 -0.25832192952E+02  0.23444232057E+02 -0.40669053581E+03  0.40820533868E+03  0.41800000000E+01 0. -1.
</event>
<event>
11    1  0.7157190E-009  0.1434576E+03  0.7561462E-02  0.1103758E+00
         22   -1    0    0    0    0  0.00000000000E+00  0.00000000000E+00  0.98578095932E+03  0.98578095932E+03  0.00000000000E+00 0.  1.
         22   -1    0    0    0    0 -0.00000000000E+00 -0.00000000000E+00 -0.12528197596E+03  0.12528197596E+03  0.00000000000E+00 0. -1.
         24    2    1    2    0    0  0.17385981514E+02  0.54283615663E+02 -0.66378484334E+02  0.11873692354E+03  0.80270608237E+02 0.  0.
         25    2    1    2    0    0 -0.63572356608E+02  0.30694134131E+01  0.14111646938E+03  0.19902611154E+03  0.12508664725E+03 0.  0.
        -24    2    1    2    0    0  0.46186375094E+02 -0.57353029076E+02  0.78576099831E+03  0.79329990019E+03  0.80509837812E+02 0.  0.
        -11    1    3    3    0    0  0.33966936137E+02  0.67114046739E+02 -0.40494942646E+02  0.85427679356E+02  0.00000000000E+00 0.  1.
         12    1    3    3    0    0 -0.16580954623E+02 -0.12830431077E+02 -0.25883541689E+02  0.33309244185E+02  0.00000000000E+00 0. -1.
         11    1    5    5    0    0  0.38545460917E+02 -0.26720498003E+02  0.15973307311E+03  0.16647640138E+03  0.00000000000E+00 0. -1.
        -12    1    5    5    0    0  0.76409141768E+01 -0.30632531073E+02  0.62602792520E+03  0.62682349881E+03  0.00000000000E+00 0.  1.
          5    1    4    4  501    0 -0.20993552078E+01 -0.30076447956E+02 -0.10375913343E+02  0.32157922688E+02  0.41800000000E+01 0. -1.
         -5    1    4    4    0  501 -0.61473001400E+02  0.33145861369E+02  0.15149238273E+03  0.16686818885E+03  0.41800000000E+01 0. -1.
</event>
<event>
11    1  0.7157190E-009  0.1593334E+03  0.7561462E-02  0.1087706E+00
         22   -1    0    0    0    0  0.00000000000E+00  0.00000000000E+00  0.34861722015E+04  0.34861722015E+04  0.00000000000E+00 0. -1.
         22   -1    0    0    0    0 -0.00000000000E+00 -0.00000000000E+00 -0.76354519006E+02  0.76354519006E+02  0.00000000000E+00 0.  1.
         24    2    1    2    0    0  0.98228977278E+01 -0.10004638396E+03  0.88912339737E+01  0.13165529272E+03  0.84547583033E+02 0.  0.
         25    2    1    2    0    0  0.50684462091E+02  0.89558073327E+02  0.45190441672E+03  0.48005682521E+03  0.12508952949E+03 0.  0.
        -24    2    1    2    0    0 -0.60507359819E+02  0.10488310636E+02  0.29490220318E+04  0.29508146026E+04  0.82490784006E+02 0.  0.
        -13    1    3    3    0    0 -0.50119865026E+00 -0.16810163132E+02 -0.33643277100E+02  0.37612536190E+02  0.00000000000E+00 0.  1.
         14    1    3    3    0    0  0.10324096378E+02 -0.83236220831E+02  0.42534511074E+02  0.94042756534E+02  0.00000000000E+00 0. -1.
         11    1    5    5    0    0 -0.68524570333E+02 -0.15562337195E+01  0.28411365256E+04  0.28419631939E+04  0.00000000000E+00 0. -1.
        -12    1    5    5    0    0  0.80172105142E+01  0.12044544355E+02  0.10788550628E+03  0.10885140871E+03  0.00000000000E+00 0.  1.
          5    1    4    4  501    0  0.82054584750E+02  0.94705468616E+02  0.30636315655E+03  0.33102558324E+03  0.41800000000E+01 0.  1.
         -5    1    4    4    0  501 -0.31370122659E+02 -0.51473952891E+01  0.14554126016E+03  0.14903124197E+03  0.41800000000E+01 0.  1.
</event>
<event>
11    1  0.7157190E-009  0.1323926E+03  0.7561462E-02  0.1116364E+00
         22   -1    0    0    0    0  0.00000000000E+00  0.00000000000E+00  0.20553006614E+03  0.20553006614E+03  0.00000000000E+00 0.  1.
         22   -1    0    0    0    0 -0.00000000000E+00 -0.00000000000E+00 -0.56266541085E+03  0.56266541085E+03  0.00000000000E+00 0. -1.
         24    2    1    2    0    0 -0.43377652214E+02 -0.72801141581E+01 -0.45393255148E+03  0.46294045004E+03  0.79526588103E+02 0.  0.
         25    2    1    2    0    0  0.37388753106E+02  0.90223320062E+00 -0.49002002293E+02  0.13945588125E+03  0.12509202094E+03 0.  0.
        -24    2    1    2    0    0  0.59888991079E+01  0.63778809575E+01  0.14579920907E+03  0.16579914570E+03  0.78456376878E+02 0.  0.
        -13    1    3    3    0    0 -0.11588292684E+02  0.10495803497E+02 -0.12525830955E+02  0.20033643190E+02  0.00000000000E+00 0.  1.
         14    1    3    3    0    0 -0.31789359530E+02 -0.17775917655E+02 -0.44140672053E+03  0.44290680685E+03  0.00000000000E+00 0. -1.
         11    1    5    5    0    0 -0.25474203202E+02 -0.56722998007E+01  0.13708547972E+02  0.29479387736E+02  0.00000000000E+00 0. -1.
        -12    1    5    5    0    0  0.31463102310E+02  0.12050180758E+02  0.13209066110E+03  0.13631975797E+03  0.00000000000E+00 0.  1.
          5    1    4    4  501    0  0.27202264503E+02  0.14064714057E+02 -0.89920870332E+02  0.95084250519E+02  0.41800000000E+01 0.  1.
         -5    1    4    4    0  501  0.10186488603E+02 -0.13162480856E+02  0.40918868039E+02  0.44371630733E+02  0.41800000000E+01 0.  1.
</event>
<event>
11    1  0.7157190E-009  0.1614608E+03  0.7561462E-02  0.1085711E+00
         22   -1    0    0    0    0  0.00000000000E+00  0.00000000000E+00  0.64935753373E+03  0.64935753373E+03  0.00000000000E+00 0.  1.
         22   -1    0    0    0    0 -0.00000000000E+00 -0.00000000000E+00 -0.45601991858E+03  0.45601991858E+03  0.00000000000E+00 0.  1.
        -24    2    1    2    0    0  0.15497086560E+02 -0.78596126807E+02 -0.30594040495E+03  0.32639095360E+03  0.80709431726E+02 0.  0.
         25    2    1    2    0    0 -0.91522175730E+02  0.80106109178E+01 -0.89396140514E+02  0.17910726399E+03  0.12508902244E+03 0.  0.
         24    2    1    2    0    0  0.76025089170E+02  0.70585515889E+02  0.58867416061E+03  0.59987923472E+03  0.50553928078E+02 0.  0.
        -11    1    5    5    0    0  0.56845319660E+02  0.71996077131E+02  0.40803931474E+03  0.41822351424E+03  0.00000000000E+00 0.  1.
         12    1    5    5    0    0  0.19179769510E+02 -0.14105612415E+01  0.18063484587E+03  0.18165572048E+03  0.00000000000E+00 0. -1.
         11    1    3    3    0    0 -0.14080807290E+02 -0.55961196191E+02 -0.87611908921E+02  0.10490839432E+03  0.00000000000E+00 0. -1.
        -12    1    3    3    0    0  0.29577893850E+02 -0.22634930616E+02 -0.21832849603E+03  0.22148255928E+03  0.00000000000E+00 0.  1.
          5    1    4    4  501    0 -0.92078946387E+02 -0.36542532339E+02 -0.27812029491E+02  0.10297995155E+03  0.41800000000E+01 0. -1.
         -5    1    4    4    0  501  0.55677065711E+00  0.44553143257E+02 -0.61584111023E+02  0.76127312432E+02  0.41800000000E+01 0. -1.
</event>
<event>
11    1  0.7157190E-009  0.1702068E+03  0.7561462E-02  0.1077852E+00
         22   -1    0    0    0    0  0.00000000000E+00  0.00000000000E+00  0.73784512727E+03  0.73784512727E+03  0.00000000000E+00 0.  1.
         22   -1    0    0    0    0 -0.00000000000E+00 -0.00000000000E+00 -0.11606699506E+03  0.11606699506E+03  0.00000000000E+00 0.  1.
         24    2    1    2    0    0 -0.14759468036E+02  0.13557126146E+02 -0.25709131153E+02  0.86764826735E+02  0.80408570238E+02 0.  0.
         25    2    1    2    0    0  0.20007444020E+02  0.10363365320E+03  0.80418720146E+02  0.18236031635E+03  0.12509149666E+03 0.  0.
        -24    2    1    2    0    0 -0.52479759838E+01 -0.11719077935E+03  0.56706854322E+03  0.58478697924E+03  0.81534399878E+02 0.  0.
        -13    1    3    3    0    0 -0.21415203721E+02 -0.21497481869E+02 -0.38357368044E+02  0.48908489656E+02  0.00000000000E+00 0.  1.
         14    1    3    3    0    0  0.66557356852E+01  0.35054608016E+02  0.12648236891E+02  0.37856337080E+02  0.00000000000E+00 0. -1.
         11    1    5    5    0    0 -0.34901571996E+02 -0.41207749579E+02  0.14112169221E+03  0.15110106010E+03  0.00000000000E+00 0. -1.
        -12    1    5    5    0    0  0.29653596012E+02 -0.75983029769E+02  0.42594685101E+03  0.43368591914E+03  0.00000000000E+00 0.  1.
          5    1    4    4  501    0  0.38695853419E+02  0.59143578223E+02  0.10608675433E+03  0.12754294869E+03  0.41800000000E+01 0. -1.
         -5    1    4    4    0  501 -0.18688409399E+02  0.44490074979E+02 -0.25668034186E+02  0.54817367654E+02  0.41800000000E+01 0. -1.
</event>
<event>
11    1  0.7157190E-009  0.1451794E+03  0.7561462E-02  0.1101909E+00
         22   -1    0    0    0    0  0.00000000000E+00  0.00000000000E+00  0.13932435431E+04  0.13932435431E+04  0.00000000000E+00 0.  1.
         22   -1    0    0    0    0 -0.00000000000E+00 -0.00000000000E+00 -0.82505994481E+02  0.82505994481E+02  0.00000000000E+00 0.  1.
        -24    2    1    2    0    0  0.68047234684E+02  0.28298164543E+02 -0.29376099656E+02  0.11353856188E+03  0.81220918113E+02 0.  0.
         25    2    1    2    0    0 -0.63230732111E+02 -0.38914663284E+02  0.58788549192E+03  0.60561595459E+03  0.12509538901E+03 0.  0.
         24    2    1    2    0    0 -0.48165025723E+01  0.10616498741E+02  0.75222815641E+03  0.75659502115E+03  0.80330056629E+02 0.  0.
        -11    1    5    5    0    0 -0.31923050752E+02  0.33047309915E+02  0.43771089842E+03  0.44011593524E+03  0.00000000000E+00 0.  1.
         12    1    5    5    0    0  0.27106548180E+02 -0.22430811174E+02  0.31451725799E+03  0.31647908591E+03  0.00000000000E+00 0. -1.
         11    1    3    3    0    0 -0.12477273925E+02 -0.11570880845E+02  0.43495741896E+01  0.17563782160E+02  0.00000000000E+00 0. -1.
        -12    1    3    3    0    0  0.80524508609E+02  0.39869045388E+02 -0.33725673846E+02  0.95974779724E+02  0.00000000000E+00 0.  1.
          5    1    4    4  501    0 -0.41167116886E+02 -0.54800927600E+02  0.56683243826E+03  0.57097667084E+03  0.41800000000E+01 0.  1.
         -5    1    4    4    0  501 -0.22063615225E+02  0.15886264316E+02  0.21053053653E+02  0.34639283752E+02  0.41800000000E+01 0.  1.
</event>
<event>
11    1  0.7157190E-009  0.1655769E+03  0.7561462E-02  0.1081946E+00
         22   -1    0    0    0    0  0.00000000000E+00  0.00000000000E+00  0.26205177714E+03  0.26205177714E+03  0.00000000000E+00 0. -1.
         22   -1    0    0    0    0 -0.00000000000E+00 -0.00000000000E+00 -0.10099176677E+04  0.10099176677E+04  0.00000000000E+00 0. -1.
         24    2    1    2    0    0  0.30796441766E+00  0.10717958425E+03 -0.80720431712E+03  0.81813665619E+03  0.79254151349E+02 0.  0.
         25    2    1    2    0    0  0.17139212743E+02 -0.11775540039E+03 -0.14979818130E+03  0.22857512660E+03  0.12508799480E+03 0.  0.
        -24    2    1    2    0    0 -0.17447177161E+02  0.10575816142E+02  0.20913660783E+03  0.22525766210E+03  0.81158127899E+02 0.  0.
        -11    1    3    3    0    0 -0.18877214662E+02  0.22472290618E+02 -0.70998538724E+02  0.76825422745E+02  0.00000000000E+00 0.  1.
         12    1    3    3    0    0  0.19185179080E+02  0.84707293627E+02 -0.73620577840E+03  0.74131123345E+03  0.00000000000E+00 0. -1.
         11    1    5    5    0    0 -0.23564608753E+02  0.41334923531E+02  0.16035159640E+03  0.16726177435E+03  0.00000000000E+00 0. -1.
        -12    1    5    5    0    0  0.61174315926E+01 -0.30759107389E+02  0.48785011421E+02  0.57995887751E+02  0.00000000000E+00 0.  1.
          5    1    4    4  501    0  0.19749853531E+02 -0.12552969669E+03 -0.64105376171E+02  0.14238937151E+03  0.41800000000E+01 0. -1.
         -5    1    4    4    0  501 -0.26106407878E+01  0.77742962996E+01 -0.85692805133E+02  0.86185755087E+02  0.41800000000E+01 0. -1.
</event>
<event>
11    1  0.7157190E-009  0.1352486E+03  0.7561462E-02  0.1112983E+00
         22   -1    0    0    0    0  0.00000000000E+00  0.00000000000E+00  0.43169591000E+03  0.43169591000E+03  0.00000000000E+00 0.  1.
         22   -1    0    0    0    0 -0.00000000000E+00 -0.00000000000E+00 -0.73836750581E+03  0.73836750581E+03  0.00000000000E+00 0.  1.
        -24    2    1    2    0    0 -0.31464525002E+00 -0.47221757464E+02 -0.68550581374E+03  0.69176505621E+03  0.79941722129E+02 0.  0.
         25    2    1    2    0    0 -0.29791164700E+02  0.81906478914E+02  0.94981753584E+02  0.17962674369E+03  0.12509216103E+03 0.  0.
         24    2    1    2    0    0  0.30105809950E+02 -0.34684721450E+02  0.28385246435E+03  0.29867161591E+03  0.80765852551E+02 0.  0.
        -13    1    5    5    0    0  0.40428398414E+02  0.11435267977E+02  0.17552598196E+03  0.18048432368E+03  0.00000000000E+00 0.  1.
         14    1    5    5    0    0 -0.10322588464E+02 -0.46119989427E+02  0.10832648239E+03  0.11818729223E+03  0.00000000000E+00 0. -1.
         11    1    3    3    0    0  0.39302318003E+02 -0.16626228727E+02 -0.29821129225E+03  0.30124919669E+03  0.00000000000E+00 0. -1.
        -12    1    3    3    0    0 -0.39616963253E+02 -0.30595528737E+02 -0.38729452150E+03  0.39051585952E+03  0.00000000000E+00 0.  1.
          5    1    4    4  501    0 -0.51382720552E+02  0.63394687149E+02  0.13922795839E+01  0.81721974844E+02  0.41800000000E+01 0. -1.
         -5    1    4    4    0  501  0.21591555852E+02  0.18511791765E+02  0.93589474000E+02  0.97904768842E+02  0.41800000000E+01 0. -1.
</event>
<event>
11    1  0.7157190E-009  0.1443942E+03  0.7561462E-02  0.1102748E+00
         22   -1    0    0    0    0  0.00000000000E+00  0.00000000000E+00  0.52091719022E+03  0.52091719022E+03  0.00000000000E+00 0.  1.
         22   -1    0    0    0    0 -0.00000000000E+00 -0.00000000000E+00 -0.32997650864E+03  0.32997650864E+03  0.00000000000E+00 0.  1.
        -24    2    1    2    0    0  0.39968437288E+02  0.32636199035E+02 -0.29002673071E+03  0.30529969273E+03  0.80186036121E+02 0.  0.
         25    2    1    2    0    0  0.48642606261E+02 -0.16579169376E+02  0.22299326668E+03  0.26081010261E+03  0.12511970523E+03 0.  0.
         24    2    1    2    0    0 -0.88611043549E+02 -0.16057029659E+02  0.25797414562E+03  0.28478390352E+03  0.80258748175E+02 0.  0.
        -13    1    5    5    0    0 -0.18244967613E+02  0.22601046908E+02  0.24862224645E+02  0.38233707365E+02  0.00000000000E+00 0.  1.
         14    1    5    5    0    0 -0.70366075936E+02 -0.38658076567E+02  0.23311192097E+03  0.24655019616E+03  0.00000000000E+00 0. -1.
         13    1    3    3    0    0 -0.19490667448E+02  0.65588878233E+01 -0.24678352507E+02  0.32123608289E+02  0.00000000000E+00 0. -1.
        -14    1    3    3    0    0  0.59459104736E+02  0.26077311212E+02 -0.26534837820E+03  0.27317608444E+03  0.00000000000E+00 0.  1.
          5    1    4    4  501    0 -0.52993993027E+01  0.11392098837E+02  0.19202806570E+03  0.19248406159E+03  0.41800000000E+01 0. -1.
         -5    1    4    4    0  501  0.53942005564E+02 -0.27971268214E+02  0.30965200979E+02  0.68326041020E+02  0.41800000000E+01 0. -1.
</event>
<event>
11    1  0.7157190E-009  0.1590382E+03  0.7561462E-02  0.1087985E+00
         22   -1    0    0    0    0  0.00000000000E+00  0.00000000000E+00  0.67106724891E+03  0.67106724891E+03  0.00000000000E+00 0.  1.
         22   -1    0    0    0    0 -0.00000000000E+00 -0.00000000000E+00 -0.12050426806E+04  0.12050426806E+04  0.00000000000E+00 0.  1.
         24    2    1    2    0    0 -0.82426602187E+02  0.28261957794E+02 -0.10900021696E+04  0.10960734537E+04  0.75361816342E+02 0.  0.
         25    2    1    2    0    0 -0.17632118536E+02 -0.17152557732E+01 -0.67220400812E+02  0.14310780835E+03  0.12508968310E+03 0.  0.
        -24    2    1    2    0    0  0.10005872072E+03 -0.26546702021E+02  0.62324713867E+03  0.63692866742E+03  0.80775346176E+02 0.  0.
        -11    1    3    3    0    0 -0.63547143798E+02  0.53925043862E+02 -0.78542563220E+03  0.78983515594E+03  0.00000000000E+00 0.  1.
         12    1    3    3    0    0 -0.18879458389E+02 -0.25663086069E+02 -0.30457653735E+03  0.30623829780E+03  0.00000000000E+00 0. -1.
         13    1    5    5    0    0  0.14473421782E+02  0.61933471708E+01  0.14758220376E+02  0.21578752418E+02  0.00000000000E+00 0. -1.
        -14    1    5    5    0    0  0.85585298942E+02 -0.32740049191E+02  0.60848891829E+03  0.61534991501E+03  0.00000000000E+00 0.  1.
          5    1    4    4  501    0 -0.51014100062E+02 -0.87957269826E+01 -0.88544539944E+02  0.10265189317E+03  0.41800000000E+01 0.  1.
         -5    1    4    4    0  501  0.33381981526E+02  0.70804712094E+01  0.21324139131E+02  0.40455915177E+02  0.41800000000E+01 0.  1.
</event>
<event>
11    1  0.7157190E-009  0.1252120E+03  0.7561462E-02  0.1125296E+00
         22   -1    0    0    0    0  0.00000000000E+00  0.00000000000E+00  0.95922705924E+03  0.95922705924E+03  0.00000000000E+00 0. -1.
         22   -1    0    0    0    0 -0.00000000000E+00 -0.00000000000E+00 -0.52093184881E+02  0.52093184881E+02  0.00000000000E+00 0.  1.
         24    2    1    2    0    0 -0.26686789846E+02 -0.33309451172E+02  0.34497381540E+02  0.99103621530E+02  0.82521234707E+02 0.  0.
         25    2    1    2    0    0  0.20531169533E+01 -0.57348346863E+01  0.73987715315E+03  0.75040188194E+03  0.12509068333E+03 0.  0.
        -24    2    1    2    0    0  0.24633672892E+02  0.39044285858E+02  0.13275933967E+03  0.16181474064E+03  0.80172900177E+02 0.  0.
        -11    1    3    3    0    0 -0.82600065270E+01 -0.41061297395E+02 -0.15966796254E+02  0.44824060885E+02  0.00000000000E+00 0.  1.
         12    1    3    3    0    0 -0.18426783319E+02  0.77518462234E+01  0.50464177795E+02  0.54279560645E+02  0.00000000000E+00 0. -1.
         11    1    5    5    0    0  0.25522932303E+02  0.41631850043E+02  0.14305586624E+03  0.15116088077E+03  0.00000000000E+00 0. -1.
        -12    1    5    5    0    0 -0.88925941039E+00 -0.25875641853E+01 -0.10296526571E+02  0.10653859870E+02  0.00000000000E+00 0.  1.
          5    1    4    4  501    0 -0.43295896618E+02  0.30347036840E+00  0.62738012187E+03  0.62888625082E+03  0.41800000000E+01 0. -1.
         -5    1    4    4    0  501  0.45349013571E+02 -0.60383050547E+01  0.11249703128E+03  0.12151563112E+03  0.41800000000E+01 0. -1.
</event>
<event>
11    1  0.7157190E-009  0.1796177E+03  0.7561462E-02  0.1069953E+00
         22   -1    0    0    0    0  0.00000000000E+00  0.00000000000E+00  0.74891161462E+03  0.74891161462E+03  0.00000000000E+00 0. -1.
         22   -1    0    0    0    0 -0.00000000000E+00 -0.00000000000E+00 -0.13036066709E+03  0.13036066709E+03  0.00000000000E+00 0.  1.
        -24    2    1    2    0    0 -0.10456883927E+03  0.44097283529E+02  0.21212621169E+02  0.13929834085E+03  0.77941259323E+02 0.  0.
         25    2    1    2    0    0  0.17599188974E+03  0.15418699848E+02  0.12049592502E+03  0.24774155832E+03  0.12508289337E+03 0.  0.
         24    2    1    2    0    0 -0.71423050464E+02 -0.59515983377E+02  0.47684240134E+03  0.49223238254E+03  0.79187361980E+02 0.  0.
        -11    1    5    5    0    0 -0.89863049079E+01 -0.18549408832E+02  0.18036371595E+02  0.27388774055E+02  0.00000000000E+00 0.  1.
         12    1    5    5    0    0 -0.62436745556E+02 -0.40966574544E+02  0.45880602974E+03  0.46484360849E+03  0.00000000000E+00 0. -1.
         13    1    3    3    0    0 -0.69973956473E+02  0.63096789017E+02  0.29964627985E+02  0.98870816215E+02  0.00000000000E+00 0. -1.
        -14    1    3    3    0    0 -0.34594882800E+02 -0.18999505488E+02 -0.87520068164E+01  0.40427524634E+02  0.00000000000E+00 0.  1.
          5    1    4    4  501    0  0.18821178847E+02  0.33888161091E+02 -0.12541562950E+02  0.40956164817E+02  0.41800000000E+01 0.  1.
         -5    1    4    4    0  501  0.15717071089E+03 -0.18469461243E+02  0.13303748797E+03  0.20678539350E+03  0.41800000000E+01 0.  1.
</event>
<event>
11    1  0.7157190E-009  0.2108255E+03  0.7561462E-02  0.1047122E+00
         22   -1    0    0    0    0  0.00000000000E+00  0.00000000000E+00  0.29456514373E+03  0.29456514373E+03  0.00000000000E+00 0.  1.
         22   -1    0    0    0    0 -0.00000000000E+00 -0.00000000000E+00 -0.53702363371E+03  0.53702363371E+03  0.00000000000E+00 0. -1.
        -24    2    1    2    0    0 -0.49441282372E+02 -0.91413210295E+02 -0.32583454747E+03  0.35150219873E+03  0.81146952899E+02 0.  0.
         25    2    1    2    0    0  0.15461901267E+03  0.19409170109E+03 -0.27245412428E+02  0.27922865683E+03  0.12509077819E+03 0.  0.
         24    2    1    2    0    0 -0.10517773030E+03 -0.10267849079E+03  0.11062146992E+03  0.20085792188E+03  0.80632299685E+02 0.  0.
        -13    1    5    5    0    0 -0.10616284038E+03 -0.10932519932E+03  0.11658700592E+03  0.19187255623E+03  0.00000000000E+00 0.  1.
         14    1    5    5    0    0  0.98511008405E+00  0.66467085271E+01 -0.59655359997E+01  0.89853656511E+01  0.00000000000E+00 0. -1.
         13    1    3    3    0    0 -0.21264331435E+02 -0.92188552205E+02 -0.29464892789E+03  0.30946549348E+03  0.00000000000E+00 0. -1.
        -14    1    3    3    0    0 -0.28176950937E+02  0.77534190962E+00 -0.31185619580E+02  0.42036705244E+02  0.00000000000E+00 0.  1.
          5    1    4    4  501    0 -0.16564301348E+02 -0.83399764214E+00 -0.84923573306E+01  0.19096181929E+02  0.41800000000E+01 0. -1.
         -5    1    4    4    0  501  0.17118331402E+03  0.19492569873E+03 -0.18753055097E+02  0.26013247490E+03  0.41800000000E+01 0. -1.
</event>
<event>
11    1  0.7157190E-009  0.1406951E+03  0.7561462E-02  0.1106785E+00
         22   -1    0    0    0    0  0.00000000000E+00  0.00000000000E+00  0.98349506704E+03  0.98349506704E+03  0.00000000000E+00 0.  1.
         22   -1    0    0    0    0 -0.00000000000E+00 -0.00000000000E+00 -0.37429723995E+03  0.37429723995E+03  0.00000000000E+00 0.  1.
        -24    2    1    2    0    0  0.17720244177E+02  0.19895671700E+02 -0.31662289024E+03  0.32828237049E+03  0.82519181661E+02 0.  0.
         25    2    1    2    0    0 -0.79280807253E+02 -0.33897689323E+02  0.69330065968E+02  0.16700035228E+03  0.12509180578E+03 0.  0.
         24    2    1    2    0    0  0.61560563077E+02  0.14002017623E+02  0.85649065137E+03  0.86250958422E+03  0.79754545774E+02 0.  0.
        -13    1    5    5    0    0  0.62359515974E+02  0.31827006330E+02  0.43136408834E+03  0.43700874622E+03  0.00000000000E+00 0.  1.
         14    1    5    5    0    0 -0.79895289671E+00 -0.17824988708E+02  0.42512656302E+03  0.42550083800E+03  0.00000000000E+00 0. -1.
         11    1    3    3    0    0  0.15854395959E+02  0.26910357642E+00 -0.58755310290E+01  0.16910238107E+02  0.00000000000E+00 0. -1.
        -12    1    3    3    0    0  0.18658482176E+01  0.19626568124E+02 -0.31074735921E+03  0.31137213238E+03  0.00000000000E+00 0.  1.
          5    1    4    4  501    0  0.17182278385E+02  0.30812947911E+02  0.12928460593E+02  0.37805898254E+02  0.41800000000E+01 0. -1.
         -5    1    4    4    0  501 -0.96463085638E+02 -0.64710637235E+02  0.56401605376E+02  0.12919445403E+03  0.41800000000E+01 0. -1.
</event>
<event>
11    1  0.7157190E-009  0.3376031E+03  0.7561462E-02  0.9854237E-01
         22   -1    0    0    0    0  0.00000000000E+00  0.00000000000E+00  0.14998062597E+04  0.14998062597E+04  0.00000000000E+00 0.  1.
         22   -1    0    0    0    0 -0.00000000000E+00 -0.00000000000E+00 -0.95368842170E+02  0.95368842170E+02  0.00000000000E+00 0. -1.
         24    2    1    2    0    0 -0.11500579839E+03 -0.12087817362E+03  0.10355318479E+03  0.21211204118E+03  0.80189708894E+02 0.  0.
         25    2    1    2    0    0  0.38249357734E+02 -0.68488568127E+02  0.14659413238E+03  0.20806592803E+03  0.12509154020E+03 0.  0.
        -24    2    1    2    0    0  0.76756440660E+02  0.18936674175E+03  0.11542901004E+04  0.11749971327E+04  0.80506595327E+02 0.  0.
        -11    1    3    3    0    0 -0.53258762437E+02 -0.11017914763E+03  0.71299879628E+02  0.14163196385E+03  0.00000000000E+00 0.  1.
         12    1    3    3    0    0 -0.61747035957E+02 -0.10699025985E+02  0.32253305161E+02  0.70480077330E+02  0.00000000000E+00 0. -1.
         13    1    5    5    0    0  0.58782879066E+02  0.49716989244E+02  0.33843989668E+03  0.34708611260E+03  0.00000000000E+00 0. -1.
        -14    1    5    5    0    0  0.17973561594E+02  0.13964975250E+03  0.81585020373E+03  0.82791102011E+03  0.00000000000E+00 0.  1.
          5    1    4    4  501    0  0.81085729324E+02 -0.65572728684E+02  0.10792133868E+03  0.15013049653E+03  0.41800000000E+01 0.  1.
         -5    1    4    4    0  501 -0.42836371589E+02 -0.29158394435E+01  0.38672793694E+02  0.57935431497E+02  0.41800000000E+01 0.  1.
</event>
<event>
11    1  0.7157190E-009  0.1907648E+03  0.7561462E-02  0.1061253E+00
         22   -1    0    0    0    0  0.00000000000E+00  0.00000000000E+00  0.48563116973E+02  0.48563116973E+02  0.00000000000E+00 0. -1.
         22   -1    0    0    0    0 -0.00000000000E+00 -0.00000000000E+00 -0.31393031388E+04  0.31393031388E+04  0.00000000000E+00 0.  1.
        -24    2    1    2    0    0 -0.92082389119E+02  0.11038607931E+03 -0.25558133305E+04  0.25611449853E+04  0.81348647709E+02 0.  0.
         25    2    1    2    0    0  0.72238761504E+02 -0.12931793263E+03 -0.49825240426E+03  0.53464435401E+03  0.12509020966E+03 0.  0.
         24    2    1    2    0    0  0.19843627615E+02  0.18931853323E+02 -0.36674287105E+02  0.92076916506E+02  0.79880977657E+02 0.  0.
        -11    1    5    5    0    0 -0.51005967730E+01  0.28715934742E+02 -0.53147185434E+02  0.60623793309E+02  0.00000000000E+00 0.  1.
         12    1    5    5    0    0  0.24944224388E+02 -0.97840814183E+01  0.16472898330E+02  0.31453123198E+02  0.00000000000E+00 0. -1.
         11    1    3    3    0    0 -0.15728988631E+02 -0.12097451041E+02 -0.22827503253E+03  0.22913585464E+03  0.00000000000E+00 0. -1.
        -12    1    3    3    0    0 -0.76353400488E+02  0.12248353035E+03 -0.23275382980E+04  0.23320091307E+04  0.00000000000E+00 0.  1.
          5    1    4    4  501    0  0.39623734530E+02 -0.48554206297E+02 -0.56869088801E+02  0.84729669823E+02  0.41800000000E+01 0. -1.
         -5    1    4    4    0  501  0.32615026974E+02 -0.80763726331E+02 -0.44138331546E+03  0.44991468418E+03  0.41800000000E+01 0. -1.
</event>
<event>
11    1  0.7157190E-009  0.1493288E+03  0.7561462E-02  0.1097567E+00
         22   -1    0    0    0    0  0.00000000000E+00  0.00000000000E+00  0.13002504750E+03  0.13002504750E+03  0.00000000000E+00 0. -1.
         22   -1    0    0    0    0 -0.00000000000E+00 -0.00000000000E+00 -0.81487076621E+03  0.81487076621E+03  0.00000000000E+00 0.  1.
         24    2    1    2    0    0 -0.27678803605E+02  0.62407072340E+01 -0.57808514184E+03  0.58414485335E+03  0.78979211713E+02 0.  0.
         25    2    1    2    0    0  0.67920069295E+01 -0.85130873299E+02 -0.17169301138E+03  0.22895222973E+03  0.12508891396E+03 0.  0.
        -24    2    1    2    0    0  0.20886796676E+02  0.78890166065E+02  0.64932434515E+02  0.13179873063E+03  0.80590122015E+02 0.  0.
        -13    1    3    3    0    0 -0.20323410740E+02  0.75245942470E+01 -0.57597944977E+03  0.57638701157E+03  0.00000000000E+00 0.  1.
         14    1    3    3    0    0 -0.73553928650E+01 -0.12838870130E+01 -0.21056920691E+01  0.77578417844E+01  0.00000000000E+00 0. -1.
         11    1    5    5    0    0  0.23257548473E+02  0.86226277229E+02  0.76704853672E+02  0.11772645846E+03  0.00000000000E+00 0. -1.
        -12    1    5    5    0    0 -0.23707517970E+01 -0.73361111644E+01 -0.11772419156E+02  0.14072272165E+02  0.00000000000E+00 0.  1.
          5    1    4    4  501    0  0.21661256173E+02 -0.53329048761E+02 -0.43060550848E+01  0.57872376581E+02  0.41800000000E+01 0.  1.
         -5    1    4    4    0  501 -0.14869249244E+02 -0.31801824538E+02 -0.16738695629E+03  0.17107985315E+03  0.41800000000E+01 0.  1.
</event>
<event>
11    1  0.7157190E-009  0.1315734E+03  0.7561462E-02  0.1117351E+00
         22   -1    0    0    0    0  0.00000000000E+00  0.00000000000E+00  0.24157967403E+04  0.24157967403E+04  0.00000000000E+00 0. -1.
         22   -1    0    0    0    0 -0.00000000000E+00 -0.00000000000E+00 -0.11412084361E+03  0.11412084361E+03  0.00000000000E+00 0.  1.
         24    2    1    2    0    0  0.25929298945E+02  0.30508295054E+02 -0.64574143202E+02  0.11479027282E+03  0.86045930490E+02 0.  0.
         25    2    1    2    0    0 -0.24842424835E+02 -0.39609964709E+02  0.16505092130E+03  0.21231254793E+03  0.12509482808E+03 0.  0.
        -24    2    1    2    0    0 -0.10868741098E+01  0.91016696548E+01  0.22011991186E+04  0.22028147632E+04  0.83852843485E+02 0.  0.
        -11    1    3    3    0    0  0.45450803003E+01 -0.15514485180E+02 -0.61894919921E+02  0.63971385145E+02  0.00000000000E+00 0.  1.
         12    1    3    3    0    0  0.21384218644E+02  0.46022780235E+02 -0.26792232809E+01  0.50818887679E+02  0.00000000000E+00 0. -1.
         13    1    5    5    0    0  0.26915929177E+01 -0.31310393393E+02  0.42841152378E+03  0.42956259045E+03  0.00000000000E+00 0. -1.
        -14    1    5    5    0    0 -0.37784670276E+01  0.40412063048E+02  0.17727875948E+04  0.17732521727E+04  0.00000000000E+00 0.  1.
          5    1    4    4  501    0 -0.34542011895E+02  0.36404578948E+02  0.35070361774E+02  0.61366494353E+02  0.41800000000E+01 0.  1.
         -5    1    4    4    0  501  0.96995870608E+01 -0.76014543657E+02  0.12998055953E+03  0.15094605358E+03  0.41800000000E+01 0.  1.
</event>
<event>
11    1  0.7157190E-009  0.1827863E+03  0.7561462E-02  0.1067411E+00
         22   -1    0    0    0    0  0.00000000000E+00  0.00000000000E+00  0.30141575543E+03  0.30141575543E+03  0.00000000000E+00 0.  1.
         22   -1    0    0    0    0 -0.00000000000E+00 -0.00000000000E+00 -0.63235932683E+03  0.63235932683E+03  0.00000000000E+00 0. -1.
         24    2    1    2    0    0  0.30040651371E+02 -0.12644643444E+03 -0.51235206323E+03  0.53513212299E+03  0.83490184079E+02 0.  0.
         25    2    1    2    0    0 -0.86265525607E+01  0.16928239129E+03  0.20311150445E+02  0.21163916429E+03  0.12509055766E+03 0.  0.
        -24    2    1    2    0    0 -0.21414098810E+02 -0.42835956848E+02  0.16109734138E+03  0.18700379500E+03  0.82003555504E+02 0.  0.
        -11    1    3    3    0    0  0.26767228484E+02 -0.19793142745E+02 -0.46329034222E+02  0.57049385907E+02  0.00000000000E+00 0.  1.
         12    1    3    3    0    0  0.32734228870E+01 -0.10665329170E+03 -0.46602302901E+03  0.47808273708E+03  0.00000000000E+00 0. -1.
         13    1    5    5    0    0  0.18237044665E+02 -0.27641508509E+02  0.17900993829E+02  0.37644234231E+02  0.00000000000E+00 0. -1.
        -14    1    5    5    0    0 -0.39651143476E+02 -0.15194448339E+02  0.14319634755E+03  0.14935956076E+03  0.00000000000E+00 0.  1.
          5    1    4    4  501    0  0.34329077895E+01  0.13185582940E+02  0.50209627867E+02  0.52193137325E+02  0.41800000000E+01 0.  1.
         -5    1    4    4    0  501 -0.12059460350E+02  0.15609680835E+03 -0.29898477421E+02  0.15944602696E+03  0.41800000000E+01 0.  1.
</event>
<event>
11    1  0.7157190E-009  0.1338327E+03  0.7561462E-02  0.1114648E+00
         22   -1    0    0    0    0  0.00000000000E+00  0.00000000000E+00  0.13325754210E+04  0.13325754210E+04  0.00000000000E+00 0.  1.
         22   -1    0    0    0    0 -0.00000000000E+00 -0.00000000000E+00 -0.53550980817E+03  0.53550980817E+03  0.00000000000E+00 0. -1.
         24    2    1    2    0    0 -0.50141073160E+02 -0.36798656630E+01 -0.34122392678E+03  0.35449255872E+03  0.81875132704E+02 0.  0.
         25    2    1    2    0    0  0.38383065896E+02 -0.22862445950E+02 -0.16237131215E+03  0.20977179074E+03  0.12507521735E+03 0.  0.
        -24    2    1    2    0    0  0.11758007263E+02  0.26542311613E+02  0.13006608517E+04  0.13038208797E+04  0.85950509081E+02 0.  0.
        -11    1    3    3    0    0 -0.37946270738E+02 -0.45386840496E+01 -0.49613631648E+02  0.62626125228E+02  0.00000000000E+00 0.  1.
         12    1    3    3    0    0 -0.12194802422E+02  0.85881838663E+00 -0.29161029513E+03  0.29186643350E+03  0.00000000000E+00 0. -1.
         13    1    5    5    0    0 -0.29959293944E+02 -0.87363947066E+01  0.28766585427E+03  0.28935363761E+03  0.00000000000E+00 0. -1.
        -14    1    5    5    0    0  0.41717301208E+02  0.35278706320E+02  0.10129949975E+04  0.10144672421E+04  0.00000000000E+00 0.  1.
          5    1    4    4  501    0  0.27629589059E+02 -0.40883070185E+02 -0.36939410161E+01  0.49658203950E+02  0.41800000000E+01 0. -1.
         -5    1    4    4    0  501  0.10753476838E+02  0.18020624235E+02 -0.15867737114E+03  0.16011358679E+03  0.41800000000E+01 0. -1.
</event>
<event>
11    1  0.7157190E-009  0.3924451E+03  0.7561462E-02  0.9672316E-01
         22   -1    0    0    0    0  0.00000000000E+00  0.00000000000E+00  0.57193500031E+03  0.57193500031E+03  0.00000000000E+00 0.  1.
         22   -1    0    0    0    0 -0.00000000000E+00 -0.00000000000E+00 -0.45485513327E+03  0.45485513327E+03  0.00000000000E+00 0.  1.
         24    2    1    2    0    0 -0.19552746639E+02  0.36817862367E+03 -0.19669753061E+03  0.42565260042E+03  0.80946950921E+02 0.  0.
         25    2    1    2    0    0  0.64980488851E+02 -0.37733687700E+03  0.18536602049E+03  0.44341200358E+03  0.12509220876E+03 0.  0.
        -24    2    1    2    0    0 -0.45427742213E+02  0.91582533224E+01  0.12841137715E+03  0.15772552958E+03  0.78995617173E+02 0.  0.
        -13    1    3    3    0    0 -0.29273049520E+02  0.34750958305E+03 -0.16302311431E+03  0.38496280020E+03  0.00000000000E+00 0.  1.
         14    1    3    3    0    0  0.97203028815E+01  0.20669040622E+02 -0.33674416301E+02  0.40689800215E+02  0.00000000000E+00 0. -1.
         13    1    5    5    0    0  0.31944227643E+01  0.12309503489E+02 -0.65022331713E+01  0.14283110626E+02  0.00000000000E+00 0. -1.
        -14    1    5    5    0    0 -0.48622164977E+02 -0.31512501665E+01  0.13491361032E+03  0.14344241895E+03  0.00000000000E+00 0.  1.
          5    1    4    4  501    0  0.95748251863E+02 -0.19138160575E+03  0.10618123798E+03  0.23892796917E+03  0.41800000000E+01 0.  1.
         -5    1    4    4    0  501 -0.30767763011E+02 -0.18595527125E+03  0.79184782508E+02  0.20448403440E+03  0.41800000000E+01 0.  1.
</event>
<event>
11    1  0.7157190E-009  0.1269292E+03  0.7561462E-02  0.1123101E+00
         22   -1    0    0    0    0  0.00000000000E+00  0.00000000000E+00  0.25613141271E+04  0.25613141271E+04  0.00000000000E+00 0. -1.
         22   -1    0    0    0    0 -0.00000000000E+00 -0.00000000000E+00 -0.58003167828E+02  0.58003167828E+02  0.00000000000E+00 0. -1.
        -24    2    1    2    0    0  0.16881842274E+02 -0.13585894143E+02 -0.15948725603E+02  0.84764273254E+02  0.80380638550E+02 0.  0.
         25    2    1    2    0    0 -0.10804691157E+02  0.18065129497E+02  0.58141706938E+03  0.59509224369E+03  0.12508349085E+03 0.  0.
         24    2    1    2    0    0 -0.60771511167E+01 -0.44792353543E+01  0.19378426155E+04  0.19394607780E+04  0.78848662501E+02 0.  0.
        -13    1    5    5    0    0  0.21268156887E+02 -0.25188233009E+02  0.44310854303E+03  0.44433316609E+03  0.00000000000E+00 0.  1.
         14    1    5    5    0    0 -0.27345308004E+02  0.20708997655E+02  0.14947340725E+04  0.14951276119E+04  0.00000000000E+00 0. -1.
         11    1    3    3    0    0  0.28112583097E+02  0.25291577413E+02 -0.22150113288E+02  0.43824750257E+02  0.00000000000E+00 0. -1.
        -12    1    3    3    0    0 -0.11230740824E+02 -0.38877471555E+02  0.62013876852E+01  0.40939522997E+02  0.00000000000E+00 0.  1.
          5    1    4    4  501    0 -0.34581539241E+02 -0.39145434300E+01  0.54522358991E+03  0.54634919411E+03  0.41800000000E+01 0. -1.
         -5    1    4    4    0  501  0.23776848084E+02  0.21979672927E+02  0.36193479467E+02  0.48743049584E+02  0.41800000000E+01 0. -1.
</event>
<event>
11    1  0.1267458E-008  0.1551379E+03  0.7561462E-02  0.1091742E+00
         22   -1    0    0    0    0  0.00000000000E+00  0.00000000000E+00  0.12417978737E+04  0.12417978737E+04  0.00000000000E+00 0. -1.
         22   -1    0    0    0    0 -0.00000000000E+00 -0.00000000000E+00 -0.11296406065E+04  0.11296406065E+04  0.00000000000E+00 0. -1.
         24    2    1    2    0    0 -0.57090497287E+02  0.94909952727E+01 -0.71548258303E+03  0.72253049245E+03  0.82374644349E+02 0.  0.
         25    2    1    2    0    0  0.33731749623E+01 -0.84113622367E+02 -0.39388052571E+03  0.42175140210E+03  0.12508355950E+03 0.  0.
        -24    2    1    2    0    0  0.53717322324E+02  0.74622627094E+02  0.12215203759E+04  0.12271565856E+04  0.73124343288E+02 0.  0.
        -11    1    3    3    0    0 -0.18110363809E+02  0.86091643371E+01 -0.30886364236E+02  0.36824862302E+02  0.00000000000E+00 0.  1.
         12    1    3    3    0    0 -0.38980133478E+02  0.88183093557E+00 -0.68459621879E+03  0.68570563015E+03  0.00000000000E+00 0. -1.
         13    1    5    5    0    0  0.16923141200E+02  0.52780095912E+02  0.10003947632E+04  0.10019290462E+04  0.00000000000E+00 0. -1.
        -14    1    5    5    0    0  0.36794181124E+02  0.21842531182E+02  0.22112561271E+03  0.22522753946E+03  0.00000000000E+00 0.  1.
          5    1    4    4  501    0 -0.41331660888E+02 -0.37243859207E+02 -0.61268274315E+02  0.82865463723E+02  0.41800000000E+01 0. -1.
         -5    1    4    4    0  501  0.44704835851E+02 -0.46869763160E+02 -0.33261225140E+03  0.33888593837E+03  0.41800000000E+01 0. -1.
</event>
<event>
11    1  0.7157190E-009  0.1660454E+03  0.7561462E-02  0.1081525E+00
         22   -1    0    0    0    0  0.00000000000E+00  0.00000000000E+00  0.83925088099E+03  0.83925088099E+03  0.00000000000E+00 0. -1.
         22   -1    0    0    0    0 -0.00000000000E+00 -0.00000000000E+00 -0.27169333086E+03  0.27169333086E+03  0.00000000000E+00 0.  1.
        -24    2    1    2    0    0  0.35101682096E+02 -0.41912105779E+02 -0.20900238632E+03  0.23046747752E+03  0.80277693088E+02 0.  0.
         25    2    1    2    0    0 -0.89632816609E+01  0.14327996922E+03  0.15714577031E+03  0.24688486872E+03  0.12509138771E+03 0.  0.
         24    2    1    2    0    0 -0.26138400435E+02 -0.10136786344E+03  0.61941416614E+03  0.63359186561E+03  0.82498989280E+02 0.  0.
        -11    1    5    5    0    0 -0.10530411295E+02 -0.47692523470E+02  0.10117774672E+03  0.11234946724E+03  0.00000000000E+00 0.  1.
         12    1    5    5    0    0 -0.15607989141E+02 -0.53675339971E+02  0.51823641942E+03  0.52124239837E+03  0.00000000000E+00 0. -1.
         13    1    3    3    0    0  0.45461169366E+00  0.21929761397E+02 -0.28994671606E+02  0.36356733740E+02  0.00000000000E+00 0. -1.
        -14    1    3    3    0    0  0.34647070403E+02 -0.63841867176E+02 -0.18000771472E+03  0.19411074378E+03  0.00000000000E+00 0.  1.
          5    1    4    4  501    0 -0.60899558357E+02  0.10656678722E+03  0.12597113564E+03  0.17593020139E+03  0.41800000000E+01 0. -1.
         -5    1    4    4    0  501  0.51936276696E+02  0.36713181999E+02  0.31174634673E+02  0.70954667334E+02  0.41800000000E+01 0. -1.
</event>
<event>
11    1  0.7157190E-009  0.1429878E+03  0.7561462E-02  0.1104267E+00
         22   -1    0    0    0    0  0.00000000000E+00  0.00000000000E+00  0.15549151603E+04  0.15549151603E+04  0.00000000000E+00 0. -1.
         22   -1    0    0    0    0 -0.00000000000E+00 -0.00000000000E+00 -0.46773910514E+03  0.46773910514E+03  0.00000000000E+00 0.  1.
        -24    2    1    2    0    0  0.53181779699E+02  0.38380904877E+02 -0.34852659837E+03  0.36359098512E+03  0.80163702120E+02 0.  0.
         25    2    1    2    0    0 -0.11094083666E+03 -0.74583934229E+02 -0.33476253697E+02  0.18611330947E+03  0.12508745707E+03 0.  0.
         24    2    1    2    0    0  0.57759056958E+02  0.36203029352E+02  0.14691789073E+04  0.14729499709E+04  0.80300605371E+02 0.  0.
        -13    1    5    5    0    0  0.41484205131E+02  0.54884015519E+02  0.70013806179E+03  0.70351012786E+03  0.00000000000E+00 0.  1.
         14    1    5    5    0    0  0.16274851828E+02 -0.18680986167E+02  0.76904084548E+03  0.76943984304E+03  0.00000000000E+00 0. -1.
         13    1    3    3    0    0  0.25594363720E+02 -0.16536424055E+02 -0.48077509116E+02  0.56920748920E+02  0.00000000000E+00 0. -1.
        -14    1    3    3    0    0  0.27587415979E+02  0.54917328932E+02 -0.30044908925E+03  0.30667023620E+03  0.00000000000E+00 0.  1.
          5    1    4    4  501    0 -0.68715346015E+01  0.43160314116E+01 -0.53192593577E+02  0.53970089183E+02  0.41800000000E+01 0.  1.
         -5    1    4    4    0  501 -0.10406930206E+03 -0.78899965641E+02  0.19716339880E+02  0.13214322028E+03  0.41800000000E+01 0.  1.
</event>
<event>
11    1  0.7157190E-009  0.1545448E+03  0.7561462E-02  0.1092323E+00
         22   -1    0    0    0    0  0.00000000000E+00  0.00000000000E+00  0.37586139482E+03  0.37586139482E+03  0.00000000000E+00 0.  1.
         22   -1    0    0    0    0 -0.00000000000E+00 -0.00000000000E+00 -0.77345992231E+03  0.77345992231E+03  0.00000000000E+00 0.  1.
        -24    2    1    2    0    0 -0.29639181074E+02 -0.21546623773E+02 -0.54914483622E+03  0.55620206669E+03  0.80361370023E+02 0.  0.
         25    2    1    2    0    0 -0.48049925953E+02 -0.28731565632E+02 -0.18768439919E+03  0.23239360534E+03  0.12508819230E+03 0.  0.
         24    2    1    2    0    0  0.77689107028E+02  0.50278189406E+02  0.33923070793E+03  0.36072564510E+03  0.80511018809E+02 0.  0.
        -11    1    5    5    0    0  0.27766170793E+02  0.44695234129E+02  0.74120625783E+02  0.90898247292E+02  0.00000000000E+00 0.  1.
         12    1    5    5    0    0  0.49922936235E+02  0.55829552765E+01  0.26511008214E+03  0.26982739780E+03  0.00000000000E+00 0. -1.
         13    1    3    3    0    0  0.22915322461E+02  0.11321745068E+02 -0.12882381256E+03  0.13133494812E+03  0.00000000000E+00 0. -1.
        -14    1    3    3    0    0 -0.52554503535E+02 -0.32868368842E+02 -0.42032102366E+03  0.42486711858E+03  0.00000000000E+00 0.  1.
          5    1    4    4  501    0  0.42228027104E+02 -0.94989575659E+01 -0.46527125224E+02  0.63684238627E+02  0.41800000000E+01 0.  1.
         -5    1    4    4    0  501 -0.90277953057E+02 -0.19232608067E+02 -0.14115727397E+03  0.16870936671E+03  0.41800000000E+01 0.  1.
</event>
<event>
11    1  0.7157190E-009  0.1569570E+03  0.7561462E-02  0.1089975E+00
         22   -1    0    0    0    0  0.00000000000E+00  0.00000000000E+00  0.66857750629E+02  0.66857750629E+02  0.00000000000E+00 0.  1.
         22   -1    0    0    0    0 -0.00000000000E+00 -0.00000000000E+00 -0.17818879969E+04  0.17818879969E+04  0.00000000000E+00 0.  1.
         24    2    1    2    0    0 -0.42311125876E+02 -0.85158930878E+02 -0.14784781158E+04  0.14836277488E+04  0.78812962585E+02 0.  0.
         25    2    1    2    0    0  0.41777750216E+02  0.82176999992E+02 -0.23917122817E+03  0.28521933125E+03  0.12509496710E+03 0.  0.
        -24    2    1    2    0    0  0.53337565976E+00  0.29819308859E+01  0.26190977185E+01  0.79898667513E+02  0.79798251836E+02 0.  0.
        -11    1    3    3    0    0 -0.48336154945E+02 -0.51992228419E+02 -0.13035292766E+04  0.13054608958E+04  0.00000000000E+00 0.  1.
         12    1    3    3    0    0  0.60250290692E+01 -0.33166702459E+02 -0.17494883928E+03  0.17816685295E+03  0.00000000000E+00 0. -1.
         13    1    5    5    0    0 -0.74274649217E+01 -0.25803906572E+02 -0.26827612338E+02  0.37956944204E+02  0.00000000000E+00 0. -1.
        -14    1    5    5    0    0  0.79608405815E+01  0.28785837458E+02  0.29446710057E+02  0.41941723309E+02  0.00000000000E+00 0.  1.
          5    1    4    4  501    0  0.52781374141E+02 -0.11925384879E+02 -0.50876629651E+02  0.74390806592E+02  0.41800000000E+01 0. -1.
         -5    1    4    4    0  501 -0.11003623925E+02  0.94102384871E+02 -0.18829459852E+03  0.21082852466E+03  0.41800000000E+01 0. -1.
</event>
<event>
11    1  0.7157190E-009  0.1642902E+03  0.7561462E-02  0.1083110E+00
         22   -1    0    0    0    0  0.00000000000E+00  0.00000000000E+00  0.11156702807E+03  0.11156702807E+03  0.00000000000E+00 0.  1.
         22   -1    0    0    0    0 -0.00000000000E+00 -0.00000000000E+00 -0.23147325326E+04  0.23147325326E+04  0.00000000000E+00 0. -1.
         24    2    1    2    0    0 -0.51395954120E+02  0.10700958281E+03 -0.18822334709E+04  0.18875446094E+04  0.77001419947E+02 0.  0.
         25    2    1    2    0    0  0.89811968585E+01 -0.53902860454E+02 -0.38585815837E+03  0.40929127710E+03  0.12508657351E+03 0.  0.
        -24    2    1    2    0    0  0.42414757261E+02 -0.53106722360E+02  0.64926124722E+02  0.12946367417E+03  0.89028678884E+02 0.  0.
        -13    1    3    3    0    0 -0.39777249270E+02  0.23700801729E+02 -0.35652212816E+03  0.35951632151E+03  0.00000000000E+00 0.  1.
         14    1    3    3    0    0 -0.11618704850E+02  0.83308781086E+02 -0.15257113427E+04  0.15280282879E+04  0.00000000000E+00 0. -1.
         11    1    5    5    0    0  0.54898243631E+02 -0.17289057653E+02  0.40001079379E+01  0.57695143052E+02  0.00000000000E+00 0. -1.
        -12    1    5    5    0    0 -0.12483486370E+02 -0.35817664708E+02  0.60926016784E+02  0.71768531114E+02  0.00000000000E+00 0.  1.
          5    1    4    4  501    0 -0.69690481892E+01  0.32360078433E+02 -0.38235865013E+02  0.50746389844E+02  0.41800000000E+01 0. -1.
         -5    1    4    4    0  501  0.15950245048E+02 -0.86262938888E+02 -0.34762229335E+03  0.35854488726E+03  0.41800000000E+01 0. -1.
</event>
<event>
11    1  0.7157190E-009  0.1667987E+03  0.7561462E-02  0.1080852E+00
         22   -1    0    0    0    0  0.00000000000E+00  0.00000000000E+00  0.76338969420E+03  0.76338969420E+03  0.00000000000E+00 0.  1.
         22   -1    0    0    0    0 -0.00000000000E+00 -0.00000000000E+00 -0.32025730895E+03  0.32025730895E+03  0.00000000000E+00 0. -1.
        -24    2    1    2    0    0  0.10652707169E+03  0.36882903749E+02 -0.24881923284E+03  0.28345555600E+03  0.75681411219E+02 0.  0.
         25    2    1    2    0    0 -0.93912359537E+02 -0.14708731769E+02  0.69098438330E+02  0.17163161402E+03  0.12508772396E+03 0.  0.
         24    2    1    2    0    0 -0.12614712154E+02 -0.22174171980E+02  0.62285317975E+03  0.62855983313E+03  0.80563983504E+02 0.  0.
        -13    1    5    5    0    0 -0.27739308052E+02 -0.44047682182E+02  0.50839148850E+03  0.51104948204E+03  0.00000000000E+00 0.  1.
         14    1    5    5    0    0  0.15124595898E+02  0.21873510202E+02  0.11446169125E+03  0.11751035109E+03  0.00000000000E+00 0. -1.
         13    1    3    3    0    0  0.11266572374E+03  0.15935490953E+02 -0.21368861040E+03  0.24209569883E+03  0.00000000000E+00 0. -1.
        -14    1    3    3    0    0 -0.61386520529E+01  0.20947412796E+02 -0.35130622440E+02  0.41359857167E+02  0.00000000000E+00 0.  1.
          5    1    4    4  501    0 -0.10973346845E+03  0.26044543300E+02  0.54691868462E+02  0.12541301850E+03  0.41800000000E+01 0.  1.
         -5    1    4    4    0  501  0.15821108913E+02 -0.40753275070E+02  0.14406569868E+02  0.46218595516E+02  0.41800000000E+01 0.  1.
</event>
<event>
11    1  0.7157190E-009  0.2004554E+03  0.7561462E-02  0.1054202E+00
         22   -1    0    0    0    0  0.00000000000E+00  0.00000000000E+00  0.12740577476E+04  0.12740577476E+04  0.00000000000E+00 0. -1.
         22   -1    0    0    0    0 -0.00000000000E+00 -0.00000000000E+00 -0.22920398590E+04  0.22920398590E+04  0.00000000000E+00 0.  1.
        -24    2    1    2    0    0  0.12280616534E+03  0.10776987233E+03 -0.21342105348E+04  0.21419077183E+04  0.78856625382E+02 0.  0.
         25    2    1    2    0    0 -0.11016823690E+03  0.15210251695E+02 -0.10276865195E+03  0.19641120198E+03  0.12509025645E+03 0.  0.
         24    2    1    2    0    0 -0.12637928437E+02 -0.12298012402E+03  0.12189970754E+04  0.12277786862E+04  0.78757884555E+02 0.  0.
        -13    1    5    5    0    0  0.57766348600E+01  0.95643529458E+01  0.55658497357E+02  0.56768958821E+02  0.00000000000E+00 0.  1.
         14    1    5    5    0    0 -0.18414563297E+02 -0.13254447697E+03  0.11633385780E+04  0.11710097274E+04  0.00000000000E+00 0. -1.
         13    1    3    3    0    0  0.43223193572E+02  0.88977624840E+02 -0.10720045942E+04  0.10765589218E+04  0.00000000000E+00 0. -1.
        -14    1    3    3    0    0  0.79582971769E+02  0.18792247490E+02 -0.10622059406E+04  0.10653487965E+04  0.00000000000E+00 0.  1.
          5    1    4    4  501    0 -0.43398701343E-02  0.44127975530E+02 -0.60178042857E+02  0.74740534419E+02  0.41800000000E+01 0. -1.
         -5    1    4    4    0  501 -0.11016389703E+03 -0.28917723836E+02 -0.42590609096E+02  0.12167066756E+03  0.41800000000E+01 0. -1.
</event>
<event>
11    1  0.7157190E-009  0.1472954E+03  0.7561462E-02  0.1099675E+00
         22   -1    0    0    0    0  0.00000000000E+00  0.00000000000E+00  0.50431615638E+02  0.50431615638E+02  0.00000000000E+00 0.  1.
         22   -1    0    0    0    0 -0.00000000000E+00 -0.00000000000E+00 -0.22412892280E+04  0.22412892280E+04  0.00000000000E+00 0.  1.
         24    2    1    2    0    0 -0.25953865211E+02 -0.36047483928E+02 -0.11759520296E+04  0.11797520887E+04  0.83539157168E+02 0.  0.
         25    2    1    2    0    0 -0.11845187757E+02  0.10250560230E+03 -0.98444171050E+03  0.99770838896E+03  0.12509532784E+03 0.  0.
        -24    2    1    2    0    0  0.37799052968E+02 -0.66458118367E+02 -0.30463872333E+02  0.11426036600E+03  0.79258651380E+02 0.  0.
        -13    1    3    3    0    0 -0.11636893356E+02 -0.30732694021E+02 -0.11425718856E+04  0.11430443690E+04  0.00000000000E+00 0.  1.
         14    1    3    3    0    0 -0.14316971855E+02 -0.53147899076E+01 -0.33380143967E+02  0.36707719707E+02  0.00000000000E+00 0. -1.
         11    1    5    5    0    0  0.15718340090E+02  0.14021748496E+02  0.77882669715E+01  0.22457353996E+02  0.00000000000E+00 0. -1.
        -12    1    5    5    0    0  0.22080712878E+02 -0.80479866863E+02 -0.38252139304E+02  0.91803012003E+02  0.00000000000E+00 0.  1.
          5    1    4    4  501    0 -0.42130025352E+01 -0.28733269539E+02 -0.13566322408E+03  0.13879961432E+03  0.41800000000E+01 0.  1.
         -5    1    4    4    0  501 -0.76321852217E+01  0.13123887183E+03 -0.84877848643E+03  0.85890877464E+03  0.41800000000E+01 0.  1.
</event>
<event>
11    1  0.7157190E-009  0.2120317E+03  0.7561462E-02  0.1046327E+00
         22   -1    0    0    0    0  0.00000000000E+00  0.00000000000E+00  0.45929907425E+03  0.45929907425E+03  0.00000000000E+00 0.  1.
         22   -1    0    0    0    0 -0.00000000000E+00 -0.00000000000E+00 -0.98566713059E+03  0.98566713059E+03  0.00000000000E+00 0. -1.
        -24    2    1    2    0    0 -0.12672429710E+03  0.59809513189E+02 -0.39341457589E+03  0.42527672951E+03  0.80305932493E+02 0.  0.
         25    2    1    2    0    0  0.19805466946E+03 -0.11942685202E+03 -0.53670310673E+03  0.59765091170E+03  0.12509181587E+03 0.  0.
         24    2    1    2    0    0 -0.71330372359E+02  0.59617338836E+02  0.40374962628E+03  0.42203856363E+03  0.80377480401E+02 0.  0.
        -11    1    5    5    0    0 -0.78927401593E+02  0.51443861820E+02  0.39889439990E+03  0.40986918390E+03  0.00000000000E+00 0.  1.
         12    1    5    5    0    0  0.75970292340E+01  0.81734770154E+01  0.48552263832E+01  0.12169379727E+02  0.00000000000E+00 0. -1.
         13    1    3    3    0    0 -0.45613201459E+01 -0.13000794793E+02 -0.79029605478E+02  0.80221598393E+02  0.00000000000E+00 0. -1.
        -14    1    3    3    0    0 -0.12216297696E+03  0.72810307982E+02 -0.31438497042E+03  0.34505513112E+03  0.00000000000E+00 0.  1.
          5    1    4    4  501    0  0.14925552121E+03 -0.48988710393E+02 -0.44565990161E+03  0.47255404417E+03  0.41800000000E+01 0. -1.
         -5    1    4    4    0  501  0.48799148252E+02 -0.70438141632E+02 -0.91043205118E+02  0.12509686753E+03  0.41800000000E+01 0. -1.
</event>
<event>
11    1  0.7157190E-009  0.1461779E+03  0.7561462E-02  0.1100849E+00
         22   -1    0    0    0    0  0.00000000000E+00  0.00000000000E+00  0.56919216790E+03  0.56919216790E+03  0.00000000000E+00 0. -1.
         22   -1    0    0    0    0 -0.00000000000E+00 -0.00000000000E+00 -0.51234266125E+03  0.51234266125E+03  0.00000000000E+00 0.  1.
         24    2    1    2    0    0  0.63619519225E+02 -0.28093331389E+02 -0.45476142263E+03  0.46720664480E+03  0.81470356201E+02 0.  0.
         25    2    1    2    0    0 -0.46236385017E+02 -0.51008629676E+02  0.71297218835E+02  0.15959549947E+03  0.12509095266E+03 0.  0.
        -24    2    1    2    0    0 -0.17383134208E+02  0.79101961065E+02  0.44031371045E+03  0.45473268487E+03  0.79664028786E+02 0.  0.
        -11    1    3    3    0    0  0.13566243145E+00 -0.21455828024E+01 -0.27188310882E+03  0.27189160854E+03  0.00000000000E+00 0.  1.
         12    1    3    3    0    0  0.63483856793E+02 -0.25947748587E+02 -0.18287831381E+03  0.19531503627E+03  0.00000000000E+00 0. -1.
         11    1    5    5    0    0 -0.35453994659E+01  0.87699126242E+02  0.27615596731E+03  0.28976857124E+03  0.00000000000E+00 0. -1.
        -12    1    5    5    0    0 -0.13837734742E+02 -0.85971651773E+01  0.16415774314E+03  0.16496411363E+03  0.00000000000E+00 0.  1.
          5    1    4    4  501    0 -0.41392400140E+02 -0.90763574342E+02  0.64213662074E+02  0.11871067355E+03  0.41800000000E+01 0. -1.
         -5    1    4    4    0  501 -0.48439848768E+01  0.39754944666E+02  0.70835567613E+01  0.40884825929E+02  0.41800000000E+01 0. -1.
</event>
<event>
11    1  0.7157190E-009  0.1398633E+03  0.7561462E-02  0.1107711E+00
         22   -1    0    0    0    0  0.00000000000E+00  0.00000000000E+00  0.11871537460E+04  0.11871537460E+04  0.00000000000E+00 0.  1.
         22   -1    0    0    0    0 -0.00000000000E+00 -0.00000000000E+00 -0.40522499881E+03  0.40522499881E+03  0.00000000000E+00 0.  1.
         24    2    1    2    0    0 -0.33915493716E+02  0.50995436463E+02 -0.35077978365E+03  0.36492118843E+03  0.79813669841E+02 0.  0.
         25    2    1    2    0    0  0.56427350442E+02 -0.65956607702E+02  0.81111490296E+02  0.17251396343E+03  0.12509066209E+03 0.  0.
        -24    2    1    2    0    0 -0.22511856726E+02  0.14961171239E+02  0.10515970405E+04  0.10549435930E+04  0.79492316097E+02 0.  0.
        -11    1    3    3    0    0 -0.10490600896E+02  0.68712688561E+02 -0.27500720203E+03  0.28365550840E+03  0.00000000000E+00 0.  1.
         12    1    3    3    0    0 -0.23424892821E+02 -0.17717252098E+02 -0.75772581615E+02  0.81265680026E+02  0.00000000000E+00 0. -1.
         13    1    5    5    0    0 -0.70881450039E+01 -0.17600247201E+02  0.65610070349E+02  0.68298549270E+02  0.00000000000E+00 0. -1.
        -14    1    5    5    0    0 -0.15423711722E+02  0.32561418440E+02  0.98598697019E+03  0.98664504369E+03  0.00000000000E+00 0.  1.
          5    1    4    4  501    0 -0.82417605646E+01 -0.33269992229E+02 -0.25932656363E+02  0.43183261412E+02  0.41800000000E+01 0. -1.
         -5    1    4    4    0  501  0.64669111007E+02 -0.32686615473E+02  0.10704414666E+03  0.12933070201E+03  0.41800000000E+01 0. -1.
</event>
<event>
11    1  0.7157190E-009  0.1485726E+03  0.7561462E-02  0.1098346E+00
         22   -1    0    0    0    0  0.00000000000E+00  0.00000000000E+00  0.24188352880E+03  0.24188352880E+03  0.00000000000E+00 0. -1.
         22   -1    0    0    0    0 -0.00000000000E+00 -0.00000000000E+00 -0.77296734328E+03  0.77296734328E+03  0.00000000000E+00 0. -1.
         24    2    1    2    0    0  0.81474260771E+02 -0.11473901412E+02 -0.64960501116E+03  0.65974854215E+03  0.80695493999E+02 0.  0.
         25    2    1    2    0    0 -0.63308003000E+02 -0.54950789898E+02 -0.47031104260E+02  0.15775448072E+03  0.12508820434E+03 0.  0.
        -24    2    1    2    0    0 -0.18166257771E+02  0.66424691310E+02  0.16555230095E+03  0.19734784921E+03  0.82440018815E+02 0.  0.
        -11    1    3    3    0    0  0.80313008552E+02 -0.26949201495E+01 -0.31703309208E+03  0.32705874611E+03  0.00000000000E+00 0.  1.
         12    1    3    3    0    0  0.11612522195E+01 -0.87789812629E+01 -0.33257191909E+03  0.33268979603E+03  0.00000000000E+00 0. -1.
         13    1    5    5    0    0 -0.31723818376E+02  0.60774462200E+01  0.10848511168E+03  0.11319167576E+03  0.00000000000E+00 0. -1.
        -14    1    5    5    0    0  0.13557560605E+02  0.60347245090E+02  0.57067189274E+02  0.84156173458E+02  0.00000000000E+00 0.  1.
          5    1    4    4  501    0 -0.98200185545E+02 -0.19384885305E+02 -0.25917704257E+02  0.10348067459E+03  0.41800000000E+01 0. -1.
         -5    1    4    4    0  501  0.34892182545E+02 -0.35565904593E+02 -0.21113400003E+02  0.54273806131E+02  0.41800000000E+01 0. -1.
</event>
<event>
11    1  0.7157190E-009  0.1409954E+03  0.7561462E-02  0.1106452E+00
         22   -1    0    0    0    0  0.00000000000E+00  0.00000000000E+00  0.14418478825E+03  0.14418478825E+03  0.00000000000E+00 0. -1.
         22   -1    0    0    0    0 -0.00000000000E+00 -0.00000000000E+00 -0.13265545533E+04  0.13265545533E+04  0.00000000000E+00 0.  1.
        -24    2    1    2    0    0 -0.10011564200E+02  0.15403375635E+01 -0.97847118728E+03  0.98177930846E+03  0.79888310334E+02 0.  0.
         25    2    1    2    0    0  0.25055632647E+02 -0.64600255618E+02 -0.30934547809E+03  0.34079538215E+03  0.12508353182E+03 0.  0.
         24    2    1    2    0    0 -0.15044068447E+02  0.63059918054E+02  0.10544690027E+03  0.14816465098E+03  0.81429956177E+02 0.  0.
        -13    1    5    5    0    0  0.13721510197E+02 -0.13577159774E+02  0.35863086143E+02  0.40728123666E+02  0.00000000000E+00 0.  1.
         14    1    5    5    0    0 -0.28765578645E+02  0.76637077828E+02  0.69583814122E+02  0.10743652731E+03  0.00000000000E+00 0. -1.
         13    1    3    3    0    0  0.20891695096E+02  0.30683511740E+02 -0.38284938455E+03  0.38464476087E+03  0.00000000000E+00 0. -1.
        -14    1    3    3    0    0 -0.30903259296E+02 -0.29143174177E+02 -0.59562180273E+03  0.59713454758E+03  0.00000000000E+00 0.  1.
          5    1    4    4  501    0  0.54320280152E+02 -0.79834197221E+02 -0.28079938741E+03  0.29696794482E+03  0.41800000000E+01 0. -1.
         -5    1    4    4    0  501 -0.29264647504E+02  0.15233941603E+02 -0.28546090678E+02  0.43827437335E+02  0.41800000000E+01 0. -1.
</event>
<event>
11    1  0.7911190E-009  0.1666414E+03  0.7561462E-02  0.1080992E+00
         22   -1    0    0    0    0  0.00000000000E+00  0.00000000000E+00  0.84726216822E+03  0.84726216822E+03  0.00000000000E+00 0.  1.
         22   -1    0    0    0    0 -0.00000000000E+00 -0.00000000000E+00 -0.13342571836E+04  0.13342571836E+04  0.00000000000E+00 0. -1.
         24    2    1    2    0    0 -0.76098467266E+02  0.72458567976E+02 -0.12060044110E+04  0.12134654455E+04  0.83728891253E+02 0.  0.
         25    2    1    2    0    0 -0.37175598058E+02 -0.80014965395E+02 -0.68932782980E+02  0.16788005531E+03  0.12509022593E+03 0.  0.
        -24    2    1    2    0    0  0.11327406532E+03  0.75563974194E+01  0.78794217863E+03  0.80017385100E+03  0.80852964978E+02 0.  0.
        -13    1    3    3    0    0 -0.76043289744E+02  0.32681390205E+02 -0.54331723578E+03  0.54958554737E+03  0.00000000000E+00 0.  1.
         14    1    3    3    0    0 -0.55177522282E-01  0.39777177771E+02 -0.66268717523E+03  0.66387989812E+03  0.00000000000E+00 0. -1.
         11    1    5    5    0    0  0.11276111728E+01  0.20195270550E+02  0.55150178516E+02  0.58742341202E+02  0.00000000000E+00 0. -1.
        -12    1    5    5    0    0  0.11214645415E+03 -0.12638873131E+02  0.73279200011E+03  0.74143150980E+03  0.00000000000E+00 0.  1.
          5    1    4    4  501    0  0.17923335952E+02 -0.41820431998E+02 -0.87045035384E+02  0.98308214759E+02  0.41800000000E+01 0. -1.
         -5    1    4    4    0  501 -0.55098934009E+02 -0.38194533397E+02  0.18112252404E+02  0.69571840550E+02  0.41800000000E+01 0. -1.
</event>
<event>
11    1  0.7157190E-009  0.1812744E+03  0.7561462E-02  0.1068617E+00
         22   -1    0    0    0    0  0.00000000000E+00  0.00000000000E+00  0.56481708185E+03  0.56481708185E+03  0.00000000000E+00 0. -1.
         22   -1    0    0    0    0 -0.00000000000E+00 -0.00000000000E+00 -0.11421976100E+04  0.11421976100E+04  0.00000000000E+00 0. -1.
         24    2    1    2    0    0  0.13302066351E+03 -0.12607973188E+02 -0.10970397323E+04  0.11076443223E+04  0.74339172888E+02 0.  0.
         25    2    1    2    0    0 -0.55984227775E+02 -0.43176961492E+02  0.14359312085E+03  0.20314134277E+03  0.12509571146E+03 0.  0.
        -24    2    1    2    0    0 -0.77036435735E+02  0.55784934680E+02  0.37606608321E+03  0.39622902683E+03  0.80778532999E+02 0.  0.
        -13    1    3    3    0    0  0.24014995985E+01 -0.22193063024E+01 -0.50530147880E+00  0.33087535976E+01  0.00000000000E+00 0.  1.
         14    1    3    3    0    0  0.13061916391E+03 -0.10388666886E+02 -0.10965344308E+04  0.11043355687E+04  0.00000000000E+00 0. -1.
         11    1    5    5    0    0 -0.55875894646E+02  0.94304617096E+01  0.29562379656E+03  0.30100577786E+03  0.00000000000E+00 0. -1.
        -12    1    5    5    0    0 -0.21160541089E+02  0.46354472970E+02  0.80442286652E+02  0.95223248974E+02  0.00000000000E+00 0.  1.
          5    1    4    4  501    0 -0.92480378246E+02 -0.35251170932E+02  0.72598812114E+02  0.12281419028E+03  0.41800000000E+01 0. -1.
         -5    1    4    4    0  501  0.36496150471E+02 -0.79257905595E+01  0.70994308739E+02  0.80327152499E+02  0.41800000000E+01 0. -1.
</event>
<event>
11    1  0.7157190E-009  0.1280422E+03  0.7561462E-02  0.1121698E+00
         22   -1    0    0    0    0  0.00000000000E+00  0.00000000000E+00  0.85566146716E+03  0.85566146716E+03  0.00000000000E+00 0. -1.
         22   -1    0    0    0    0 -0.00000000000E+00 -0.00000000000E+00 -0.17904065877E+03  0.17904065877E+03  0.00000000000E+00 0. -1.
         24    2    1    2    0    0  0.24399239029E+02 -0.12628175652E+02 -0.13014618181E+03  0.15636668148E+03  0.82205332867E+02 0.  0.
         25    2    1    2    0    0 -0.18231231919E+02  0.21154970108E+02  0.88842501574E+02  0.15594922884E+03  0.12508901355E+03 0.  0.
        -24    2    1    2    0    0 -0.61680071095E+01 -0.85267944552E+01  0.71792448862E+03  0.72238621561E+03  0.79470262440E+02 0.  0.
        -11    1    3    3    0    0 -0.10587434793E+02 -0.27419272348E+02 -0.11118579466E+02  0.31425039076E+02  0.00000000000E+00 0.  1.
         12    1    3    3    0    0  0.34986673822E+02  0.14791096696E+02 -0.11902760234E+03  0.12494164240E+03  0.00000000000E+00 0. -1.
         13    1    5    5    0    0 -0.72523810149E+01  0.31386992001E+02  0.48463172737E+03  0.48570119566E+03  0.00000000000E+00 0. -1.
        -14    1    5    5    0    0  0.10843739054E+01 -0.39913786456E+02  0.23329276125E+03  0.23668501995E+03  0.00000000000E+00 0.  1.
          5    1    4    4  501    0  0.41379468823E+02 -0.24460854931E+02  0.14891858311E+02  0.50495878129E+02  0.41800000000E+01 0.  1.
         -5    1    4    4    0  501 -0.59610700743E+02  0.45615825039E+02  0.73950643263E+02  0.10545335071E+03  0.41800000000E+01 0.  1.
</event>
<event>
11    1  0.7157190E-009  0.1918290E+03  0.7561462E-02  0.1060457E+00
         22   -1    0    0    0    0  0.00000000000E+00  0.00000000000E+00  0.31042510423E+03  0.31042510423E+03  0.00000000000E+00 0.  1.
         22   -1    0    0    0    0 -0.00000000000E+00 -0.00000000000E+00 -0.19213311153E+04  0.19213311153E+04  0.00000000000E+00 0.  1.
         24    2    1    2    0    0  0.18043230703E+02 -0.14488751010E+03 -0.17043494515E+04  0.17124773916E+04  0.80335640864E+02 0.  0.
         25    2    1    2    0    0 -0.71370530889E+02  0.13020460756E+03 -0.15675044149E+03  0.24953150882E+03  0.12509308726E+03 0.  0.
        -24    2    1    2    0    0  0.53327300186E+02  0.14682902543E+02  0.25019388187E+03  0.26974731914E+03  0.84304502177E+02 0.  0.
        -13    1    3    3    0    0 -0.11430824629E+00 -0.10267407731E+03 -0.74669320661E+03  0.75371926074E+03  0.00000000000E+00 0.  1.
         14    1    3    3    0    0  0.18157538949E+02 -0.42213432792E+02 -0.95765624488E+03  0.95875813086E+03  0.00000000000E+00 0. -1.
         13    1    5    5    0    0 -0.45903092663E+01 -0.21930594861E+02  0.21664782560E+02  0.31167045633E+02  0.00000000000E+00 0. -1.
        -14    1    5    5    0    0  0.57917609452E+02  0.36613497404E+02  0.22852909931E+03  0.23858027351E+03  0.00000000000E+00 0.  1.
          5    1    4    4  501    0 -0.91003198152E+02  0.38327628309E+02 -0.94567216463E+02  0.13678823047E+03  0.41800000000E+01 0. -1.
         -5    1    4    4    0  501  0.19632667263E+02  0.91876979248E+02 -0.62183225022E+02  0.11274327835E+03  0.41800000000E+01 0. -1.
</event>
<event>
11    1  0.7157190E-009  0.3939750E+03  0.7561462E-02  0.9667704E-01
         22   -1    0    0    0    0  0.00000000000E+00  0.00000000000E+00  0.98142350593E+03  0.98142350593E+03  0.00000000000E+00 0. -1.
         22   -1    0    0    0    0 -0.00000000000E+00 -0.00000000000E+00 -0.31153530820E+03  0.31153530820E+03  0.00000000000E+00 0. -1.
         24    2    1    2    0    0 -0.21282809739E+03  0.29715605930E+03 -0.50270451337E+02  0.37736832897E+03  0.79260424014E+02 0.  0.
         25    2    1    2    0    0  0.27389432073E+03 -0.29193350698E+03  0.40024576772E+03  0.57973734982E+03  0.12512173582E+03 0.  0.
        -24    2    1    2    0    0 -0.61066223343E+02 -0.52225523265E+01  0.31991288135E+03  0.33585313533E+03  0.81833478318E+02 0.  0.
        -13    1    3    3    0    0 -0.61790437110E+02  0.85161637495E+02  0.21431532818E+02  0.10737724721E+03  0.00000000000E+00 0.  1.
         14    1    3    3    0    0 -0.15103766028E+03  0.21199442181E+03 -0.71701984155E+02  0.26999108176E+03  0.00000000000E+00 0. -1.
         11    1    5    5    0    0 -0.35286392317E+02 -0.17801065696E+02  0.29565916813E+03  0.29828903956E+03  0.00000000000E+00 0. -1.
        -12    1    5    5    0    0 -0.25779831027E+02  0.12578513369E+02  0.24253713222E+02  0.37564095775E+02  0.00000000000E+00 0.  1.
          5    1    4    4  501    0  0.23469359526E+02  0.43162001351E+01  0.28657314255E+01  0.24395188804E+02  0.41800000000E+01 0.  1.
         -5    1    4    4    0  501  0.25042496120E+03 -0.29624970711E+03  0.39738003629E+03  0.55534216102E+03  0.41800000000E+01 0.  1.
</event>
<event>
11    1  0.7157190E-009  0.2302494E+03  0.7561462E-02  0.1034980E+00
         22   -1    0    0    0    0  0.00000000000E+00  0.00000000000E+00  0.32381727314E+03  0.32381727314E+03  0.00000000000E+00 0. -1.
         22   -1    0    0    0    0 -0.00000000000E+00 -0.00000000000E+00 -0.37663862767E+04  0.37663862767E+04  0.00000000000E+00 0.  1.
         24    2    1    2    0    0 -0.38698596717E+02  0.17293848552E+03 -0.23942203203E+04  0.24021302338E+04  0.80829553917E+02 0.  0.
         25    2    1    2    0    0  0.13856651449E+02 -0.25683512187E+03 -0.13413475162E+04  0.13715020486E+04  0.12509365887E+03 0.  0.
        -24    2    1    2    0    0  0.24841945268E+02  0.83896636353E+02  0.29299883302E+03  0.31657126737E+03  0.81934628459E+02 0.  0.
        -11    1    3    3    0    0 -0.52277552579E+02  0.58759226699E+02 -0.11029330611E+04  0.11057336599E+04  0.00000000000E+00 0.  1.
         12    1    3    3    0    0  0.13578955862E+02  0.11417925882E+03 -0.12912872592E+04  0.12963965739E+04  0.00000000000E+00 0. -1.
         13    1    5    5    0    0 -0.14817209506E+02  0.78452953881E+02  0.19524500102E+03  0.21093844148E+03  0.00000000000E+00 0. -1.
        -14    1    5    5    0    0  0.39659154775E+02  0.54436824723E+01  0.97753831995E+02  0.10563282589E+03  0.00000000000E+00 0.  1.
          5    1    4    4  501    0  0.88422489577E+01 -0.72510809504E+02 -0.71014654163E+03  0.71390586624E+03  0.41800000000E+01 0.  1.
         -5    1    4    4    0  501  0.50144024909E+01 -0.18432431237E+03 -0.63120097460E+03  0.65759618240E+03  0.41800000000E+01 0.  1.
</event>
<event>
11    1  0.7157190E-009  0.1464903E+03  0.7561462E-02  0.1100520E+00
         22   -1    0    0    0    0  0.00000000000E+00  0.00000000000E+00  0.87219127639E+03  0.87219127639E+03  0.00000000000E+00 0.  1.
         22   -1    0    0    0    0 -0.00000000000E+00 -0.00000000000E+00 -0.21875210324E+03  0.21875210324E+03  0.00000000000E+00 0.  1.
        -24    2    1    2    0    0  0.51913137539E+02  0.57082682966E+02 -0.17817664676E+03  0.21508940954E+03  0.92537182266E+02 0.  0.
         25    2    1    2    0    0 -0.66768962107E+02 -0.23294086052E+02  0.25336083520E+03  0.29127284671E+03  0.12508976645E+03 0.  0.
         24    2    1    2    0    0  0.14855824568E+02 -0.33788596915E+02  0.57825498471E+03  0.58458112338E+03  0.77420266498E+02 0.  0.
        -11    1    5    5    0    0  0.44631681154E+02 -0.21240269747E+02  0.43086383123E+03  0.43368972444E+03  0.00000000000E+00 0.  1.
         12    1    5    5    0    0 -0.29775856586E+02 -0.12548327167E+02  0.14739115348E+03  0.15089139894E+03  0.00000000000E+00 0. -1.
         11    1    3    3    0    0  0.64842544915E+02  0.33809458121E+02 -0.61914111598E+02  0.95817494773E+02  0.00000000000E+00 0. -1.
        -12    1    3    3    0    0 -0.12929407376E+02  0.23273224845E+02 -0.11626253517E+03  0.11927191477E+03  0.00000000000E+00 0.  1.
          5    1    4    4  501    0 -0.63793173196E+02  0.39514783927E+02  0.97133785657E+02  0.12281462377E+03  0.41800000000E+01 0.  1.
         -5    1    4    4    0  501 -0.29757889108E+01 -0.62808869979E+02  0.15622704954E+03  0.16845822294E+03  0.41800000000E+01 0.  1.
</event>
<event>
11    1  0.7157190E-009  0.1783697E+03  0.7561462E-02  0.1070969E+00
         22   -1    0    0    0    0  0.00000000000E+00  0.00000000000E+00  0.14525985606E+03  0.14525985606E+03  0.00000000000E+00 0. -1.
         22   -1    0    0    0    0 -0.00000000000E+00 -0.00000000000E+00 -0.88976871192E+03  0.88976871192E+03  0.00000000000E+00 0.  1.
         24    2    1    2    0    0 -0.10384997359E+03  0.70611833542E+02 -0.62842139621E+03  0.64600631158E+03  0.81485307432E+02 0.  0.
         25    2    1    2    0    0  0.12669053858E+03 -0.50398592529E+02 -0.19878260106E+03  0.27156406555E+03  0.12506801557E+03 0.  0.
        -24    2    1    2    0    0 -0.22840564990E+02 -0.20213241013E+02  0.82695141420E+02  0.11745819085E+03  0.77638094138E+02 0.  0.
        -11    1    3    3    0    0 -0.10657779728E+03  0.34457590388E+02 -0.43319578896E+03  0.44744244767E+03  0.00000000000E+00 0.  1.
         12    1    3    3    0    0  0.27278236910E+01  0.36154243154E+02 -0.19522560726E+03  0.19856386391E+03  0.00000000000E+00 0. -1.
         11    1    5    5    0    0 -0.47976737374E+02 -0.80800157844E+01  0.73360357755E+02  0.88027246203E+02  0.00000000000E+00 0. -1.
        -12    1    5    5    0    0  0.25136172385E+02 -0.12133225229E+02  0.93347836658E+01  0.29430944645E+02  0.00000000000E+00 0.  1.
          5    1    4    4  501    0  0.10639074251E+03 -0.89688263578E+02 -0.13568774246E+03  0.19440064446E+03  0.41800000000E+01 0.  1.
         -5    1    4    4    0  501  0.20299796072E+02  0.39289671049E+02 -0.63094858605E+02  0.77163421088E+02  0.41800000000E+01 0.  1.
</event>
<event>
11    1  0.7157190E-009  0.1921079E+03  0.7561462E-02  0.1060249E+00
         22   -1    0    0    0    0  0.00000000000E+00  0.00000000000E+00  0.14983911808E+04  0.14983911808E+04  0.00000000000E+00 0. -1.
         22   -1    0    0    0    0 -0.00000000000E+00 -0.00000000000E+00 -0.25726791307E+03  0.25726791307E+03  0.00000000000E+00 0. -1.
        -24    2    1    2    0    0  0.14616025091E+03 -0.77451635487E+01 -0.21664688847E+03  0.27350488874E+03  0.80288500876E+02 0.  0.
         25    2    1    2    0    0 -0.12876770152E+03 -0.79065216778E+00  0.85574291861E+03  0.87437174129E+03  0.12509297792E+03 0.  0.
         24    2    1    2    0    0 -0.17392549394E+02  0.85358157165E+01  0.60202723762E+03  0.60778246388E+03  0.81162600028E+02 0.  0.
        -13    1    5    5    0    0 -0.41015121542E+02  0.25111665687E+02  0.25063560045E+03  0.25520783719E+03  0.00000000000E+00 0.  1.
         14    1    5    5    0    0  0.23622572148E+02 -0.16575849970E+02  0.35139163717E+03  0.35257462670E+03  0.00000000000E+00 0. -1.
         13    1    3    3    0    0  0.13409193654E+03  0.21018798375E+02 -0.17770739599E+03  0.22361206568E+03  0.00000000000E+00 0. -1.
        -14    1    3    3    0    0  0.12068314373E+02 -0.28763961924E+02 -0.38939492483E+02  0.49892823053E+02  0.00000000000E+00 0.  1.
          5    1    4    4  501    0 -0.75000413266E+01  0.27058982243E+02  0.39240000721E+02  0.48432315623E+02  0.41800000000E+01 0. -1.
         -5    1    4    4    0  501 -0.12126766019E+03 -0.27849634411E+02  0.81650291789E+03  0.82593942567E+03  0.41800000000E+01 0. -1.
</event>
<event>
11    1  0.7157190E-009  0.1663616E+03  0.7561462E-02  0.1081242E+00
         22   -1    0    0    0    0  0.00000000000E+00  0.00000000000E+00  0.18554801405E+04  0.18554801405E+04  0.00000000000E+00 0.  1.
         22   -1    0    0    0    0 -0.00000000000E+00 -0.00000000000E+00 -0.12403156174E+03  0.12403156174E+03  0.00000000000E+00 0. -1.
        -24    2    1    2    0    0 -0.26168892934E+02 -0.50897693262E+02 -0.51378253613E+02  0.10880533897E+03  0.76964217063E+02 0.  0.
         25    2    1    2    0    0  0.89465091436E+02 -0.40721737730E+02  0.11279190990E+03  0.19502070365E+03  0.12509515339E+03 0.  0.
         24    2    1    2    0    0 -0.63296198502E+02  0.91619430992E+02  0.16700349224E+04  0.16756856596E+04  0.80655184077E+02 0.  0.
        -13    1    5    5    0    0 -0.65903724121E+02  0.83584913210E+02  0.16551648144E+04  0.16585838241E+04  0.00000000000E+00 0.  1.
         14    1    5    5    0    0  0.26075256186E+01  0.80345177820E+01  0.14870108033E+02  0.17101835537E+02  0.00000000000E+00 0. -1.
         11    1    3    3    0    0 -0.68748474783E+01 -0.33811663965E+02 -0.69300134501E+02  0.77414474033E+02  0.00000000000E+00 0. -1.
        -12    1    3    3    0    0 -0.19294045455E+02 -0.17086029297E+02  0.17921880888E+02  0.31390864941E+02  0.00000000000E+00 0.  1.
          5    1    4    4  501    0  0.13117058543E+02  0.34282664760E+02 -0.32707711943E+01  0.37088120363E+02  0.41800000000E+01 0.  1.
         -5    1    4    4    0  501  0.76348032892E+02 -0.75004402490E+02  0.11606268110E+03  0.15793258328E+03  0.41800000000E+01 0.  1.
</event>
<event>
11    1  0.7157190E-009  0.1294384E+03  0.7561462E-02  0.1119961E+00
         22   -1    0    0    0    0  0.00000000000E+00  0.00000000000E+00  0.96586670600E+02  0.96586670600E+02  0.00000000000E+00 0. -1.
         22   -1    0    0    0    0 -0.00000000000E+00 -0.00000000000E+00 -0.85520679067E+03  0.85520679067E+03  0.00000000000E+00 0. -1.
        -24    2    1    2    0    0  0.88432424696E+01  0.37396124292E+02 -0.48956006553E+03  0.49785553759E+03  0.81941476047E+02 0.  0.
         25    2    1    2    0    0  0.14613563625E+02 -0.20939054062E+02 -0.32697506454E+03  0.35101353685E+03  0.12508321226E+03 0.  0.
         24    2    1    2    0    0 -0.23456806095E+02 -0.16457070230E+02  0.57915009999E+02  0.10292438684E+03  0.80113819721E+02 0.  0.
        -11    1    5    5    0    0 -0.21696655744E+02 -0.30471258411E+02 -0.56307308427E+01  0.37827867894E+02  0.00000000000E+00 0.  1.
         12    1    5    5    0    0 -0.17601503506E+01  0.14014188180E+02  0.63545740842E+02  0.65096518945E+02  0.00000000000E+00 0. -1.
         13    1    3    3    0    0  0.41148703135E+02  0.40325243717E+02 -0.33641966250E+03  0.34131734554E+03  0.00000000000E+00 0. -1.
        -14    1    3    3    0    0 -0.32305460665E+02 -0.29291194252E+01 -0.15314040303E+03  0.15653819205E+03  0.00000000000E+00 0.  1.
          5    1    4    4  501    0  0.44793990192E+02  0.93819225581E+01 -0.40268940111E+02  0.61103043835E+02  0.41800000000E+01 0. -1.
         -5    1    4    4    0  501 -0.30180426567E+02 -0.30320976620E+02 -0.28670612443E+03  0.28991049301E+03  0.41800000000E+01 0. -1.
</event>
<event>
11    1  0.7157190E-009  0.1749975E+03  0.7561462E-02  0.1073763E+00
         22   -1    0    0    0    0  0.00000000000E+00  0.00000000000E+00  0.11493098577E+04  0.11493098577E+04  0.00000000000E+00 0.  1.
         22   -1    0    0    0    0 -0.00000000000E+00 -0.00000000000E+00 -0.31968775777E+04  0.31968775777E+04  0.00000000000E+00 0. -1.
        -24    2    1    2    0    0 -0.18674718209E+02  0.49413810698E+01 -0.31378188942E+04  0.31389125171E+04  0.80568073119E+02 0.  0.
         25    2    1    2    0    0 -0.95563045831E+02 -0.52576459978E+02  0.76504086735E+02  0.18275777240E+03  0.12510374980E+03 0.  0.
         24    2    1    2    0    0  0.11423776404E+03  0.47635078908E+02  0.10137470875E+04  0.10245171460E+04  0.81442356648E+02 0.  0.
        -13    1    5    5    0    0  0.12396923656E+03  0.55260720965E+02  0.91990191357E+03  0.92986109150E+03  0.00000000000E+00 0.  1.
         14    1    5    5    0    0 -0.97314725215E+01 -0.76256420570E+01  0.93845173972E+02  0.94656054493E+02  0.00000000000E+00 0. -1.
         11    1    3    3    0    0 -0.31975144033E+02  0.33298365705E+02 -0.23784111433E+04  0.23788591294E+04  0.00000000000E+00 0. -1.
        -12    1    3    3    0    0  0.13300425823E+02 -0.28356984636E+02 -0.75940775092E+03  0.76005338764E+03  0.00000000000E+00 0.  1.
          5    1    4    4  501    0 -0.34907873530E+02  0.36637979051E+02  0.50699020728E+02  0.71754890050E+02  0.41800000000E+01 0.  1.
         -5    1    4    4    0  501 -0.60655172301E+02 -0.89214439029E+02  0.25805066007E+02  0.11100288235E+03  0.41800000000E+01 0.  1.
</event>
<event>
11    1  0.7157190E-009  0.1763956E+03  0.7561462E-02  0.1072596E+00
         22   -1    0    0    0    0  0.00000000000E+00  0.00000000000E+00  0.13307153312E+04  0.13307153312E+04  0.00000000000E+00 0.  1.
         22   -1    0    0    0    0 -0.00000000000E+00 -0.00000000000E+00 -0.46909506535E+03  0.46909506535E+03  0.00000000000E+00 0. -1.
         24    2    1    2    0    0 -0.10491845791E+03 -0.90220817142E+02 -0.43128602013E+03  0.45894038847E+03  0.73966008067E+02 0.  0.
         25    2    1    2    0    0  0.26168794368E+02 -0.64204509134E+02  0.33860224402E+03  0.36756586559E+03  0.12508461576E+03 0.  0.
        -24    2    1    2    0    0  0.78749663546E+02  0.15442532628E+03  0.95430404199E+03  0.97330414252E+03  0.81092899724E+02 0.  0.
        -11    1    3    3    0    0  0.99418685808E+00  0.75175894437E+01 -0.63082689223E+02  0.63536825843E+02  0.00000000000E+00 0.  1.
         12    1    3    3    0    0 -0.10591264477E+03 -0.97738406586E+02 -0.36820333091E+03  0.39540356262E+03  0.00000000000E+00 0. -1.
         13    1    5    5    0    0 -0.13347653660E+02  0.25682208769E+02  0.23581549249E+03  0.23758510518E+03  0.00000000000E+00 0. -1.
        -14    1    5    5    0    0  0.92097317206E+02  0.12874311751E+03  0.71848854950E+03  0.73571903734E+03  0.00000000000E+00 0.  1.
          5    1    4    4  501    0  0.44118164563E+01 -0.98176542776E+02  0.19584911770E+03  0.21916306025E+03  0.41800000000E+01 0. -1.
         -5    1    4    4    0  501  0.21756977912E+02  0.33972033643E+02  0.14275312632E+03  0.14840280533E+03  0.41800000000E+01 0. -1.
</event>
<event>
11    1  0.7157190E-009  0.1414604E+03  0.7561462E-02  0.1105938E+00
         22   -1    0    0    0    0  0.00000000000E+00  0.00000000000E+00  0.86763044653E+03  0.86763044653E+03  0.00000000000E+00 0. -1.
         22   -1    0    0    0    0 -0.00000000000E+00 -0.00000000000E+00 -0.59986601399E+03  0.59986601399E+03  0.00000000000E+00 0.  1.
        -24    2    1    2    0    0  0.63378862850E+02  0.18890740419E+02 -0.55209330637E+03  0.56187188224E+03  0.80741889903E+02 0.  0.
         25    2    1    2    0    0 -0.63874775396E+02 -0.10292937983E+02  0.79906243628E+02  0.16192072158E+03  0.12508949118E+03 0.  0.
         24    2    1    2    0    0  0.49591254554E+00 -0.85978024356E+01  0.73995149529E+03  0.74370385669E+03  0.74115065550E+02 0.  0.
        -11    1    5    5    0    0 -0.32228808280E+02 -0.30523766614E+01  0.18891956583E+03  0.19167319958E+03  0.00000000000E+00 0.  1.
         12    1    5    5    0    0  0.32724720826E+02 -0.55454257742E+01  0.55103192946E+03  0.55203065711E+03  0.00000000000E+00 0. -1.
         13    1    3    3    0    0  0.53543046934E+02  0.61942730576E+01 -0.14884208158E+03  0.15830095433E+03  0.00000000000E+00 0. -1.
        -14    1    3    3    0    0  0.98358159166E+01  0.12696467361E+02 -0.40325122479E+03  0.40357092791E+03  0.00000000000E+00 0.  1.
          5    1    4    4  501    0 -0.77502506362E+02  0.28315862294E+02  0.87199373147E+02  0.12012339334E+03  0.41800000000E+01 0.  1.
         -5    1    4    4    0  501  0.13627730967E+02 -0.38608800277E+02 -0.72931295184E+01  0.41797328244E+02  0.41800000000E+01 0.  1.
</event>
<event>
11    1  0.7157190E-009  0.3134261E+03  0.7561462E-02  0.9946639E-01
         22   -1    0    0    0    0  0.00000000000E+00  0.00000000000E+00  0.14775032655E+03  0.14775032655E+03  0.00000000000E+00 0.  1.
         22   -1    0    0    0    0 -0.00000000000E+00 -0.00000000000E+00 -0.42317942263E+04  0.42317942263E+04  0.00000000000E+00 0.  1.
         24    2    1    2    0    0  0.16309607016E+03 -0.26641629756E+03 -0.24928278298E+04  0.25135497137E+04  0.78508614444E+02 0.  0.
         25    2    1    2    0    0 -0.18374133778E+03  0.18622992094E+03 -0.16898104159E+04  0.17145121403E+04  0.12510065960E+03 0.  0.
        -24    2    1    2    0    0  0.20645267623E+02  0.80186376626E+02  0.98594345900E+02  0.15148269885E+03  0.79812786787E+02 0.  0.
        -13    1    3    3    0    0  0.70509294067E+02 -0.18789597629E+03 -0.15548842535E+04  0.15677823510E+04  0.00000000000E+00 0.  1.
         14    1    3    3    0    0  0.92586776095E+02 -0.78520321274E+02 -0.93794357633E+03  0.94576736270E+03  0.00000000000E+00 0. -1.
         13    1    5    5    0    0  0.37689563250E+02  0.79066615642E+01  0.20152585823E+02  0.43464297882E+02  0.00000000000E+00 0. -1.
        -14    1    5    5    0    0 -0.17044295627E+02  0.72279715062E+02  0.78441760077E+02  0.10801840096E+03  0.00000000000E+00 0.  1.
          5    1    4    4  501    0 -0.12717575657E+03  0.18920226133E+03 -0.14650235533E+04  0.14826606668E+04  0.41800000000E+01 0. -1.
         -5    1    4    4    0  501 -0.56565581219E+02 -0.29723403887E+01 -0.22478686256E+03  0.23185147350E+03  0.41800000000E+01 0. -1.
</event>
<event>
11    1  0.7157190E-009  0.1311664E+03  0.7561462E-02  0.1117844E+00
         22   -1    0    0    0    0  0.00000000000E+00  0.00000000000E+00  0.30306224362E+03  0.30306224362E+03  0.00000000000E+00 0.  1.
         22   -1    0    0    0    0 -0.00000000000E+00 -0.00000000000E+00 -0.13615830795E+04  0.13615830795E+04  0.00000000000E+00 0.  1.
         24    2    1    2    0    0  0.17530661122E+02  0.35807659904E+02 -0.12861726790E+04  0.12893668238E+04  0.81468603580E+02 0.  0.
         25    2    1    2    0    0  0.50165422224E+01 -0.28628699414E+02 -0.62573342833E+01  0.12857632719E+03  0.12509176454E+03 0.  0.
        -24    2    1    2    0    0 -0.22547203345E+02 -0.71789604902E+01  0.23390917743E+03  0.24670217216E+03  0.74756569033E+02 0.  0.
        -13    1    3    3    0    0 -0.52853180957E+00 -0.14610532741E+02 -0.81963170414E+03  0.81976208588E+03  0.00000000000E+00 0.  1.
         14    1    3    3    0    0  0.18059192932E+02  0.50418192645E+02 -0.46654097490E+03  0.46960473791E+03  0.00000000000E+00 0. -1.
         11    1    5    5    0    0 -0.29013321421E+02  0.35867617237E+01  0.28228551645E+02  0.40638513845E+02  0.00000000000E+00 0. -1.
        -12    1    5    5    0    0  0.64661180767E+01 -0.10765722214E+02  0.20568062578E+03  0.20606365832E+03  0.00000000000E+00 0.  1.
          5    1    4    4  501    0  0.54356194814E+02 -0.50481437664E+02 -0.35058809345E+01  0.74382357212E+02  0.41800000000E+01 0. -1.
         -5    1    4    4    0  501 -0.49339652592E+02  0.21852738250E+02 -0.27514533488E+01  0.54193969982E+02  0.41800000000E+01 0. -1.
</event>
<event>
11    1  0.7157190E-009  0.1455129E+03  0.7561462E-02  0.1101554E+00
         22   -1    0    0    0    0  0.00000000000E+00  0.00000000000E+00  0.39403925467E+03  0.39403925467E+03  0.00000000000E+00 0. -1.
         22   -1    0    0    0    0 -0.00000000000E+00 -0.00000000000E+00 -0.16246589476E+04  0.16246589476E+04  0.00000000000E+00 0.  1.
         24    2    1    2    0    0 -0.29036180096E+02  0.76280045107E+02 -0.13174974984E+04  0.13224758903E+04  0.80505138522E+02 0.  0.
         25    2    1    2    0    0  0.31503704783E+02 -0.22264259007E+02 -0.28526851320E+03  0.31387058867E+03  0.12509372952E+03 0.  0.
        -24    2    1    2    0    0 -0.24675246870E+01 -0.54015786100E+02  0.37214631861E+03  0.38235172328E+03  0.69109796803E+02 0.  0.
        -13    1    3    3    0    0 -0.28510448071E+02  0.57949202456E+02 -0.12687573106E+04  0.12703999641E+04  0.00000000000E+00 0.  1.
         14    1    3    3    0    0 -0.52573202537E+00  0.18330842651E+02 -0.48740187788E+02  0.52075926223E+02  0.00000000000E+00 0. -1.
         13    1    5    5    0    0 -0.26771466039E+02 -0.54043552708E+02  0.30587915151E+03  0.31176829908E+03  0.00000000000E+00 0. -1.
        -14    1    5    5    0    0  0.24303941352E+02  0.27766607876E-01  0.66267167101E+02  0.70583424200E+02  0.00000000000E+00 0.  1.
          5    1    4    4  501    0  0.18914852786E+02 -0.73418287106E+02 -0.13962344714E+03  0.15893456493E+03  0.41800000000E+01 0. -1.
         -5    1    4    4    0  501  0.12588851997E+02  0.51154028099E+02 -0.14564506606E+03  0.15493602374E+03  0.41800000000E+01 0. -1.
</event>
<event>
11    1  0.7157190E-009  0.1466837E+03  0.7561462E-02  0.1100316E+00
         22   -1    0    0    0    0  0.00000000000E+00  0.00000000000E+00  0.95874685785E+03  0.95874685785E+03  0.00000000000E+00 0.  1.
         22   -1    0    0    0    0 -0.00000000000E+00 -0.00000000000E+00 -0.11480095194E+03  0.11480095194E+03  0.00000000000E+00 0. -1.
         24    2    1    2    0    0 -0.80604072110E+02 -0.95851912598E+01 -0.60489082451E+02  0.12909457712E+03  0.80109852164E+02 0.  0.
         25    2    1    2    0    0  0.43266543581E+02 -0.71182890757E+01  0.24237751624E+03  0.27625083514E+03  0.12507997323E+03 0.  0.
        -24    2    1    2    0    0  0.37337528529E+02  0.16703480336E+02  0.66205747213E+03  0.66820239753E+03  0.80630331619E+02 0.  0.
        -11    1    3    3    0    0  0.10017122626E+02 -0.23864841978E+01  0.97753867594E+01  0.14198459030E+02  0.00000000000E+00 0.  1.
         12    1    3    3    0    0 -0.90621194736E+02 -0.71987070620E+01 -0.70264469211E+02  0.11489611809E+03  0.00000000000E+00 0. -1.
         13    1    5    5    0    0  0.37234062910E+02  0.37495014268E+02  0.24531709530E+03  0.25094367652E+03  0.00000000000E+00 0. -1.
        -14    1    5    5    0    0  0.10346561857E+00 -0.20791533932E+02  0.41674037682E+03  0.41725872101E+03  0.00000000000E+00 0.  1.
          5    1    4    4  501    0  0.23596289383E+02 -0.58553959646E+02  0.18953421196E+03  0.19981501687E+03  0.41800000000E+01 0. -1.
         -5    1    4    4    0  501  0.19670254198E+02  0.51435670570E+02  0.52843304281E+02  0.76435818269E+02  0.41800000000E+01 0. -1.
</event>
<event>
11    1  0.7157190E-009  0.1951763E+03  0.7561462E-02  0.1057988E+00
         22   -1    0    0    0    0  0.00000000000E+00  0.00000000000E+00  0.61085406940E+03  0.61085406940E+03  0.00000000000E+00 0. -1.
         22   -1    0    0    0    0 -0.00000000000E+00 -0.00000000000E+00 -0.62397754132E+03  0.62397754132E+03  0.00000000000E+00 0. -1.
        -24    2    1    2    0    0  0.40146707478E+02 -0.14513000902E+03 -0.53410695084E+03  0.56093791363E+03  0.81894019128E+02 0.  0.
         25    2    1    2    0    0 -0.11878752665E+03  0.11158142249E+03  0.85154111711E+02  0.22239396617E+03  0.12508782162E+03 0.  0.
         24    2    1    2    0    0  0.78640819169E+02  0.33548586533E+02  0.43582936721E+03  0.45149973091E+03  0.81208888646E+02 0.  0.
        -11    1    5    5    0    0 -0.22640823968E+01  0.13331653058E+02  0.81990090194E+01  0.15814006174E+02  0.00000000000E+00 0.  1.
         12    1    5    5    0    0  0.80904901566E+02  0.20216933474E+02  0.42763035819E+03  0.43568572474E+03  0.00000000000E+00 0. -1.
         13    1    3    3    0    0  0.50500470812E+02 -0.11264111384E+03 -0.30067937155E+03  0.32503292535E+03  0.00000000000E+00 0. -1.
        -14    1    3    3    0    0 -0.10353763335E+02 -0.32488895178E+02 -0.23342757929E+03  0.23590498828E+03  0.00000000000E+00 0.  1.
          5    1    4    4  501    0 -0.10889792016E+03  0.67471680773E+02  0.11151760699E+03  0.16989653849E+03  0.41800000000E+01 0.  1.
         -5    1    4    4    0  501 -0.98896064822E+01  0.44109741716E+02 -0.26363495275E+02  0.52497427686E+02  0.41800000000E+01 0.  1.
</event>
<event>
11    1  0.7157190E-009  0.2725346E+03  0.7561462E-02  0.1012535E+00
         22   -1    0    0    0    0  0.00000000000E+00  0.00000000000E+00  0.98869422869E+03  0.98869422869E+03  0.00000000000E+00 0.  1.
         22   -1    0    0    0    0 -0.00000000000E+00 -0.00000000000E+00 -0.64144285600E+03  0.64144285600E+03  0.00000000000E+00 0.  1.
        -24    2    1    2    0    0  0.11347777376E+02  0.80021686987E+02 -0.49855432297E+03  0.51102495525E+03  0.77832188108E+02 0.  0.
         25    2    1    2    0    0 -0.99660783289E+02  0.15656010586E+03 -0.90464213098E+01  0.22399071066E+03  0.12508661900E+03 0.  0.
         24    2    1    2    0    0  0.88313005914E+02 -0.23658179284E+03  0.85485211697E+03  0.89512141878E+03  0.81854020980E+02 0.  0.
        -11    1    5    5    0    0  0.71449821366E+02 -0.21597293822E+03  0.65235444032E+03  0.69088038243E+03  0.00000000000E+00 0.  1.
         12    1    5    5    0    0  0.16863184547E+02 -0.20608854626E+02  0.20249767665E+03  0.20424103635E+03  0.00000000000E+00 0. -1.
         11    1    3    3    0    0 -0.12594819649E+02  0.66343867205E+02 -0.19780564238E+03  0.20901485678E+03  0.00000000000E+00 0. -1.
        -12    1    3    3    0    0  0.23942597024E+02  0.13677819782E+02 -0.30074868058E+03  0.30201009847E+03  0.00000000000E+00 0.  1.
          5    1    4    4  501    0  0.14366186165E+02  0.75609571918E+02  0.23060649268E+02  0.80451604181E+02  0.41800000000E+01 0. -1.
         -5    1    4    4    0  501 -0.11402696945E+03  0.80950533939E+02 -0.32107070578E+02  0.14353910648E+03  0.41800000000E+01 0. -1.
</event>
<event>
11    1  0.7157190E-009  0.1776785E+03  0.7561462E-02  0.1071536E+00
         22   -1    0    0    0    0  0.00000000000E+00  0.00000000000E+00  0.60797498838E+03  0.60797498838E+03  0.00000000000E+00 0.  1.
         22   -1    0    0    0    0 -0.00000000000E+00 -0.00000000000E+00 -0.52199327231E+03  0.52199327231E+03  0.00000000000E+00 0.  1.
        -24    2    1    2    0    0 -0.12535048443E+03  0.80141318737E-01 -0.42727993394E+03  0.45241956808E+03  0.80016081276E+02 0.  0.
         25    2    1    2    0    0  0.13317827694E+03 -0.14493805148E+01  0.27192464352E+02  0.18473231974E+03  0.12509214877E+03 0.  0.
         24    2    1    2    0    0 -0.78277925164E+01  0.13692391960E+01  0.48606918566E+03  0.49281637287E+03  0.80880003521E+02 0.  0.
        -11    1    5    5    0    0  0.87608946928E+01  0.52446706488E+01  0.46752019116E+03  0.46763168091E+03  0.00000000000E+00 0.  1.
         12    1    5    5    0    0 -0.16588687209E+02 -0.38754314528E+01  0.18548994496E+02  0.25184691959E+02  0.00000000000E+00 0. -1.
         13    1    3    3    0    0 -0.88778927100E+02  0.15018679434E+02 -0.17240538784E+03  0.19450161024E+03  0.00000000000E+00 0. -1.
        -14    1    3    3    0    0 -0.36571557327E+02 -0.14938538115E+02 -0.25487454610E+03  0.25791795784E+03  0.00000000000E+00 0.  1.
          5    1    4    4  501    0  0.11131942406E+03  0.53361101883E+02  0.16468418670E+02  0.12461180755E+03  0.41800000000E+01 0. -1.
         -5    1    4    4    0  501  0.21858852886E+02 -0.54810482397E+02  0.10724045682E+02  0.60120512189E+02  0.41800000000E+01 0. -1.
</event>
<event>
11    1  0.7157190E-009  0.1799315E+03  0.7561462E-02  0.1069698E+00
         22   -1    0    0    0    0  0.00000000000E+00  0.00000000000E+00  0.51580224386E+03  0.51580224386E+03  0.00000000000E+00 0.  1.
         22   -1    0    0    0    0 -0.00000000000E+00 -0.00000000000E+00 -0.22760782776E+03  0.22760782776E+03  0.00000000000E+00 0. -1.
        -24    2    1    2    0    0  0.95078369457E+01 -0.32081265859E+02 -0.14704025558E+03  0.16987200721E+03  0.78205213955E+02 0.  0.
         25    2    1    2    0    0 -0.76517498593E+02  0.13312185464E+03  0.13793665177E+03  0.24135167656E+03  0.12509099129E+03 0.  0.
         24    2    1    2    0    0  0.67009661647E+02 -0.10104058878E+03  0.29729801991E+03  0.33218638785E+03  0.85218473901E+02 0.  0.
        -11    1    5    5    0    0  0.83138236669E+02 -0.57538717265E+02  0.21817198932E+03  0.24046140502E+03  0.00000000000E+00 0.  1.
         12    1    5    5    0    0 -0.16128575022E+02 -0.43501871517E+02  0.79126030591E+02  0.91724982828E+02  0.00000000000E+00 0. -1.
         11    1    3    3    0    0 -0.57303684342E+00  0.26034239239E+02 -0.47425301410E+02  0.54104243806E+02  0.00000000000E+00 0. -1.
        -12    1    3    3    0    0  0.10080873789E+02 -0.58115505098E+02 -0.99614954173E+02  0.11576776341E+03  0.00000000000E+00 0.  1.
          5    1    4    4  501    0  0.26323051381E+01  0.11468220842E+03  0.96866398250E+02  0.15019823391E+03  0.41800000000E+01 0.  1.
         -5    1    4    4    0  501 -0.79149803731E+02  0.18439646222E+02  0.41070253518E+02  0.91153442652E+02  0.41800000000E+01 0.  1.
</event>
<event>
11    1  0.7157190E-009  0.1487150E+03  0.7561462E-02  0.1098199E+00
         22   -1    0    0    0    0  0.00000000000E+00  0.00000000000E+00  0.47635446110E+03  0.47635446110E+03  0.00000000000E+00 0.  1.
         22   -1    0    0    0    0 -0.00000000000E+00 -0.00000000000E+00 -0.63665911123E+03  0.63665911123E+03  0.00000000000E+00 0. -1.
         24    2    1    2    0    0 -0.81098957610E+02 -0.98280815033E+01 -0.58710079914E+03  0.59829454583E+03  0.81211964015E+02 0.  0.
         25    2    1    2    0    0  0.43550024555E+02  0.50068837791E+02  0.98834959721E+02  0.17268308546E+03  0.12509038966E+03 0.  0.
        -24    2    1    2    0    0  0.37548933055E+02 -0.40240756287E+02  0.32796118929E+03  0.34203594104E+03  0.80005015117E+02 0.  0.
        -13    1    3    3    0    0 -0.37151993399E+02  0.14357769558E+02 -0.86996266847E+02  0.95680544551E+02  0.00000000000E+00 0.  1.
         14    1    3    3    0    0 -0.43946964211E+02 -0.24185851061E+02 -0.50010453230E+03  0.50261400128E+03  0.00000000000E+00 0. -1.
         13    1    5    5    0    0  0.22653654502E+02  0.40880134111E+01  0.19850089264E+02  0.30396150410E+02  0.00000000000E+00 0. -1.
        -14    1    5    5    0    0  0.14895278553E+02 -0.44328769698E+02  0.30811110003E+03  0.31163979063E+03  0.00000000000E+00 0.  1.
          5    1    4    4  501    0  0.45249989163E+02 -0.55397716254E+01  0.10692062008E+03  0.11630882162E+03  0.41800000000E+01 0. -1.
         -5    1    4    4    0  501 -0.16999646085E+01  0.55608609416E+02 -0.80856603549E+01  0.56374263847E+02  0.41800000000E+01 0. -1.
</event>
<event>
11    1  0.7157190E-009  0.1650925E+03  0.7561462E-02  0.1082383E+00
         22   -1    0    0    0    0  0.00000000000E+00  0.00000000000E+00  0.16610958038E+04  0.16610958038E+04  0.00000000000E+00 0.  1.
         22   -1    0    0    0    0 -0.00000000000E+00 -0.00000000000E+00 -0.43286643785E+03  0.43286643785E+03  0.00000000000E+00 0.  1.
         24    2    1    2    0    0 -0.29822068927E+02 -0.22837056336E+02 -0.41378194384E+03  0.42306705376E+03  0.79745520239E+02 0.  0.
         25    2    1    2    0    0  0.98443592751E+02  0.88366895512E+02  0.86579858365E+03  0.88473217873E+03  0.12507594272E+03 0.  0.
        -24    2    1    2    0    0 -0.68621523824E+02 -0.65529839176E+02  0.77621272615E+03  0.78616300918E+03  0.80888858408E+02 0.  0.
        -11    1    3    3    0    0  0.25465076869E+02 -0.17918610474E+02 -0.18809103841E+03  0.19065095192E+03  0.00000000000E+00 0.  1.
         12    1    3    3    0    0 -0.55287145796E+02 -0.49184458625E+01 -0.22569090543E+03  0.23241610184E+03  0.00000000000E+00 0. -1.
         13    1    5    5    0    0 -0.17338190538E+02 -0.52342062149E+02  0.58990953454E+03  0.59248085476E+03  0.00000000000E+00 0. -1.
        -14    1    5    5    0    0 -0.51283333286E+02 -0.13187777027E+02  0.18630319162E+03  0.19368215442E+03  0.00000000000E+00 0.  1.
          5    1    4    4  501    0  0.90591615543E+02  0.10438389359E+03  0.50853724723E+03  0.52700136837E+03  0.41800000000E+01 0. -1.
         -5    1    4    4    0  501  0.78519772072E+01 -0.16016998082E+02  0.35726133642E+03  0.35773081035E+03  0.41800000000E+01 0. -1.
</event>
<event>
11    1  0.7157190E-009  0.1578054E+03  0.7561462E-02  0.1089160E+00
         22   -1    0    0    0    0  0.00000000000E+00  0.00000000000E+00  0.48982650489E+03  0.48982650489E+03  0.00000000000E+00 0.  1.
         22   -1    0    0    0    0 -0.00000000000E+00 -0.00000000000E+00 -0.25527247399E+03  0.25527247399E+03  0.00000000000E+00 0. -1.
        -24    2    1    2    0    0  0.68466502698E+02  0.65452077685E+02 -0.19943808762E+03  0.23485899366E+03  0.80072215187E+02 0.  0.
         25    2    1    2    0    0 -0.77405295883E+02 -0.86437338219E+02  0.20201450275E+03  0.26442557463E+03  0.12509209378E+03 0.  0.
         24    2    1    2    0    0  0.89387931848E+01  0.20985260533E+02  0.23197761577E+03  0.24581441059E+03  0.78043750873E+02 0.  0.
        -11    1    5    5    0    0  0.17799332666E+02 -0.10344659648E+02  0.19683030368E+03  0.19790400873E+03  0.00000000000E+00 0.  1.
         12    1    5    5    0    0 -0.88605394807E+01  0.31329920182E+02  0.35147312093E+02  0.47910401854E+02  0.00000000000E+00 0. -1.
         13    1    3    3    0    0  0.30331494872E+02  0.32233248371E+02 -0.17142081220E+03  0.17704258453E+03  0.00000000000E+00 0. -1.
        -14    1    3    3    0    0  0.38135007826E+02  0.33218829314E+02 -0.28017275421E+02  0.57816409132E+02  0.00000000000E+00 0.  1.
          5    1    4    4  501    0  0.19951600279E+01  0.23012461193E+02  0.28294957894E+01  0.23643867707E+02  0.41800000000E+01 0. -1.
         -5    1    4    4    0  501 -0.79400455911E+02 -0.10944979941E+03  0.19918500696E+03  0.24078170692E+03  0.41800000000E+01 0. -1.
</event>
<event>
11    1  0.7157190E-009  0.1835540E+03  0.7561462E-02  0.1066804E+00
         22   -1    0    0    0    0  0.00000000000E+00  0.00000000000E+00  0.37959437553E+02  0.37959437553E+02  0.00000000000E+00 0. -1.
         22   -1    0    0    0    0 -0.00000000000E+00 -0.00000000000E+00 -0.22658322011E+04  0.22658322011E+04  0.00000000000E+00 0.  1.
        -24    2    1    2    0    0  0.20814475784E+02 -0.50459553931E+02 -0.13978102443E+04  0.14012465219E+04  0.81479612877E+02 0.  0.
         25    2    1    2    0    0 -0.13639240658E+03  0.88593271858E+02 -0.55816366149E+03  0.59468196116E+03  0.12509318738E+03 0.  0.
         24    2    1    2    0    0  0.11557793080E+03 -0.38133717926E+02 -0.27189885783E+03  0.30786315559E+03  0.77706467851E+02 0.  0.
        -11    1    5    5    0    0  0.49650041175E+02 -0.14925801567E+01 -0.19059142218E+03  0.19695797672E+03  0.00000000000E+00 0.  1.
         12    1    5    5    0    0  0.65927889624E+02 -0.36641137770E+02 -0.81307435653E+02  0.11090517887E+03  0.00000000000E+00 0. -1.
         13    1    3    3    0    0  0.32058015899E+02  0.77413473685E+01 -0.29362129692E+03  0.29546761387E+03  0.00000000000E+00 0. -1.
        -14    1    3    3    0    0 -0.11243540115E+02 -0.58200901300E+02 -0.11041889473E+04  0.11057789081E+04  0.00000000000E+00 0.  1.
          5    1    4    4  501    0 -0.21145177566E+02  0.42903930228E+02 -0.34282625163E+03  0.34617217821E+03  0.41800000000E+01 0. -1.
         -5    1    4    4    0  501 -0.11524722902E+03  0.45689341630E+02 -0.21533740986E+03  0.24850978295E+03  0.41800000000E+01 0. -1.
</event>
<event>
11    1  0.7157190E-009  0.1302467E+03  0.7561462E-02  0.1118966E+00
         22   -1    0    0    0    0  0.00000000000E+00  0.00000000000E+00  0.59197461205E+03  0.59197461205E+03  0.00000000000E+00 0. -1.
         22   -1    0    0    0    0 -0.00000000000E+00 -0.00000000000E+00 -0.33666114787E+03  0.33666114787E+03  0.00000000000E+00 0.  1.
         24    2    1    2    0    0  0.75279720480E+01 -0.24768268375E+02 -0.26526199313E+03  0.27941257928E+03  0.83888777437E+02 0.  0.
         25    2    1    2    0    0  0.10035481128E+02  0.55269786016E+02  0.17336180495E+02  0.13821605333E+03  0.12509066359E+03 0.  0.
        -24    2    1    2    0    0 -0.17563453176E+02 -0.30501517640E+02  0.50323927682E+03  0.51100712730E+03  0.81484335642E+02 0.  0.
        -11    1    3    3    0    0  0.43175936006E+02 -0.87373192035E+01 -0.94920418414E+02  0.10464410174E+03  0.00000000000E+00 0.  1.
         12    1    3    3    0    0 -0.35647963958E+02 -0.16030949172E+02 -0.17034157472E+03  0.17476847754E+03  0.00000000000E+00 0. -1.
         11    1    5    5    0    0  0.22804329508E+00 -0.50110188729E+02  0.43391079117E+03  0.43679475468E+03  0.00000000000E+00 0. -1.
        -12    1    5    5    0    0 -0.17791496471E+02  0.19608671089E+02  0.69328485645E+02  0.74212372623E+02  0.00000000000E+00 0.  1.
          5    1    4    4  501    0  0.60191957270E+02  0.44770259177E+02  0.36266772943E+02  0.83427807393E+02  0.41800000000E+01 0. -1.
         -5    1    4    4    0  501 -0.50156476141E+02  0.10499526839E+02 -0.18930592448E+02  0.54788245940E+02  0.41800000000E+01 0. -1.
</event>
<event>
11    1  0.7157190E-009  0.2492105E+03  0.7561462E-02  0.1024321E+00
         22   -1    0    0    0    0  0.00000000000E+00  0.00000000000E+00  0.49610023645E+03  0.49610023645E+03  0.00000000000E+00 0.  1.
         22   -1    0    0    0    0 -0.00000000000E+00 -0.00000000000E+00 -0.13644663078E+04  0.13644663078E+04  0.00000000000E+00 0. -1.
         24    2    1    2    0    0 -0.44106893904E+02  0.27024386886E+01 -0.12421079872E+04  0.12455337842E+04  0.81052048370E+02 0.  0.
         25    2    1    2    0    0  0.16475302699E+03  0.16398400469E+03  0.16409091796E+03  0.31081898142E+03  0.12509314992E+03 0.  0.
        -24    2    1    2    0    0 -0.12064613308E+03 -0.16668644338E+03  0.20965099793E+03  0.30421377854E+03  0.79073524565E+02 0.  0.
        -11    1    3    3    0    0 -0.29225715656E+01  0.10590491847E+02 -0.20948844873E+02  0.23654894708E+02  0.00000000000E+00 0.  1.
         12    1    3    3    0    0 -0.41184322338E+02 -0.78880531580E+01 -0.12211591423E+04  0.12218788895E+04  0.00000000000E+00 0. -1.
         13    1    5    5    0    0 -0.72445387447E+02 -0.41998332181E+02  0.56971028391E+02  0.10128125268E+03  0.00000000000E+00 0. -1.
        -14    1    5    5    0    0 -0.48200745634E+02 -0.12468811120E+03  0.15267996954E+03  0.20293252587E+03  0.00000000000E+00 0.  1.
          5    1    4    4  501    0  0.64469026582E+01  0.84103414565E+02  0.34859692652E+02  0.91365296843E+02  0.41800000000E+01 0.  1.
         -5    1    4    4    0  501  0.15830612433E+03  0.79880590128E+02  0.12923122531E+03  0.21945368458E+03  0.41800000000E+01 0.  1.
</event>
<event>
11    1  0.7157190E-009  0.1483981E+03  0.7561462E-02  0.1098527E+00
         22   -1    0    0    0    0  0.00000000000E+00  0.00000000000E+00  0.88171306201E+02  0.88171306201E+02  0.00000000000E+00 0. -1.
         22   -1    0    0    0    0 -0.00000000000E+00 -0.00000000000E+00 -0.77159598758E+03  0.77159598758E+03  0.00000000000E+00 0. -1.
         24    2    1    2    0    0  0.66203707100E+02 -0.46849546032E+02 -0.56185442945E+03  0.57333801924E+03  0.80363384782E+02 0.  0.
         25    2    1    2    0    0 -0.57919488354E+02  0.44634893072E+02 -0.14083059133E+03  0.20206078427E+03  0.12509342219E+03 0.  0.
        -24    2    1    2    0    0 -0.82842187458E+01  0.22146529596E+01  0.19260339407E+02  0.84368490270E+02  0.81691789725E+02 0.  0.
        -11    1    3    3    0    0 -0.17449476634E+02 -0.16907708629E+02 -0.15518733615E+03  0.15707789197E+03  0.00000000000E+00 0.  1.
         12    1    3    3    0    0  0.83653183734E+02 -0.29941837403E+02 -0.40666709330E+03  0.41626012726E+03  0.00000000000E+00 0. -1.
         11    1    5    5    0    0 -0.81151551173E+01  0.38886152178E+02 -0.55250358710E+01  0.40106291216E+02  0.00000000000E+00 0. -1.
        -12    1    5    5    0    0 -0.16906362851E+00 -0.36671499218E+02  0.24785375278E+02  0.44262199054E+02  0.00000000000E+00 0.  1.
          5    1    4    4  501    0 -0.41649906203E+02  0.69634696732E+02 -0.14998816343E+03  0.17058026628E+03  0.41800000000E+01 0. -1.
         -5    1    4    4    0  501 -0.16269582151E+02 -0.24999803660E+02  0.91575720926E+01  0.31480517992E+02  0.41800000000E+01 0. -1.
</event>
<event>
11    1  0.7157190E-009  0.3203701E+03  0.7561462E-02  0.9919206E-01
         22   -1    0    0    0    0  0.00000000000E+00  0.00000000000E+00  0.80599907614E+03  0.80599907614E+03  0.00000000000E+00 0. -1.
         22   -1    0    0    0    0 -0.00000000000E+00 -0.00000000000E+00 -0.17264169069E+03  0.17264169069E+03  0.00000000000E+00 0.  1.
         24    2    1    2    0    0 -0.26952353472E+03  0.15014261513E+03  0.24813340619E+03  0.40402394461E+03  0.80494843946E+02 0.  0.
         25    2    1    2    0    0  0.25892274553E+03 -0.11594063299E+03  0.19747422662E+03  0.36759579687E+03  0.12508949263E+03 0.  0.
        -24    2    1    2    0    0  0.10600789191E+02 -0.34201982150E+02  0.18774975263E+03  0.20702102534E+03  0.79533533856E+02 0.  0.
        -13    1    3    3    0    0 -0.18886090727E+03  0.80357231446E+02  0.12171663127E+03  0.23862243245E+03  0.00000000000E+00 0.  1.
         14    1    3    3    0    0 -0.80662627454E+02  0.69785383689E+02  0.12641677492E+03  0.16540151216E+03  0.00000000000E+00 0. -1.
         11    1    5    5    0    0 -0.23393779950E+02  0.11359788428E+02  0.32082165671E+02  0.41298657214E+02  0.00000000000E+00 0. -1.
        -12    1    5    5    0    0  0.33994569142E+02 -0.45561770578E+02  0.15566758696E+03  0.16572236813E+03  0.00000000000E+00 0.  1.
          5    1    4    4  501    0  0.10402138258E+03 -0.60940319352E+02  0.14346075197E+02  0.12148025695E+03  0.41800000000E+01 0.  1.
         -5    1    4    4    0  501  0.15490136295E+03 -0.55000313633E+02  0.18312815143E+03  0.24611553992E+03  0.41800000000E+01 0.  1.
</event>
<event>
11    1  0.7157190E-009  0.2092190E+03  0.7561462E-02  0.1048189E+00
         22   -1    0    0    0    0  0.00000000000E+00  0.00000000000E+00  0.17417203355E+04  0.17417203355E+04  0.00000000000E+00 0.  1.
         22   -1    0    0    0    0 -0.00000000000E+00 -0.00000000000E+00 -0.76044457555E+03  0.76044457555E+03  0.00000000000E+00 0.  1.
        -24    2    1    2    0    0 -0.61781456981E+02 -0.10322144274E+03 -0.71483886810E+03  0.73067715112E+03  0.91776234124E+02 0.  0.
         25    2    1    2    0    0  0.15826677235E+03  0.21341224754E+03  0.66594755848E+03  0.72782450976E+03  0.12509679345E+03 0.  0.
         24    2    1    2    0    0 -0.96485315365E+02 -0.11019080480E+03  0.10301670696E+04  0.10436632502E+04  0.80853936129E+02 0.  0.
        -13    1    5    5    0    0 -0.10845809862E+03 -0.94518472908E+02  0.96209513988E+03  0.97279183747E+03  0.00000000000E+00 0.  1.
         14    1    5    5    0    0  0.11972783260E+02 -0.15672331891E+02  0.68071929729E+02  0.70871412734E+02  0.00000000000E+00 0. -1.
         11    1    3    3    0    0 -0.56724240644E+02 -0.79789570900E+02 -0.30914222191E+03  0.32427292281E+03  0.00000000000E+00 0. -1.
        -12    1    3    3    0    0 -0.50572163376E+01 -0.23431871840E+02 -0.40569664619E+03  0.40640422831E+03  0.00000000000E+00 0.  1.
          5    1    4    4  501    0  0.17540178606E+03  0.20751403702E+03  0.58905679007E+03  0.64871660719E+03  0.41800000000E+01 0.  1.
         -5    1    4    4    0  501 -0.17135013715E+02  0.58982105184E+01  0.76890768416E+02  0.79107902576E+02  0.41800000000E+01 0.  1.
</event>
<event>
11    1  0.7157190E-009  0.2445094E+03  0.7561462E-02  0.1026865E+00
         22   -1    0    0    0    0  0.00000000000E+00  0.00000000000E+00  0.19818972628E+03  0.19818972628E+03  0.00000000000E+00 0.  1.
         22   -1    0    0    0    0 -0.00000000000E+00 -0.00000000000E+00 -0.12419526969E+04  0.12419526969E+04  0.00000000000E+00 0. -1.
        -24    2    1    2    0    0 -0.12755869179E+03 -0.14522781200E+03 -0.75664606630E+03  0.78508054569E+03  0.80472705613E+02 0.  0.
         25    2    1    2    0    0  0.30191243577E+03  0.13446242921E+03 -0.29860578932E+03  0.46264897234E+03  0.12508952973E+03 0.  0.
         24    2    1    2    0    0 -0.17435374398E+03  0.10765382794E+02  0.11488884983E+02  0.19241290517E+03  0.79847417558E+02 0.  0.
        -11    1    5    5    0    0 -0.18022460197E+02 -0.18844776487E+02  0.20318772574E+02  0.33057331884E+02  0.00000000000E+00 0.  1.
         12    1    5    5    0    0 -0.15633128379E+03  0.29610159281E+02 -0.88298875907E+01  0.15935557329E+03  0.00000000000E+00 0. -1.
         11    1    3    3    0    0 -0.32804045768E+02 -0.96270563804E+02 -0.40801473542E+03  0.42049988252E+03  0.00000000000E+00 0. -1.
        -12    1    3    3    0    0 -0.94754646018E+02 -0.48957248201E+02 -0.34863133087E+03  0.36458066317E+03  0.00000000000E+00 0.  1.
          5    1    4    4  501    0  0.20584557111E+03  0.90822905456E+02 -0.27337441873E+03  0.35407943250E+03  0.41800000000E+01 0. -1.
         -5    1    4    4    0  501  0.96066864663E+02  0.43639523755E+02 -0.25231370589E+02  0.10856953984E+03  0.41800000000E+01 0. -1.
</event>
<event>
11    1  0.7157190E-009  0.1453274E+03  0.7561462E-02  0.1101751E+00
         22   -1    0    0    0    0  0.00000000000E+00  0.00000000000E+00  0.36929562774E+03  0.36929562774E+03  0.00000000000E+00 0.  1.
         22   -1    0    0    0    0 -0.00000000000E+00 -0.00000000000E+00 -0.14060922295E+04  0.14060922295E+04  0.00000000000E+00 0. -1.
        -24    2    1    2    0    0 -0.58606327511E+02 -0.52258131819E+02 -0.11606377151E+04  0.11651216412E+04  0.65291033748E+02 0.  0.
         25    2    1    2    0    0  0.37990154084E+02  0.12895095026E+02 -0.21891775148E+03  0.25530690491E+03  0.12508836276E+03 0.  0.
         24    2    1    2    0    0  0.20616173427E+02  0.39363036793E+02  0.34275886481E+03  0.35495931116E+03  0.80857887042E+02 0.  0.
        -11    1    5    5    0    0 -0.15323038224E+02 -0.54184264781E+01  0.20593593687E+03  0.20657629327E+03  0.00000000000E+00 0.  1.
         12    1    5    5    0    0  0.35939211651E+02  0.44781463271E+02  0.13682292794E+03  0.14838301788E+03  0.00000000000E+00 0. -1.
         11    1    3    3    0    0 -0.37446452966E+02 -0.66574984658E+02 -0.89933546578E+03  0.90257340169E+03  0.00000000000E+00 0. -1.
        -12    1    3    3    0    0 -0.21159874545E+02  0.14316852840E+02 -0.26130224932E+03  0.26254823951E+03  0.00000000000E+00 0.  1.
          5    1    4    4  501    0 -0.54698974228E+01 -0.29106597017E+02 -0.18182769667E+03  0.18427126049E+03  0.41800000000E+01 0. -1.
         -5    1    4    4    0  501  0.43460051507E+02  0.42001692043E+02 -0.37090054809E+02  0.71035644413E+02  0.41800000000E+01 0. -1.
</event>
<event>
11    1  0.7157190E-009  0.1404973E+03  0.7561462E-02  0.1107004E+00
         22   -1    0    0    0    0  0.00000000000E+00  0.00000000000E+00  0.23704826394E+04  0.23704826394E+04  0.00000000000E+00 0. -1.
         22   -1    0    0    0    0 -0.00000000000E+00 -0.00000000000E+00 -0.10546288394E+04  0.10546288394E+04  0.00000000000E+00 0. -1.
         24    2    1    2    0    0 -0.77473687033E+01 -0.27001141937E+02 -0.99856991820E+03  0.10027332643E+04  0.86850644343E+02 0.  0.
         25    2    1    2    0    0 -0.47353011433E+02  0.59217509232E+02  0.48263466936E+02  0.15403133690E+03  0.12508904594E+03 0.  0.
        -24    2    1    2    0    0  0.55100380136E+02 -0.32216367294E+02  0.22661602513E+04  0.22683468776E+04  0.76428571655E+02 0.  0.
        -11    1    3    3    0    0 -0.28178979812E+02  0.16945054786E+02 -0.19920035512E+03  0.20189594168E+03  0.00000000000E+00 0.  1.
         12    1    3    3    0    0  0.20431611109E+02 -0.43946196723E+02 -0.79936956308E+03  0.80083732263E+03  0.00000000000E+00 0. -1.
         11    1    5    5    0    0 -0.16854854888E+02 -0.77351032460E+00  0.20569179474E+03  0.20638265158E+03  0.00000000000E+00 0. -1.
        -12    1    5    5    0    0  0.71955235024E+02 -0.31442856970E+02  0.20604684565E+04  0.20619642261E+04  0.00000000000E+00 0.  1.
          5    1    4    4  501    0 -0.81217426753E+02  0.71538938130E+02  0.25735722417E+02  0.11132784865E+03  0.41800000000E+01 0. -1.
         -5    1    4    4    0  501  0.33864415320E+02 -0.12321428898E+02  0.22527744519E+02  0.42703488244E+02  0.41800000000E+01 0. -1.
</event>
<event>
11    1  0.7157190E-009  0.1438400E+03  0.7561462E-02  0.1103345E+00
         22   -1    0    0    0    0  0.00000000000E+00  0.00000000000E+00  0.23382918055E+03  0.23382918055E+03  0.00000000000E+00 0.  1.
         22   -1    0    0    0    0 -0.00000000000E+00 -0.00000000000E+00 -0.46324404467E+03  0.46324404467E+03  0.00000000000E+00 0. -1.
        -24    2    1    2    0    0  0.37316593329E+02 -0.56936726727E+02 -0.32436816331E+03  0.34119979439E+03  0.81044897017E+02 0.  0.
         25    2    1    2    0    0  0.30628165536E+02  0.16621780143E+02 -0.75918497950E+02  0.15041729270E+03  0.12508947003E+03 0.  0.
         24    2    1    2    0    0 -0.67944758865E+02  0.40314946584E+02  0.17087179714E+03  0.20545613813E+03  0.82299869155E+02 0.  0.
        -13    1    5    5    0    0 -0.60417493627E+02  0.31928299859E+02  0.17897437065E+03  0.19157639525E+03  0.00000000000E+00 0.  1.
         14    1    5    5    0    0 -0.75272652372E+01  0.83866467246E+01 -0.81025735024E+01  0.13879742887E+02  0.00000000000E+00 0. -1.
         11    1    3    3    0    0  0.16525134602E+02 -0.72558923606E+02 -0.18464579645E+03  0.19907774264E+03  0.00000000000E+00 0. -1.
        -12    1    3    3    0    0  0.20791458727E+02  0.15622196880E+02 -0.13972236687E+03  0.14212205175E+03  0.00000000000E+00 0.  1.
          5    1    4    4  501    0 -0.29809264870E+02 -0.36322607324E+02 -0.15005367384E+02  0.49503106218E+02  0.41800000000E+01 0.  1.
         -5    1    4    4    0  501  0.60437430406E+02  0.52944387467E+02 -0.60913130566E+02  0.10091418648E+03  0.41800000000E+01 0.  1.
</event>
<event>
11    1  0.7157190E-009  0.1297220E+03  0.7561462E-02  0.1119611E+00
         22   -1    0    0    0    0  0.00000000000E+00  0.00000000000E+00  0.42567221825E+03  0.42567221825E+03  0.00000000000E+00 0.  1.
         22   -1    0    0    0    0 -0.00000000000E+00 -0.00000000000E+00 -0.53135021261E+03  0.53135021261E+03  0.00000000000E+00 0.  1.
         24    2    1    2    0    0 -0.64905871152E+01  0.18832194456E+02 -0.45919797859E+03  0.46561716791E+03  0.74429726828E+02 0.  0.
         25    2    1    2    0    0  0.31573798346E+02  0.58807945676E+01  0.62996042449E+01  0.12930492181E+03  0.12509432163E+03 0.  0.
        -24    2    1    2    0    0 -0.25083211231E+02 -0.24712989024E+02  0.34722037999E+03  0.36210034115E+03  0.96513032631E+02 0.  0.
        -11    1    3    3    0    0  0.57716104454E+01  0.43027174948E+02 -0.18247947736E+03  0.18757240983E+03  0.00000000000E+00 0.  1.
         12    1    3    3    0    0 -0.12262197561E+02 -0.24194980491E+02 -0.27671850123E+03  0.27804475808E+03  0.00000000000E+00 0. -1.
         13    1    5    5    0    0 -0.29677258131E+02  0.27016461410E+02  0.75926800608E+02  0.85880777173E+02  0.00000000000E+00 0. -1.
        -14    1    5    5    0    0  0.45940469009E+01 -0.51729450433E+02  0.27129357938E+03  0.27621956397E+03  0.00000000000E+00 0.  1.
          5    1    4    4  501    0  0.75989888509E+02 -0.14957118308E+02  0.15810717431E+02  0.79155730869E+02  0.41800000000E+01 0.  1.
         -5    1    4    4    0  501 -0.44416090163E+02  0.20837912876E+02 -0.95111131865E+01  0.50149190945E+02  0.41800000000E+01 0.  1.
</event>
<event>
11    1  0.7157190E-009  0.1509834E+03  0.7561462E-02  0.1095878E+00
         22   -1    0    0    0    0  0.00000000000E+00  0.00000000000E+00  0.17808276580E+03  0.17808276580E+03  0.00000000000E+00 0.  1.
         22   -1    0    0    0    0 -0.00000000000E+00 -0.00000000000E+00 -0.14809093836E+04  0.14809093836E+04  0.00000000000E+00 0. -1.
        -24    2    1    2    0    0  0.20621405687E+02 -0.87014520589E+02 -0.12487250978E+04  0.12545822151E+04  0.81641872875E+02 0.  0.
         25    2    1    2    0    0 -0.42867052511E+02  0.38079664412E+02 -0.19187729784E+03  0.23611989570E+03  0.12509221673E+03 0.  0.
         24    2    1    2    0    0  0.22245646824E+02  0.48934856177E+02  0.13777577785E+03  0.16829003858E+03  0.80311164663E+02 0.  0.
        -13    1    5    5    0    0  0.32503833358E+02  0.67781299043E+02  0.10823878287E+03  0.13178178099E+03  0.00000000000E+00 0.  1.
         14    1    5    5    0    0 -0.10258186534E+02 -0.18846442865E+02  0.29536994982E+02  0.36508257589E+02  0.00000000000E+00 0. -1.
         13    1    3    3    0    0  0.30437504228E+02 -0.50957288344E+02 -0.10860205964E+04  0.10876414035E+04  0.00000000000E+00 0. -1.
        -14    1    3    3    0    0 -0.98160985404E+01 -0.36057232245E+02 -0.16270450144E+03  0.16694081160E+03  0.00000000000E+00 0.  1.
          5    1    4    4  501    0 -0.65957944174E+02  0.70025757043E+02 -0.15171228727E+03  0.17968903015E+03  0.41800000000E+01 0. -1.
         -5    1    4    4    0  501  0.23090891663E+02 -0.31946092631E+02 -0.40165010571E+02  0.56430865546E+02  0.41800000000E+01 0. -1.
</event>
<event>
11    1  0.7157190E-009  0.1605008E+03  0.7561462E-02  0.1086607E+00
         22   -1    0    0    0    0  0.00000000000E+00  0.00000000000E+00  0.34226897757E+03  0.34226897757E+03  0.00000000000E+00 0. -1.
         22   -1    0    0    0    0 -0.00000000000E+00 -0.00000000000E+00 -0.10832103283E+04  0.10832103283E+04  0.00000000000E+00 0. -1.
        -24    2    1    2    0    0  0.24484709037E+02  0.38674069357E+02 -0.76126254571E+03  0.76664351664E+03  0.78271536859E+02 0.  0.
         25    2    1    2    0    0 -0.76212330736E+02 -0.12272912457E+03 -0.27641642079E+03  0.33604186933E+03  0.12508933963E+03 0.  0.
         24    2    1    2    0    0  0.51727621700E+02  0.84055055211E+02  0.29673761576E+03  0.32279391991E+03  0.80010642867E+02 0.  0.
        -13    1    5    5    0    0  0.50297229507E+01 -0.12858444403E+02  0.75921858399E+02  0.77167132175E+02  0.00000000000E+00 0.  1.
         14    1    5    5    0    0  0.46697898749E+02  0.96913499614E+02  0.22081575736E+03  0.24562678774E+03  0.00000000000E+00 0. -1.
         13    1    3    3    0    0  0.29926297042E+02  0.52443930789E+02 -0.72449376954E+03  0.72700561981E+03  0.00000000000E+00 0. -1.
        -14    1    3    3    0    0 -0.54415880053E+01 -0.13769861432E+02 -0.36768776175E+02  0.39637896832E+02  0.00000000000E+00 0.  1.
          5    1    4    4  501    0 -0.62063371396E+02 -0.14531615162E+03 -0.26053222605E+03  0.30473457172E+03  0.41800000000E+01 0. -1.
         -5    1    4    4    0  501 -0.14148959341E+02  0.22587027050E+02 -0.15884194737E+02  0.31307297613E+02  0.41800000000E+01 0. -1.
</event>
<event>
11    1  0.7157190E-009  0.1543972E+03  0.7561462E-02  0.1092469E+00
         22   -1    0    0    0    0  0.00000000000E+00  0.00000000000E+00  0.75115463103E+03  0.75115463103E+03  0.00000000000E+00 0. -1.
         22   -1    0    0    0    0 -0.00000000000E+00 -0.00000000000E+00 -0.26114894183E+03  0.26114894183E+03  0.00000000000E+00 0.  1.
        -24    2    1    2    0    0  0.82650192644E+02 -0.39079341739E+02 -0.21122897430E+03  0.24401781738E+03  0.81047926068E+02 0.  0.
         25    2    1    2    0    0 -0.73885018378E+02  0.30158129397E+02  0.14995879391E+03  0.21098350028E+03  0.12513148609E+03 0.  0.
         24    2    1    2    0    0 -0.87651742656E+01  0.89212123422E+01  0.55127586959E+03  0.55730225519E+03  0.80773157319E+02 0.  0.
        -11    1    5    5    0    0 -0.43967647592E+02 -0.22731662006E+00  0.35186915066E+03  0.35460556241E+03  0.00000000000E+00 0.  1.
         12    1    5    5    0    0  0.35202473326E+02  0.91485289622E+01  0.19940671893E+03  0.20269669279E+03  0.00000000000E+00 0. -1.
         11    1    3    3    0    0  0.63753693391E+02 -0.45000515885E+02 -0.81685211328E+02  0.11296925954E+03  0.00000000000E+00 0. -1.
        -12    1    3    3    0    0  0.18896499252E+02  0.59211741459E+01 -0.12954376297E+03  0.13104855784E+03  0.00000000000E+00 0.  1.
          5    1    4    4  501    0 -0.88250663271E+02 -0.11084622577E+02  0.50708590925E+02  0.10246893197E+03  0.41800000000E+01 0.  1.
         -5    1    4    4    0  501  0.14365644893E+02  0.41242751974E+02  0.99250202983E+02  0.10851456831E+03  0.41800000000E+01 0.  1.
</event>
<event>
11    1  0.7157190E-009  0.1589208E+03  0.7561462E-02  0.1088097E+00
         22   -1    0    0    0    0  0.00000000000E+00  0.00000000000E+00  0.11646967976E+04  0.11646967976E+04  0.00000000000E+00 0. -1.
         22   -1    0    0    0    0 -0.00000000000E+00 -0.00000000000E+00 -0.15601456152E+03  0.15601456152E+03  0.00000000000E+00 0. -1.
        -24    2    1    2    0    0  0.10613433151E+02  0.27167708210E+02 -0.11375773381E+03  0.14196970614E+03  0.79773718287E+02 0.  0.
         25    2    1    2    0    0  0.85694328612E+02 -0.48547916777E+02  0.24707103051E+03  0.29392545960E+03  0.12509062116E+03 0.  0.
         24    2    1    2    0    0 -0.96307761762E+02  0.21380208567E+02  0.87536893940E+03  0.88481619340E+03  0.83045877307E+02 0.  0.
        -13    1    5    5    0    0  0.10022506787E+02  0.40770894275E+01  0.20445764935E+02  0.23132284891E+02  0.00000000000E+00 0.  1.
         14    1    5    5    0    0 -0.10633026855E+03  0.17303119140E+02  0.85492317447E+03  0.86168390851E+03  0.00000000000E+00 0. -1.
         11    1    3    3    0    0 -0.48034740812E+01  0.29035899274E+02 -0.12121905049E+03  0.12474059087E+03  0.00000000000E+00 0. -1.
        -12    1    3    3    0    0  0.15416907232E+02 -0.18681910643E+01  0.74613166816E+01  0.17229115272E+02  0.00000000000E+00 0.  1.
          5    1    4    4  501    0  0.36841394868E+02  0.16548608450E+02  0.19035264036E+03  0.19463490157E+03  0.41800000000E+01 0.  1.
         -5    1    4    4    0  501  0.48852933744E+02 -0.65096525227E+02  0.56718390151E+02  0.99290558027E+02  0.41800000000E+01 0.  1.
</event>
<event>
11    1  0.7157190E-009  0.2227650E+03  0.7561462E-02  0.1039499E+00
         22   -1    0    0    0    0  0.00000000000E+00  0.00000000000E+00  0.55746912034E+03  0.55746912034E+03  0.00000000000E+00 0. -1.
         22   -1    0    0    0    0 -0.00000000000E+00 -0.00000000000E+00 -0.77050773943E+03  0.77050773943E+03  0.00000000000E+00 0.  1.
        -24    2    1    2    0    0  0.17743168295E+03  0.18480131629E+02 -0.63900300056E+03  0.66847983268E+03  0.81956906975E+02 0.  0.
         25    2    1    2    0    0 -0.26352718570E+03 -0.22155811057E+02  0.91289716540E+02  0.30646261040E+03  0.12509221263E+03 0.  0.
         24    2    1    2    0    0  0.86095502752E+02  0.36756794279E+01  0.33467466493E+03  0.35303441670E+03  0.72112563478E+02 0.  0.
        -11    1    5    5    0    0  0.10748279453E+01 -0.61009355595E+01 -0.13012301780E+01  0.63300766022E+01  0.00000000000E+00 0.  1.
         12    1    5    5    0    0  0.85020674807E+02  0.97766149875E+01  0.33597589511E+03  0.34670434009E+03  0.00000000000E+00 0. -1.
         13    1    3    3    0    0  0.57483663544E+02 -0.55638637355E+01 -0.97417574384E+02  0.11324977683E+03  0.00000000000E+00 0. -1.
        -14    1    3    3    0    0  0.11994801940E+03  0.24043995365E+02 -0.54158542617E+03  0.55523005585E+03  0.00000000000E+00 0.  1.
          5    1    4    4  501    0 -0.24065260407E+03  0.17208816802E+02  0.97629889658E+02  0.26030537254E+03  0.41800000000E+01 0. -1.
         -5    1    4    4    0  501 -0.22874581633E+02 -0.39364627859E+02 -0.63401731179E+01  0.46157237856E+02  0.41800000000E+01 0. -1.
</event>
<event>
11    1  0.7157190E-009  0.1827380E+03  0.7561462E-02  0.1067449E+00
         22   -1    0    0    0    0  0.00000000000E+00  0.00000000000E+00  0.65829554805E+03  0.65829554805E+03  0.00000000000E+00 0. -1.
         22   -1    0    0    0    0 -0.00000000000E+00 -0.00000000000E+00 -0.41780436564E+03  0.41780436564E+03  0.00000000000E+00 0.  1.
         24    2    1    2    0    0 -0.25351015586E+00 -0.50769743904E+01 -0.36173204511E+03  0.37030479394E+03  0.79055221342E+02 0.  0.
         25    2    1    2    0    0  0.13308999031E+03  0.12768676134E+02  0.18372400014E+03  0.25937982131E+03  0.12508956336E+03 0.  0.
        -24    2    1    2    0    0 -0.13283648016E+03 -0.76917017435E+01  0.41849922737E+03  0.44641529844E+03  0.80251620769E+02 0.  0.
        -11    1    3    3    0    0 -0.38077811975E+02 -0.11927179925E+02 -0.21163427201E+03  0.21536304807E+03  0.00000000000E+00 0.  1.
         12    1    3    3    0    0  0.37824301819E+02  0.68502055347E+01 -0.15009777310E+03  0.15494174587E+03  0.00000000000E+00 0. -1.
         11    1    5    5    0    0 -0.93965616139E+02  0.28759799430E+02  0.31547118369E+03  0.33042204953E+03  0.00000000000E+00 0. -1.
        -12    1    5    5    0    0 -0.38870864017E+02 -0.36451501174E+02  0.10302804369E+03  0.11599324891E+03  0.00000000000E+00 0.  1.
          5    1    4    4  501    0  0.11003724080E+03 -0.34077744768E+02  0.71789349422E+02  0.13579642904E+03  0.41800000000E+01 0.  1.
         -5    1    4    4    0  501  0.23052749516E+02  0.46846420902E+02  0.11193465072E+03  0.12358339226E+03  0.41800000000E+01 0.  1.
</event>
<event>
11    1  0.7804229E-009  0.1710247E+03  0.7561462E-02  0.1077143E+00
         22   -1    0    0    0    0  0.00000000000E+00  0.00000000000E+00  0.55433443897E+03  0.55433443897E+03  0.00000000000E+00 0. -1.
         22   -1    0    0    0    0 -0.00000000000E+00 -0.00000000000E+00 -0.38126070021E+03  0.38126070021E+03  0.00000000000E+00 0.  1.
         24    2    1    2    0    0 -0.54718379204E+02  0.15990580630E+02 -0.25601173591E+03  0.27460680699E+03  0.81345496683E+02 0.  0.
         25    2    1    2    0    0 -0.45749084649E+02 -0.81719384888E+02 -0.46830951076E+02  0.16313149703E+03  0.12509080995E+03 0.  0.
        -24    2    1    2    0    0  0.10046746385E+03  0.65728804258E+02  0.47591642575E+03  0.49785683516E+03  0.83372639491E+02 0.  0.
        -13    1    3    3    0    0 -0.47588480517E+02  0.12011462053E+02 -0.26064017273E+03  0.26522111217E+03  0.00000000000E+00 0.  1.
         14    1    3    3    0    0 -0.71298986871E+01  0.39791185775E+01  0.46284368193E+01  0.93856948242E+01  0.00000000000E+00 0. -1.
         13    1    5    5    0    0  0.72670662797E+02  0.70689144946E+02  0.44316954812E+03  0.45461767325E+03  0.00000000000E+00 0. -1.
        -14    1    5    5    0    0  0.27796801056E+02 -0.49603406880E+01  0.32746877624E+02  0.43239161912E+02  0.00000000000E+00 0.  1.
          5    1    4    4  501    0 -0.55606097226E+02  0.11014121191E+02 -0.40056155862E+02  0.69536443228E+02  0.41800000000E+01 0.  1.
         -5    1    4    4    0  501  0.98570125771E+01 -0.92733506079E+02 -0.67747952138E+01  0.93595053805E+02  0.41800000000E+01 0.  1.
</event>
<event>
11    1  0.7157190E-009  0.1659854E+03  0.7561462E-02  0.1081579E+00
         22   -1    0    0    0    0  0.00000000000E+00  0.00000000000E+00  0.67619171327E+03  0.67619171327E+03  0.00000000000E+00 0. -1.
         22   -1    0    0    0    0 -0.00000000000E+00 -0.00000000000E+00 -0.21859345419E+03  0.21859345419E+03  0.00000000000E+00 0.  1.
         24    2    1    2    0    0  0.43974889189E+02 -0.31431196937E+02 -0.12337595600E+03  0.15590236340E+03  0.78499741231E+02 0.  0.
         25    2    1    2    0    0 -0.14119706860E+03  0.67179571130E+02  0.71349680375E+02  0.21257492208E+03  0.12509042189E+03 0.  0.
        -24    2    1    2    0    0  0.97222179415E+02 -0.35748374193E+02  0.50962453470E+03  0.52630788198E+03  0.80948884069E+02 0.  0.
        -11    1    3    3    0    0  0.52836174718E+02 -0.49054302556E+02 -0.11180025403E+03  0.13303113455E+03  0.00000000000E+00 0.  1.
         12    1    3    3    0    0 -0.88612855293E+01  0.17623105618E+02 -0.11575701970E+02  0.22871228847E+02  0.00000000000E+00 0. -1.
         13    1    5    5    0    0  0.77852928857E+02 -0.34305745936E+02  0.49429843452E+03  0.50156645133E+03  0.00000000000E+00 0. -1.
        -14    1    5    5    0    0  0.19369250558E+02 -0.14426282576E+01  0.15326100187E+02  0.24741430646E+02  0.00000000000E+00 0.  1.
          5    1    4    4  501    0 -0.50646152577E+02  0.70614051435E+02 -0.13886301339E+02  0.88100390441E+02  0.41800000000E+01 0. -1.
         -5    1    4    4    0  501 -0.90550916027E+02 -0.34344803047E+01  0.85235981714E+02  0.12447453164E+03  0.41800000000E+01 0. -1.
</event>
<event>
11    1  0.8518576E-009  0.2111246E+03  0.7561462E-02  0.1046924E+00
         22   -1    0    0    0    0  0.00000000000E+00  0.00000000000E+00  0.13770765868E+04  0.13770765868E+04  0.00000000000E+00 0.  1.
         22   -1    0    0    0    0 -0.00000000000E+00 -0.00000000000E+00 -0.10148530611E+04  0.10148530611E+04  0.00000000000E+00 0. -1.
         24    2    1    2    0    0 -0.15485796643E+01 -0.27642150313E+02 -0.81293656773E+03  0.81672116914E+03  0.73492301624E+02 0.  0.
         25    2    1    2    0    0 -0.73054885856E+02  0.17957494079E+03 -0.12442040765E+03  0.26213064335E+03  0.12509140912E+03 0.  0.
        -24    2    1    2    0    0  0.74603465520E+02 -0.15193279048E+03  0.12995805011E+04  0.13130778354E+04  0.81330642053E+02 0.  0.
        -11    1    3    3    0    0 -0.21672270215E+02  0.14909645600E+02 -0.16568069277E+03  0.16775600372E+03  0.00000000000E+00 0.  1.
         12    1    3    3    0    0  0.20123690550E+02 -0.42551795913E+02 -0.64725587497E+03  0.64896516543E+03  0.00000000000E+00 0. -1.
         13    1    5    5    0    0 -0.17150029183E+02 -0.17218542919E+02  0.13912692864E+03  0.14123350875E+03  0.00000000000E+00 0. -1.
        -14    1    5    5    0    0  0.91753494704E+02 -0.13471424756E+03  0.11604535724E+04  0.11718443267E+04  0.00000000000E+00 0.  1.
          5    1    4    4  501    0 -0.74714362338E+02  0.18888494479E+03 -0.83048629171E+02  0.21948645862E+03  0.41800000000E+01 0.  1.
         -5    1    4    4    0  501  0.16594764821E+01 -0.93100040051E+01 -0.41371778481E+02  0.42644184732E+02  0.41800000000E+01 0.  1.
</event>
<event>
11    1  0.7157190E-009  0.1323346E+03  0.7561462E-02  0.1116433E+00
         22   -1    0    0    0    0  0.00000000000E+00  0.00000000000E+00  0.46790344639E+03  0.46790344639E+03  0.00000000000E+00 0.  1.
         22   -1    0    0    0    0 -0.00000000000E+00 -0.00000000000E+00 -0.13841186207E+03  0.13841186207E+03  0.00000000000E+00 0.  1.
        -24    2    1    2    0    0 -0.29972637585E+02  0.89995670872E+01 -0.92351379139E+02  0.12703047265E+03  0.81416291627E+02 0.  0.
         25    2    1    2    0    0 -0.26938274872E+02 -0.63510576619E+00  0.25078311968E+03  0.28154089399E+03  0.12508808041E+03 0.  0.
         24    2    1    2    0    0  0.56910912457E+02 -0.83644613211E+01  0.17105984378E+03  0.19774394182E+03  0.80823141512E+02 0.  0.
        -11    1    5    5    0    0 -0.93822072658E+01 -0.24195746959E+02  0.79314912327E+02  0.83452473310E+02  0.00000000000E+00 0.  1.
         12    1    5    5    0    0  0.66293119723E+02  0.15831285638E+02  0.91744931449E+02  0.11429146851E+03  0.00000000000E+00 0. -1.
         11    1    3    3    0    0 -0.29971399286E+02 -0.28609994732E+02 -0.21182244454E+02  0.46534976671E+02  0.00000000000E+00 0. -1.
        -12    1    3    3    0    0 -0.12382996778E-02  0.37609561819E+02 -0.71169134685E+02  0.80495495983E+02  0.00000000000E+00 0.  1.
          5    1    4    4  501    0 -0.52288654808E+02 -0.48668084141E+02  0.16601454441E+03  0.18077883502E+03  0.41800000000E+01 0. -1.
         -5    1    4    4    0  501  0.25350379936E+02  0.48032978375E+02  0.84768575271E+02  0.10076205897E+03  0.41800000000E+01 0. -1.
</event>
<event>
11    1  0.7157190E-009  0.1448553E+03  0.7561462E-02  0.1102255E+00
         22   -1    0    0    0    0  0.00000000000E+00  0.00000000000E+00  0.10816671016E+03  0.10816671016E+03  0.00000000000E+00 0.  1.
         22   -1    0    0    0    0 -0.00000000000E+00 -0.00000000000E+00 -0.30173074379E+04  0.30173074379E+04  0.00000000000E+00 0. -1.
        -24    2    1    2    0    0  0.19939571717E+02 -0.44846325984E+02 -0.10147514068E+04  0.10192398698E+04  0.81979968608E+02 0.  0.
         25    2    1    2    0    0  0.23119210345E+02  0.10341635126E+03 -0.19683384046E+04  0.19751539401E+04  0.12509025695E+03 0.  0.
         24    2    1    2    0    0 -0.43058782062E+02 -0.58570025275E+02  0.73949083593E+02  0.13108033819E+03  0.80181553506E+02 0.  0.
        -11    1    5    5    0    0 -0.65155897774E+02 -0.55831063441E+02  0.55777222416E+02  0.10234010553E+03  0.00000000000E+00 0.  1.
         12    1    5    5    0    0  0.22097115712E+02 -0.27389618335E+01  0.18171861177E+02  0.28740232660E+02  0.00000000000E+00 0. -1.
         11    1    3    3    0    0  0.11372982938E+02 -0.60410916192E+02 -0.95308061101E+03  0.95506097953E+03  0.00000000000E+00 0. -1.
        -12    1    3    3    0    0  0.85665887792E+01  0.15564590208E+02 -0.61670795744E+02  0.64178890294E+02  0.00000000000E+00 0.  1.
          5    1    4    4  501    0  0.70982400847E+02  0.81982816824E+02 -0.14852209167E+04  0.14891804213E+04  0.41800000000E+01 0.  1.
         -5    1    4    4    0  501 -0.47863190502E+02  0.21433534435E+02 -0.48311748790E+03  0.48597351874E+03  0.41800000000E+01 0.  1.
</event>
<event>
11    1  0.7157190E-009  0.1518196E+03  0.7561462E-02  0.1095034E+00
         22   -1    0    0    0    0  0.00000000000E+00  0.00000000000E+00  0.48663689027E+02  0.48663689027E+02  0.00000000000E+00 0. -1.
         22   -1    0    0    0    0 -0.00000000000E+00 -0.00000000000E+00 -0.21654352012E+04  0.21654352012E+04  0.00000000000E+00 0. -1.
        -24    2    1    2    0    0  0.21574047259E+02  0.61120890763E+02 -0.12302220021E+04  0.12344586153E+04  0.78998074501E+02 0.  0.
         25    2    1    2    0    0 -0.99377522423E+02 -0.23295084000E+02 -0.83723397202E+03  0.85265847262E+03  0.12508874499E+03 0.  0.
         24    2    1    2    0    0  0.77803475164E+02 -0.37825806763E+02 -0.49315538028E+02  0.12698180223E+03  0.78792026252E+02 0.  0.
        -13    1    5    5    0    0  0.46960580760E+02 -0.37716359430E+02 -0.68064016862E+02  0.90887459560E+02  0.00000000000E+00 0.  1.
         14    1    5    5    0    0  0.30842894404E+02 -0.10944733252E+00  0.18748478834E+02  0.36094342667E+02  0.00000000000E+00 0. -1.
         13    1    3    3    0    0 -0.10203463629E+02  0.34450568260E+02 -0.99204979556E+03  0.99270023128E+03  0.00000000000E+00 0. -1.
        -14    1    3    3    0    0  0.31777510888E+02  0.26670322503E+02 -0.23817220653E+03  0.24175838407E+03  0.00000000000E+00 0.  1.
          5    1    4    4  501    0 -0.50310407158E+02  0.29215137929E+02 -0.13925788667E+03  0.15097977597E+03  0.41800000000E+01 0. -1.
         -5    1    4    4    0  501 -0.49067115265E+02 -0.52510221930E+02 -0.69797608535E+03  0.70167869665E+03  0.41800000000E+01 0. -1.
</event>
<event>
11    1  0.7157190E-009  0.1460867E+03  0.7561462E-02  0.1100946E+00
         22   -1    0    0    0    0  0.00000000000E+00  0.00000000000E+00  0.45805938171E+03  0.45805938171E+03  0.00000000000E+00 0. -1.
         22   -1    0    0    0    0 -0.00000000000E+00 -0.00000000000E+00 -0.35355816669E+03  0.35355816669E+03  0.00000000000E+00 0. -1.
         24    2    1    2    0    0 -0.34376338473E+02  0.71909644898E+02 -0.21147363023E+03  0.23182008637E+03  0.51640357171E+02 0.  0.
         25    2    1    2    0    0 -0.88496136958E+01 -0.13091162272E+03 -0.58045303675E+02  0.19034931437E+03  0.12508971011E+03 0.  0.
        -24    2    1    2    0    0  0.43225952169E+02  0.59001977824E+02  0.37402014893E+03  0.38944814766E+03  0.80181491510E+02 0.  0.
        -13    1    3    3    0    0  0.63133127022E+01 -0.35907996622E+01 -0.33240080987E+02  0.34024325761E+02  0.00000000000E+00 0.  1.
         14    1    3    3    0    0 -0.40689651175E+02  0.75500444560E+02 -0.17823354924E+03  0.19779576061E+03  0.00000000000E+00 0. -1.
         11    1    5    5    0    0 -0.19181386521E+02  0.27400089085E+02  0.18279675636E+03  0.18583149520E+03  0.00000000000E+00 0. -1.
        -12    1    5    5    0    0  0.62407338690E+02  0.31601888740E+02  0.19122339257E+03  0.20361665246E+03  0.00000000000E+00 0.  1.
          5    1    4    4  501    0  0.23420787951E+02 -0.11891073350E+03  0.16859882846E+01  0.12127906170E+03  0.41800000000E+01 0. -1.
         -5    1    4    4    0  501 -0.32270401646E+02 -0.12000889220E+02 -0.59731291960E+02  0.69070252668E+02  0.41800000000E+01 0. -1.
</event>
<event>
11    1  0.7157190E-009  0.2209949E+03  0.7561462E-02  0.1040596E+00
         22   -1    0    0    0    0  0.00000000000E+00  0.00000000000E+00  0.72290635753E+03  0.72290635753E+03  0.00000000000E+00 0.  1.
         22   -1    0    0    0    0 -0.00000000000E+00 -0.00000000000E+00 -0.27087111250E+03  0.27087111250E+03  0.00000000000E+00 0. -1.
         24    2    1    2    0    0  0.31464312219E+02  0.11818209690E+02 -0.15265987115E+03  0.17525321774E+03  0.79240021742E+02 0.  0.
         25    2    1    2    0    0 -0.10644696250E+03  0.15374679813E+03  0.51055121800E+02  0.23070036494E+03  0.12508796569E+03 0.  0.
        -24    2    1    2    0    0  0.74982650280E+02 -0.16556500782E+03  0.55363999438E+03  0.58782388736E+03  0.77366074715E+02 0.  0.
        -11    1    3    3    0    0  0.28593763985E+02 -0.15251129392E+02 -0.16436559814E+02  0.36336769051E+02  0.00000000000E+00 0.  1.
         12    1    3    3    0    0  0.28705482341E+01  0.27069339082E+02 -0.13622331133E+03  0.13891644869E+03  0.00000000000E+00 0. -1.
         11    1    5    5    0    0  0.12754516751E+02  0.48855855209E+01  0.20348451393E+02  0.24507266628E+02  0.00000000000E+00 0. -1.
        -12    1    5    5    0    0  0.62228133529E+02 -0.17045059334E+03  0.53329154298E+03  0.56331662073E+03  0.00000000000E+00 0.  1.
          5    1    4    4  501    0 -0.15123028643E+02  0.10521593124E+03  0.67373014588E+02  0.12591939357E+03  0.41800000000E+01 0. -1.
         -5    1    4    4    0  501 -0.91323933856E+02  0.48530866886E+02 -0.16317892789E+02  0.10478097137E+03  0.41800000000E+01 0. -1.
</event>
<event>
11    1  0.7157190E-009  0.2322145E+03  0.7561462E-02  0.1033825E+00
         22   -1    0    0    0    0  0.00000000000E+00  0.00000000000E+00  0.31610288204E+03  0.31610288204E+03  0.00000000000E+00 0.  1.
         22   -1    0    0    0    0 -0.00000000000E+00 -0.00000000000E+00 -0.34792988221E+03  0.34792988221E+03  0.00000000000E+00 0. -1.
         24    2    1    2    0    0 -0.29515981177E+02 -0.45772515464E+01 -0.80218690353E+02  0.11778108386E+03  0.80902416882E+02 0.  0.
         25    2    1    2    0    0 -0.17002030054E+03 -0.23449044022E+02 -0.14381555493E+03  0.25649002799E+03  0.12508980915E+03 0.  0.
        -24    2    1    2    0    0  0.19953628172E+03  0.28026295569E+02  0.19220724511E+03  0.28976165240E+03  0.80112353374E+02 0.  0.
        -13    1    3    3    0    0 -0.47525259082E+02 -0.28909665325E+02 -0.46858854429E+02  0.72733563356E+02  0.00000000000E+00 0.  1.
         14    1    3    3    0    0  0.18009277905E+02  0.24332413779E+02 -0.33359835924E+02  0.45047520507E+02  0.00000000000E+00 0. -1.
         13    1    5    5    0    0  0.46195975118E+02  0.42529507643E+02  0.57466242648E+02  0.85118718162E+02  0.00000000000E+00 0. -1.
        -14    1    5    5    0    0  0.15334030660E+03 -0.14503212075E+02  0.13474100246E+03  0.20464293424E+03  0.00000000000E+00 0.  1.
          5    1    4    4  501    0 -0.99672110164E+02 -0.45951412376E+02 -0.14573315886E+03  0.18248750049E+03  0.41800000000E+01 0. -1.
         -5    1    4    4    0  501 -0.70348190377E+02  0.22502368354E+02  0.19176039256E+01  0.74002527495E+02  0.41800000000E+01 0. -1.
</event>
<event>
11    1  0.7157190E-009  0.1457514E+03  0.7561462E-02  0.1101301E+00
         22   -1    0    0    0    0  0.00000000000E+00  0.00000000000E+00  0.51065757821E+03  0.51065757821E+03  0.00000000000E+00 0. -1.
         22   -1    0    0    0    0 -0.00000000000E+00 -0.00000000000E+00 -0.13586865932E+03  0.13586865932E+03  0.00000000000E+00 0.  1.
         24    2    1    2    0    0 -0.18713001708E+02 -0.40215805846E+02 -0.75669384191E+02  0.11931152208E+03  0.80881988872E+02 0.  0.
         25    2    1    2    0    0  0.87599319278E+02  0.41291548729E+02  0.19407098217E+03  0.25037903599E+03  0.12508989892E+03 0.  0.
        -24    2    1    2    0    0 -0.68886317570E+02 -0.10757428828E+01  0.25638732091E+03  0.27683567945E+03  0.78466891873E+02 0.  0.
        -11    1    3    3    0    0 -0.49860674910E+02 -0.14729564048E+02 -0.43507873304E+02  0.67793672264E+02  0.00000000000E+00 0.  1.
         12    1    3    3    0    0  0.31147673203E+02 -0.25486241798E+02 -0.32161510887E+02  0.51517849814E+02  0.00000000000E+00 0. -1.
         11    1    5    5    0    0  0.52324292960E+01 -0.25593029194E+02  0.56611274593E+02  0.62347557055E+02  0.00000000000E+00 0. -1.
        -12    1    5    5    0    0 -0.74118746866E+02  0.24517286311E+02  0.19977604632E+03  0.21448812240E+03  0.00000000000E+00 0.  1.
          5    1    4    4  501    0  0.57466650972E+02  0.77656741399E+02  0.75503127995E+02  0.12268325149E+03  0.41800000000E+01 0. -1.
         -5    1    4    4    0  501  0.30132668306E+02 -0.36365192671E+02  0.11856785417E+03  0.12769578450E+03  0.41800000000E+01 0. -1.
</event>
<event>
11    1  0.7157190E-009  0.3088912E+03  0.7561462E-02  0.9964970E-01
         22   -1    0    0    0    0  0.00000000000E+00  0.00000000000E+00  0.66024818524E+02  0.66024818524E+02  0.00000000000E+00 0. -1.
         22   -1    0    0    0    0 -0.00000000000E+00 -0.00000000000E+00 -0.22421151160E+04  0.22421151160E+04  0.00000000000E+00 0.  1.
         24    2    1    2    0    0  0.28794914656E+02  0.28296360721E+03 -0.13714642574E+04  0.14029736185E+04  0.80766420763E+02 0.  0.
         25    2    1    2    0    0 -0.12052035095E+01 -0.27945256716E+03 -0.74013963369E+03  0.80096706382E+03  0.12508545146E+03 0.  0.
        -24    2    1    2    0    0 -0.27589711146E+02 -0.35110400534E+01 -0.64486406398E+02  0.10419925223E+03  0.76977061462E+02 0.  0.
        -11    1    3    3    0    0 -0.64140329151E+01  0.14736977954E+03 -0.86519278930E+03  0.87767736350E+03  0.00000000000E+00 0.  1.
         12    1    3    3    0    0  0.35208947571E+02  0.13559382767E+03 -0.50627146809E+03  0.52529625498E+03  0.00000000000E+00 0. -1.
         13    1    5    5    0    0 -0.34819049892E+02 -0.19386028080E+02 -0.26393501725E+01  0.39939335115E+02  0.00000000000E+00 0. -1.
        -14    1    5    5    0    0  0.72293387461E+01  0.15874988026E+02 -0.61847056226E+02  0.64259917113E+02  0.00000000000E+00 0.  1.
          5    1    4    4  501    0  0.33696721854E+02 -0.23013310826E+03 -0.66466351458E+03  0.70419583682E+03  0.41800000000E+01 0.  1.
         -5    1    4    4    0  501 -0.34901925364E+02 -0.49319458891E+02 -0.75476119105E+02  0.96771226998E+02  0.41800000000E+01 0.  1.
</event>
<event>
11    1  0.7157190E-009  0.1400386E+03  0.7561462E-02  0.1107515E+00
         22   -1    0    0    0    0  0.00000000000E+00  0.00000000000E+00  0.17960656684E+04  0.17960656684E+04  0.00000000000E+00 0. -1.
         22   -1    0    0    0    0 -0.00000000000E+00 -0.00000000000E+00 -0.34153038589E+03  0.34153038589E+03  0.00000000000E+00 0. -1.
         24    2    1    2    0    0 -0.57219762551E+02 -0.22965023800E+02 -0.30137569577E+03  0.31797200604E+03  0.80482253201E+02 0.  0.
         25    2    1    2    0    0  0.94320341689E+02  0.24072797335E+02  0.17414394899E+03  0.23546096063E+03  0.12505967608E+03 0.  0.
        -24    2    1    2    0    0 -0.37100579138E+02 -0.11077735358E+01  0.15817670293E+04  0.15841630876E+04  0.78791326367E+02 0.  0.
        -11    1    3    3    0    0  0.75418750507E-01  0.25509589367E+02 -0.59995491749E+02  0.65193587629E+02  0.00000000000E+00 0.  1.
         12    1    3    3    0    0 -0.57295181302E+02 -0.48474613166E+02 -0.24138020402E+03  0.25277841841E+03  0.00000000000E+00 0. -1.
         11    1    5    5    0    0  0.15360084452E+02  0.19815105774E+02  0.78325622026E+03  0.78365737232E+03  0.00000000000E+00 0. -1.
        -12    1    5    5    0    0 -0.52460663590E+02 -0.20922879310E+02  0.79851080904E+03  0.80050571532E+03  0.00000000000E+00 0.  1.
          5    1    4    4  501    0  0.48218585227E+02  0.47831812022E+02  0.17017761030E+03  0.18327794643E+03  0.41800000000E+01 0. -1.
         -5    1    4    4    0  501  0.46101756462E+02 -0.23759014687E+02  0.39663386961E+01  0.52183014195E+02  0.41800000000E+01 0. -1.
</event>
<event>
11    1  0.7157190E-009  0.1361702E+03  0.7561462E-02  0.1111912E+00
         22   -1    0    0    0    0  0.00000000000E+00  0.00000000000E+00  0.20185103442E+03  0.20185103442E+03  0.00000000000E+00 0. -1.
         22   -1    0    0    0    0 -0.00000000000E+00 -0.00000000000E+00 -0.12483603648E+04  0.12483603648E+04  0.00000000000E+00 0.  1.
        -24    2    1    2    0    0  0.11373406651E+01 -0.44503670920E+02 -0.10324420036E+04  0.10364441532E+04  0.79360706419E+02 0.  0.
         25    2    1    2    0    0 -0.54870129696E+02  0.41025025005E+02 -0.17495909077E+03  0.22572414238E+03  0.12508765407E+03 0.  0.
         24    2    1    2    0    0  0.53732789031E+02  0.34786459150E+01  0.16089176396E+03  0.18804310361E+03  0.81084742772E+02 0.  0.
        -13    1    5    5    0    0  0.15920492064E+02 -0.22830831180E+02  0.88965124049E+01  0.29220829093E+02  0.00000000000E+00 0.  1.
         14    1    5    5    0    0  0.37812296967E+02  0.26309477095E+02  0.15199525156E+03  0.15882227452E+03  0.00000000000E+00 0. -1.
         13    1    3    3    0    0 -0.27332396316E+02  0.63491035462E+01 -0.50788502776E+03  0.50865958403E+03  0.00000000000E+00 0. -1.
        -14    1    3    3    0    0  0.28469736981E+02 -0.50852774466E+02 -0.52455697583E+03  0.52778456920E+03  0.00000000000E+00 0.  1.
          5    1    4    4  501    0 -0.32371428194E+00  0.45733040493E+02 -0.39249552428E+01  0.46092227733E+02  0.41800000000E+01 0. -1.
         -5    1    4    4    0  501 -0.54546415414E+02 -0.47080154886E+01 -0.17103413552E+03  0.17963191464E+03  0.41800000000E+01 0. -1.
</event>
<event>
11    1  0.7157190E-009  0.1481703E+03  0.7561462E-02  0.1098763E+00
         22   -1    0    0    0    0  0.00000000000E+00  0.00000000000E+00  0.47559540708E+03  0.47559540708E+03  0.00000000000E+00 0. -1.
         22   -1    0    0    0    0 -0.00000000000E+00 -0.00000000000E+00 -0.77415509382E+03  0.77415509382E+03  0.00000000000E+00 0.  1.
        -24    2    1    2    0    0 -0.36750637284E+01 -0.32659430219E+02 -0.71363314966E+03  0.71894523177E+03  0.80807360524E+02 0.  0.
         25    2    1    2    0    0  0.69099067584E+02 -0.16642959208E+02  0.57213960114E+02  0.15482562610E+03  0.12508344428E+03 0.  0.
         24    2    1    2    0    0 -0.65424003855E+02  0.49302389427E+02  0.35785950281E+03  0.37597964303E+03  0.81155667335E+02 0.  0.
        -13    1    5    5    0    0 -0.52513606086E+02  0.50254308461E+02  0.14007365830E+03  0.15780939165E+03  0.00000000000E+00 0.  1.
         14    1    5    5    0    0 -0.12910397769E+02 -0.95191903378E+00  0.21778584451E+03  0.21817025138E+03  0.00000000000E+00 0. -1.
         13    1    3    3    0    0 -0.39425532575E+02 -0.31766723716E+02 -0.46616047260E+03  0.46890199783E+03  0.00000000000E+00 0. -1.
        -14    1    3    3    0    0  0.35750468846E+02 -0.89270650234E+00 -0.24747267706E+03  0.25004323394E+03  0.00000000000E+00 0.  1.
          5    1    4    4  501    0 -0.27759573484E+02 -0.47241939071E+00 -0.15954778377E+02  0.32293102253E+02  0.41800000000E+01 0. -1.
         -5    1    4    4    0  501  0.96858641067E+02 -0.16170539817E+02  0.73168738491E+02  0.12253252384E+03  0.41800000000E+01 0. -1.
</event>
<event>
11    1  0.7157190E-009  0.1538882E+03  0.7561462E-02  0.1092971E+00
         22   -1    0    0    0    0  0.00000000000E+00  0.00000000000E+00  0.14304106107E+04  0.14304106107E+04  0.00000000000E+00 0. -1.
         22   -1    0    0    0    0 -0.00000000000E+00 -0.00000000000E+00 -0.82866200037E+03  0.82866200037E+03  0.00000000000E+00 0. -1.
        -24    2    1    2    0    0 -0.10623059641E+02 -0.15979411871E+02 -0.58341435344E+03  0.58990327769E+03  0.85119787478E+02 0.  0.
         25    2    1    2    0    0  0.88371643112E+01 -0.73808890388E+02 -0.21732514154E+03  0.26154033177E+03  0.12508908915E+03 0.  0.
         24    2    1    2    0    0  0.17858953300E+01  0.89788302258E+02  0.14024881053E+04  0.14076290016E+04  0.79883615120E+02 0.  0.
        -13    1    5    5    0    0 -0.38081525467E+02  0.40655909035E+02  0.55789177374E+03  0.56066597607E+03  0.00000000000E+00 0.  1.
         14    1    5    5    0    0  0.39867420797E+02  0.49132393223E+02  0.84459633158E+03  0.84696302553E+03  0.00000000000E+00 0. -1.
         11    1    3    3    0    0  0.69284007521E+01 -0.48762938981E+02 -0.29179094319E+03  0.29591853860E+03  0.00000000000E+00 0. -1.
        -12    1    3    3    0    0 -0.17551460393E+02  0.32783527110E+02 -0.29162341025E+03  0.29398473909E+03  0.00000000000E+00 0.  1.
          5    1    4    4  501    0 -0.39357594733E+02  0.11222019722E+02 -0.10393846818E+03  0.11178386090E+03  0.41800000000E+01 0. -1.
         -5    1    4    4    0  501  0.48194759044E+02 -0.85030910110E+02 -0.11338667336E+03  0.14975647088E+03  0.41800000000E+01 0. -1.
</event>
<event>
11    1  0.7157190E-009  0.2221123E+03  0.7561462E-02  0.1039902E+00
         22   -1    0    0    0    0  0.00000000000E+00  0.00000000000E+00  0.13088651928E+04  0.13088651928E+04  0.00000000000E+00 0.  1.
         22   -1    0    0    0    0 -0.00000000000E+00 -0.00000000000E+00 -0.28128851524E+03  0.28128851524E+03  0.00000000000E+00 0. -1.
         24    2    1    2    0    0  0.20186954288E+02 -0.45286853165E+02 -0.15569203107E+03  0.18320981154E+03  0.82869863712E+02 0.  0.
         25    2    1    2    0    0 -0.12077427906E+03 -0.11066991496E+03 -0.49979711210E+00  0.20611066006E+03  0.12508836010E+03 0.  0.
        -24    2    1    2    0    0  0.10058732477E+03  0.15595676812E+03  0.11837685058E+04  0.12008332365E+04  0.79071253643E+02 0.  0.
        -13    1    3    3    0    0  0.32036822951E+02 -0.58155710879E+02 -0.72961704492E+02  0.98650165003E+02  0.00000000000E+00 0.  1.
         14    1    3    3    0    0 -0.11849868663E+02  0.12868857714E+02 -0.82730326580E+02  0.84559646536E+02  0.00000000000E+00 0. -1.
         13    1    5    5    0    0  0.31030307531E+02  0.59255901871E+01  0.11155493364E+03  0.11594177773E+03  0.00000000000E+00 0. -1.
        -14    1    5    5    0    0  0.69557017240E+02  0.15003117794E+03  0.10722135721E+04  0.10848914587E+04  0.00000000000E+00 0.  1.
          5    1    4    4  501    0 -0.13651708748E+03 -0.11415125532E+03 -0.21511883826E+02  0.17929767932E+03  0.41800000000E+01 0.  1.
         -5    1    4    4    0  501  0.15742808423E+02  0.34813403558E+01  0.21012086714E+02  0.26812980733E+02  0.41800000000E+01 0.  1.
</event>
<event>
11    1  0.7157190E-009  0.1981193E+03  0.7561462E-02  0.1055862E+00
         22   -1    0    0    0    0  0.00000000000E+00  0.00000000000E+00  0.15570112323E+04  0.15570112323E+04  0.00000000000E+00 0.  1.
         22   -1    0    0    0    0 -0.00000000000E+00 -0.00000000000E+00 -0.10065725572E+03  0.10065725572E+03  0.00000000000E+00 0.  1.
        -24    2    1    2    0    0 -0.25388514244E+02 -0.21529498309E+02 -0.45556114539E+02  0.96513696611E+02  0.78303499978E+02 0.  0.
         25    2    1    2    0    0  0.10525737308E+03 -0.11094311704E+03  0.40698926067E+03  0.45241057113E+03  0.12509027444E+03 0.  0.
         24    2    1    2    0    0 -0.79868858839E+02  0.13247261535E+03  0.10949208305E+04  0.11087442203E+04  0.80833734579E+02 0.  0.
        -13    1    5    5    0    0 -0.69887178417E+02  0.58077264614E+02  0.76579426073E+03  0.77116667209E+03  0.00000000000E+00 0.  1.
         14    1    5    5    0    0 -0.99816804221E+01  0.74395350738E+02  0.32912656972E+03  0.33757754821E+03  0.00000000000E+00 0. -1.
         11    1    3    3    0    0  0.14944066934E+02  0.20078803429E+02 -0.24027336940E+02  0.34695769253E+02  0.00000000000E+00 0. -1.
        -12    1    3    3    0    0 -0.40332581177E+02 -0.41608301738E+02 -0.21528777599E+02  0.61817927358E+02  0.00000000000E+00 0.  1.
          5    1    4    4  501    0 -0.70558658704E+01  0.11195802094E+02  0.12062655394E+03  0.12142227614E+03  0.41800000000E+01 0.  1.
         -5    1    4    4    0  501  0.11231323895E+03 -0.12213891914E+03  0.28636270674E+03  0.33098829499E+03  0.41800000000E+01 0.  1.
</event>
<event>
11    1  0.7157190E-009  0.4676979E+03  0.7561462E-02  0.9468747E-01
         22   -1    0    0    0    0  0.00000000000E+00  0.00000000000E+00  0.99927614848E+02  0.99927614848E+02  0.00000000000E+00 0. -1.
         22   -1    0    0    0    0 -0.00000000000E+00 -0.00000000000E+00 -0.29136262201E+04  0.29136262201E+04  0.00000000000E+00 0.  1.
        -24    2    1    2    0    0 -0.16053545949E+03 -0.42107590504E+03 -0.17649304611E+04  0.18232645664E+04  0.78978444926E+02 0.  0.
         25    2    1    2    0    0  0.12693665657E+03  0.43347583120E+03 -0.82211907210E+03  0.94632868533E+03  0.12507598077E+03 0.  0.
         24    2    1    2    0    0  0.33598802921E+02 -0.12399926157E+02 -0.22664907198E+03  0.24396058321E+03  0.82851231752E+02 0.  0.
        -13    1    5    5    0    0 -0.21798192722E+02 -0.23480543570E+02 -0.10606836174E+03  0.11080159969E+03  0.00000000000E+00 0.  1.
         14    1    5    5    0    0  0.55396995643E+02  0.11080617413E+02 -0.12058071024E+03  0.13315898352E+03  0.00000000000E+00 0. -1.
         13    1    3    3    0    0 -0.78738587015E+02 -0.20007625970E+03 -0.68630575971E+03  0.71919807466E+03  0.00000000000E+00 0. -1.
        -14    1    3    3    0    0 -0.81796872477E+02 -0.22099964534E+03 -0.10786247014E+04  0.11040664917E+04  0.00000000000E+00 0.  1.
          5    1    4    4  501    0  0.75196091628E+02  0.35994198680E+03 -0.56712740278E+03  0.67591689537E+03  0.41800000000E+01 0.  1.
         -5    1    4    4    0  501  0.51740564943E+02  0.73533844396E+02 -0.25499166931E+03  0.27041178996E+03  0.41800000000E+01 0.  1.
</event>
<event>
11    1  0.7157190E-009  0.1398673E+03  0.7561462E-02  0.1107707E+00
         22   -1    0    0    0    0  0.00000000000E+00  0.00000000000E+00  0.19917166929E+04  0.19917166929E+04  0.00000000000E+00 0.  1.
         22   -1    0    0    0    0 -0.00000000000E+00 -0.00000000000E+00 -0.19485584481E+03  0.19485584481E+03  0.00000000000E+00 0. -1.
         24    2    1    2    0    0  0.38905784754E+02  0.49004491376E+02 -0.17295158180E+03  0.20129821652E+03  0.81814558994E+02 0.  0.
         25    2    1    2    0    0 -0.64307071994E+02 -0.29252970532E+02  0.15328678350E+04  0.15395850877E+04  0.12508919659E+03 0.  0.
        -24    2    1    2    0    0  0.25401287239E+02 -0.19751520844E+02  0.43694459496E+03  0.44568923350E+03  0.81749408696E+02 0.  0.
        -11    1    3    3    0    0  0.26193119747E+02  0.42996766283E+02 -0.32018844457E+02  0.59665801204E+02  0.00000000000E+00 0.  1.
         12    1    3    3    0    0  0.12712665007E+02  0.60077250925E+01 -0.14093273735E+03  0.14163241532E+03  0.00000000000E+00 0. -1.
         13    1    5    5    0    0  0.49411762379E+02 -0.15943348347E+02  0.17288644766E+03  0.18051436619E+03  0.00000000000E+00 0. -1.
        -14    1    5    5    0    0 -0.24010475140E+02 -0.38081724970E+01  0.26405814730E+03  0.26517486730E+03  0.00000000000E+00 0.  1.
          5    1    4    4  501    0 -0.79120579963E+00  0.22084159220E+02  0.54511127221E+02  0.58968393958E+02  0.41800000000E+01 0.  1.
         -5    1    4    4    0  501 -0.63515866194E+02 -0.51337129752E+02  0.14783567077E+04  0.14806166938E+04  0.41800000000E+01 0.  1.
</event>
<event>
11    1  0.7157190E-009  0.1492602E+03  0.7561462E-02  0.1097637E+00
         22   -1    0    0    0    0  0.00000000000E+00  0.00000000000E+00  0.12348877671E+03  0.12348877671E+03  0.00000000000E+00 0. -1.
         22   -1    0    0    0    0 -0.00000000000E+00 -0.00000000000E+00 -0.88077588127E+03  0.88077588127E+03  0.00000000000E+00 0. -1.
        -24    2    1    2    0    0 -0.66020923366E+02  0.17938256232E+02 -0.56919904361E+03  0.57886645284E+03  0.80114141155E+02 0.  0.
         25    2    1    2    0    0  0.13980036229E+03 -0.23105982705E+02 -0.24007784284E+03  0.30556308173E+03  0.12511354266E+03 0.  0.
         24    2    1    2    0    0 -0.73779438926E+02  0.51677264733E+01  0.51989781891E+02  0.11983512341E+03  0.78660081220E+02 0.  0.
        -13    1    5    5    0    0 -0.49247636424E+02 -0.67362319261E+01 -0.11253375099E+02  0.50964153727E+02  0.00000000000E+00 0.  1.
         14    1    5    5    0    0 -0.24531802502E+02  0.11903958399E+02  0.63243156991E+02  0.68870969688E+02  0.00000000000E+00 0. -1.
         11    1    3    3    0    0 -0.20661504041E+02  0.42006534177E+02 -0.37816569214E+03  0.38105214522E+03  0.00000000000E+00 0. -1.
        -12    1    3    3    0    0 -0.45359419325E+02 -0.24068277945E+02 -0.19103335147E+03  0.19781430762E+03  0.00000000000E+00 0.  1.
          5    1    4    4  501    0  0.80687368242E+02 -0.26027680500E+02 -0.34556851543E+02  0.91649004002E+02  0.41800000000E+01 0. -1.
         -5    1    4    4    0  501  0.59112994050E+02  0.29216977947E+01 -0.20552099130E+03  0.21391407773E+03  0.41800000000E+01 0. -1.
</event>
<event>
11    1  0.7157190E-009  0.1741875E+03  0.7561462E-02  0.1074444E+00
         22   -1    0    0    0    0  0.00000000000E+00  0.00000000000E+00  0.17883303709E+04  0.17883303709E+04  0.00000000000E+00 0.  1.
         22   -1    0    0    0    0 -0.00000000000E+00 -0.00000000000E+00 -0.24502190165E+03  0.24502190165E+03  0.00000000000E+00 0. -1.
        -24    2    1    2    0    0  0.73325581573E+02  0.59717662018E+02 -0.19668650827E+03  0.24400003359E+03  0.10912192166E+03 0.  0.
         25    2    1    2    0    0 -0.89325146074E+02  0.67907890846E+02  0.32061105072E+03  0.36198263514E+03  0.12509803729E+03 0.  0.
         24    2    1    2    0    0  0.15999564501E+02 -0.12762555286E+03  0.14193839268E+04  0.14273696039E+04  0.78670111553E+02 0.  0.
        -11    1    5    5    0    0  0.30767281757E+02 -0.32693758157E+02  0.72262702161E+03  0.72402024820E+03  0.00000000000E+00 0.  1.
         12    1    5    5    0    0 -0.14767717256E+02 -0.94931794708E+02  0.69675690522E+03  0.70334935565E+03  0.00000000000E+00 0. -1.
         13    1    3    3    0    0 -0.11801191110E+02 -0.90671457553E+00 -0.10290462476E+03  0.10358306831E+03  0.00000000000E+00 0. -1.
        -14    1    3    3    0    0  0.85126772682E+02  0.60624376594E+02 -0.93781883515E+02  0.14041696529E+03  0.00000000000E+00 0.  1.
          5    1    4    4  501    0 -0.53174770655E+02  0.70236554807E+02  0.31239121013E+03  0.32460201853E+03  0.41800000000E+01 0.  1.
         -5    1    4    4    0  501 -0.36150375419E+02 -0.23286639603E+01  0.82198405927E+01  0.37380616610E+02  0.41800000000E+01 0.  1.
</event>
<event>
11    1  0.7157190E-009  0.1442115E+03  0.7561462E-02  0.1102945E+00
         22   -1    0    0    0    0  0.00000000000E+00  0.00000000000E+00  0.18881734618E+03  0.18881734618E+03  0.00000000000E+00 0.  1.
         22   -1    0    0    0    0 -0.00000000000E+00 -0.00000000000E+00 -0.17170714209E+04  0.17170714209E+04  0.00000000000E+00 0.  1.
        -24    2    1    2    0    0  0.46738463954E+02  0.54471362343E+02 -0.16097791433E+04  0.16129978198E+04  0.72259694177E+02 0.  0.
         25    2    1    2    0    0 -0.14354269648E+02 -0.80954013241E+02 -0.28832640334E+02  0.15244258144E+03  0.12509125537E+03 0.  0.
         24    2    1    2    0    0 -0.32384194306E+02  0.26482650898E+02  0.11035770885E+03  0.14044836582E+03  0.76137065345E+02 0.  0.
        -13    1    5    5    0    0 -0.14474622249E+02  0.41872769384E+02  0.10797958261E+03  0.11671518224E+03  0.00000000000E+00 0.  1.
         14    1    5    5    0    0 -0.17909572057E+02 -0.15390118486E+02  0.23781262388E+01  0.23733183577E+02  0.00000000000E+00 0. -1.
         13    1    3    3    0    0  0.43976994391E+02 -0.32140809928E+01 -0.69135034163E+03  0.69275508025E+03  0.00000000000E+00 0. -1.
        -14    1    3    3    0    0  0.27614695629E+01  0.57685443335E+02 -0.91842880164E+03  0.92024273959E+03  0.00000000000E+00 0.  1.
          5    1    4    4  501    0  0.11916312741E+02 -0.89664814921E+02 -0.61472261363E+02  0.10944445560E+03  0.41800000000E+01 0.  1.
         -5    1    4    4    0  501 -0.26270582389E+02  0.87108016799E+01  0.32639621030E+02  0.42998125842E+02  0.41800000000E+01 0.  1.
</event>
<event>
11    1  0.7157190E-009  0.1586199E+03  0.7561462E-02  0.1088383E+00
         22   -1    0    0    0    0  0.00000000000E+00  0.00000000000E+00  0.31346719994E+03  0.31346719994E+03  0.00000000000E+00 0. -1.
         22   -1    0    0    0    0 -0.00000000000E+00 -0.00000000000E+00 -0.80444885125E+03  0.80444885125E+03  0.00000000000E+00 0.  1.
        -24    2    1    2    0    0 -0.76966474440E+02 -0.41950385518E+02 -0.63985337454E+03  0.65090424147E+03  0.81119156959E+02 0.  0.
         25    2    1    2    0    0  0.16045888295E+03  0.32993614754E+01 -0.70653658976E+02  0.21540201294E+03  0.12509256072E+03 0.  0.
         24    2    1    2    0    0 -0.83492408510E+02  0.38651024042E+02  0.21952538220E+03  0.25160979678E+03  0.81554965914E+02 0.  0.
        -11    1    5    5    0    0 -0.60166060709E+02  0.52429547291E+02  0.94530772254E+02  0.12371289017E+03  0.00000000000E+00 0.  1.
         12    1    5    5    0    0 -0.23326347801E+02 -0.13778523249E+02  0.12499460995E+03  0.12789690661E+03  0.00000000000E+00 0. -1.
         13    1    3    3    0    0 -0.71274413845E+02 -0.41181123944E+01 -0.52534165878E+03  0.53017059459E+03  0.00000000000E+00 0. -1.
        -14    1    3    3    0    0 -0.56920605952E+01 -0.37832273123E+02 -0.11451171576E+03  0.12073364688E+03  0.00000000000E+00 0.  1.
          5    1    4    4  501    0 -0.54659993923E+01  0.14936325632E+02  0.20024574648E+02  0.25911907737E+02  0.41800000000E+01 0.  1.
         -5    1    4    4    0  501  0.16592488234E+03 -0.11636964156E+02 -0.90678233624E+02  0.18949010520E+03  0.41800000000E+01 0.  1.
</event>
<event>
11    1  0.1106347E-008  0.1605449E+03  0.7561462E-02  0.1086566E+00
         22   -1    0    0    0    0  0.00000000000E+00  0.00000000000E+00  0.59436951184E+03  0.59436951184E+03  0.00000000000E+00 0.  1.
         22   -1    0    0    0    0 -0.00000000000E+00 -0.00000000000E+00 -0.10143230209E+04  0.10143230209E+04  0.00000000000E+00 0. -1.
         24    2    1    2    0    0  0.95303234240E+02 -0.67914041527E+02 -0.83410397495E+03  0.84523847940E+03  0.70736288613E+02 0.  0.
         25    2    1    2    0    0 -0.33560460101E+02 -0.93974276911E+00 -0.14310368018E+03  0.19301162240E+03  0.12509050924E+03 0.  0.
        -24    2    1    2    0    0 -0.61742774139E+02  0.68853784296E+02  0.55725414609E+03  0.57044243093E+03  0.79494464554E+02 0.  0.
        -13    1    3    3    0    0  0.40497856334E+02 -0.46309198177E+02 -0.22391156924E+03  0.23220897710E+03  0.00000000000E+00 0.  1.
         14    1    3    3    0    0  0.54805377906E+02 -0.21604843350E+02 -0.61019240571E+03  0.61302950230E+03  0.00000000000E+00 0. -1.
         11    1    5    5    0    0 -0.43602506865E+01  0.52896284632E+02  0.37412830014E+03  0.37787433583E+03  0.00000000000E+00 0. -1.
        -12    1    5    5    0    0 -0.57382523453E+02  0.15957499665E+02  0.18312584596E+03  0.19256809510E+03  0.00000000000E+00 0.  1.
          5    1    4    4  501    0  0.40091355386E+02 -0.29264855159E+02 -0.65153410013E+02  0.82013338919E+02  0.41800000000E+01 0. -1.
         -5    1    4    4    0  501 -0.73651815487E+02  0.28325112390E+02 -0.77950270167E+02  0.11099828348E+03  0.41800000000E+01 0. -1.
</event>
<event>
11    1  0.7157190E-009  0.2446040E+03  0.7561462E-02  0.1026814E+00
         22   -1    0    0    0    0  0.00000000000E+00  0.00000000000E+00  0.18482469564E+04  0.18482469564E+04  0.00000000000E+00 0.  1.
         22   -1    0    0    0    0 -0.00000000000E+00 -0.00000000000E+00 -0.21033080264E+03  0.21033080264E+03  0.00000000000E+00 0.  1.
         24    2    1    2    0    0  0.65453875298E+02 -0.10438256987E+03 -0.94716016796E+02  0.17728320693E+03  0.85312841567E+02 0.  0.
         25    2    1    2    0    0 -0.29619427256E+02 -0.11547942136E+03  0.46938747356E+02  0.17906350220E+03  0.12509070544E+03 0.  0.
        -24    2    1    2    0    0 -0.35834448042E+02  0.21986199123E+03  0.16856934232E+04  0.17022310499E+04  0.80030165761E+02 0.  0.
        -13    1    3    3    0    0  0.81696545346E+02 -0.62977056434E+02 -0.51603207427E+02  0.11534004584E+03  0.00000000000E+00 0.  1.
         14    1    3    3    0    0 -0.16242670048E+02 -0.41405513438E+02 -0.43112809369E+02  0.61943161084E+02  0.00000000000E+00 0. -1.
         13    1    5    5    0    0 -0.43663000224E+02  0.15889041649E+03  0.96944058131E+03  0.98334513917E+03  0.00000000000E+00 0. -1.
        -14    1    5    5    0    0  0.78285521813E+01  0.60971574745E+02  0.71625284189E+03  0.71888591075E+03  0.00000000000E+00 0.  1.
          5    1    4    4  501    0 -0.56093018022E+02 -0.51907284906E+02 -0.23896441490E+02  0.80182948393E+02  0.41800000000E+01 0.  1.
         -5    1    4    4    0  501  0.26473590767E+02 -0.63572136453E+02  0.70835188846E+02  0.98880553802E+02  0.41800000000E+01 0.  1.
</event>
<event>
11    1  0.7157190E-009  0.1787726E+03  0.7561462E-02  0.1070640E+00
         22   -1    0    0    0    0  0.00000000000E+00  0.00000000000E+00  0.96609677934E+03  0.96609677934E+03  0.00000000000E+00 0. -1.
         22   -1    0    0    0    0 -0.00000000000E+00 -0.00000000000E+00 -0.87718190796E+03  0.87718190796E+03  0.00000000000E+00 0.  1.
         24    2    1    2    0    0  0.64005851166E+02  0.11334666741E+03 -0.84806025425E+03  0.86202302496E+03  0.83266348089E+02 0.  0.
         25    2    1    2    0    0 -0.38991023990E+02 -0.16477018849E+02  0.25209086776E+03  0.28458501068E+03  0.12508809135E+03 0.  0.
        -24    2    1    2    0    0 -0.25014827176E+02 -0.96869648558E+02  0.68488425787E+03  0.69667065166E+03  0.79209089200E+02 0.  0.
        -13    1    3    3    0    0  0.78779154863E+02  0.11086579477E+03 -0.80555054236E+03  0.81695107319E+03  0.00000000000E+00 0.  1.
         14    1    3    3    0    0 -0.14773303697E+02  0.24808726359E+01 -0.42509711891E+02  0.45071951768E+02  0.00000000000E+00 0. -1.
         11    1    5    5    0    0 -0.47421813769E+02 -0.33332740321E+02  0.38288066839E+03  0.38724347151E+03  0.00000000000E+00 0. -1.
        -12    1    5    5    0    0  0.22406986593E+02 -0.63536908237E+02  0.30200358948E+03  0.30942718014E+03  0.00000000000E+00 0.  1.
          5    1    4    4  501    0 -0.80932875408E+01 -0.10403196170E+02 -0.12170896839E+02  0.18420937100E+02  0.41800000000E+01 0.  1.
         -5    1    4    4    0  501 -0.30897736449E+02 -0.60738226785E+01  0.26426176460E+03  0.26616407358E+03  0.41800000000E+01 0.  1.
</event>
<event>
11    1  0.7157190E-009  0.1918239E+03  0.7561462E-02  0.1060461E+00
         22   -1    0    0    0    0  0.00000000000E+00  0.00000000000E+00  0.20650066988E+03  0.20650066988E+03  0.00000000000E+00 0.  1.
         22   -1    0    0    0    0 -0.00000000000E+00 -0.00000000000E+00 -0.47946991097E+03  0.47946991097E+03  0.00000000000E+00 0. -1.
        -24    2    1    2    0    0 -0.47415253657E+02 -0.81887384706E+01 -0.27508804791E+03  0.29055445807E+03  0.80207214651E+02 0.  0.
         25    2    1    2    0    0 -0.93704382649E+02  0.74291487043E+02 -0.91890527614E+02  0.19592820898E+03  0.12507700681E+03 0.  0.
         24    2    1    2    0    0  0.14111963631E+03 -0.66102748572E+02  0.94009334438E+02  0.19948791381E+03  0.81690560507E+02 0.  0.
        -13    1    5    5    0    0  0.13161970838E+03 -0.82566300449E+02  0.91502728248E+02  0.18031553144E+03  0.00000000000E+00 0.  1.
         14    1    5    5    0    0  0.94999279280E+01  0.16463551878E+02  0.25066061902E+01  0.19172382368E+02  0.00000000000E+00 0. -1.
         11    1    3    3    0    0 -0.12557687656E+02 -0.47354862051E+01 -0.24199229790E+03  0.24236417349E+03  0.00000000000E+00 0. -1.
        -12    1    3    3    0    0 -0.34857566001E+02 -0.34532522655E+01 -0.33095750010E+02  0.48190284575E+02  0.00000000000E+00 0.  1.
          5    1    4    4  501    0 -0.91378456183E+02  0.21670889155E+02 -0.10556031645E+03  0.14135099044E+03  0.41800000000E+01 0.  1.
         -5    1    4    4    0  501 -0.23259264656E+01  0.52620597888E+02  0.13669788833E+02  0.54577218532E+02  0.41800000000E+01 0.  1.
</event>
<event>
11    1  0.7157190E-009  0.2146380E+03  0.7561462E-02  0.1044629E+00
         22   -1    0    0    0    0  0.00000000000E+00  0.00000000000E+00  0.23631040492E+04  0.23631040492E+04  0.00000000000E+00 0.  1.
         22   -1    0    0    0    0 -0.00000000000E+00 -0.00000000000E+00 -0.27882714767E+03  0.27882714767E+03  0.00000000000E+00 0.  1.
        -24    2    1    2    0    0  0.17853134266E+03  0.35162418873E+02 -0.19667138127E+03  0.27986969203E+03  0.80855279935E+02 0.  0.
         25    2    1    2    0    0 -0.13857223411E+03  0.14062542758E+02  0.18373259833E+03  0.26230734602E+03  0.12508979538E+03 0.  0.
         24    2    1    2    0    0 -0.39959108546E+02 -0.49224961632E+02  0.20972156845E+04  0.20997541589E+04  0.81449819431E+02 0.  0.
        -13    1    5    5    0    0 -0.41101407826E+02  0.59200968897E+01  0.12833126634E+04  0.12839843322E+04  0.00000000000E+00 0.  1.
         14    1    5    5    0    0  0.11422992802E+01 -0.55145058521E+02  0.81390302110E+03  0.81576982665E+03  0.00000000000E+00 0. -1.
         11    1    3    3    0    0 -0.83460194592E+00  0.10776066502E+02 -0.36827415697E+02  0.38380707610E+02  0.00000000000E+00 0. -1.
        -12    1    3    3    0    0  0.17936594461E+03  0.24386352371E+02 -0.15984396557E+03  0.24148898442E+03  0.00000000000E+00 0.  1.
          5    1    4    4  501    0 -0.88184224555E+02  0.52741383692E+02  0.50327862208E+02  0.11449225794E+03  0.41800000000E+01 0. -1.
         -5    1    4    4    0  501 -0.50388009560E+02 -0.38678840933E+02  0.13340473612E+03  0.14781508807E+03  0.41800000000E+01 0. -1.
</event>
<event>
11    1  0.7157190E-009  0.1754365E+03  0.7561462E-02  0.1073395E+00
         22   -1    0    0    0    0  0.00000000000E+00  0.00000000000E+00  0.10020165502E+04  0.10020165502E+04  0.00000000000E+00 0.  1.
         22   -1    0    0    0    0 -0.00000000000E+00 -0.00000000000E+00 -0.89900646182E+02  0.89900646182E+02  0.00000000000E+00 0.  1.
         24    2    1    2    0    0  0.10736628110E+03  0.10466653686E+03  0.55175727453E+02  0.17871542462E+03  0.80076462464E+02 0.  0.
         25    2    1    2    0    0 -0.76740461811E+02 -0.87793139400E+01  0.23547988267E+03  0.27760243431E+03  0.12508461758E+03 0.  0.
        -24    2    1    2    0    0 -0.30625819289E+02 -0.95887222917E+02  0.62146029386E+03  0.63559933744E+03  0.87414647359E+02 0.  0.
        -13    1    3    3    0    0  0.76308465554E+02  0.10164542573E+03  0.68958043753E+02  0.14460285711E+03  0.00000000000E+00 0.  1.
         14    1    3    3    0    0  0.31057815546E+02  0.30211111244E+01 -0.13782316300E+02  0.34112567501E+02  0.00000000000E+00 0. -1.
         13    1    5    5    0    0 -0.83237736431E+01  0.28060248568E+01  0.26261856299E+03  0.26276542506E+03  0.00000000000E+00 0. -1.
        -14    1    5    5    0    0 -0.22302045646E+02 -0.98693247773E+02  0.35884173088E+03  0.37283391237E+03  0.00000000000E+00 0.  1.
          5    1    4    4  501    0 -0.29979450149E+02  0.18554165211E+02 -0.44253274442E+00  0.35506234849E+02  0.41800000000E+01 0.  1.
         -5    1    4    4    0  501 -0.46761011662E+02 -0.27333479151E+02  0.23592241542E+03  0.24209619946E+03  0.41800000000E+01 0.  1.
</event>
<event>
11    1  0.7157190E-009  0.1361938E+03  0.7561462E-02  0.1111885E+00
         22   -1    0    0    0    0  0.00000000000E+00  0.00000000000E+00  0.43894879322E+03  0.43894879322E+03  0.00000000000E+00 0.  1.
         22   -1    0    0    0    0 -0.00000000000E+00 -0.00000000000E+00 -0.28689675604E+03  0.28689675604E+03  0.00000000000E+00 0. -1.
        -24    2    1    2    0    0 -0.82883988112E+01 -0.77848301809E+01 -0.19492643514E+03  0.21060705781E+03  0.78928553445E+02 0.  0.
         25    2    1    2    0    0 -0.43049284642E+02 -0.11277975196E+02 -0.19498637243E+02  0.13419695167E+03  0.12509273100E+03 0.  0.
         24    2    1    2    0    0  0.51337683453E+02  0.19062805377E+02  0.36647710956E+03  0.38104153978E+03  0.88815735749E+02 0.  0.
        -11    1    5    5    0    0 -0.84635861015E+01  0.61707300397E+01  0.24314879836E+03  0.24337429680E+03  0.00000000000E+00 0.  1.
         12    1    5    5    0    0  0.59801269554E+02  0.12892075337E+02  0.12332831120E+03  0.13766724298E+03  0.00000000000E+00 0. -1.
         11    1    3    3    0    0 -0.33372860044E+02  0.10500897755E+02 -0.42480696987E+02  0.55032956105E+02  0.00000000000E+00 0. -1.
        -12    1    3    3    0    0  0.25084461233E+02 -0.18285727936E+02 -0.15244573815E+03  0.15557410170E+03  0.00000000000E+00 0.  1.
          5    1    4    4  501    0  0.31525743091E+02  0.29487616029E+02 -0.22885908725E+02  0.49037018616E+02  0.41800000000E+01 0. -1.
         -5    1    4    4    0  501 -0.74575027733E+02 -0.40765591226E+02  0.33872714825E+01  0.85159933052E+02  0.41800000000E+01 0. -1.
</event>
<event>
11    1  0.7157190E-009  0.1518201E+03  0.7561462E-02  0.1095033E+00
         22   -1    0    0    0    0  0.00000000000E+00  0.00000000000E+00  0.64813373834E+03  0.64813373834E+03  0.00000000000E+00 0. -1.
         22   -1    0    0    0    0 -0.00000000000E+00 -0.00000000000E+00 -0.69106885827E+03  0.69106885827E+03  0.00000000000E+00 0. -1.
        -24    2    1    2    0    0  0.66558478428E+02 -0.33347536628E+00 -0.56174599111E+03  0.57159583020E+03  0.82055422215E+02 0.  0.
         25    2    1    2    0    0 -0.14696576487E+03 -0.19920676438E+02 -0.38863910799E+02  0.19786638846E+03  0.12507971350E+03 0.  0.
         24    2    1    2    0    0  0.80407286440E+02  0.20254151804E+02  0.55767478198E+03  0.56974037795E+03  0.82020567147E+02 0.  0.
        -13    1    5    5    0    0  0.79914705894E+01  0.39345445097E+02  0.15212624240E+03  0.15733506055E+03  0.00000000000E+00 0.  1.
         14    1    5    5    0    0  0.72415815851E+02 -0.19091293293E+02  0.40554853958E+03  0.41240531740E+03  0.00000000000E+00 0. -1.
         11    1    3    3    0    0  0.33996425558E+02 -0.39690621611E+02 -0.34343648239E+03  0.34738986720E+03  0.00000000000E+00 0. -1.
        -12    1    3    3    0    0  0.32562052869E+02  0.39357146245E+02 -0.21830950872E+03  0.22420596300E+03  0.00000000000E+00 0.  1.
          5    1    4    4  501    0 -0.62236387272E+02  0.50182155040E+02  0.30251835165E+01  0.80113923387E+02  0.41800000000E+01 0.  1.
         -5    1    4    4    0  501 -0.84729377596E+02 -0.70102831478E+02 -0.41889094316E+02  0.11775246508E+03  0.41800000000E+01 0.  1.
</event>
<event>
11    1  0.7157190E-009  0.1345713E+03  0.7561462E-02  0.1113777E+00
         22   -1    0    0    0    0  0.00000000000E+00  0.00000000000E+00  0.19375762672E+03  0.19375762672E+03  0.00000000000E+00 0. -1.
         22   -1    0    0    0    0 -0.00000000000E+00 -0.00000000000E+00 -0.11030754820E+04  0.11030754820E+04  0.00000000000E+00 0.  1.
        -24    2    1    2    0    0 -0.10072619402E+02 -0.26924225850E+01 -0.10031703824E+04  0.10065035544E+04  0.81178088390E+02 0.  0.
         25    2    1    2    0    0 -0.41179382190E+02  0.14873589151E+00 -0.29177131381E+02  0.13488110770E+03  0.12508335053E+03 0.  0.
         24    2    1    2    0    0  0.51252001592E+02  0.25436866935E+01  0.12302965854E+03  0.15544844661E+03  0.79966772253E+02 0.  0.
        -11    1    5    5    0    0  0.33397973673E+02 -0.36598058763E+02  0.48143900209E+02  0.69084569030E+02  0.00000000000E+00 0.  1.
         12    1    5    5    0    0  0.17854027919E+02  0.39141745457E+02  0.74885758329E+02  0.86363877581E+02  0.00000000000E+00 0. -1.
         13    1    3    3    0    0  0.25306319298E+02  0.16414843468E+02 -0.19364561838E+03  0.19598082151E+03  0.00000000000E+00 0. -1.
        -14    1    3    3    0    0 -0.35378938699E+02 -0.19107266053E+02 -0.80952476406E+03  0.81052273290E+03  0.00000000000E+00 0.  1.
          5    1    4    4  501    0 -0.85754896778E+02  0.29876641953E+01 -0.26656903074E+02  0.89949382101E+02  0.41800000000E+01 0. -1.
         -5    1    4    4    0  501  0.44575514588E+02 -0.28389283037E+01 -0.25202283062E+01  0.44931725601E+02  0.41800000000E+01 0. -1.
</event>
<event>
11    1  0.7157190E-009  0.2021830E+03  0.7561462E-02  0.1052991E+00
         22   -1    0    0    0    0  0.00000000000E+00  0.00000000000E+00  0.70322354646E+03  0.70322354646E+03  0.00000000000E+00 0. -1.
         22   -1    0    0    0    0 -0.00000000000E+00 -0.00000000000E+00 -0.80288939610E+03  0.80288939610E+03  0.00000000000E+00 0. -1.
         24    2    1    2    0    0  0.76228780218E+02 -0.13756781977E+03 -0.74089808536E+03  0.76165037341E+03  0.80284409725E+02 0.  0.
         25    2    1    2    0    0 -0.14707798819E+03  0.17447357577E+03  0.39278579068E+03  0.47116960674E+03  0.12508859942E+03 0.  0.
        -24    2    1    2    0    0  0.70849207970E+02 -0.36905756003E+02  0.24844644505E+03  0.27329296242E+03  0.81128060209E+02 0.  0.
        -13    1    3    3    0    0  0.38417713610E-01 -0.29084945927E+02 -0.47525311152E+02  0.55718854579E+02  0.00000000000E+00 0.  1.
         14    1    3    3    0    0  0.76190362504E+02 -0.10848287384E+03 -0.69337277421E+03  0.70593151883E+03  0.00000000000E+00 0. -1.
         13    1    5    5    0    0  0.81212601567E+02 -0.46867875660E+02  0.17585031383E+03  0.19928727329E+03  0.00000000000E+00 0. -1.
        -14    1    5    5    0    0 -0.10363393597E+02  0.99621196571E+01  0.72596131222E+02  0.74005689128E+02  0.00000000000E+00 0.  1.
          5    1    4    4  501    0 -0.91561455280E+02  0.17072508398E+02  0.13677310615E+03  0.16552741647E+03  0.41800000000E+01 0.  1.
         -5    1    4    4    0  501 -0.55516532908E+02  0.15740106737E+03  0.25601268453E+03  0.30564219028E+03  0.41800000000E+01 0.  1.
</event>
<event>
11    1  0.7157190E-009  0.1337560E+03  0.7561462E-02  0.1114738E+00
         22   -1    0    0    0    0  0.00000000000E+00  0.00000000000E+00  0.13172247512E+03  0.13172247512E+03  0.00000000000E+00 0.  1.
         22   -1    0    0    0    0 -0.00000000000E+00 -0.00000000000E+00 -0.22238307695E+04  0.22238307695E+04  0.00000000000E+00 0.  1.
         24    2    1    2    0    0  0.28454178087E+02 -0.19674118096E+02 -0.21036457031E+04  0.21054781081E+04  0.80722415258E+02 0.  0.
         25    2    1    2    0    0 -0.69051242972E+00  0.57492228009E+02 -0.40113656525E+02  0.14339484713E+03  0.12508854326E+03 0.  0.
        -24    2    1    2    0    0 -0.27763665657E+02 -0.37818109913E+02  0.51651065320E+02  0.10668028932E+03  0.80695854990E+02 0.  0.
        -11    1    3    3    0    0  0.34924609912E+02 -0.45808135999E+02 -0.16731950030E+04  0.16741862595E+04  0.00000000000E+00 0.  1.
         12    1    3    3    0    0 -0.64704318257E+01  0.26134017903E+02 -0.43045070019E+03  0.43129184861E+03  0.00000000000E+00 0. -1.
         11    1    5    5    0    0 -0.30165616307E+02  0.18513369515E+02  0.10634321939E+02  0.36956705224E+02  0.00000000000E+00 0. -1.
        -12    1    5    5    0    0  0.24019506497E+01 -0.56331479428E+02  0.41016743382E+02  0.69723584095E+02  0.00000000000E+00 0.  1.
          5    1    4    4  501    0  0.51295402282E+02  0.36637985988E-02  0.79830631299E+01  0.52080898664E+02  0.41800000000E+01 0.  1.
         -5    1    4    4    0  501 -0.51985914712E+02  0.57488564211E+02 -0.48096719655E+02  0.91313948469E+02  0.41800000000E+01 0.  1.
</event>
<event>
11    1  0.7157190E-009  0.1478875E+03  0.7561462E-02  0.1099057E+00
         22   -1    0    0    0    0  0.00000000000E+00  0.00000000000E+00  0.47224260370E+02  0.47224260370E+02  0.00000000000E+00 0. -1.
         22   -1    0    0    0    0 -0.00000000000E+00 -0.00000000000E+00 -0.30434893795E+04  0.30434893795E+04  0.00000000000E+00 0. -1.
         24    2    1    2    0    0 -0.72185406801E+02 -0.21970036163E+02 -0.16856902882E+04  0.16894506616E+04  0.83656288621E+02 0.  0.
         25    2    1    2    0    0  0.71322515289E+02  0.57824036036E+02 -0.13047188077E+04  0.13139138057E+04  0.12509117138E+03 0.  0.
        -24    2    1    2    0    0  0.86289151205E+00 -0.35853999873E+02 -0.58560232341E+01  0.87349172685E+02  0.79431297812E+02 0.  0.
        -13    1    3    3    0    0 -0.33098655589E+02  0.48257002287E+00 -0.17589945530E+03  0.17898707286E+03  0.00000000000E+00 0.  1.
         14    1    3    3    0    0 -0.39086751212E+02 -0.22452606186E+02 -0.15097908329E+04  0.15104635887E+04  0.00000000000E+00 0. -1.
         13    1    5    5    0    0  0.12199553386E+02 -0.26033611889E+02  0.34140118389E+02  0.44633235761E+02  0.00000000000E+00 0. -1.
        -14    1    5    5    0    0 -0.11336661874E+02 -0.98203879833E+01 -0.39996141623E+02  0.42715936925E+02  0.00000000000E+00 0.  1.
          5    1    4    4  501    0  0.73515647898E+02  0.69372123922E+02 -0.55836351106E+03  0.56745424921E+03  0.41800000000E+01 0.  1.
         -5    1    4    4    0  501 -0.21931326086E+01 -0.11548087886E+02 -0.74635529667E+03  0.74645955646E+03  0.41800000000E+01 0.  1.
</event>
<event>
11    1  0.7157190E-009  0.1379047E+03  0.7561462E-02  0.1109921E+00
         22   -1    0    0    0    0  0.00000000000E+00  0.00000000000E+00  0.24435967397E+04  0.24435967397E+04  0.00000000000E+00 0. -1.
         22   -1    0    0    0    0 -0.00000000000E+00 -0.00000000000E+00 -0.23156697276E+04  0.23156697276E+04  0.00000000000E+00 0. -1.
        -24    2    1    2    0    0  0.45187314253E+02  0.38976394809E+02 -0.21307773912E+04  0.21330936504E+04  0.79468093758E+02 0.  0.
         25    2    1    2    0    0 -0.18297970884E+02 -0.20501298560E+02 -0.16045769815E+03  0.20529492436E+03  0.12507683274E+03 0.  0.
         24    2    1    2    0    0 -0.26889343369E+02 -0.18475096250E+02  0.24191621015E+04  0.24208778926E+04  0.85088963436E+02 0.  0.
        -11    1    5    5    0    0 -0.17786816701E+02 -0.25846087947E+02  0.29151362217E+03  0.29319717430E+03  0.00000000000E+00 0.  1.
         12    1    5    5    0    0 -0.91025266686E+01  0.73709916976E+01  0.21276484793E+04  0.21276807183E+04  0.00000000000E+00 0. -1.
         11    1    3    3    0    0  0.26841196073E+02  0.59557951543E+02 -0.17941941829E+04  0.17953830692E+04  0.00000000000E+00 0. -1.
        -12    1    3    3    0    0  0.18346118180E+02 -0.20581556734E+02 -0.33658320832E+03  0.33771058119E+03  0.00000000000E+00 0.  1.
          5    1    4    4  501    0 -0.25671167606E+02 -0.66874274810E+02 -0.57123102445E+02  0.91715313392E+02  0.41800000000E+01 0.  1.
         -5    1    4    4    0  501  0.73731967223E+01  0.46372976251E+02 -0.10333459571E+03  0.11357961096E+03  0.41800000000E+01 0.  1.
</event>
<event>
11    1  0.7157190E-009  0.2044454E+03  0.7561462E-02  0.1051424E+00
         22   -1    0    0    0    0  0.00000000000E+00  0.00000000000E+00  0.71798603474E+03  0.71798603474E+03  0.00000000000E+00 0.  1.
         22   -1    0    0    0    0 -0.00000000000E+00 -0.00000000000E+00 -0.45903081068E+03  0.45903081068E+03  0.00000000000E+00 0. -1.
        -24    2    1    2    0    0  0.13459579187E+03  0.76780361606E+02 -0.35022885155E+03  0.39092852164E+03  0.78444945374E+02 0.  0.
         25    2    1    2    0    0 -0.22220397213E+03 -0.85374656457E+02  0.14148679780E+03  0.30385681886E+03  0.12508802990E+03 0.  0.
         24    2    1    2    0    0  0.87608180256E+02  0.85942948507E+01  0.46769727781E+03  0.48223150492E+03  0.77829464284E+02 0.  0.
        -11    1    5    5    0    0  0.83854747575E+02  0.34839438401E+02  0.37290869219E+03  0.38380502585E+03  0.00000000000E+00 0.  1.
         12    1    5    5    0    0  0.37534326806E+01 -0.26245143551E+02  0.94788585621E+02  0.98426479063E+02  0.00000000000E+00 0. -1.
         13    1    3    3    0    0  0.11631460360E+03  0.50365847656E+02 -0.32860968233E+03  0.35220750836E+03  0.00000000000E+00 0. -1.
        -14    1    3    3    0    0  0.18281188268E+02  0.26414513951E+02 -0.21619169215E+02  0.38721013278E+02  0.00000000000E+00 0.  1.
          5    1    4    4  501    0 -0.91999922988E+02  0.10836774551E+02  0.10061783018E+03  0.13683143521E+03  0.41800000000E+01 0.  1.
         -5    1    4    4    0  501 -0.13020404914E+03 -0.96211431008E+02  0.40868967622E+02  0.16702538365E+03  0.41800000000E+01 0.  1.
</event>
<event>
11    1  0.7157190E-009  0.1903005E+03  0.7561462E-02  0.1061603E+00
         22   -1    0    0    0    0  0.00000000000E+00  0.00000000000E+00  0.50022257964E+03  0.50022257964E+03  0.00000000000E+00 0.  1.
         22   -1    0    0    0    0 -0.00000000000E+00 -0.00000000000E+00 -0.97001262264E+03  0.97001262264E+03  0.00000000000E+00 0. -1.
         24    2    1    2    0    0  0.44091862061E+02 -0.14337981387E+03 -0.90236443572E+03  0.91818202964E+03  0.79339784334E+02 0.  0.
         25    2    1    2    0    0 -0.25015802266E+02  0.58262859834E+02  0.45310225868E+02  0.14738114684E+03  0.12509130535E+03 0.  0.
        -24    2    1    2    0    0 -0.19076059795E+02  0.85116954041E+02  0.38726416685E+03  0.40467202580E+03  0.78594666597E+02 0.  0.
        -11    1    3    3    0    0  0.98845804002E+01 -0.13379751225E+03 -0.70944865732E+03  0.72202276736E+03  0.00000000000E+00 0.  1.
         12    1    3    3    0    0  0.34207281661E+02 -0.95823016250E+01 -0.19291577840E+03  0.19615926229E+03  0.00000000000E+00 0. -1.
         13    1    5    5    0    0 -0.31800438196E+00  0.56656757273E+02  0.96396942405E+02  0.11181439879E+03  0.00000000000E+00 0. -1.
        -14    1    5    5    0    0 -0.18758055413E+02  0.28460196768E+02  0.29086722444E+03  0.29285762701E+03  0.00000000000E+00 0.  1.
          5    1    4    4  501    0  0.15795629917E+02  0.80497862417E+02  0.56122603676E+02  0.99481791407E+02  0.41800000000E+01 0.  1.
         -5    1    4    4    0  501 -0.40811432182E+02 -0.22235002583E+02 -0.10812377807E+02  0.47899355429E+02  0.41800000000E+01 0.  1.
</event>
<event>
11    1  0.7157190E-009  0.1351642E+03  0.7561462E-02  0.1113082E+00
         22   -1    0    0    0    0  0.00000000000E+00  0.00000000000E+00  0.24068860653E+03  0.24068860653E+03  0.00000000000E+00 0. -1.
         22   -1    0    0    0    0 -0.00000000000E+00 -0.00000000000E+00 -0.10786474381E+04  0.10786474381E+04  0.00000000000E+00 0. -1.
        -24    2    1    2    0    0 -0.86258021246E+01 -0.28557444942E+02 -0.67498362518E+03  0.68060500635E+03  0.82038699909E+02 0.  0.
         25    2    1    2    0    0 -0.38900211516E+02  0.47432062176E+02 -0.37815283096E+03  0.40300096462E+03  0.12508871629E+03 0.  0.
         24    2    1    2    0    0  0.47526013641E+02 -0.18874617234E+02  0.21517762462E+03  0.23573007361E+03  0.81561536993E+02 0.  0.
        -11    1    5    5    0    0  0.47318841885E+02 -0.52102310258E+01  0.46658007701E+02  0.66657250073E+02  0.00000000000E+00 0.  1.
         12    1    5    5    0    0  0.20717175581E+00 -0.13664386209E+02  0.16851961692E+03  0.16907282354E+03  0.00000000000E+00 0. -1.
         13    1    3    3    0    0 -0.34528490814E+02 -0.10421236243E+00 -0.51109717772E+03  0.51226219128E+03  0.00000000000E+00 0. -1.
        -14    1    3    3    0    0  0.25902688689E+02 -0.28453232580E+02 -0.16388644746E+03  0.16834281507E+03  0.00000000000E+00 0.  1.
          5    1    4    4  501    0 -0.36542431534E+02  0.34280810083E+02 -0.39187887986E+02  0.63747048615E+02  0.41800000000E+01 0.  1.
         -5    1    4    4    0  501 -0.23577799825E+01  0.13151252093E+02 -0.33896494298E+03  0.33925391601E+03  0.41800000000E+01 0.  1.
</event>
<event>
11    1  0.7157190E-009  0.1727542E+03  0.7561462E-02  0.1075659E+00
         22   -1    0    0    0    0  0.00000000000E+00  0.00000000000E+00  0.19470272905E+04  0.19470272905E+04  0.00000000000E+00 0.  1.
         22   -1    0    0    0    0 -0.00000000000E+00 -0.00000000000E+00 -0.34265144412E+02  0.34265144412E+02  0.00000000000E+00 0. -1.
         24    2    1    2    0    0  0.16682621738E+03 -0.58485644429E+01  0.54820858099E+03  0.57903052173E+03  0.82936748870E+02 0.  0.
         25    2    1    2    0    0 -0.69839854375E+02  0.61250297711E+02  0.44778416021E+03  0.47411820388E+03  0.12509281708E+03 0.  0.
        -24    2    1    2    0    0 -0.96986363010E+02 -0.55401733268E+02  0.91676940485E+03  0.92814370926E+03  0.92243681175E+02 0.  0.
        -13    1    3    3    0    0  0.12070703792E+03  0.33307194552E+02  0.39208889167E+03  0.41159841737E+03  0.00000000000E+00 0.  1.
         14    1    3    3    0    0  0.46119179468E+02 -0.39155758995E+02  0.15611968932E+03  0.16743210436E+03  0.00000000000E+00 0. -1.
         13    1    5    5    0    0 -0.20030741914E+02 -0.18145081022E+00  0.28482426406E+02  0.34821145299E+02  0.00000000000E+00 0. -1.
        -14    1    5    5    0    0 -0.76955621096E+02 -0.55220282458E+02  0.88828697844E+03  0.89332256396E+03  0.00000000000E+00 0.  1.
          5    1    4    4  501    0 -0.38863123483E+02  0.40851163583E+02  0.52751999324E+02  0.77326617446E+02  0.41800000000E+01 0. -1.
         -5    1    4    4    0  501 -0.30976730892E+02  0.20399134127E+02  0.39503216089E+03  0.39679158643E+03  0.41800000000E+01 0. -1.
</event>
<event>
11    1  0.7157190E-009  0.1305679E+03  0.7561462E-02  0.1118573E+00
         22   -1    0    0    0    0  0.00000000000E+00  0.00000000000E+00  0.10601474314E+03  0.10601474314E+03  0.00000000000E+00 0.  1.
         22   -1    0    0    0    0 -0.00000000000E+00 -0.00000000000E+00 -0.60183171814E+03  0.60183171814E+03  0.00000000000E+00 0.  1.
        -24    2    1    2    0    0  0.20670342240E+02 -0.32672669450E+02 -0.37609823988E+03  0.38650881039E+03  0.80277070802E+02 0.  0.
         25    2    1    2    0    0 -0.31270141941E+00  0.36886011256E+02 -0.17471065887E+03  0.21801653019E+03  0.12508683986E+03 0.  0.
         24    2    1    2    0    0 -0.20357640820E+02 -0.42133418056E+01  0.54991923740E+02  0.10332112069E+03  0.84964442652E+02 0.  0.
        -11    1    5    5    0    0 -0.50528020113E+01  0.29286909310E+02  0.59209494673E+02  0.66249665090E+02  0.00000000000E+00 0.  1.
         12    1    5    5    0    0 -0.15304838809E+02 -0.33500251115E+02 -0.42175709327E+01  0.37071455600E+02  0.00000000000E+00 0. -1.
         11    1    3    3    0    0 -0.93060365563E+01 -0.29414444351E+01 -0.19084185891E+01  0.99446705960E+01  0.00000000000E+00 0. -1.
        -12    1    3    3    0    0  0.29976378796E+02 -0.29731225015E+02 -0.37418982129E+03  0.37656413980E+03  0.00000000000E+00 0.  1.
          5    1    4    4  501    0  0.77127901899E+00 -0.46610686429E+02 -0.62747450768E+02  0.78280686882E+02  0.41800000000E+01 0. -1.
         -5    1    4    4    0  501 -0.10839804384E+01  0.83496697685E+02 -0.11196320810E+03  0.13973584331E+03  0.41800000000E+01 0. -1.
</event>
<event>
11    1  0.7157190E-009  0.1433323E+03  0.7561462E-02  0.1103893E+00
         22   -1    0    0    0    0  0.00000000000E+00  0.00000000000E+00  0.56135612958E+02  0.56135612958E+02  0.00000000000E+00 0. -1.
         22   -1    0    0    0    0 -0.00000000000E+00 -0.00000000000E+00 -0.19009041934E+04  0.19009041934E+04  0.00000000000E+00 0.  1.
        -24    2    1    2    0    0 -0.64863525111E+01  0.46005817615E+01 -0.14696363785E+04  0.14718510430E+04  0.80319172336E+02 0.  0.
         25    2    1    2    0    0 -0.33794037059E+02  0.54178341870E+02 -0.34757946340E+03  0.37486569119E+03  0.12504188654E+03 0.  0.
         24    2    1    2    0    0  0.40280389571E+02 -0.58778923631E+02 -0.27552738521E+02  0.11032307221E+03  0.79589919050E+02 0.  0.
        -13    1    5    5    0    0  0.95487240962E+01 -0.47547649978E+02 -0.50764063923E+02  0.70206462212E+02  0.00000000000E+00 0.  1.
         14    1    5    5    0    0  0.30731665474E+02 -0.11231273653E+02  0.23211325402E+02  0.40116609997E+02  0.00000000000E+00 0. -1.
         13    1    3    3    0    0  0.23871351137E+02  0.62478810372E+01 -0.16264841631E+03  0.16450952784E+03  0.00000000000E+00 0. -1.
        -14    1    3    3    0    0 -0.30357703648E+02 -0.16472992758E+01 -0.13069879622E+04  0.13073415151E+04  0.00000000000E+00 0.  1.
          5    1    4    4  501    0 -0.77630356391E+02  0.30682900750E+02 -0.26980347430E+03  0.28245229646E+03  0.41800000000E+01 0. -1.
         -5    1    4    4    0  501  0.43836319331E+02  0.23495441120E+02 -0.77775989094E+02  0.92413394730E+02  0.41800000000E+01 0. -1.
</event>
<event>
11    1  0.7157190E-009  0.1805736E+03  0.7561462E-02  0.1069180E+00
         22   -1    0    0    0    0  0.00000000000E+00  0.00000000000E+00  0.63185335547E+03  0.63185335547E+03  0.00000000000E+00 0. -1.
         22   -1    0    0    0    0 -0.00000000000E+00 -0.00000000000E+00 -0.48856474967E+03  0.48856474967E+03  0.00000000000E+00 0.  1.
         24    2    1    2    0    0  0.10896705396E+03  0.36737373056E+02 -0.33947841241E+03  0.36718704636E+03  0.79732559841E+02 0.  0.
         25    2    1    2    0    0 -0.18142722748E+03 -0.13536161641E+03  0.10607436444E+02  0.25883901506E+03  0.12508601816E+03 0.  0.
        -24    2    1    2    0    0  0.72460173518E+02  0.98624243359E+02  0.47215958175E+03  0.49439204372E+03  0.80694511116E+02 0.  0.
        -11    1    3    3    0    0  0.34123245082E+02  0.24115556696E+02 -0.23126180181E+03  0.23500633376E+03  0.00000000000E+00 0.  1.
         12    1    3    3    0    0  0.74843808879E+02  0.12621816360E+02 -0.10821661059E+03  0.13218071260E+03  0.00000000000E+00 0. -1.
         11    1    5    5    0    0  0.78194352532E+02  0.62530907427E+02  0.41209116751E+03  0.42407971124E+03  0.00000000000E+00 0. -1.
        -12    1    5    5    0    0 -0.57341790144E+01  0.36093335932E+02  0.60068414248E+02  0.70312332474E+02  0.00000000000E+00 0.  1.
          5    1    4    4  501    0 -0.39504175199E+02  0.22178805860E+02  0.10784073778E+02  0.46757330278E+02  0.41800000000E+01 0. -1.
         -5    1    4    4    0  501 -0.14192305228E+03 -0.15754042227E+03 -0.17663733395E+00  0.21208168478E+03  0.41800000000E+01 0. -1.
</event>
<event>
11    1  0.7157190E-009  0.1586161E+03  0.7561462E-02  0.1088386E+00
         22   -1    0    0    0    0  0.00000000000E+00  0.00000000000E+00  0.75022065516E+03  0.75022065516E+03  0.00000000000E+00 0. -1.
         22   -1    0    0    0    0 -0.00000000000E+00 -0.00000000000E+00 -0.50335675393E+03  0.50335675393E+03  0.00000000000E+00 0. -1.
        -24    2    1    2    0    0 -0.74764192819E+02  0.86190095999E+02 -0.44014942752E+03  0.46165763232E+03  0.79861340851E+02 0.  0.
         25    2    1    2    0    0  0.10211816286E+03  0.17680323398E+02  0.10931502814E+03  0.19579812687E+03  0.12508564301E+03 0.  0.
         24    2    1    2    0    0 -0.27353970037E+02 -0.10387041940E+03  0.57769830060E+03  0.59612164989E+03  0.10044098390E+03 0.  0.
        -13    1    5    5    0    0  0.16533591070E+02  0.94133576742E+01  0.15961310289E+03  0.16074300467E+03  0.00000000000E+00 0.  1.
         14    1    5    5    0    0 -0.43887561107E+02 -0.11328377707E+03  0.41808519771E+03  0.43537864522E+03  0.00000000000E+00 0. -1.
         13    1    3    3    0    0 -0.13163957766E+02  0.45236179290E+02 -0.29508021609E+03  0.29881756245E+03  0.00000000000E+00 0. -1.
        -14    1    3    3    0    0 -0.61600235053E+02  0.40953916709E+02 -0.14506921143E+03  0.16284006988E+03  0.00000000000E+00 0.  1.
          5    1    4    4  501    0  0.42214040164E+02  0.15602897565E+02 -0.22827483902E+02  0.50636370532E+02  0.41800000000E+01 0. -1.
         -5    1    4    4    0  501  0.59904122692E+02  0.20774258335E+01  0.13214251205E+03  0.14516175634E+03  0.41800000000E+01 0. -1.
</event>
<event>
11    1  0.7157190E-009  0.1496244E+03  0.7561462E-02  0.1097263E+00
         22   -1    0    0    0    0  0.00000000000E+00  0.00000000000E+00  0.14851071493E+04  0.14851071493E+04  0.00000000000E+00 0.  1.
         22   -1    0    0    0    0 -0.00000000000E+00 -0.00000000000E+00 -0.13992213177E+03  0.13992213177E+03  0.00000000000E+00 0. -1.
        -24    2    1    2    0    0  0.17438452979E+02 -0.40183030412E+02 -0.93139409151E+02  0.13118035852E+03  0.81329953570E+02 0.  0.
         25    2    1    2    0    0 -0.34846672502E+02  0.11610092019E+03  0.27783568122E+03  0.32792011970E+03  0.12508087341E+03 0.  0.
         24    2    1    2    0    0  0.17408219523E+02 -0.75917889781E+02  0.11604887455E+04  0.11659288029E+04  0.81174336467E+02 0.  0.
        -11    1    5    5    0    0 -0.13997726179E+02 -0.65233469411E+02  0.47793537366E+03  0.48256974963E+03  0.00000000000E+00 0.  1.
         12    1    5    5    0    0  0.31405945703E+02 -0.10684420371E+02  0.68255337183E+03  0.68335905325E+03  0.00000000000E+00 0. -1.
         11    1    3    3    0    0 -0.18143153839E+02  0.17057828969E+02 -0.27506920526E+02  0.37104908532E+02  0.00000000000E+00 0. -1.
        -12    1    3    3    0    0  0.35581606818E+02 -0.57240859381E+02 -0.65632488625E+02  0.94075449983E+02  0.00000000000E+00 0.  1.
          5    1    4    4  501    0  0.36865164574E+01  0.73512051253E+02  0.25588391936E+03  0.26629244201E+03  0.41800000000E+01 0.  1.
         -5    1    4    4    0  501 -0.38533188960E+02  0.42588868940E+02  0.21951761854E+02  0.61627677691E+02  0.41800000000E+01 0.  1.
</event>
<event>
11    1  0.7157190E-009  0.1481003E+03  0.7561462E-02  0.1098836E+00
         22   -1    0    0    0    0  0.00000000000E+00  0.00000000000E+00  0.14580911852E+04  0.14580911852E+04  0.00000000000E+00 0. -1.
         22   -1    0    0    0    0 -0.00000000000E+00 -0.00000000000E+00 -0.35993829490E+03  0.35993829490E+03  0.00000000000E+00 0. -1.
        -24    2    1    2    0    0 -0.10487343201E+02 -0.37743009887E+01 -0.11575138251E+03  0.14116608834E+03  0.80032819701E+02 0.  0.
         25    2    1    2    0    0  0.12097880598E+02  0.83010622394E+02 -0.20444573634E+03  0.25393234493E+03  0.12508578877E+03 0.  0.
         24    2    1    2    0    0 -0.16105373972E+01 -0.79236321406E+02  0.14183500092E+04  0.14229310468E+04  0.82067210809E+02 0.  0.
        -11    1    5    5    0    0  0.24778994444E+02 -0.52913283802E+02  0.43888913801E+03  0.44276121063E+03  0.00000000000E+00 0.  1.
         12    1    5    5    0    0 -0.26389531841E+02 -0.26323037604E+02  0.97946087114E+03  0.98016983620E+03  0.00000000000E+00 0. -1.
         11    1    3    3    0    0 -0.27790434060E+02 -0.18211265689E+02 -0.11379494361E+03  0.11854639435E+03  0.00000000000E+00 0. -1.
        -12    1    3    3    0    0  0.17303090860E+02  0.14436964700E+02 -0.19564389044E+01  0.22619693991E+02  0.00000000000E+00 0.  1.
          5    1    4    4  501    0  0.32930986513E+01  0.23072694979E+02 -0.19005621211E+03  0.19152553332E+03  0.41800000000E+01 0. -1.
         -5    1    4    4    0  501  0.88047819467E+01  0.59937927415E+02 -0.14389524226E+02  0.62406811611E+02  0.41800000000E+01 0. -1.
</event>
<event>
11    1  0.7157190E-009  0.1432344E+03  0.7561462E-02  0.1104000E+00
         22   -1    0    0    0    0  0.00000000000E+00  0.00000000000E+00  0.83592653943E+03  0.83592653943E+03  0.00000000000E+00 0. -1.
         22   -1    0    0    0    0 -0.00000000000E+00 -0.00000000000E+00 -0.12538244639E+04  0.12538244639E+04  0.00000000000E+00 0.  1.
         24    2    1    2    0    0  0.11140758128E+02 -0.37387523773E+02 -0.83760702422E+03  0.84200317951E+03  0.76562940580E+02 0.  0.
         25    2    1    2    0    0  0.12979713321E+02 -0.28441865804E+02 -0.40045469895E+03  0.42069876435E+03  0.12508425849E+03 0.  0.
        -24    2    1    2    0    0 -0.24120471449E+02  0.65829389577E+02  0.82016379873E+03  0.82704905945E+03  0.80163484916E+02 0.  0.
        -11    1    3    3    0    0  0.24672964671E+02 -0.52338823885E+02 -0.42717947510E+03  0.43108051639E+03  0.00000000000E+00 0.  1.
         12    1    3    3    0    0 -0.13532206543E+02  0.14951300112E+02 -0.41042754912E+03  0.41092266312E+03  0.00000000000E+00 0. -1.
         11    1    5    5    0    0  0.70395572714E+01  0.56814079463E+02  0.70739014131E+03  0.70970290052E+03  0.00000000000E+00 0. -1.
        -12    1    5    5    0    0 -0.31160028720E+02  0.90153101138E+01  0.11277365742E+03  0.11734615892E+03  0.00000000000E+00 0.  1.
          5    1    4    4  501    0  0.33456634700E+01 -0.77885107326E+02 -0.22846377887E+03  0.24143416093E+03  0.41800000000E+01 0.  1.
         -5    1    4    4    0  501  0.96340498508E+01  0.49443241522E+02 -0.17199092008E+03  0.17926460342E+03  0.41800000000E+01 0.  1.
</event>
<event>
11    1  0.7157190E-009  0.1428166E+03  0.7561462E-02  0.1104453E+00
         22   -1    0    0    0    0  0.00000000000E+00  0.00000000000E+00  0.11157899643E+03  0.11157899643E+03  0.00000000000E+00 0.  1.
         22   -1    0    0    0    0 -0.00000000000E+00 -0.00000000000E+00 -0.19668003066E+04  0.19668003066E+04  0.00000000000E+00 0.  1.
         24    2    1    2    0    0 -0.65702516165E+02  0.13563338765E+02 -0.17377534407E+04  0.17408927956E+04  0.80124406563E+02 0.  0.
         25    2    1    2    0    0  0.10359255036E+03 -0.56367482738E+02 -0.15601290814E+03  0.23215573610E+03  0.12509016227E+03 0.  0.
        -24    2    1    2    0    0 -0.37890034196E+02  0.42804143972E+02  0.38545038617E+02  0.10533077132E+03  0.79630408470E+02 0.  0.
        -13    1    3    3    0    0 -0.48581755328E+01 -0.24181988673E+02 -0.81200013885E+03  0.81237466475E+03  0.00000000000E+00 0.  1.
         14    1    3    3    0    0 -0.60844340632E+02  0.37745327438E+02 -0.92575330183E+03  0.92851813088E+03  0.00000000000E+00 0. -1.
         13    1    5    5    0    0 -0.10833604552E+02  0.26598422523E+02 -0.22590192666E+02  0.36539839532E+02  0.00000000000E+00 0. -1.
        -14    1    5    5    0    0 -0.27056429644E+02  0.16205721450E+02  0.61135231283E+02  0.68790931792E+02  0.00000000000E+00 0.  1.
          5    1    4    4  501    0  0.97159093507E+02 -0.13314660634E+01 -0.14640107393E+03  0.17576236543E+03  0.41800000000E+01 0.  1.
         -5    1    4    4    0  501  0.64334568542E+01 -0.55036016674E+02 -0.96118342038E+01  0.56393370667E+02  0.41800000000E+01 0.  1.
</event>
<event>
11    1  0.7157190E-009  0.1316669E+03  0.7561462E-02  0.1117238E+00
         22   -1    0    0    0    0  0.00000000000E+00  0.00000000000E+00  0.51904454985E+03  0.51904454985E+03  0.00000000000E+00 0. -1.
         22   -1    0    0    0    0 -0.00000000000E+00 -0.00000000000E+00 -0.18937968726E+03  0.18937968726E+03  0.00000000000E+00 0.  1.
         24    2    1    2    0    0 -0.20527036379E+02 -0.19138992972E+02 -0.12832932195E+03  0.15421378655E+03  0.80782527901E+02 0.  0.
         25    2    1    2    0    0  0.57610241007E+02  0.29052341070E+02  0.72594401046E+02  0.15836645173E+03  0.12508799935E+03 0.  0.
        -24    2    1    2    0    0 -0.37083204628E+02 -0.99133480984E+01  0.38539978350E+03  0.39584399883E+03  0.81768207467E+02 0.  0.
        -11    1    3    3    0    0 -0.28909386043E+02 -0.32022383392E+02 -0.25234827696E+02  0.49979817610E+02  0.00000000000E+00 0.  1.
         12    1    3    3    0    0  0.83823496641E+01  0.12883390420E+02 -0.10309449425E+03  0.10423396894E+03  0.00000000000E+00 0. -1.
         11    1    5    5    0    0 -0.45915402004E+02 -0.35510300564E+02  0.31716778625E+03  0.32243543574E+03  0.00000000000E+00 0. -1.
        -12    1    5    5    0    0  0.88321973758E+01  0.25596952466E+02  0.68231997247E+02  0.73408563086E+02  0.00000000000E+00 0.  1.
          5    1    4    4  501    0  0.47577962787E+02  0.38089262529E+02 -0.20322107742E+02  0.64381013708E+02  0.41800000000E+01 0.  1.
         -5    1    4    4    0  501  0.10032278219E+02 -0.90369214586E+01  0.92916508788E+02  0.93985438027E+02  0.41800000000E+01 0.  1.
</event>
<event>
11    1  0.7157190E-009  0.1322422E+03  0.7561462E-02  0.1116544E+00
         22   -1    0    0    0    0  0.00000000000E+00  0.00000000000E+00  0.12731533316E+04  0.12731533316E+04  0.00000000000E+00 0. -1.
         22   -1    0    0    0    0 -0.00000000000E+00 -0.00000000000E+00 -0.37517258161E+03  0.37517258161E+03  0.00000000000E+00 0. -1.
        -24    2    1    2    0    0 -0.10557559949E+02  0.52594965346E+02 -0.30074285780E+03  0.31606211910E+03  0.81063580958E+02 0.  0.
         25    2    1    2    0    0 -0.31451965994E+02 -0.61032511977E+02  0.14979271414E+02  0.14347983383E+03  0.12509152833E+03 0.  0.
         24    2    1    2    0    0  0.42009525943E+02  0.84375466307E+01  0.11837443364E+04  0.11887839603E+04  0.10060148049E+03 0.  0.
        -13    1    5    5    0    0  0.13547115396E+02  0.50340017869E+02  0.80215080769E+03  0.80384299463E+03  0.00000000000E+00 0.  1.
         14    1    5    5    0    0  0.28462410547E+02 -0.41902471238E+02  0.38159352869E+03  0.38494096567E+03  0.00000000000E+00 0. -1.
         13    1    3    3    0    0 -0.21579437768E+02  0.71836511975E+02 -0.23499780751E+03  0.24667818331E+03  0.00000000000E+00 0. -1.
        -14    1    3    3    0    0  0.11021877819E+02 -0.19241546629E+02 -0.65745050287E+02  0.69383935781E+02  0.00000000000E+00 0.  1.
          5    1    4    4  501    0 -0.37703234542E+02 -0.75580197216E+02 -0.34521403983E+02  0.91340570608E+02  0.41800000000E+01 0. -1.
         -5    1    4    4    0  501  0.62512685483E+01  0.14547685239E+02  0.49500675397E+02  0.52139263219E+02  0.41800000000E+01 0. -1.
</event>
<event>
11    1  0.7157190E-009  0.1911627E+03  0.7561462E-02  0.1060955E+00
         22   -1    0    0    0    0  0.00000000000E+00  0.00000000000E+00  0.87377142371E+03  0.87377142371E+03  0.00000000000E+00 0. -1.
         22   -1    0    0    0    0 -0.00000000000E+00 -0.00000000000E+00 -0.85155899696E+03  0.85155899696E+03  0.00000000000E+00 0.  1.
        -24    2    1    2    0    0 -0.53595102975E+02 -0.12811499933E+03 -0.67543909334E+03  0.69417004959E+03  0.79801007595E+02 0.  0.
         25    2    1    2    0    0  0.26343626547E+02  0.20254333514E+03 -0.74554726802E+02  0.25084742517E+03  0.12509290211E+03 0.  0.
         24    2    1    2    0    0  0.27251476428E+02 -0.74428335811E+02  0.77220624689E+03  0.78031294590E+03  0.79395123679E+02 0.  0.
        -11    1    5    5    0    0 -0.25394019400E+01 -0.37548668371E+01  0.23272972100E+00  0.45389151016E+01  0.00000000000E+00 0.  1.
         12    1    5    5    0    0  0.29790878368E+02 -0.70673468974E+02  0.77197351717E+03  0.77577403080E+03  0.00000000000E+00 0. -1.
         11    1    3    3    0    0 -0.40882993324E+02 -0.39189820654E+02 -0.41115104149E+03  0.41503305905E+03  0.00000000000E+00 0. -1.
        -12    1    3    3    0    0 -0.12712109651E+02 -0.88925178678E+02 -0.26428805185E+03  0.27913699053E+03  0.00000000000E+00 0.  1.
          5    1    4    4  501    0  0.70697353136E+02  0.15545791193E+03 -0.73624702483E+02  0.18601974986E+03  0.41800000000E+01 0.  1.
         -5    1    4    4    0  501 -0.44353726589E+02  0.47085423215E+02 -0.93002431944E+00  0.64827675316E+02  0.41800000000E+01 0.  1.
</event>
<event>
11    1  0.7157190E-009  0.1452358E+03  0.7561462E-02  0.1101849E+00
         22   -1    0    0    0    0  0.00000000000E+00  0.00000000000E+00  0.28179155013E+04  0.28179155013E+04  0.00000000000E+00 0.  1.
         22   -1    0    0    0    0 -0.00000000000E+00 -0.00000000000E+00 -0.64182612630E+02  0.64182612630E+02  0.00000000000E+00 0. -1.
         24    2    1    2    0    0  0.25962784061E+02  0.19712090743E+02  0.77649767321E+00  0.86687223522E+02  0.80320850940E+02 0.  0.
         25    2    1    2    0    0  0.39073123261E+02 -0.56051413480E+02  0.23389658458E+03  0.27391151373E+03  0.12510569596E+03 0.  0.
        -24    2    1    2    0    0 -0.65035907322E+02  0.36339322737E+02  0.25190598064E+04  0.25214993767E+04  0.82137583702E+02 0.  0.
        -13    1    3    3    0    0  0.44743331021E+02  0.39289490768E+02  0.11297491684E+01  0.59555907253E+02  0.00000000000E+00 0.  1.
         14    1    3    3    0    0 -0.18780546960E+02 -0.19577400025E+02 -0.35325149514E+00  0.27131316268E+02  0.00000000000E+00 0. -1.
         13    1    5    5    0    0  0.82449914250E+01  0.14850255845E+02  0.11705819267E+03  0.11828410905E+03  0.00000000000E+00 0. -1.
        -14    1    5    5    0    0 -0.73280898747E+02  0.21489066892E+02  0.24020016138E+04  0.24032152676E+04  0.00000000000E+00 0.  1.
          5    1    4    4  501    0  0.62731379413E+02 -0.83692371547E+02  0.18818784128E+03  0.21534106674E+03  0.41800000000E+01 0.  1.
         -5    1    4    4    0  501 -0.23658256152E+02  0.27640958067E+02  0.45708743301E+02  0.58570446995E+02  0.41800000000E+01 0.  1.
</event>
<event>
11    1  0.7157190E-009  0.1336164E+03  0.7561462E-02  0.1114904E+00
         22   -1    0    0    0    0  0.00000000000E+00  0.00000000000E+00  0.12303006526E+03  0.12303006526E+03  0.00000000000E+00 0. -1.
         22   -1    0    0    0    0 -0.00000000000E+00 -0.00000000000E+00 -0.72423795792E+03  0.72423795792E+03  0.00000000000E+00 0.  1.
         24    2    1    2    0    0  0.81202944209E+00  0.22744973512E+02 -0.35089548187E+03  0.36094228263E+03  0.81447522890E+02 0.  0.
         25    2    1    2    0    0  0.18808120774E+02 -0.64214621705E+02 -0.33409864023E+03  0.36296928412E+03  0.12509011456E+03 0.  0.
        -24    2    1    2    0    0 -0.19620150216E+02  0.41469648192E+02  0.83786229439E+02  0.12335645643E+03  0.78051272150E+02 0.  0.
        -13    1    3    3    0    0  0.84988266854E+01  0.28824828681E+02 -0.34979113133E+03  0.35107967239E+03  0.00000000000E+00 0.  1.
         14    1    3    3    0    0 -0.76867972434E+01 -0.60798551684E+01 -0.11043505323E+01  0.98626102441E+01  0.00000000000E+00 0. -1.
         13    1    5    5    0    0 -0.92667618947E+01  0.53099152800E+02  0.91333865995E+02  0.10605313754E+03  0.00000000000E+00 0. -1.
        -14    1    5    5    0    0 -0.10353388322E+02 -0.11629504607E+02 -0.75476365564E+01  0.17303318894E+02  0.00000000000E+00 0.  1.
          5    1    4    4  501    0 -0.42245270831E+02 -0.68392332075E+02 -0.18610203078E+03  0.20276491869E+03  0.41800000000E+01 0.  1.
         -5    1    4    4    0  501  0.61053391605E+02  0.41777103704E+01 -0.14799660946E+03  0.16020436542E+03  0.41800000000E+01 0.  1.
</event>
<event>
11    1  0.7157190E-009  0.1610399E+03  0.7561462E-02  0.1086103E+00
         22   -1    0    0    0    0  0.00000000000E+00  0.00000000000E+00  0.24824519816E+03  0.24824519816E+03  0.00000000000E+00 0.  1.
         22   -1    0    0    0    0 -0.00000000000E+00 -0.00000000000E+00 -0.11637605919E+04  0.11637605919E+04  0.00000000000E+00 0.  1.
         24    2    1    2    0    0  0.47854348335E+02 -0.89818429989E+02 -0.10620084854E+04  0.10698385232E+04  0.79593051295E+02 0.  0.
         25    2    1    2    0    0 -0.57520233415E+02  0.77016565131E+02 -0.17265101593E+02  0.15870117499E+03  0.12509136923E+03 0.  0.
        -24    2    1    2    0    0  0.96658850798E+01  0.12801864858E+02  0.16375819321E+03  0.18346609182E+03  0.81152596555E+02 0.  0.
        -13    1    3    3    0    0  0.44014469334E+02 -0.97237101486E+02 -0.73361945288E+03  0.74134325994E+03  0.00000000000E+00 0.  1.
         14    1    3    3    0    0  0.38398790009E+01  0.74186714970E+01 -0.32838903249E+03  0.32849526331E+03  0.00000000000E+00 0. -1.
         13    1    5    5    0    0 -0.35070564984E+02  0.11927251053E+02  0.60652029233E+02  0.71069490614E+02  0.00000000000E+00 0. -1.
        -14    1    5    5    0    0  0.44736450064E+02  0.87461380540E+00  0.10310616397E+03  0.11239660121E+03  0.00000000000E+00 0.  1.
          5    1    4    4  501    0  0.21446266004E+02  0.44056004483E+02 -0.46991870671E+02  0.68018983862E+02  0.41800000000E+01 0. -1.
         -5    1    4    4    0  501 -0.78966499419E+02  0.32960560647E+02  0.29726769077E+02  0.90682191132E+02  0.41800000000E+01 0. -1.
</event>
<event>
11    1  0.7157190E-009  0.1302527E+03  0.7561462E-02  0.1118959E+00
         22   -1    0    0    0    0  0.00000000000E+00  0.00000000000E+00  0.45250266887E+03  0.45250266887E+03  0.00000000000E+00 0.  1.
         22   -1    0    0    0    0 -0.00000000000E+00 -0.00000000000E+00 -0.13051798163E+04  0.13051798163E+04  0.00000000000E+00 0.  1.
        -24    2    1    2    0    0  0.20014424929E+02  0.66252377844E+00 -0.10664132113E+04  0.10692875231E+04  0.75747300784E+02 0.  0.
         25    2    1    2    0    0 -0.78626650159E+01 -0.35000363812E+02 -0.21462498592E+03  0.25099404061E+03  0.12508907575E+03 0.  0.
         24    2    1    2    0    0 -0.12151759913E+02  0.34337840033E+02  0.42836104980E+03  0.43740092150E+03  0.80620249454E+02 0.  0.
        -11    1    5    5    0    0 -0.22438135523E+01  0.40814378953E+02  0.42197700345E+03  0.42395216672E+03  0.00000000000E+00 0.  1.
         12    1    5    5    0    0 -0.99079463608E+01 -0.64765389200E+01  0.63840463529E+01  0.13448754786E+02  0.00000000000E+00 0. -1.
         11    1    3    3    0    0  0.36627462769E+02 -0.22921405437E+02 -0.41669790222E+03  0.41893209900E+03  0.00000000000E+00 0. -1.
        -12    1    3    3    0    0 -0.16613037840E+02  0.23583929216E+02 -0.64971530912E+03  0.65035542409E+03  0.00000000000E+00 0.  1.
          5    1    4    4  501    0  0.45224411284E+02 -0.53613435898E+02 -0.14700063107E+03  0.16293037108E+03  0.41800000000E+01 0.  1.
         -5    1    4    4    0  501 -0.53087076299E+02  0.18613072087E+02 -0.67624354846E+02  0.88063669528E+02  0.41800000000E+01 0.  1.
</event>
<event>
11    1  0.7157190E-009  0.1346387E+03  0.7561462E-02  0.1113697E+00
         22   -1    0    0    0    0  0.00000000000E+00  0.00000000000E+00  0.42332695149E+03  0.42332695149E+03  0.00000000000E+00 0.  1.
         22   -1    0    0    0    0 -0.00000000000E+00 -0.00000000000E+00 -0.44014536258E+03  0.44014536258E+03  0.00000000000E+00 0.  1.
        -24    2    1    2    0    0 -0.47317981989E+02  0.57716025478E+01 -0.28833543140E+03  0.30291162326E+03  0.79660703549E+02 0.  0.
         25    2    1    2    0    0  0.55327037642E+02 -0.32808640672E+02 -0.10448078124E+03  0.17522267943E+03  0.12509702531E+03 0.  0.
         24    2    1    2    0    0 -0.80090556532E+01  0.27037038125E+02  0.37599780153E+03  0.38533801138E+03  0.79472572966E+02 0.  0.
        -13    1    5    5    0    0 -0.32129013612E+02  0.37114371100E+02  0.14987894347E+03  0.15771318192E+03  0.00000000000E+00 0.  1.
         14    1    5    5    0    0  0.24119957959E+02 -0.10077332976E+02  0.22611885807E+03  0.22762482946E+03  0.00000000000E+00 0. -1.
         11    1    3    3    0    0 -0.26259964652E+01 -0.18438955012E+02 -0.12496734768E+02  0.22428983464E+02  0.00000000000E+00 0. -1.
        -12    1    3    3    0    0 -0.44691985524E+02  0.24210557560E+02 -0.27583869663E+03  0.28048263979E+03  0.00000000000E+00 0.  1.
          5    1    4    4  501    0  0.95554592251E+02 -0.23423320228E+02 -0.65456481697E+02  0.11824278171E+03  0.41800000000E+01 0. -1.
         -5    1    4    4    0  501 -0.40227554609E+02 -0.93853204444E+01 -0.39024299540E+02  0.56979897721E+02  0.41800000000E+01 0. -1.
</event>
<event>
11    1  0.1532658E-008  0.1692701E+03  0.7561462E-02  0.1078669E+00
         22   -1    0    0    0    0  0.00000000000E+00  0.00000000000E+00  0.70861276594E+03  0.70861276594E+03  0.00000000000E+00 0.  1.
         22   -1    0    0    0    0 -0.00000000000E+00 -0.00000000000E+00 -0.14607831949E+04  0.14607831949E+04  0.00000000000E+00 0.  1.
         24    2    1    2    0    0 -0.25240213965E+02  0.27354022743E+02 -0.12168265191E+04  0.12200888170E+04  0.81022422387E+02 0.  0.
         25    2    1    2    0    0  0.59638075575E+02  0.81946502649E+02 -0.20757224968E+03  0.26268894932E+03  0.12508923175E+03 0.  0.
        -24    2    1    2    0    0 -0.34397861610E+02 -0.10930052539E+03  0.67222833985E+03  0.68661819445E+03  0.80148526642E+02 0.  0.
        -11    1    3    3    0    0 -0.57891020655E+01  0.14287885753E+02 -0.11314521882E+04  0.11315572065E+04  0.00000000000E+00 0.  1.
         12    1    3    3    0    0 -0.19451111900E+02  0.13066136990E+02 -0.85374330856E+02  0.88531610508E+02  0.00000000000E+00 0. -1.
         11    1    5    5    0    0  0.59988395068E+01  0.61487757695E+01  0.99734696369E+01  0.13162963781E+02  0.00000000000E+00 0. -1.
        -12    1    5    5    0    0 -0.40396701116E+02 -0.11544930116E+03  0.66225487021E+03  0.67345523067E+03  0.00000000000E+00 0.  1.
          5    1    4    4  501    0 -0.24219773130E+02 -0.82106350047E+01 -0.62399182175E+01  0.26653722385E+02  0.41800000000E+01 0.  1.
         -5    1    4    4    0  501  0.83857848705E+02  0.90157137654E+02 -0.20133233147E+03  0.23603522693E+03  0.41800000000E+01 0.  1.
</event>
<event>
11    1  0.7157190E-009  0.2033546E+03  0.7561462E-02  0.1052176E+00
         22   -1    0    0    0    0  0.00000000000E+00  0.00000000000E+00  0.71006820010E+03  0.71006820010E+03  0.00000000000E+00 0. -1.
         22   -1    0    0    0    0 -0.00000000000E+00 -0.00000000000E+00 -0.82069330811E+03  0.82069330811E+03  0.00000000000E+00 0. -1.
         24    2    1    2    0    0 -0.17398199044E+02  0.19045834700E+02 -0.50392489583E+03  0.51085747563E+03  0.79809890489E+02 0.  0.
         25    2    1    2    0    0 -0.48477280645E+00 -0.17771939188E+03 -0.26211535713E+03  0.34049414267E+03  0.12508950194E+03 0.  0.
        -24    2    1    2    0    0  0.17882971851E+02  0.15867355718E+03  0.65541514495E+03  0.67940988992E+03  0.80818858282E+02 0.  0.
        -13    1    3    3    0    0  0.46383202293E+01  0.42863677490E+02 -0.39079514455E+03  0.39316619115E+03  0.00000000000E+00 0.  1.
         14    1    3    3    0    0 -0.22036519273E+02 -0.23817842790E+02 -0.11312975128E+03  0.11769128448E+03  0.00000000000E+00 0. -1.
         13    1    5    5    0    0  0.66028567399E+01  0.16140798941E+03  0.64023602604E+03  0.66030167788E+03  0.00000000000E+00 0. -1.
        -14    1    5    5    0    0  0.11280115111E+02 -0.27344322311E+01  0.15179118909E+02  0.19108212041E+02  0.00000000000E+00 0.  1.
          5    1    4    4  501    0 -0.50846970086E+02 -0.15045926545E+03 -0.20663070372E+03  0.26064751111E+03  0.41800000000E+01 0. -1.
         -5    1    4    4    0  501  0.50362197280E+02 -0.27260126424E+02 -0.55484653410E+02  0.79846631560E+02  0.41800000000E+01 0. -1.
</event>
<event>
11    1  0.7157190E-009  0.2574606E+03  0.7561462E-02  0.1019998E+00
         22   -1    0    0    0    0  0.00000000000E+00  0.00000000000E+00  0.28131134688E+04  0.28131134688E+04  0.00000000000E+00 0.  1.
         22   -1    0    0    0    0 -0.00000000000E+00 -0.00000000000E+00 -0.52175678176E+03  0.52175678176E+03  0.00000000000E+00 0.  1.
        -24    2    1    2    0    0  0.21264009564E+03  0.75804373524E+02 -0.47011276536E+03  0.52760763510E+03  0.80010568998E+02 0.  0.
         25    2    1    2    0    0 -0.21306612978E+03 -0.18964272709E+02  0.68566832095E+03  0.72907217456E+03  0.12509344534E+03 0.  0.
         24    2    1    2    0    0  0.42603414198E+00 -0.56840100815E+02  0.20758011314E+04  0.20781904409E+04  0.81818046529E+02 0.  0.
        -11    1    5    5    0    0 -0.22620925234E+02 -0.47490759646E+02  0.63512686203E+03  0.63730150587E+03  0.00000000000E+00 0.  1.
         12    1    5    5    0    0  0.23046959376E+02 -0.93493411693E+01  0.14406742694E+04  0.14408889350E+04  0.00000000000E+00 0. -1.
         13    1    3    3    0    0  0.24717920935E+02  0.71982055740E+01 -0.13410845681E+03  0.13655719668E+03  0.00000000000E+00 0. -1.
        -14    1    3    3    0    0  0.18792217470E+03  0.68606167950E+02 -0.33600430855E+03  0.39105043842E+03  0.00000000000E+00 0.  1.
          5    1    4    4  501    0 -0.20106457911E+03 -0.48953643444E+02  0.64235804949E+03  0.67488129351E+03  0.41800000000E+01 0.  1.
         -5    1    4    4    0  501 -0.12001550668E+02  0.29989370736E+02  0.43310271457E+02  0.54190881052E+02  0.41800000000E+01 0.  1.
</event>
<event>
11    1  0.7157190E-009  0.1455007E+03  0.7561462E-02  0.1101567E+00
         22   -1    0    0    0    0  0.00000000000E+00  0.00000000000E+00  0.30622469664E+03  0.30622469664E+03  0.00000000000E+00 0.  1.
         22   -1    0    0    0    0 -0.00000000000E+00 -0.00000000000E+00 -0.75654920508E+03  0.75654920508E+03  0.00000000000E+00 0.  1.
        -24    2    1    2    0    0  0.69177433016E+01  0.79598272408E+02 -0.36324066905E+03  0.38041599209E+03  0.79929989670E+02 0.  0.
         25    2    1    2    0    0 -0.67724905165E+02 -0.48782427518E+02 -0.35938848855E+03  0.38958432299E+03  0.12509784573E+03 0.  0.
         24    2    1    2    0    0  0.60807161863E+02 -0.30815844889E+02  0.27230464915E+03  0.29277358663E+03  0.83183074280E+02 0.  0.
        -13    1    5    5    0    0  0.54135141906E+02 -0.47773741168E+02  0.12505954009E+03  0.14440509860E+03  0.00000000000E+00 0.  1.
         14    1    5    5    0    0  0.66720199566E+01  0.16957896279E+02  0.14724510906E+03  0.14836848803E+03  0.00000000000E+00 0. -1.
         11    1    3    3    0    0  0.28930111060E+02  0.58757264588E+01 -0.51887266127E+02  0.59697268560E+02  0.00000000000E+00 0. -1.
        -12    1    3    3    0    0 -0.22012367759E+02  0.73722545949E+02 -0.31135340292E+03  0.32071872353E+03  0.00000000000E+00 0.  1.
          5    1    4    4  501    0  0.10276886225E+02 -0.39961713427E+02 -0.30629499604E+02  0.51557652939E+02  0.41800000000E+01 0.  1.
         -5    1    4    4    0  501 -0.78001791390E+02 -0.88207140910E+01 -0.32875898894E+03  0.33802667005E+03  0.41800000000E+01 0.  1.
</event>
<event>
11    1  0.8651188E-009  0.1760081E+03  0.7561462E-02  0.1072918E+00
         22   -1    0    0    0    0  0.00000000000E+00  0.00000000000E+00  0.22098746904E+03  0.22098746904E+03  0.00000000000E+00 0. -1.
         22   -1    0    0    0    0 -0.00000000000E+00 -0.00000000000E+00 -0.22626238614E+04  0.22626238614E+04  0.00000000000E+00 0. -1.
         24    2    1    2    0    0  0.55527012105E+02 -0.51798510392E+02 -0.77476525683E+03  0.78269905748E+03  0.81180518819E+02 0.  0.
         25    2    1    2    0    0 -0.16162747138E+03 -0.11291862235E+02 -0.14506275372E+04  0.14649977270E+04  0.12508853921E+03 0.  0.
        -24    2    1    2    0    0  0.10610045927E+03  0.63090372627E+02  0.18375640168E+03  0.23591454599E+03  0.81557067576E+02 0.  0.
        -11    1    3    3    0    0  0.39960034303E+01 -0.32299504411E+01 -0.45573140846E+00  0.51583247652E+01  0.00000000000E+00 0.  1.
         12    1    3    3    0    0  0.51531008675E+02 -0.48568559951E+02 -0.77430952543E+03  0.77754073272E+03  0.00000000000E+00 0. -1.
         13    1    5    5    0    0  0.16383216265E+02  0.22055601151E+02  0.10824347559E+03  0.11167591202E+03  0.00000000000E+00 0. -1.
        -14    1    5    5    0    0  0.89717243008E+02  0.41034771475E+02  0.75512926097E+02  0.12423863397E+03  0.00000000000E+00 0.  1.
          5    1    4    4  501    0 -0.11331475101E+02 -0.25828783609E+02 -0.62601126733E+03  0.62666028087E+03  0.41800000000E+01 0. -1.
         -5    1    4    4    0  501 -0.15029599628E+03  0.14536921374E+02 -0.82461626989E+03  0.83833744611E+03  0.41800000000E+01 0. -1.
</event>
<event>
11    1  0.7157190E-009  0.1296206E+03  0.7561462E-02  0.1119736E+00
         22   -1    0    0    0    0  0.00000000000E+00  0.00000000000E+00  0.29055935443E+04  0.29055935443E+04  0.00000000000E+00 0. -1.
         22   -1    0    0    0    0 -0.00000000000E+00 -0.00000000000E+00 -0.87094172094E+02  0.87094172094E+02  0.00000000000E+00 0.  1.
         24    2    1    2    0    0  0.29000535448E+02  0.19568989337E+02 -0.23661453547E+00  0.87956195714E+02  0.80698574821E+02 0.  0.
         25    2    1    2    0    0 -0.27371384146E+01 -0.43066248149E+02  0.61127058933E+02  0.14575962483E+03  0.12508859756E+03 0.  0.
        -24    2    1    2    0    0 -0.26263397034E+02  0.23497258812E+02  0.27576089278E+04  0.27589718958E+04  0.79227748819E+02 0.  0.
        -13    1    3    3    0    0  0.40102536053E+01 -0.80752293032E+01 -0.35514449923E+02  0.36641064608E+02  0.00000000000E+00 0.  1.
         14    1    3    3    0    0  0.24990281843E+02  0.27644218640E+02  0.35277835387E+02  0.51315131106E+02  0.00000000000E+00 0. -1.
         13    1    5    5    0    0 -0.32511478728E+02  0.48617953845E+02  0.21780956192E+04  0.21788807283E+04  0.00000000000E+00 0. -1.
        -14    1    5    5    0    0  0.62480816941E+01 -0.25120695032E+02  0.57951330859E+03  0.58009116756E+03  0.00000000000E+00 0.  1.
          5    1    4    4  501    0  0.36620882047E+02 -0.69165638018E+02  0.15362900904E+02  0.79865296647E+02  0.41800000000E+01 0. -1.
         -5    1    4    4    0  501 -0.39358020461E+02  0.26099389868E+02  0.45764158029E+02  0.65894328180E+02  0.41800000000E+01 0. -1.
</event>
<event>
11    1  0.7157190E-009  0.1325968E+03  0.7561462E-02  0.1116119E+00
         22   -1    0    0    0    0  0.00000000000E+00  0.00000000000E+00  0.61374422991E+03  0.61374422991E+03  0.00000000000E+00 0. -1.
         22   -1    0    0    0    0 -0.00000000000E+00 -0.00000000000E+00 -0.71954957753E+03  0.71954957753E+03  0.00000000000E+00 0.  1.
        -24    2    1    2    0    0 -0.25555803037E+02  0.41811137223E+02 -0.63867348627E+03  0.64378879496E+03  0.64489690589E+02 0.  0.
         25    2    1    2    0    0  0.50168365322E+02 -0.75250686421E+02  0.57172744483E+01  0.15446647524E+03  0.12509066336E+03 0.  0.
         24    2    1    2    0    0 -0.24612562284E+02  0.33439549198E+02  0.52715086420E+03  0.53503853725E+03  0.81573408929E+02 0.  0.
        -13    1    5    5    0    0 -0.25940030137E+02 -0.23148930001E+02  0.18538992135E+03  0.18862179371E+03  0.00000000000E+00 0.  1.
         14    1    5    5    0    0  0.13274678529E+01  0.56588479198E+02  0.34176094285E+03  0.34641674354E+03  0.00000000000E+00 0. -1.
         13    1    3    3    0    0  0.10321460501E+02  0.11956028686E+02 -0.36023885323E+02  0.39334456684E+02  0.00000000000E+00 0. -1.
        -14    1    3    3    0    0 -0.35877263538E+02  0.29855108537E+02 -0.60264960094E+03  0.60445433828E+03  0.00000000000E+00 0.  1.
          5    1    4    4  501    0  0.61356417903E+02 -0.10257418595E+03 -0.11304490977E+02  0.12013050219E+03  0.41800000000E+01 0.  1.
         -5    1    4    4    0  501 -0.11188052581E+02  0.27323499525E+02  0.17021765425E+02  0.34335973047E+02  0.41800000000E+01 0.  1.
</event>
<event>
11    1  0.7157190E-009  0.1499474E+03  0.7561462E-02  0.1096933E+00
         22   -1    0    0    0    0  0.00000000000E+00  0.00000000000E+00  0.15685933648E+04  0.15685933648E+04  0.00000000000E+00 0.  1.
         22   -1    0    0    0    0 -0.00000000000E+00 -0.00000000000E+00 -0.31047835377E+03  0.31047835377E+03  0.00000000000E+00 0.  1.
        -24    2    1    2    0    0  0.92484548164E+01  0.30076191490E+02 -0.28234491302E+03  0.29502238763E+03  0.79557828557E+02 0.  0.
         25    2    1    2    0    0 -0.76784988245E+02 -0.72489647079E+02  0.33083000324E+03  0.36911544440E+03  0.12508811654E+03 0.  0.
         24    2    1    2    0    0  0.67536533429E+02  0.42413455589E+02  0.12096299208E+04  0.12149338866E+04  0.80620833420E+02 0.  0.
        -13    1    5    5    0    0  0.66655709063E+02  0.38924786484E+02  0.12087731046E+04  0.12112351303E+04  0.00000000000E+00 0.  1.
         14    1    5    5    0    0  0.88082436512E+00  0.34886691053E+01  0.85681625322E+00  0.36987562478E+01  0.00000000000E+00 0. -1.
         11    1    3    3    0    0 -0.22256964644E+02  0.39510794454E+02 -0.10091714140E+03  0.11063789939E+03  0.00000000000E+00 0. -1.
        -12    1    3    3    0    0  0.31505419461E+02 -0.94346029640E+01 -0.18142777162E+03  0.18438448824E+03  0.00000000000E+00 0.  1.
          5    1    4    4  501    0 -0.65996062623E+02  0.19916206425E+02  0.16606280599E+03  0.17985122600E+03  0.41800000000E+01 0. -1.
         -5    1    4    4    0  501 -0.10788925621E+02 -0.92405853504E+02  0.16476719725E+03  0.18926421840E+03  0.41800000000E+01 0. -1.
</event>
<event>
11    1  0.7157190E-009  0.1945939E+03  0.7561462E-02  0.1058414E+00
         22   -1    0    0    0    0  0.00000000000E+00  0.00000000000E+00  0.11347936037E+04  0.11347936037E+04  0.00000000000E+00 0.  1.
         22   -1    0    0    0    0 -0.00000000000E+00 -0.00000000000E+00 -0.57280209682E+03  0.57280209682E+03  0.00000000000E+00 0. -1.
        -24    2    1    2    0    0 -0.47513136181E+02  0.46026021136E+01 -0.50350701743E+03  0.51210941745E+03  0.80362035717E+02 0.  0.
         25    2    1    2    0    0 -0.60422245856E+02  0.10416888303E+03  0.73463384721E+02  0.18853673571E+03  0.12508887973E+03 0.  0.
         24    2    1    2    0    0  0.10793538204E+03 -0.10877148514E+03  0.99203513958E+03  0.10069495473E+04  0.79576315812E+02 0.  0.
        -11    1    5    5    0    0  0.36910674860E+02 -0.47924377952E+02  0.63477185904E+03  0.63764759621E+03  0.00000000000E+00 0.  1.
         12    1    5    5    0    0  0.71024707176E+02 -0.60847107190E+02  0.35726328054E+03  0.36930195113E+03  0.00000000000E+00 0. -1.
         13    1    3    3    0    0  0.59839677288E+01  0.13635866240E+02 -0.32959292639E+03  0.32992914670E+03  0.00000000000E+00 0. -1.
        -14    1    3    3    0    0 -0.53497103910E+02 -0.90332641264E+01 -0.17391409105E+03  0.18218027075E+03  0.00000000000E+00 0.  1.
          5    1    4    4  501    0 -0.44454122035E+01  0.10567744312E+03  0.14042183434E+02  0.10678079879E+03  0.41800000000E+01 0.  1.
         -5    1    4    4    0  501 -0.55976833652E+02 -0.15085600934E+01  0.59421201287E+02  0.81755936920E+02  0.41800000000E+01 0.  1.
</event>
<event>
11    1  0.7157190E-009  0.1335791E+03  0.7561462E-02  0.1114948E+00
         22   -1    0    0    0    0  0.00000000000E+00  0.00000000000E+00  0.14994489403E+04  0.14994489403E+04  0.00000000000E+00 0. -1.
         22   -1    0    0    0    0 -0.00000000000E+00 -0.00000000000E+00 -0.48731503109E+03  0.48731503109E+03  0.00000000000E+00 0. -1.
         24    2    1    2    0    0  0.37310981318E+02  0.12360774316E+02 -0.46809287165E+03  0.47674264094E+03  0.81410755630E+02 0.  0.
         25    2    1    2    0    0 -0.54640468472E+02 -0.50345225137E+02  0.42112075740E+03  0.44554536379E+03  0.12509099243E+03 0.  0.
        -24    2    1    2    0    0  0.17329487154E+02  0.37984450821E+02  0.10591060234E+04  0.10644759666E+04  0.98287257934E+02 0.  0.
        -13    1    3    3    0    0 -0.23957869938E+02  0.75938899042E+01 -0.81231294444E+02  0.85030405696E+02  0.00000000000E+00 0.  1.
         14    1    3    3    0    0  0.61268851256E+02  0.47668844122E+01 -0.38686157720E+03  0.39171223524E+03  0.00000000000E+00 0. -1.
         11    1    5    5    0    0  0.50244845128E+02 -0.25199765818E+01  0.37131599023E+03  0.37470849916E+03  0.00000000000E+00 0. -1.
        -12    1    5    5    0    0 -0.32915357974E+02  0.40504427403E+02  0.68779003319E+03  0.68976746747E+03  0.00000000000E+00 0.  1.
          5    1    4    4  501    0 -0.95494369705E+01 -0.54123627128E+02  0.59600446654E+02  0.81180320284E+02  0.41800000000E+01 0. -1.
         -5    1    4    4    0  501 -0.45091031501E+02  0.37784019913E+01  0.36152031075E+03  0.36436504350E+03  0.41800000000E+01 0. -1.
</event>
<event>
11    1  0.7157190E-009  0.1423551E+03  0.7561462E-02  0.1104957E+00
         22   -1    0    0    0    0  0.00000000000E+00  0.00000000000E+00  0.29757400451E+03  0.29757400451E+03  0.00000000000E+00 0. -1.
         22   -1    0    0    0    0 -0.00000000000E+00 -0.00000000000E+00 -0.15609644820E+04  0.15609644820E+04  0.00000000000E+00 0. -1.
        -24    2    1    2    0    0  0.47553037047E+02  0.31487793016E+02 -0.15035001051E+04  0.15069550189E+04  0.84546381109E+02 0.  0.
         25    2    1    2    0    0 -0.76821555417E+02  0.29430101573E+02  0.12283700617E+03  0.19366288176E+03  0.12509476180E+03 0.  0.
         24    2    1    2    0    0  0.29268518370E+02 -0.60917894589E+02  0.11727262134E+03  0.15792058592E+03  0.81353596680E+02 0.  0.
        -13    1    5    5    0    0  0.35072182372E+02 -0.26075107738E+02  0.97951435931E+01  0.44787431919E+02  0.00000000000E+00 0.  1.
         14    1    5    5    0    0 -0.58036640013E+01 -0.34842786851E+02  0.10747747775E+03  0.11313315401E+03  0.00000000000E+00 0. -1.
         11    1    3    3    0    0  0.43930608478E+02  0.59348546557E+02 -0.11099983466E+04  0.11124515620E+04  0.00000000000E+00 0. -1.
        -12    1    3    3    0    0  0.36224285688E+01 -0.27860753541E+02 -0.39350175848E+03  0.39450345689E+03  0.00000000000E+00 0.  1.
          5    1    4    4  501    0  0.26677202193E+02  0.24777165114E+02  0.54683205450E+01  0.37053420321E+02  0.41800000000E+01 0. -1.
         -5    1    4    4    0  501 -0.10349875761E+03  0.46529364590E+01  0.11736868563E+03  0.15660946144E+03  0.41800000000E+01 0. -1.
</event>
<event>
11    1  0.7157190E-009  0.1358379E+03  0.7561462E-02  0.1112297E+00
         22   -1    0    0    0    0  0.00000000000E+00  0.00000000000E+00  0.72248865688E+02  0.72248865688E+02  0.00000000000E+00 0.  1.
         22   -1    0    0    0    0 -0.00000000000E+00 -0.00000000000E+00 -0.22500040150E+04  0.22500040150E+04  0.00000000000E+00 0. -1.
         24    2    1    2    0    0 -0.55576974692E+02  0.12630161956E+02 -0.19950911684E+04  0.19976077668E+04  0.82460287295E+02 0.  0.
         25    2    1    2    0    0  0.40209116112E+02  0.42947927321E+02 -0.17492091479E+03  0.22294763928E+03  0.12508807277E+03 0.  0.
        -24    2    1    2    0    0  0.15367858579E+02 -0.55578089277E+02 -0.77430661925E+01  0.10169747459E+03  0.83410587934E+02 0.  0.
        -13    1    3    3    0    0 -0.11630267392E+02 -0.22747752262E+02 -0.12933737130E+04  0.12936260220E+04  0.00000000000E+00 0.  1.
         14    1    3    3    0    0 -0.43946707300E+02  0.35377914218E+02 -0.70171745534E+03  0.70398174481E+03  0.00000000000E+00 0. -1.
         11    1    5    5    0    0 -0.15543336685E+02  0.43646253558E+01 -0.27088183941E+02  0.31534346022E+02  0.00000000000E+00 0. -1.
        -12    1    5    5    0    0  0.30911195264E+02 -0.59942714633E+02  0.19345117749E+02  0.70163128571E+02  0.00000000000E+00 0.  1.
          5    1    4    4  501    0 -0.40058824837E+02  0.39381914308E+02 -0.56517679927E+02  0.79795771606E+02  0.41800000000E+01 0.  1.
         -5    1    4    4    0  501  0.80267940949E+02  0.35660130130E+01 -0.11840323486E+03  0.14315186768E+03  0.41800000000E+01 0.  1.
</event>
<event>
11    1  0.7157190E-009  0.1470829E+03  0.7561462E-02  0.1099897E+00
         22   -1    0    0    0    0  0.00000000000E+00  0.00000000000E+00  0.72678086677E+03  0.72678086677E+03  0.00000000000E+00 0.  1.
         22   -1    0    0    0    0 -0.00000000000E+00 -0.00000000000E+00 -0.33212510757E+03  0.33212510757E+03  0.00000000000E+00 0. -1.
        -24    2    1    2    0    0  0.24805223477E+02  0.39048281005E+01 -0.27809952503E+03  0.29097164172E+03  0.81820557724E+02 0.  0.
         25    2    1    2    0    0  0.30448273128E+01 -0.76664261616E+02  0.85205407819E+02  0.16968766558E+03  0.12508901768E+03 0.  0.
         24    2    1    2    0    0 -0.27850050790E+02  0.72759433515E+02  0.58754987641E+03  0.59824666704E+03  0.81330540744E+02 0.  0.
        -13    1    5    5    0    0  0.93574963154E+01  0.59785455552E+02  0.47820054170E+03  0.48201413000E+03  0.00000000000E+00 0.  1.
         14    1    5    5    0    0 -0.37207547106E+02  0.12973977964E+02  0.10934933471E+03  0.11623253704E+03  0.00000000000E+00 0. -1.
         13    1    3    3    0    0  0.17956446544E+02 -0.32283769880E+02 -0.21296284101E+03  0.21614311792E+03  0.00000000000E+00 0. -1.
        -14    1    3    3    0    0  0.68487769335E+01  0.36188597980E+02 -0.65136684020E+02  0.74828523802E+02  0.00000000000E+00 0.  1.
          5    1    4    4  501    0 -0.36686400474E+02  0.79518474393E+01 -0.68927636343E+01  0.38394093920E+02  0.41800000000E+01 0. -1.
         -5    1    4    4    0  501  0.39731227787E+02 -0.84616109055E+02  0.92098171454E+02  0.13129357166E+03  0.41800000000E+01 0. -1.
</event>
<event>
11    1  0.7157190E-009  0.1289754E+03  0.7561462E-02  0.1120534E+00
         22   -1    0    0    0    0  0.00000000000E+00  0.00000000000E+00  0.30776664281E+03  0.30776664281E+03  0.00000000000E+00 0. -1.
         22   -1    0    0    0    0 -0.00000000000E+00 -0.00000000000E+00 -0.28789195457E+03  0.28789195457E+03  0.00000000000E+00 0. -1.
         24    2    1    2    0    0 -0.26890065608E+02 -0.25211424871E+02 -0.21653162070E+03  0.23204687456E+03  0.74840615029E+02 0.  0.
         25    2    1    2    0    0  0.51804070235E+02  0.87722816047E+01  0.28989502178E+02  0.13874080689E+03  0.12509198873E+03 0.  0.
        -24    2    1    2    0    0 -0.24914004627E+02  0.16439143266E+02  0.20741680676E+03  0.22487091593E+03  0.81573549906E+02 0.  0.
        -13    1    3    3    0    0 -0.27550647684E+02  0.88282633747E+01 -0.27302727302E+02  0.39779584464E+02  0.00000000000E+00 0.  1.
         14    1    3    3    0    0  0.66058207571E+00 -0.34039688245E+02 -0.18922889340E+03  0.19226729009E+03  0.00000000000E+00 0. -1.
         11    1    5    5    0    0 -0.19935455516E+02  0.22757724052E+02  0.21296215980E+03  0.21510048325E+03  0.00000000000E+00 0. -1.
        -12    1    5    5    0    0 -0.49785491104E+01 -0.63185807864E+01 -0.55453530324E+01  0.97704326748E+01  0.00000000000E+00 0.  1.
          5    1    4    4  501    0 -0.15372952201E+01  0.60327439007E+02  0.20899602394E+02  0.64000226203E+02  0.41800000000E+01 0.  1.
         -5    1    4    4    0  501  0.53341365455E+02 -0.51555157403E+02  0.80898997838E+01  0.74740580690E+02  0.41800000000E+01 0.  1.
</event>
<event>
11    1  0.7157190E-009  0.1474924E+03  0.7561462E-02  0.1099469E+00
         22   -1    0    0    0    0  0.00000000000E+00  0.00000000000E+00  0.89737718103E+03  0.89737718103E+03  0.00000000000E+00 0.  1.
         22   -1    0    0    0    0 -0.00000000000E+00 -0.00000000000E+00 -0.99782380398E+03  0.99782380398E+03  0.00000000000E+00 0.  1.
        -24    2    1    2    0    0  0.61180094783E+01  0.44483337581E+02 -0.54053912342E+03  0.54852048858E+03  0.81706701518E+02 0.  0.
         25    2    1    2    0    0 -0.64751449183E+02  0.74635042851E+01 -0.43870597528E+03  0.46082460506E+03  0.12509168564E+03 0.  0.
         24    2    1    2    0    0  0.58633439705E+02 -0.51946841867E+02  0.87879847576E+03  0.88585589137E+03  0.79482983407E+02 0.  0.
        -13    1    5    5    0    0  0.60385571392E+02 -0.33819110406E+02  0.35183351333E+03  0.35857631066E+03  0.00000000000E+00 0.  1.
         14    1    5    5    0    0 -0.17521316877E+01 -0.18127731460E+02  0.52696496243E+03  0.52727958072E+03  0.00000000000E+00 0. -1.
         13    1    3    3    0    0  0.83638016365E+01  0.10064015749E+02 -0.90431991884E+01  0.15906509434E+02  0.00000000000E+00 0. -1.
        -14    1    3    3    0    0 -0.22457921581E+01  0.34419321832E+02 -0.53149592424E+03  0.53261397914E+03  0.00000000000E+00 0.  1.
          5    1    4    4  501    0 -0.74247850683E+02 -0.39924688816E+02 -0.34654672950E+03  0.35667749051E+03  0.41800000000E+01 0. -1.
         -5    1    4    4    0  501  0.94964015003E+01  0.47388193101E+02 -0.92159245773E+02  0.10414711455E+03  0.41800000000E+01 0. -1.
</event>
<event>
11    1  0.7755906E-009  0.1905523E+03  0.7561462E-02  0.1061413E+00
         22   -1    0    0    0    0  0.00000000000E+00  0.00000000000E+00  0.13370208010E+04  0.13370208010E+04  0.00000000000E+00 0. -1.
         22   -1    0    0    0    0 -0.00000000000E+00 -0.00000000000E+00 -0.75503940545E+03  0.75503940545E+03  0.00000000000E+00 0.  1.
         24    2    1    2    0    0 -0.11770609083E+03  0.76551791436E+02 -0.58101648066E+03  0.60308926754E+03  0.80134968889E+02 0.  0.
         25    2    1    2    0    0  0.17547362379E+03 -0.30831815409E+02 -0.86745076121E+02  0.23433130395E+03  0.12507940795E+03 0.  0.
        -24    2    1    2    0    0 -0.57767532957E+02 -0.45719976027E+02  0.12497429523E+04  0.12546396350E+04  0.82678671037E+02 0.  0.
        -11    1    3    3    0    0 -0.11392071995E+03  0.49297794604E+02 -0.53715967239E+03  0.55131544204E+03  0.00000000000E+00 0.  1.
         12    1    3    3    0    0 -0.37853708808E+01  0.27253996832E+02 -0.43856808266E+02  0.51773825503E+02  0.00000000000E+00 0. -1.
         11    1    5    5    0    0 -0.29429106057E+02 -0.60727728242E+02  0.10648764618E+04  0.10670125623E+04  0.00000000000E+00 0. -1.
        -12    1    5    5    0    0 -0.28338426900E+02  0.15007752215E+02  0.18486649057E+03  0.18762707268E+03  0.00000000000E+00 0.  1.
          5    1    4    4  501    0 -0.14971351230E+02 -0.89426403425E+01  0.89406046801E+01  0.20037938666E+02  0.41800000000E+01 0.  1.
         -5    1    4    4    0  501  0.19044497502E+03 -0.21889175066E+02 -0.95685680801E+02  0.21429336529E+03  0.41800000000E+01 0.  1.
</event>
<event>
11    1  0.7157190E-009  0.1636839E+03  0.7561462E-02  0.1083663E+00
         22   -1    0    0    0    0  0.00000000000E+00  0.00000000000E+00  0.64249530800E+03  0.64249530800E+03  0.00000000000E+00 0.  1.
         22   -1    0    0    0    0 -0.00000000000E+00 -0.00000000000E+00 -0.11651668760E+04  0.11651668760E+04  0.00000000000E+00 0. -1.
        -24    2    1    2    0    0 -0.10582733700E+03  0.12686050343E+02 -0.10949153079E+04  0.11030119556E+04  0.80221452666E+02 0.  0.
         25    2    1    2    0    0  0.84535527268E+02  0.11547683762E+02  0.28444174564E+02  0.15406621867E+03  0.12509086417E+03 0.  0.
         24    2    1    2    0    0  0.21291809729E+02 -0.24233734105E+02  0.54379956539E+03  0.55058400973E+03  0.79900997586E+02 0.  0.
        -13    1    5    5    0    0 -0.13959594388E+02  0.21911338390E+02  0.22942667049E+03  0.23089299287E+03  0.00000000000E+00 0.  1.
         14    1    5    5    0    0  0.35251404117E+02 -0.46145072495E+02  0.31437289490E+03  0.31969101685E+03  0.00000000000E+00 0. -1.
         11    1    3    3    0    0 -0.11505131183E+03  0.19093857142E+02 -0.10584620233E+04  0.10648677075E+04  0.00000000000E+00 0. -1.
        -12    1    3    3    0    0  0.92239748341E+01 -0.64078067988E+01 -0.36453284611E+02  0.38144248041E+02  0.00000000000E+00 0.  1.
          5    1    4    4  501    0 -0.19497097482E+02  0.27524891587E+02 -0.18552396905E+02  0.38722348819E+02  0.41800000000E+01 0.  1.
         -5    1    4    4    0  501  0.10403262475E+03 -0.15977207825E+02  0.46996571468E+02  0.11534386985E+03  0.41800000000E+01 0.  1.
</event>
<event>
11    1  0.7157190E-009  0.1356677E+03  0.7561462E-02  0.1112495E+00
         22   -1    0    0    0    0  0.00000000000E+00  0.00000000000E+00  0.18598560701E+03  0.18598560701E+03  0.00000000000E+00 0. -1.
         22   -1    0    0    0    0 -0.00000000000E+00 -0.00000000000E+00 -0.60288154529E+03  0.60288154529E+03  0.00000000000E+00 0. -1.
         24    2    1    2    0    0 -0.92535036474E+01  0.37582062180E+02 -0.51826778646E+03  0.52576125083E+03  0.79532104555E+02 0.  0.
         25    2    1    2    0    0 -0.19593876439E+02  0.19820547966E+02  0.18224023610E+02  0.12944334344E+03  0.12508672994E+03 0.  0.
        -24    2    1    2    0    0  0.28847380087E+02 -0.57402610147E+02  0.83147824574E+02  0.13366255804E+03  0.82612878547E+02 0.  0.
        -11    1    3    3    0    0 -0.11584190042E+02  0.28305507278E+02 -0.59558898378E+02  0.66952651756E+02  0.00000000000E+00 0.  1.
         12    1    3    3    0    0  0.23306863947E+01  0.92765549018E+01 -0.45870888809E+03  0.45880859907E+03  0.00000000000E+00 0. -1.
         13    1    5    5    0    0  0.43407439935E+02 -0.73344274568E+01  0.64894869808E+02  0.78417751787E+02  0.00000000000E+00 0. -1.
        -14    1    5    5    0    0 -0.14560059849E+02 -0.50068182690E+02  0.18252954766E+02  0.55244806257E+02  0.00000000000E+00 0.  1.
          5    1    4    4  501    0  0.40022513423E+02 -0.30060349961E+02  0.48949035342E+01  0.50466411613E+02  0.41800000000E+01 0.  1.
         -5    1    4    4    0  501 -0.59616389862E+02  0.49880897928E+02  0.13329120076E+02  0.78976931824E+02  0.41800000000E+01 0.  1.
</event>
<event>
11    1  0.7157190E-009  0.1483708E+03  0.7561462E-02  0.1098555E+00
         22   -1    0    0    0    0  0.00000000000E+00  0.00000000000E+00  0.86390531385E+03  0.86390531385E+03  0.00000000000E+00 0.  1.
         22   -1    0    0    0    0 -0.00000000000E+00 -0.00000000000E+00 -0.20433774900E+04  0.20433774900E+04  0.00000000000E+00 0.  1.
         24    2    1    2    0    0  0.24147395127E+01 -0.84071513259E+01 -0.19190963492E+04  0.19207851439E+04  0.80051612095E+02 0.  0.
         25    2    1    2    0    0  0.77169763125E+02  0.14898997968E+02 -0.73801388581E+02  0.16513820458E+03  0.12508728622E+03 0.  0.
        -24    2    1    2    0    0 -0.79584502637E+02 -0.64918466425E+01  0.81342556158E+03  0.82135945536E+03  0.81205748270E+02 0.  0.
        -11    1    3    3    0    0 -0.18094445458E+02 -0.47353444579E+01 -0.17834412458E+04  0.17835393211E+04  0.00000000000E+00 0.  1.
         12    1    3    3    0    0  0.20509184971E+02 -0.36718068681E+01 -0.13565510334E+03  0.13724582288E+03  0.00000000000E+00 0. -1.
         11    1    5    5    0    0 -0.63346140577E+02 -0.30593334859E+02  0.34864563235E+03  0.35567184682E+03  0.00000000000E+00 0. -1.
        -12    1    5    5    0    0 -0.16238362060E+02  0.24101488217E+02  0.46477992922E+03  0.46568760854E+03  0.00000000000E+00 0.  1.
          5    1    4    4  501    0  0.86224117048E+02  0.25190751047E+02 -0.10048632620E+03  0.13484860567E+03  0.41800000000E+01 0. -1.
         -5    1    4    4    0  501 -0.90543539233E+01 -0.10291753079E+02  0.26684937614E+02  0.30289598906E+02  0.41800000000E+01 0. -1.
</event>
<event>
11    1  0.7157190E-009  0.1494902E+03  0.7561462E-02  0.1097401E+00
         22   -1    0    0    0    0  0.00000000000E+00  0.00000000000E+00  0.11279465398E+04  0.11279465398E+04  0.00000000000E+00 0. -1.
         22   -1    0    0    0    0 -0.00000000000E+00 -0.00000000000E+00 -0.24854147466E+04  0.24854147466E+04  0.00000000000E+00 0.  1.
         24    2    1    2    0    0 -0.32894005270E+02 -0.74552969826E+02 -0.23994262403E+04  0.24023495752E+04  0.86006035527E+02 0.  0.
         25    2    1    2    0    0  0.73926841802E+02  0.81287814445E+02  0.95987531580E+00  0.16648391459E+03  0.12507232204E+03 0.  0.
        -24    2    1    2    0    0 -0.41032836532E+02 -0.67348446187E+01  0.10409981581E+04  0.10445277965E+04  0.75047322781E+02 0.  0.
        -13    1    3    3    0    0 -0.36161252373E+02 -0.18328032063E+02 -0.17546568919E+04  0.17551251696E+04  0.00000000000E+00 0.  1.
         14    1    3    3    0    0  0.32672471033E+01 -0.56224937763E+02 -0.64476934840E+03  0.64722440557E+03  0.00000000000E+00 0. -1.
         11    1    5    5    0    0 -0.59704558949E+02 -0.18020476685E+02  0.85073540918E+03  0.85301823449E+03  0.00000000000E+00 0. -1.
        -12    1    5    5    0    0  0.18671722417E+02  0.11285632066E+02  0.19026274895E+03  0.19150956203E+03  0.00000000000E+00 0.  1.
          5    1    4    4  501    0  0.39866073895E+02  0.68765534931E+02 -0.57050780678E+02  0.97929906658E+02  0.41800000000E+01 0. -1.
         -5    1    4    4    0  501  0.34060767907E+02  0.12522279514E+02  0.58010655994E+02  0.68554007931E+02  0.41800000000E+01 0. -1.
</event>
<event>
11    1  0.7157190E-009  0.1523878E+03  0.7561462E-02  0.1094464E+00
         22   -1    0    0    0    0  0.00000000000E+00  0.00000000000E+00  0.52928934258E+03  0.52928934258E+03  0.00000000000E+00 0. -1.
         22   -1    0    0    0    0 -0.00000000000E+00 -0.00000000000E+00 -0.16956868309E+03  0.16956868309E+03  0.00000000000E+00 0. -1.
        -24    2    1    2    0    0 -0.20757143180E+02  0.67351991000E+01 -0.95604812299E+02  0.12576818871E+03  0.78747287296E+02 0.  0.
         25    2    1    2    0    0 -0.97637163074E+01 -0.88325275039E+02  0.67309538408E+02  0.16755684081E+03  0.12509211236E+03 0.  0.
         24    2    1    2    0    0  0.30520859487E+02  0.81590075939E+02  0.38801593339E+03  0.40553299615E+03  0.79449248260E+02 0.  0.
        -13    1    5    5    0    0 -0.16437892533E+02  0.18315056194E+02  0.29296619516E+02  0.38261436321E+02  0.00000000000E+00 0.  1.
         14    1    5    5    0    0  0.46958752021E+02  0.63275019745E+02  0.35871931387E+03  0.36727155983E+03  0.00000000000E+00 0. -1.
         13    1    3    3    0    0 -0.51025343241E+02  0.31448521062E+01 -0.63053134800E+02  0.81173724540E+02  0.00000000000E+00 0. -1.
        -14    1    3    3    0    0  0.30268200061E+02  0.35903469938E+01 -0.32551677499E+02  0.44594464169E+02  0.00000000000E+00 0.  1.
          5    1    4    4  501    0  0.40666903018E+02 -0.20601201811E+02 -0.16358057548E+02  0.48613423700E+02  0.41800000000E+01 0. -1.
         -5    1    4    4    0  501 -0.50430619325E+02 -0.67724073229E+02  0.83667595956E+02  0.11894341711E+03  0.41800000000E+01 0. -1.
</event>
<event>
11    1  0.7157190E-009  0.1435492E+03  0.7561462E-02  0.1103659E+00
         22   -1    0    0    0    0  0.00000000000E+00  0.00000000000E+00  0.28967186424E+04  0.28967186424E+04  0.00000000000E+00 0. -1.
         22   -1    0    0    0    0 -0.00000000000E+00 -0.00000000000E+00 -0.16171836061E+03  0.16171836061E+03  0.00000000000E+00 0. -1.
         24    2    1    2    0    0 -0.69427652950E+02 -0.44113182604E+01 -0.13494440598E+03  0.17255120382E+03  0.82001625059E+02 0.  0.
         25    2    1    2    0    0  0.13472205136E+03  0.35255898101E+02  0.14642799373E+04  0.14761966974E+04  0.12509174631E+03 0.  0.
        -24    2    1    2    0    0 -0.65294398407E+02 -0.30844579840E+02  0.14056647504E+04  0.14096891018E+04  0.78199913972E+02 0.  0.
        -11    1    3    3    0    0  0.16464945082E+02 -0.11879893312E+02 -0.17159265974E+02  0.26583203163E+02  0.00000000000E+00 0.  1.
         12    1    3    3    0    0 -0.85892598033E+02  0.74685750512E+01 -0.11778514001E+03  0.14596800066E+03  0.00000000000E+00 0. -1.
         11    1    5    5    0    0 -0.47919951910E+02 -0.14823896064E+02  0.13161998871E+04  0.13171553486E+04  0.00000000000E+00 0. -1.
        -12    1    5    5    0    0 -0.17374446497E+02 -0.16020683776E+02  0.89464863379E+02  0.92533753189E+02  0.00000000000E+00 0.  1.
          5    1    4    4  501    0  0.87379474609E+02  0.62269529712E+02  0.55605015280E+03  0.56632315134E+03  0.41800000000E+01 0. -1.
         -5    1    4    4    0  501  0.47342576748E+02 -0.27013631611E+02  0.90822978451E+03  0.90987354601E+03  0.41800000000E+01 0. -1.
</event>
<event>
11    1  0.7157190E-009  0.1377543E+03  0.7561462E-02  0.1110092E+00
         22   -1    0    0    0    0  0.00000000000E+00  0.00000000000E+00  0.20919514850E+03  0.20919514850E+03  0.00000000000E+00 0.  1.
         22   -1    0    0    0    0 -0.00000000000E+00 -0.00000000000E+00 -0.21514495418E+03  0.21514495418E+03  0.00000000000E+00 0. -1.
        -24    2    1    2    0    0 -0.43155369247E+01 -0.22160851701E+02 -0.95497379298E+02  0.12974933123E+03  0.84884700005E+02 0.  0.
         25    2    1    2    0    0  0.61065756023E+02  0.19648015027E+02 -0.19610594604E+02  0.14193576634E+03  0.12508443265E+03 0.  0.
         24    2    1    2    0    0 -0.56750219099E+02  0.25128366738E+01  0.10915816822E+03  0.15265500512E+03  0.90339045727E+02 0.  0.
        -11    1    5    5    0    0 -0.41207022589E+02  0.15872960292E+02  0.12112356412E+03  0.12892202048E+03  0.00000000000E+00 0.  1.
         12    1    5    5    0    0 -0.15543196509E+02 -0.13360123618E+02 -0.11965395901E+02  0.23732984639E+02  0.00000000000E+00 0. -1.
         11    1    3    3    0    0 -0.24683372673E+02 -0.43316380068E+02 -0.85038989247E+02  0.98575896450E+02  0.00000000000E+00 0. -1.
        -12    1    3    3    0    0  0.20367835748E+02  0.21155528367E+02 -0.10458390050E+02  0.31173434780E+02  0.00000000000E+00 0.  1.
          5    1    4    4  501    0  0.73606776833E+01 -0.15602543491E+02 -0.62241812104E+02  0.64723523648E+02  0.41800000000E+01 0. -1.
         -5    1    4    4    0  501  0.53705078340E+02  0.35250558518E+02  0.42631217500E+02  0.77212242688E+02  0.41800000000E+01 0. -1.
</event>
<event>
11    1  0.7157190E-009  0.2148405E+03  0.7561462E-02  0.1044499E+00
         22   -1    0    0    0    0  0.00000000000E+00  0.00000000000E+00  0.14937025026E+04  0.14937025026E+04  0.00000000000E+00 0.  1.
         22   -1    0    0    0    0 -0.00000000000E+00 -0.00000000000E+00 -0.44520303664E+03  0.44520303664E+03  0.00000000000E+00 0. -1.
         24    2    1    2    0    0  0.22620723680E+01  0.17521801327E+03 -0.40416815306E+03  0.44872388400E+03  0.85409361193E+02 0.  0.
         25    2    1    2    0    0  0.26968993244E+02 -0.15805109363E+03  0.65330563932E+03  0.68422415985E+03  0.12508784020E+03 0.  0.
        -24    2    1    2    0    0 -0.29231065612E+02 -0.17166919645E+02  0.79936197967E+03  0.80595749536E+03  0.97153237013E+02 0.  0.
        -13    1    3    3    0    0  0.11794072625E+02  0.56942405285E+02 -0.55373637448E+02  0.80298053482E+02  0.00000000000E+00 0.  1.
         14    1    3    3    0    0 -0.95320002568E+01  0.11827560799E+03 -0.34879451561E+03  0.36842583052E+03  0.00000000000E+00 0. -1.
         11    1    5    5    0    0  0.29072852459E+02  0.51964611463E+01  0.45656474143E+03  0.45751895816E+03  0.00000000000E+00 0. -1.
        -12    1    5    5    0    0 -0.58303918072E+02 -0.22363380792E+02  0.34279723824E+03  0.34843853720E+03  0.00000000000E+00 0.  1.
          5    1    4    4  501    0  0.65724368291E+02 -0.82244907961E+02  0.47561134376E+03  0.48714221761E+03  0.41800000000E+01 0. -1.
         -5    1    4    4    0  501 -0.38755375047E+02 -0.75806185667E+02  0.17769429556E+03  0.19708194224E+03  0.41800000000E+01 0. -1.
</event>
<event>
11    1  0.7157190E-009  0.1628068E+03  0.7561462E-02  0.1084467E+00
         22   -1    0    0    0    0  0.00000000000E+00  0.00000000000E+00  0.41940550114E+03  0.41940550114E+03  0.00000000000E+00 0. -1.
         22   -1    0    0    0    0 -0.00000000000E+00 -0.00000000000E+00 -0.27169888667E+03  0.27169888667E+03  0.00000000000E+00 0. -1.
        -24    2    1    2    0    0  0.10001252553E+03 -0.13782744064E+02 -0.19668325114E+03  0.23434519077E+03  0.77723213125E+02 0.  0.
         25    2    1    2    0    0 -0.14255873917E+03 -0.16692008192E+02  0.16005038668E+03  0.24872630318E+03  0.12508809042E+03 0.  0.
         24    2    1    2    0    0  0.42546213643E+02  0.30474752256E+02  0.18433947892E+03  0.20803289386E+03  0.80979939606E+02 0.  0.
        -11    1    5    5    0    0  0.77061059274E+01  0.17416768734E+02 -0.92631259231E+00  0.19067930059E+02  0.00000000000E+00 0.  1.
         12    1    5    5    0    0  0.34840107716E+02  0.13057983521E+02  0.18526579152E+03  0.18896496380E+03  0.00000000000E+00 0. -1.
         11    1    3    3    0    0  0.32106211356E+02  0.24232484265E+02 -0.29330438560E+02  0.49782494187E+02  0.00000000000E+00 0. -1.
        -12    1    3    3    0    0  0.67906314173E+02 -0.38015228329E+02 -0.16735281258E+03  0.18456269658E+03  0.00000000000E+00 0.  1.
          5    1    4    4  501    0 -0.16265482379E+02 -0.10893656253E+02 -0.20252578399E+02  0.28475902012E+02  0.41800000000E+01 0.  1.
         -5    1    4    4    0  501 -0.12629325679E+03 -0.57983519385E+01  0.18030296508E+03  0.22025040117E+03  0.41800000000E+01 0.  1.
</event>
<event>
11    1  0.7157190E-009  0.1601023E+03  0.7561462E-02  0.1086981E+00
         22   -1    0    0    0    0  0.00000000000E+00  0.00000000000E+00  0.63149625080E+03  0.63149625080E+03  0.00000000000E+00 0. -1.
         22   -1    0    0    0    0 -0.00000000000E+00 -0.00000000000E+00 -0.24956282079E+04  0.24956282079E+04  0.00000000000E+00 0.  1.
        -24    2    1    2    0    0  0.54064469266E+02 -0.38599627759E+02 -0.20579599164E+04  0.20605402466E+04  0.78830148270E+02 0.  0.
         25    2    1    2    0    0  0.15223777230E+02 -0.34693332078E+02 -0.42016308512E+03  0.44002374635E+03  0.12509391900E+03 0.  0.
         24    2    1    2    0    0 -0.69288246495E+02  0.73292959837E+02  0.61399104446E+03  0.62656046571E+03  0.73622655873E+02 0.  0.
        -11    1    5    5    0    0 -0.43809702884E+02  0.32845323862E+02  0.14258738055E+03  0.15273921061E+03  0.00000000000E+00 0.  1.
         12    1    5    5    0    0 -0.25478543611E+02  0.40447635974E+02  0.47140366391E+03  0.47382125511E+03  0.00000000000E+00 0. -1.
         13    1    3    3    0    0  0.50445190160E+01 -0.45287312404E+02 -0.59427486582E+03  0.59601929833E+03  0.00000000000E+00 0. -1.
        -14    1    3    3    0    0  0.49019950250E+02  0.66876846450E+01 -0.14636850506E+04  0.14645209483E+04  0.00000000000E+00 0.  1.
          5    1    4    4  501    0  0.67241446171E+02 -0.35846761990E+02 -0.20874963205E+03  0.22226174594E+03  0.41800000000E+01 0. -1.
         -5    1    4    4    0  501 -0.52017668941E+02  0.11534299124E+01 -0.21141345307E+03  0.21776200041E+03  0.41800000000E+01 0. -1.
</event>
<event>
11    1  0.7157190E-009  0.1682435E+03  0.7561462E-02  0.1079570E+00
         22   -1    0    0    0    0  0.00000000000E+00  0.00000000000E+00  0.19361011611E+04  0.19361011611E+04  0.00000000000E+00 0.  1.
         22   -1    0    0    0    0 -0.00000000000E+00 -0.00000000000E+00 -0.53227194462E+03  0.53227194462E+03  0.00000000000E+00 0.  1.
        -24    2    1    2    0    0  0.99839317271E+02 -0.58398162927E+02 -0.49809488605E+03  0.51829201746E+03  0.84556875219E+02 0.  0.
         25    2    1    2    0    0 -0.55346683934E+02 -0.58652672923E+00  0.18615852247E+03  0.23100432538E+03  0.12507758959E+03 0.  0.
         24    2    1    2    0    0 -0.44492633336E+02  0.58984689657E+02  0.17157655801E+04  0.17190767629E+04  0.76906455309E+02 0.  0.
        -11    1    5    5    0    0 -0.41574933590E+02  0.76197174353E+02  0.12658297913E+04  0.12688024058E+04  0.00000000000E+00 0.  1.
         12    1    5    5    0    0 -0.29176997462E+01 -0.17212484697E+02  0.44993578886E+03  0.45027435714E+03  0.00000000000E+00 0. -1.
         13    1    3    3    0    0 -0.14005958266E+02  0.75399899227E+00 -0.33728164592E+02  0.36528406318E+02  0.00000000000E+00 0. -1.
        -14    1    3    3    0    0  0.11384527554E+03 -0.59152161920E+02 -0.46436672146E+03  0.48176361115E+03  0.00000000000E+00 0.  1.
          5    1    4    4  501    0 -0.36042838150E+02  0.25161608018E+00  0.20227165636E+03  0.20550047411E+03  0.41800000000E+01 0. -1.
         -5    1    4    4    0  501 -0.19303845784E+02 -0.83814280940E+00 -0.16113133894E+02  0.25503851264E+02  0.41800000000E+01 0. -1.
</event>
<event>
11    1  0.7157190E-009  0.2208796E+03  0.7561462E-02  0.1040668E+00
         22   -1    0    0    0    0  0.00000000000E+00  0.00000000000E+00  0.38097918674E+03  0.38097918674E+03  0.00000000000E+00 0.  1.
         22   -1    0    0    0    0 -0.00000000000E+00 -0.00000000000E+00 -0.13781173441E+04  0.13781173441E+04  0.00000000000E+00 0. -1.
        -24    2    1    2    0    0 -0.13310243152E+03 -0.11262235652E+03 -0.72677414859E+03  0.75135809690E+03  0.77060198896E+02 0.  0.
         25    2    1    2    0    0  0.19709246472E+03  0.61805370805E+02 -0.60632061664E+03  0.65263883817E+03  0.12508964551E+03 0.  0.
         24    2    1    2    0    0 -0.63990033203E+02  0.50816985713E+02  0.33595660785E+03  0.35509959578E+03  0.80943129286E+02 0.  0.
        -11    1    5    5    0    0 -0.52911489629E+02  0.39103121954E+01  0.25837209486E+03  0.26376325688E+03  0.00000000000E+00 0.  1.
         12    1    5    5    0    0 -0.11078543574E+02  0.46906673517E+02  0.77584512990E+02  0.91336338902E+02  0.00000000000E+00 0. -1.
         11    1    3    3    0    0 -0.48293189054E+02 -0.27448650893E+02 -0.38666368777E+03  0.39063341893E+03  0.00000000000E+00 0. -1.
        -12    1    3    3    0    0 -0.84809242465E+02 -0.85173705625E+02 -0.34011046082E+03  0.36072467797E+03  0.00000000000E+00 0.  1.
          5    1    4    4  501    0  0.22335990091E+01 -0.13673244684E+02 -0.15038314827E+03  0.15107782851E+03  0.41800000000E+01 0. -1.
         -5    1    4    4    0  501  0.19485886571E+03  0.75478615489E+02 -0.45593746837E+03  0.50156100965E+03  0.41800000000E+01 0. -1.
</event>
<event>
11    1  0.7157190E-009  0.1326295E+03  0.7561462E-02  0.1116080E+00
         22   -1    0    0    0    0  0.00000000000E+00  0.00000000000E+00  0.10210030637E+04  0.10210030637E+04  0.00000000000E+00 0. -1.
         22   -1    0    0    0    0 -0.00000000000E+00 -0.00000000000E+00 -0.47630441591E+03  0.47630441591E+03  0.00000000000E+00 0. -1.
        -24    2    1    2    0    0 -0.41970330146E+02 -0.12100807281E+02 -0.40004303246E+03  0.40985966344E+03  0.77734019191E+02 0.  0.
         25    2    1    2    0    0  0.59956666420E+02  0.51373770791E+02  0.99329279324E+01  0.14825682335E+03  0.12508939379E+03 0.  0.
         24    2    1    2    0    0 -0.17986336273E+02 -0.39272963509E+02  0.93480875235E+03  0.93919099285E+03  0.79664569484E+02 0.  0.
        -11    1    5    5    0    0  0.10541520767E+02 -0.45160475181E+02  0.28656534434E+03  0.29029345283E+03  0.00000000000E+00 0.  1.
         12    1    5    5    0    0 -0.28527857041E+02  0.58875116718E+01  0.64824340801E+03  0.64889754002E+03  0.00000000000E+00 0. -1.
         11    1    3    3    0    0 -0.25530968483E+02 -0.18436991033E+02 -0.38612533728E+03  0.38740744583E+03  0.00000000000E+00 0. -1.
        -12    1    3    3    0    0 -0.16439361663E+02  0.63361837515E+01 -0.13917695181E+02  0.22452217609E+02  0.00000000000E+00 0.  1.
          5    1    4    4  501    0  0.13433823809E+02 -0.37024738516E+02 -0.19342190818E+02  0.44078244406E+02  0.41800000000E+01 0.  1.
         -5    1    4    4    0  501  0.46522842610E+02  0.88398509306E+02  0.29275118751E+02  0.10417857894E+03  0.41800000000E+01 0.  1.
</event>
<event>
11    1  0.7594836E-009  0.1850398E+03  0.7561462E-02  0.1065638E+00
         22   -1    0    0    0    0  0.00000000000E+00  0.00000000000E+00  0.60079213564E+03  0.60079213564E+03  0.00000000000E+00 0. -1.
         22   -1    0    0    0    0 -0.00000000000E+00 -0.00000000000E+00 -0.98098255839E+03  0.98098255839E+03  0.00000000000E+00 0. -1.
        -24    2    1    2    0    0  0.24780559123E+02  0.22617457475E+01 -0.76790621636E+03  0.77244767782E+03  0.79851526288E+02 0.  0.
         25    2    1    2    0    0 -0.15734050185E+03  0.23757808097E+02 -0.14825128427E+03  0.25088602234E+03  0.12507951851E+03 0.  0.
         24    2    1    2    0    0  0.13255994273E+03 -0.26019553845E+02  0.53596707788E+03  0.55844099387E+03  0.79664794437E+02 0.  0.
        -11    1    5    5    0    0  0.52384923508E+01 -0.23531085398E+02  0.43055966770E+02  0.49345415761E+02  0.00000000000E+00 0.  1.
         12    1    5    5    0    0  0.12732145038E+03 -0.24884684464E+01  0.49291111111E+03  0.50909557811E+03  0.00000000000E+00 0. -1.
         13    1    3    3    0    0 -0.24665376369E+02  0.15337179858E+02 -0.18082501671E+03  0.18314283099E+03  0.00000000000E+00 0. -1.
        -14    1    3    3    0    0  0.49445935492E+02 -0.13075434110E+02 -0.58708119965E+03  0.58930484683E+03  0.00000000000E+00 0.  1.
          5    1    4    4  501    0 -0.16872940019E+03 -0.58965310121E+01 -0.11273991842E+03  0.20305698997E+03  0.41800000000E+01 0.  1.
         -5    1    4    4    0  501  0.11388898345E+02  0.29654339109E+02 -0.35511365846E+02  0.47829032374E+02  0.41800000000E+01 0.  1.
</event>
<event>
11    1  0.7157190E-009  0.1776360E+03  0.7561462E-02  0.1071571E+00
         22   -1    0    0    0    0  0.00000000000E+00  0.00000000000E+00  0.12595662761E+04  0.12595662761E+04  0.00000000000E+00 0.  1.
         22   -1    0    0    0    0 -0.00000000000E+00 -0.00000000000E+00 -0.17281233629E+03  0.17281233629E+03  0.00000000000E+00 0. -1.
         24    2    1    2    0    0  0.60544640768E+01 -0.74097137998E+01 -0.13739258234E+03  0.15498534826E+03  0.71078661343E+02 0.  0.
         25    2    1    2    0    0 -0.97017806482E+02 -0.80207662902E+02  0.37240343024E+03  0.41252445734E+03  0.12508552709E+03 0.  0.
        -24    2    1    2    0    0  0.90963342405E+02  0.87617376702E+02  0.85174309196E+03  0.86486880683E+03  0.81121045156E+02 0.  0.
        -11    1    3    3    0    0 -0.32172671764E+02  0.17374858118E+01 -0.67594610338E+02  0.74880778656E+02  0.00000000000E+00 0.  1.
         12    1    3    3    0    0  0.38227135841E+02 -0.91471996116E+01 -0.69797972005E+02  0.80104569603E+02  0.00000000000E+00 0. -1.
         11    1    5    5    0    0  0.33258326842E+02 -0.10648589479E+02  0.25040038099E+03  0.25282377175E+03  0.00000000000E+00 0. -1.
        -12    1    5    5    0    0  0.57705015563E+02  0.98265966181E+02  0.60134271097E+03  0.61204503508E+03  0.00000000000E+00 0.  1.
          5    1    4    4  501    0 -0.78734307143E+02 -0.27250424549E+02  0.33451976005E+03  0.34476458493E+03  0.41800000000E+01 0. -1.
         -5    1    4    4    0  501 -0.18283499339E+02 -0.52957238353E+02  0.37883670194E+02  0.67759872413E+02  0.41800000000E+01 0. -1.
</event>
<event>
11    1  0.7157190E-009  0.1300802E+03  0.7561462E-02  0.1119171E+00
         22   -1    0    0    0    0  0.00000000000E+00  0.00000000000E+00  0.70986093816E+03  0.70986093816E+03  0.00000000000E+00 0.  1.
         22   -1    0    0    0    0 -0.00000000000E+00 -0.00000000000E+00 -0.23432210414E+03  0.23432210414E+03  0.00000000000E+00 0. -1.
         24    2    1    2    0    0 -0.30894123610E+02 -0.18201415611E+02 -0.20885851545E+03  0.22493500706E+03  0.75419755509E+02 0.  0.
         25    2    1    2    0    0  0.26709952671E+02  0.12636575634E+02  0.28848155375E+03  0.31581915305E+03  0.12508807284E+03 0.  0.
        -24    2    1    2    0    0  0.41841709391E+01  0.55648399771E+01  0.39591579572E+03  0.40342888218E+03  0.77182063667E+02 0.  0.
        -11    1    3    3    0    0 -0.34487766031E+02 -0.50035092870E+01 -0.31273093875E+02  0.46823578585E+02  0.00000000000E+00 0.  1.
         12    1    3    3    0    0  0.35936424208E+01 -0.13197906324E+02 -0.17758542158E+03  0.17811142848E+03  0.00000000000E+00 0. -1.
         11    1    5    5    0    0  0.11509145820E+02 -0.20672218727E+02  0.40010904097E+02  0.46483045417E+02  0.00000000000E+00 0. -1.
        -12    1    5    5    0    0 -0.73249748813E+01  0.26237058704E+02  0.35590489162E+03  0.35694583677E+03  0.00000000000E+00 0.  1.
          5    1    4    4  501    0  0.40050754352E+02  0.58785398913E+02  0.22555049842E+03  0.23653812755E+03  0.41800000000E+01 0.  1.
         -5    1    4    4    0  501 -0.13340801681E+02 -0.46148823279E+02  0.62931055332E+02  0.79281025502E+02  0.41800000000E+01 0.  1.
</event>
<event>
11    1  0.7157190E-009  0.1359631E+03  0.7561462E-02  0.1112152E+00
         22   -1    0    0    0    0  0.00000000000E+00  0.00000000000E+00  0.98041097302E+03  0.98041097302E+03  0.00000000000E+00 0.  1.
         22   -1    0    0    0    0 -0.00000000000E+00 -0.00000000000E+00 -0.39420394785E+03  0.39420394785E+03  0.00000000000E+00 0. -1.
         24    2    1    2    0    0  0.42662998600E+02 -0.37943301742E+02 -0.32464633064E+03  0.33899160165E+03  0.79121680956E+02 0.  0.
         25    2    1    2    0    0 -0.26644486783E+02 -0.50976960722E+01  0.83090769961E+01  0.12826691959E+03  0.12508975465E+03 0.  0.
        -24    2    1    2    0    0 -0.16018511817E+02  0.43040997815E+02  0.90254427882E+03  0.90735639963E+03  0.81242479757E+02 0.  0.
        -13    1    3    3    0    0 -0.14110367491E+02  0.12746517778E+02 -0.39136144507E+02  0.43511078969E+02  0.00000000000E+00 0.  1.
         14    1    3    3    0    0  0.56773366091E+02 -0.50689819520E+02 -0.28551018613E+03  0.29548052268E+03  0.00000000000E+00 0. -1.
         11    1    5    5    0    0 -0.47169078463E+02  0.36542580524E+02  0.49782811708E+03  0.50139118093E+03  0.00000000000E+00 0. -1.
        -12    1    5    5    0    0  0.31150566646E+02  0.64984172907E+01  0.40471616173E+03  0.40596521870E+03  0.00000000000E+00 0.  1.
          5    1    4    4  501    0 -0.42399651712E+02  0.50740399367E+02 -0.10608475196E+02  0.67099409380E+02  0.41800000000E+01 0. -1.
         -5    1    4    4    0  501  0.15755164929E+02 -0.55838095439E+02  0.18917552192E+02  0.61167510208E+02  0.41800000000E+01 0. -1.
</event>
<event>
11    1  0.7157190E-009  0.3119134E+03  0.7561462E-02  0.9952716E-01
         22   -1    0    0    0    0  0.00000000000E+00  0.00000000000E+00  0.55585207798E+03  0.55585207798E+03  0.00000000000E+00 0. -1.
         22   -1    0    0    0    0 -0.00000000000E+00 -0.00000000000E+00 -0.16551797758E+04  0.16551797758E+04  0.00000000000E+00 0.  1.
         24    2    1    2    0    0 -0.28190876004E+03 -0.67140418241E+02 -0.15199983702E+04  0.15494425475E+04  0.79979859346E+02 0.  0.
         25    2    1    2    0    0  0.23960254663E+03  0.33591295412E+02  0.48108021721E+02  0.27658518808E+03  0.12508888453E+03 0.  0.
        -24    2    1    2    0    0  0.42306213407E+02  0.33549122828E+02  0.37256265064E+03  0.38500411819E+03  0.80683846167E+02 0.  0.
        -13    1    3    3    0    0 -0.25787400755E+03 -0.81918994240E+02 -0.13182993257E+04  0.13457796393E+04  0.00000000000E+00 0.  1.
         14    1    3    3    0    0 -0.24034752487E+02  0.14778575999E+02 -0.20169904447E+03  0.20366290820E+03  0.00000000000E+00 0. -1.
         11    1    5    5    0    0  0.38042175343E+02 -0.15305011707E+02  0.24369654240E+03  0.24712234878E+03  0.00000000000E+00 0. -1.
        -12    1    5    5    0    0  0.42640380640E+01  0.48854134535E+02  0.12886610824E+03  0.13788176941E+03  0.00000000000E+00 0.  1.
          5    1    4    4  501    0  0.12654396561E+03 -0.27467937107E+02  0.68282536983E+02  0.14645081105E+03  0.41800000000E+01 0.  1.
         -5    1    4    4    0  501  0.11305858103E+03  0.61059232519E+02 -0.20174515262E+02  0.13013437703E+03  0.41800000000E+01 0.  1.
</event>
<event>
11    1  0.7157190E-009  0.1383387E+03  0.7561462E-02  0.1109428E+00
         22   -1    0    0    0    0  0.00000000000E+00  0.00000000000E+00  0.25422507432E+03  0.25422507432E+03  0.00000000000E+00 0.  1.
         22   -1    0    0    0    0 -0.00000000000E+00 -0.00000000000E+00 -0.13779253298E+04  0.13779253298E+04  0.00000000000E+00 0. -1.
         24    2    1    2    0    0  0.51347375781E+02 -0.31477289418E+02 -0.11419397644E+04  0.11463986307E+04  0.81092676280E+02 0.  0.
         25    2    1    2    0    0 -0.61685891217E+02 -0.13619716516E+02 -0.20256001197E+03  0.24632796660E+03  0.12512498882E+03 0.  0.
        -24    2    1    2    0    0  0.10338515436E+02  0.45097005934E+02  0.22079952092E+03  0.23942380681E+03  0.80191682769E+02 0.  0.
        -13    1    3    3    0    0  0.12637886644E+02  0.24863320968E+02 -0.19363691486E+03  0.19563526192E+03  0.00000000000E+00 0.  1.
         14    1    3    3    0    0  0.38709489137E+02 -0.56340610386E+02 -0.94830284959E+03  0.95076336880E+03  0.00000000000E+00 0. -1.
         11    1    5    5    0    0 -0.42549557956E+00 -0.43832265122E+01 -0.57734039046E+01  0.72612611708E+01  0.00000000000E+00 0. -1.
        -12    1    5    5    0    0  0.10764011015E+02  0.49480232446E+02  0.22657292482E+03  0.23216254564E+03  0.00000000000E+00 0.  1.
          5    1    4    4  501    0  0.94730167562E+01 -0.56062029283E+02 -0.88969459323E+02  0.10566800020E+03  0.41800000000E+01 0.  1.
         -5    1    4    4    0  501 -0.71158907974E+02  0.42442312767E+02 -0.11359055264E+03  0.14065996640E+03  0.41800000000E+01 0.  1.
</event>
<event>
11    1  0.7157190E-009  0.1626981E+03  0.7561462E-02  0.1084567E+00
         22   -1    0    0    0    0  0.00000000000E+00  0.00000000000E+00  0.37848493168E+03  0.37848493168E+03  0.00000000000E+00 0.  1.
         22   -1    0    0    0    0 -0.00000000000E+00 -0.00000000000E+00 -0.43732138836E+03  0.43732138836E+03  0.00000000000E+00 0. -1.
        -24    2    1    2    0    0 -0.42274141285E+02 -0.52310491977E+02 -0.21805948883E+03  0.24345210433E+03  0.84826268584E+02 0.  0.
         25    2    1    2    0    0  0.14339796836E+03  0.54212319665E+02 -0.14228642305E+03  0.24370936528E+03  0.12508747183E+03 0.  0.
         24    2    1    2    0    0 -0.10112382707E+03 -0.19018276883E+01  0.30150945520E+03  0.32864485043E+03  0.82884502714E+02 0.  0.
        -13    1    5    5    0    0  0.13290011632E+02  0.86158594186E+01  0.34272556483E+02  0.37755338306E+02  0.00000000000E+00 0.  1.
         14    1    5    5    0    0 -0.11441383870E+03 -0.10517687107E+02  0.26723689871E+03  0.29088951212E+03  0.00000000000E+00 0. -1.
         13    1    3    3    0    0 -0.54217800120E+02 -0.58001038439E+02 -0.21591431557E+03  0.23004930336E+03  0.00000000000E+00 0. -1.
        -14    1    3    3    0    0  0.11943658835E+02  0.56905464625E+01 -0.21451732580E+01  0.13402800965E+02  0.00000000000E+00 0.  1.
          5    1    4    4  501    0  0.11532208026E+03  0.83999875878E+02 -0.14369866160E+03  0.20253873479E+03  0.41800000000E+01 0. -1.
         -5    1    4    4    0  501  0.28075888093E+02 -0.29787556214E+02  0.14122385494E+01  0.41170630492E+02  0.41800000000E+01 0. -1.
</event>
<event>
11    1  0.7157190E-009  0.1403883E+03  0.7561462E-02  0.1107126E+00
         22   -1    0    0    0    0  0.00000000000E+00  0.00000000000E+00  0.16213753700E+04  0.16213753700E+04  0.00000000000E+00 0. -1.
         22   -1    0    0    0    0 -0.00000000000E+00 -0.00000000000E+00 -0.13205025612E+03  0.13205025612E+03  0.00000000000E+00 0. -1.
        -24    2    1    2    0    0 -0.57798593392E+02 -0.24679903772E+02 -0.98221106533E+02  0.14177338554E+03  0.80638278945E+02 0.  0.
         25    2    1    2    0    0  0.10342867500E+03 -0.99771573707E+01  0.67976972335E+03  0.69894978050E+03  0.12508750695E+03 0.  0.
         24    2    1    2    0    0 -0.45630081609E+02  0.34657061142E+02  0.90777649707E+03  0.91270246008E+03  0.75394932041E+02 0.  0.
        -11    1    5    5    0    0 -0.41002801505E+01  0.11236538665E+02  0.17775234168E+02  0.21425009877E+02  0.00000000000E+00 0.  1.
         12    1    5    5    0    0 -0.41529801459E+02  0.23420522477E+02  0.89000126290E+03  0.89127745021E+03  0.00000000000E+00 0. -1.
         11    1    3    3    0    0 -0.11376696696E+02 -0.46763921577E+02 -0.31397419702E+02  0.57463828214E+02  0.00000000000E+00 0. -1.
        -12    1    3    3    0    0 -0.46421896695E+02  0.22084017806E+02 -0.66823686830E+02  0.84309557328E+02  0.00000000000E+00 0.  1.
          5    1    4    4  501    0  0.87366036946E+02  0.73259697491E+01  0.19798435748E+03  0.21656817045E+03  0.41800000000E+01 0. -1.
         -5    1    4    4    0  501  0.16062638055E+02 -0.17303127120E+02  0.48178536587E+03  0.48238161005E+03  0.41800000000E+01 0. -1.
</event>
<event>
11    1  0.7157190E-009  0.1348071E+03  0.7561462E-02  0.1113500E+00
         22   -1    0    0    0    0  0.00000000000E+00  0.00000000000E+00  0.58833761788E+03  0.58833761788E+03  0.00000000000E+00 0. -1.
         22   -1    0    0    0    0 -0.00000000000E+00 -0.00000000000E+00 -0.33260067946E+03  0.33260067946E+03  0.00000000000E+00 0. -1.
        -24    2    1    2    0    0 -0.45157160898E+02  0.59990704577E+01 -0.23498429143E+03  0.25387285621E+03  0.84608816770E+02 0.  0.
         25    2    1    2    0    0  0.82346078032E+02 -0.12571989749E+02 -0.17305200034E+02  0.15129346868E+03  0.12510520462E+03 0.  0.
         24    2    1    2    0    0 -0.37188917134E+02  0.65729192914E+01  0.50802642988E+03  0.51577197245E+03  0.80645243363E+02 0.  0.
        -11    1    5    5    0    0 -0.74362669250E+01 -0.36139673307E+02  0.19882566369E+03  0.20222022301E+03  0.00000000000E+00 0.  1.
         12    1    5    5    0    0 -0.29752650209E+02  0.42712592598E+02  0.30920076619E+03  0.31355174943E+03  0.00000000000E+00 0. -1.
         11    1    3    3    0    0 -0.25230368320E+02 -0.39127257783E+02 -0.12241218483E+03  0.13096662469E+03  0.00000000000E+00 0. -1.
        -12    1    3    3    0    0 -0.19926792579E+02  0.45126328241E+02 -0.11257210660E+03  0.12290623152E+03  0.00000000000E+00 0.  1.
          5    1    4    4  501    0  0.39508420182E+02  0.36801022521E+02 -0.53780748993E+02  0.76322158552E+02  0.41800000000E+01 0.  1.
         -5    1    4    4    0  501  0.42837657851E+02 -0.49373012270E+02  0.36475548958E+02  0.74971310130E+02  0.41800000000E+01 0.  1.
</event>
<event>
11    1  0.7157190E-009  0.1355679E+03  0.7561462E-02  0.1112611E+00
         22   -1    0    0    0    0  0.00000000000E+00  0.00000000000E+00  0.30551201825E+03  0.30551201825E+03  0.00000000000E+00 0.  1.
         22   -1    0    0    0    0 -0.00000000000E+00 -0.00000000000E+00 -0.61605550375E+03  0.61605550375E+03  0.00000000000E+00 0.  1.
        -24    2    1    2    0    0  0.37144526018E+02  0.45895548094E+02 -0.54387249967E+03  0.55285138268E+03  0.79757371380E+02 0.  0.
         25    2    1    2    0    0 -0.56940842115E+01  0.73051975378E+01  0.12857209824E+02  0.12608895305E+03  0.12508927904E+03 0.  0.
         24    2    1    2    0    0 -0.31450441806E+02 -0.53200745632E+02  0.22047180435E+03  0.24262718628E+03  0.80253880797E+02 0.  0.
        -13    1    5    5    0    0 -0.53221024370E+02 -0.58287918862E+02  0.17078245933E+03  0.18813986110E+03  0.00000000000E+00 0.  1.
         14    1    5    5    0    0  0.21770582563E+02  0.50871732300E+01  0.49689345015E+02  0.54487325174E+02  0.00000000000E+00 0. -1.
         13    1    3    3    0    0  0.41106251760E+02 -0.13164264812E+01 -0.13189094382E+03  0.13815454380E+03  0.00000000000E+00 0. -1.
        -14    1    3    3    0    0 -0.39617257426E+01  0.47211974575E+02 -0.41198155585E+03  0.41469683888E+03  0.00000000000E+00 0.  1.
          5    1    4    4  501    0  0.44927648014E+02 -0.22396561066E+02 -0.24883260250E+02  0.56184949447E+02  0.41800000000E+01 0.  1.
         -5    1    4    4    0  501 -0.50621732225E+02  0.29701758604E+02  0.37740470074E+02  0.69904003599E+02  0.41800000000E+01 0.  1.
</event>
<event>
11    1  0.7157190E-009  0.1378256E+03  0.7561462E-02  0.1110011E+00
         22   -1    0    0    0    0  0.00000000000E+00  0.00000000000E+00  0.42722324907E+03  0.42722324907E+03  0.00000000000E+00 0.  1.
         22   -1    0    0    0    0 -0.00000000000E+00 -0.00000000000E+00 -0.75623017798E+03  0.75623017798E+03  0.00000000000E+00 0.  1.
        -24    2    1    2    0    0  0.38147269162E+02 -0.44379022154E+02 -0.70381015955E+03  0.71076455728E+03  0.80079981593E+02 0.  0.
         25    2    1    2    0    0 -0.81488298671E+01  0.43623261290E+02  0.58720999482E+02  0.14513950768E+03  0.12509168060E+03 0.  0.
         24    2    1    2    0    0 -0.29998439294E+02  0.75576086411E+00  0.31608223115E+03  0.32754936208E+03  0.80499255997E+02 0.  0.
        -11    1    5    5    0    0 -0.49008162293E+01 -0.56296389968E+01  0.29228023065E+03  0.29237551892E+03  0.00000000000E+00 0.  1.
         12    1    5    5    0    0 -0.25097623065E+02  0.63853998609E+01  0.23802000501E+02  0.35173843162E+02  0.00000000000E+00 0. -1.
         13    1    3    3    0    0  0.20979376627E+01  0.14625778985E+02 -0.30261549501E+02  0.33676046852E+02  0.00000000000E+00 0. -1.
        -14    1    3    3    0    0  0.36049331499E+02 -0.59004801139E+02 -0.67354861005E+03  0.67708851043E+03  0.00000000000E+00 0.  1.
          5    1    4    4  501    0 -0.46025471671E+02  0.43420334046E+02  0.79533882411E+02  0.10171912457E+03  0.41800000000E+01 0. -1.
         -5    1    4    4    0  501  0.37876641804E+02  0.20292724396E+00 -0.20812882929E+02  0.43420383113E+02  0.41800000000E+01 0. -1.
</event>
<event>
11    1  0.7157190E-009  0.1320307E+03  0.7561462E-02  0.1116799E+00
         22   -1    0    0    0    0  0.00000000000E+00  0.00000000000E+00  0.13785743258E+04  0.13785743258E+04  0.00000000000E+00 0.  1.
         22   -1    0    0    0    0 -0.00000000000E+00 -0.00000000000E+00 -0.35281020516E+03  0.35281020516E+03  0.00000000000E+00 0. -1.
         24    2    1    2    0    0 -0.54835024043E+01  0.17728228305E+02 -0.31617302177E+03  0.32657413189E+03  0.79629925581E+02 0.  0.
         25    2    1    2    0    0  0.82547123750E+01  0.25353838029E+02  0.10756247352E+03  0.16711415853E+03  0.12508596601E+03 0.  0.
        -24    2    1    2    0    0 -0.27712099707E+01 -0.43082066334E+02  0.12343746689E+04  0.12376962406E+04  0.79670675860E+02 0.  0.
        -13    1    3    3    0    0 -0.19681750359E+02 -0.37432000634E+01 -0.16941115499E+02  0.26237077548E+02  0.00000000000E+00 0.  1.
         14    1    3    3    0    0  0.14198247954E+02  0.21471428369E+02 -0.29923190627E+03  0.30033705434E+03  0.00000000000E+00 0. -1.
         13    1    5    5    0    0 -0.26309963408E+01 -0.37005265643E+02  0.20665327461E+03  0.20995687113E+03  0.00000000000E+00 0. -1.
        -14    1    5    5    0    0 -0.14021362983E+00 -0.60768006914E+01  0.10277213943E+04  0.10277393694E+04  0.00000000000E+00 0.  1.
          5    1    4    4  501    0  0.42855182699E+02 -0.19606739229E+02  0.21857478988E+01  0.47362863103E+02  0.41800000000E+01 0.  1.
         -5    1    4    4    0  501 -0.34600470324E+02  0.44960577258E+02  0.10537672562E+03  0.11975129543E+03  0.41800000000E+01 0.  1.
</event>
<event>
11    1  0.7157190E-009  0.1289466E+03  0.7561462E-02  0.1120570E+00
         22   -1    0    0    0    0  0.00000000000E+00  0.00000000000E+00  0.33403609529E+03  0.33403609529E+03  0.00000000000E+00 0. -1.
         22   -1    0    0    0    0 -0.00000000000E+00 -0.00000000000E+00 -0.12734479616E+04  0.12734479616E+04  0.00000000000E+00 0.  1.
         24    2    1    2    0    0  0.22517151828E+02 -0.24800955609E+02 -0.93107842101E+03  0.93497213731E+03  0.78382153270E+02 0.  0.
         25    2    1    2    0    0  0.91513245060E+01  0.24026178714E+02 -0.32252033114E+03  0.34688384576E+03  0.12509210388E+03 0.  0.
        -24    2    1    2    0    0 -0.31668476334E+02  0.77477689478E+00  0.31418688588E+03  0.32562807377E+03  0.79477987485E+02 0.  0.
        -11    1    3    3    0    0  0.46148512392E+02 -0.36488469561E+02 -0.62865627696E+03  0.63140304732E+03  0.00000000000E+00 0.  1.
         12    1    3    3    0    0 -0.23631360564E+02  0.11687513952E+02 -0.30242214405E+03  0.30356908999E+03  0.00000000000E+00 0. -1.
         11    1    5    5    0    0 -0.26063875126E+02  0.21205161477E+02  0.29542397374E+03  0.29732862076E+03  0.00000000000E+00 0. -1.
        -12    1    5    5    0    0 -0.56046012084E+01 -0.20430384583E+02  0.18762912141E+02  0.28299453014E+02  0.00000000000E+00 0.  1.
          5    1    4    4  501    0 -0.56169846237E+02  0.18887752599E+02 -0.11847157757E+03  0.13253220709E+03  0.41800000000E+01 0. -1.
         -5    1    4    4    0  501  0.65321170743E+02  0.51384261146E+01 -0.20404875357E+03  0.21435163868E+03  0.41800000000E+01 0. -1.
</event>
<event>
11    1  0.7157190E-009  0.1929559E+03  0.7561462E-02  0.1059620E+00
         22   -1    0    0    0    0  0.00000000000E+00  0.00000000000E+00  0.37599362076E+04  0.37599362076E+04  0.00000000000E+00 0.  1.
         22   -1    0    0    0    0 -0.00000000000E+00 -0.00000000000E+00 -0.13273753743E+03  0.13273753743E+03  0.00000000000E+00 0. -1.
        -24    2    1    2    0    0  0.29070603899E+02 -0.18544606103E+02 -0.86440605468E+02  0.12280895263E+03  0.80131505328E+02 0.  0.
         25    2    1    2    0    0  0.38124957450E+02 -0.11455648956E+03  0.26416457672E+03  0.31623870006E+03  0.12508912880E+03 0.  0.
         24    2    1    2    0    0 -0.67195561349E+02  0.13310109566E+03  0.34494746990E+04  0.34536260924E+04  0.80164468356E+02 0.  0.
        -13    1    5    5    0    0 -0.80587726338E+02  0.11921127516E+03  0.32593639017E+04  0.32625386976E+04  0.00000000000E+00 0.  1.
         14    1    5    5    0    0  0.13392164989E+02  0.13889820504E+02  0.19011079724E+03  0.19108739473E+03  0.00000000000E+00 0. -1.
         11    1    3    3    0    0  0.18342180889E+02  0.25234249436E+02 -0.66633697461E+02  0.73574809423E+02  0.00000000000E+00 0. -1.
        -12    1    3    3    0    0  0.10728423010E+02 -0.43778855539E+02 -0.19806908007E+02  0.49234143207E+02  0.00000000000E+00 0.  1.
          5    1    4    4  501    0 -0.42988521420E+02 -0.65018951518E+02  0.13282579596E+03  0.15406375791E+03  0.41800000000E+01 0. -1.
         -5    1    4    4    0  501  0.81113478870E+02 -0.49537538042E+02  0.13133878076E+03  0.16217494215E+03  0.41800000000E+01 0. -1.
</event>
<event>
11    1  0.7157190E-009  0.1346550E+03  0.7561462E-02  0.1113678E+00
         22   -1    0    0    0    0  0.00000000000E+00  0.00000000000E+00  0.27040359042E+03  0.27040359042E+03  0.00000000000E+00 0.  1.
         22   -1    0    0    0    0 -0.00000000000E+00 -0.00000000000E+00 -0.84165291663E+03  0.84165291663E+03  0.00000000000E+00 0. -1.
        -24    2    1    2    0    0  0.23134767989E+02  0.45948162175E+02 -0.65390051471E+03  0.66079383045E+03  0.80100887134E+02 0.  0.
         25    2    1    2    0    0 -0.59770326821E+01  0.35758287879E+01 -0.15260710590E+03  0.19744564131E+03  0.12508933219E+03 0.  0.
         24    2    1    2    0    0 -0.17157735307E+02 -0.49523990963E+02  0.23525829440E+03  0.25381703529E+03  0.79558838346E+02 0.  0.
        -11    1    5    5    0    0 -0.13329897754E+02 -0.26544775192E+02  0.22725010335E+03  0.22918315980E+03  0.00000000000E+00 0.  1.
         12    1    5    5    0    0 -0.38278375524E+01 -0.22979215771E+02  0.80081910484E+01  0.24633875489E+02  0.00000000000E+00 0. -1.
         11    1    3    3    0    0 -0.42053870249E+01  0.70082069382E+01 -0.49147552009E+03  0.49154347427E+03  0.00000000000E+00 0. -1.
        -12    1    3    3    0    0  0.27340155014E+02  0.38939955237E+02 -0.16242499462E+03  0.16925035618E+03  0.00000000000E+00 0.  1.
          5    1    4    4  501    0 -0.83401859971E+01 -0.33331648703E+02  0.54735723237E+01  0.35042686851E+02  0.41800000000E+01 0.  1.
         -5    1    4    4    0  501  0.23631533150E+01  0.36907477491E+02 -0.15808067822E+03  0.16240295446E+03  0.41800000000E+01 0.  1.
</event>
<event>
11    1  0.7157190E-009  0.2967354E+03  0.7561462E-02  0.1001582E+00
         22   -1    0    0    0    0  0.00000000000E+00  0.00000000000E+00  0.14187644646E+04  0.14187644646E+04  0.00000000000E+00 0. -1.
         22   -1    0    0    0    0 -0.00000000000E+00 -0.00000000000E+00 -0.45123996357E+03  0.45123996357E+03  0.00000000000E+00 0. -1.
        -24    2    1    2    0    0  0.19659647235E+03  0.17803168713E+03 -0.35146075698E+03  0.44796431986E+03  0.82473714691E+02 0.  0.
         25    2    1    2    0    0 -0.26713185743E+03 -0.17996150862E+03  0.57784076723E+03  0.67326902665E+03  0.12508259725E+03 0.  0.
         24    2    1    2    0    0  0.70535385087E+02  0.19298214936E+01  0.74114449079E+03  0.74877108166E+03  0.79900010929E+02 0.  0.
        -13    1    5    5    0    0  0.81896902883E+02  0.53768011635E+01  0.45252439631E+03  0.45990688400E+03  0.00000000000E+00 0.  1.
         14    1    5    5    0    0 -0.11361517796E+02 -0.34469796698E+01  0.28862009447E+03  0.28886419766E+03  0.00000000000E+00 0. -1.
         13    1    3    3    0    0  0.20269813933E+03  0.17831147201E+03 -0.34934247773E+03  0.44149935841E+03  0.00000000000E+00 0. -1.
        -14    1    3    3    0    0 -0.61016669820E+01 -0.27978488243E+00 -0.21182792523E+01  0.64649614485E+01  0.00000000000E+00 0.  1.
          5    1    4    4  501    0 -0.72079592729E+02 -0.10213534985E+03  0.29948374850E+03  0.32455367105E+03  0.41800000000E+01 0.  1.
         -5    1    4    4    0  501 -0.19505226470E+03 -0.77826158765E+02  0.27835701873E+03  0.34871535560E+03  0.41800000000E+01 0.  1.
</event>
<event>
11    1  0.7157190E-009  0.1336141E+03  0.7561462E-02  0.1114906E+00
         22   -1    0    0    0    0  0.00000000000E+00  0.00000000000E+00  0.32689761693E+03  0.32689761693E+03  0.00000000000E+00 0. -1.
         22   -1    0    0    0    0 -0.00000000000E+00 -0.00000000000E+00 -0.84642462688E+03  0.84642462688E+03  0.00000000000E+00 0.  1.
         24    2    1    2    0    0 -0.44747668105E+02 -0.15331824670E+02 -0.79144096618E+03  0.79644384168E+03  0.75541851747E+02 0.  0.
         25    2    1    2    0    0  0.30028514322E+02  0.17637353530E+02  0.47724734362E+02  0.13834099443E+03  0.12509113701E+03 0.  0.
        -24    2    1    2    0    0  0.14719153783E+02 -0.23055288601E+01  0.22418922187E+03  0.23853740769E+03  0.80108168840E+02 0.  0.
        -11    1    3    3    0    0 -0.29983794561E+02  0.29418435168E+02 -0.37148517798E+03  0.37385252403E+03  0.00000000000E+00 0.  1.
         12    1    3    3    0    0 -0.14763873544E+02 -0.44750259838E+02 -0.41995578819E+03  0.42259131765E+03  0.00000000000E+00 0. -1.
         11    1    5    5    0    0  0.18837806351E+02  0.12818941062E+02  0.22145665736E+03  0.22262578307E+03  0.00000000000E+00 0. -1.
        -12    1    5    5    0    0 -0.41186525677E+01 -0.15124469922E+02  0.27325645113E+01  0.15911624625E+02  0.00000000000E+00 0.  1.
          5    1    4    4  501    0  0.22386491623E+01 -0.49699336794E+02 -0.21288939515E+01  0.49970393407E+02  0.41800000000E+01 0. -1.
         -5    1    4    4    0  501  0.27789865160E+02  0.67336690324E+02  0.49853628314E+02  0.88370601025E+02  0.41800000000E+01 0. -1.
</event>
<event>
11    1  0.7157190E-009  0.1565196E+03  0.7561462E-02  0.1090397E+00
         22   -1    0    0    0    0  0.00000000000E+00  0.00000000000E+00  0.78402772218E+03  0.78402772218E+03  0.00000000000E+00 0.  1.
         22   -1    0    0    0    0 -0.00000000000E+00 -0.00000000000E+00 -0.48924740366E+03  0.48924740366E+03  0.00000000000E+00 0.  1.
         24    2    1    2    0    0 -0.49974771636E+02  0.74512128321E+02 -0.37795024341E+03  0.39663206373E+03  0.80131594377E+02 0.  0.
         25    2    1    2    0    0  0.11543422011E+03 -0.86926523123E+02 -0.47753628574E+01  0.19118473711E+03  0.12509004764E+03 0.  0.
        -24    2    1    2    0    0 -0.65459448470E+02  0.12414394802E+02  0.67750592479E+03  0.68545832500E+03  0.79998628690E+02 0.  0.
        -11    1    3    3    0    0 -0.68534639036E+02  0.75164687259E+02 -0.31847654952E+03  0.33432624718E+03  0.00000000000E+00 0.  1.
         12    1    3    3    0    0  0.18559867400E+02 -0.65255893806E+00 -0.59473693893E+02  0.62305816553E+02  0.00000000000E+00 0. -1.
         13    1    5    5    0    0  0.10683247085E+02  0.24750720545E+02  0.18081475862E+03  0.18281331152E+03  0.00000000000E+00 0. -1.
        -14    1    5    5    0    0 -0.76142695555E+02 -0.12336325743E+02  0.49669116617E+03  0.50264501348E+03  0.00000000000E+00 0.  1.
          5    1    4    4  501    0  0.56291372182E+02 -0.38836033195E+02 -0.64620731330E+02  0.94182096887E+02  0.41800000000E+01 0. -1.
         -5    1    4    4    0  501  0.59142847924E+02 -0.48090489928E+02  0.59845368473E+02  0.97002640221E+02  0.41800000000E+01 0. -1.
</event>
<event>
11    1  0.7157190E-009  0.1316772E+03  0.7561462E-02  0.1117225E+00
         22   -1    0    0    0    0  0.00000000000E+00  0.00000000000E+00  0.82649726092E+03  0.82649726092E+03  0.00000000000E+00 0. -1.
         22   -1    0    0    0    0 -0.00000000000E+00 -0.00000000000E+00 -0.81004746248E+02  0.81004746248E+02  0.00000000000E+00 0. -1.
        -24    2    1    2    0    0  0.35446592946E+02 -0.19130916267E+02 -0.27854241807E+02  0.93878793852E+02  0.80093172242E+02 0.  0.
         25    2    1    2    0    0 -0.42509666233E+02  0.21915419414E+02  0.24611340604E+03  0.28019135856E+03  0.12509209187E+03 0.  0.
         24    2    1    2    0    0  0.70630732873E+01 -0.27845031469E+01  0.52723335044E+03  0.53343185476E+03  0.80727302622E+02 0.  0.
        -11    1    5    5    0    0 -0.43923532495E+01 -0.17951814269E+02  0.26334156759E+02  0.32172165218E+02  0.00000000000E+00 0.  1.
         12    1    5    5    0    0  0.11455426537E+02  0.15167311122E+02  0.50089919368E+03  0.50125968954E+03  0.00000000000E+00 0. -1.
         13    1    3    3    0    0  0.13806042339E+02  0.16472990620E+02 -0.44179099422E+02  0.49130021888E+02  0.00000000000E+00 0. -1.
        -14    1    3    3    0    0  0.21640550607E+02 -0.35603906886E+02  0.16324857615E+02  0.44748771964E+02  0.00000000000E+00 0.  1.
          5    1    4    4  501    0 -0.82876427754E+02  0.26608397143E+02  0.12503423186E+03  0.15240584179E+03  0.41800000000E+01 0. -1.
         -5    1    4    4    0  501  0.40366761521E+02 -0.46929777289E+01  0.12107917419E+03  0.12778551677E+03  0.41800000000E+01 0. -1.
</event>
<event>
11    1  0.7157190E-009  0.1746656E+03  0.7561462E-02  0.1074041E+00
         22   -1    0    0    0    0  0.00000000000E+00  0.00000000000E+00  0.12302156641E+03  0.12302156641E+03  0.00000000000E+00 0.  1.
         22   -1    0    0    0    0 -0.00000000000E+00 -0.00000000000E+00 -0.13080056846E+04  0.13080056846E+04  0.00000000000E+00 0.  1.
         24    2    1    2    0    0  0.24798258690E+02  0.12033113383E+03 -0.11350526857E+04  0.11445281668E+04  0.80657238184E+02 0.  0.
         25    2    1    2    0    0 -0.66878543557E+02 -0.98351743872E+02 -0.74980233577E+02  0.18818947456E+03  0.12508971899E+03 0.  0.
        -24    2    1    2    0    0  0.42080284867E+02 -0.21979389956E+02  0.25048801057E+02  0.98309609586E+02  0.82361962976E+02 0.  0.
        -13    1    3    3    0    0  0.31312311413E+01  0.10903740892E+03 -0.10600097338E+04  0.10656076186E+04  0.00000000000E+00 0.  1.
         14    1    3    3    0    0  0.21667027549E+02  0.11293724904E+02 -0.75042951885E+02  0.78920548228E+02  0.00000000000E+00 0. -1.
         11    1    5    5    0    0  0.13953141848E+02  0.13869474991E+02 -0.24217693916E+02  0.31201749992E+02  0.00000000000E+00 0. -1.
        -12    1    5    5    0    0  0.28127143019E+02 -0.35848864947E+02  0.49266494973E+02  0.67107859594E+02  0.00000000000E+00 0.  1.
          5    1    4    4  501    0 -0.22613684008E+02 -0.31564765838E+02  0.34736207725E+02  0.52266525367E+02  0.41800000000E+01 0. -1.
         -5    1    4    4    0  501 -0.44264859549E+02 -0.66786978034E+02 -0.10971644130E+03  0.13592294919E+03  0.41800000000E+01 0. -1.
</event>
<event>
11    1  0.7157190E-009  0.1871047E+03  0.7561462E-02  0.1064037E+00
         22   -1    0    0    0    0  0.00000000000E+00  0.00000000000E+00  0.15694120448E+04  0.15694120448E+04  0.00000000000E+00 0. -1.
         22   -1    0    0    0    0 -0.00000000000E+00 -0.00000000000E+00 -0.18547283066E+03  0.18547283066E+03  0.00000000000E+00 0.  1.
        -24    2    1    2    0    0  0.25490606344E+02 -0.25796361194E+02 -0.65184305057E+02  0.11185118638E+03  0.83345491813E+02 0.  0.
         25    2    1    2    0    0  0.77092969929E+02 -0.70648689627E+02 -0.20694116335E+02  0.16434713443E+03  0.12508865170E+03 0.  0.
         24    2    1    2    0    0 -0.10258357627E+03  0.96445050821E+02  0.14698176356E+04  0.14786865547E+04  0.79529914127E+02 0.  0.
        -13    1    5    5    0    0 -0.44109236016E+02 -0.25255631655E+01  0.30025076233E+03  0.30348397560E+03  0.00000000000E+00 0.  1.
         14    1    5    5    0    0 -0.58474340257E+02  0.98970613986E+02  0.11695668732E+04  0.11752025791E+04  0.00000000000E+00 0. -1.
         13    1    3    3    0    0 -0.28416883536E+02 -0.92867594413E+01 -0.67409186810E+01  0.30646421577E+02  0.00000000000E+00 0. -1.
        -14    1    3    3    0    0  0.53907489880E+02 -0.16509601753E+02 -0.58443386376E+02  0.81204764800E+02  0.00000000000E+00 0.  1.
          5    1    4    4  501    0  0.48796876545E+02 -0.10569540533E+03 -0.24186360385E+02  0.11897523397E+03  0.41800000000E+01 0. -1.
         -5    1    4    4    0  501  0.28296093384E+02  0.35046715708E+02  0.34922440496E+01  0.45371900458E+02  0.41800000000E+01 0. -1.
</event>
<event>
11    1  0.7157190E-009  0.1752731E+03  0.7561462E-02  0.1073532E+00
         22   -1    0    0    0    0  0.00000000000E+00  0.00000000000E+00  0.78185011874E+02  0.78185011874E+02  0.00000000000E+00 0.  1.
         22   -1    0    0    0    0 -0.00000000000E+00 -0.00000000000E+00 -0.11287152890E+04  0.11287152890E+04  0.00000000000E+00 0. -1.
        -24    2    1    2    0    0  0.41360587435E+02 -0.13031447453E+03 -0.75706211877E+03  0.77347929716E+03  0.80216027014E+02 0.  0.
         25    2    1    2    0    0  0.16951618471E+02  0.95446112070E+02 -0.28761769758E+03  0.32828126975E+03  0.12508930580E+03 0.  0.
         24    2    1    2    0    0 -0.58312205906E+02  0.34868362457E+02 -0.58504607254E+01  0.10513973392E+03  0.80025119183E+02 0.  0.
        -11    1    5    5    0    0 -0.48002677642E+02 -0.75811320097E+01 -0.28078608474E+02  0.56126098004E+02  0.00000000000E+00 0.  1.
         12    1    5    5    0    0 -0.10309528264E+02  0.42449494467E+02  0.22228147749E+02  0.49013635917E+02  0.00000000000E+00 0. -1.
         13    1    3    3    0    0  0.29519671988E+02 -0.97340624010E+02 -0.69333137124E+03  0.70075316515E+03  0.00000000000E+00 0. -1.
        -14    1    3    3    0    0  0.11840915447E+02 -0.32973850517E+02 -0.63730747532E+02  0.72726132013E+02  0.00000000000E+00 0.  1.
          5    1    4    4  501    0  0.32231352590E+02  0.90992568670E+02 -0.96853092546E+02  0.13680826575E+03  0.41800000000E+01 0. -1.
         -5    1    4    4    0  501 -0.15279734119E+02  0.44535433995E+01 -0.19076460504E+03  0.19147300399E+03  0.41800000000E+01 0. -1.
</event>
<event>
11    1  0.7157190E-009  0.1538163E+03  0.7561462E-02  0.1093042E+00
         22   -1    0    0    0    0  0.00000000000E+00  0.00000000000E+00  0.53710670418E+03  0.53710670418E+03  0.00000000000E+00 0.  1.
         22   -1    0    0    0    0 -0.00000000000E+00 -0.00000000000E+00 -0.72737453330E+03  0.72737453330E+03  0.00000000000E+00 0.  1.
         24    2    1    2    0    0 -0.23780874141E+02  0.81883763733E+02 -0.53529303028E+03  0.54806987472E+03  0.81064656770E+02 0.  0.
         25    2    1    2    0    0  0.32422208594E+02 -0.11142243453E+03 -0.14175684281E+03  0.22183324085E+03  0.12509526663E+03 0.  0.
        -24    2    1    2    0    0 -0.86413344531E+01  0.29538670800E+02  0.48678204397E+03  0.49457812190E+03  0.81875237997E+02 0.  0.
        -11    1    3    3    0    0  0.22889143866E+02  0.31326546647E+02 -0.31236624349E+03  0.31476647773E+03  0.00000000000E+00 0.  1.
         12    1    3    3    0    0 -0.46670018006E+02  0.50557217086E+02 -0.22292678679E+03  0.23330339699E+03  0.00000000000E+00 0. -1.
         13    1    5    5    0    0 -0.28428207231E+02 -0.17309963290E+02  0.26255361579E+03  0.26465486763E+03  0.00000000000E+00 0. -1.
        -14    1    5    5    0    0  0.19786872778E+02  0.46848634090E+02  0.22422842818E+03  0.22992325427E+03  0.00000000000E+00 0.  1.
          5    1    4    4  501    0 -0.46635903409E+02 -0.27754910791E+02 -0.34508971707E+02  0.64448305548E+02  0.41800000000E+01 0.  1.
         -5    1    4    4    0  501  0.79058112003E+02 -0.83667523743E+02 -0.10724787111E+03  0.15738493530E+03  0.41800000000E+01 0.  1.
</event>
<event>
11    1  0.7157190E-009  0.1356176E+03  0.7561462E-02  0.1112553E+00
         22   -1    0    0    0    0  0.00000000000E+00  0.00000000000E+00  0.32138268868E+03  0.32138268868E+03  0.00000000000E+00 0. -1.
         22   -1    0    0    0    0 -0.00000000000E+00 -0.00000000000E+00 -0.44916631261E+03  0.44916631261E+03  0.00000000000E+00 0. -1.
         24    2    1    2    0    0  0.52874378018E+02 -0.16513086121E+02 -0.35738091474E+03  0.37056254946E+03  0.80790488179E+02 0.  0.
         25    2    1    2    0    0 -0.13157781900E+02  0.41694475588E+02 -0.19300851480E+02  0.13390950002E+03  0.12509066635E+03 0.  0.
        -24    2    1    2    0    0 -0.39716596118E+02 -0.25181389466E+02  0.24889814229E+03  0.26607695180E+03  0.81456421862E+02 0.  0.
        -11    1    3    3    0    0  0.87751948784E+01  0.23164899232E+02 -0.35667983881E+02  0.43426048355E+02  0.00000000000E+00 0.  1.
         12    1    3    3    0    0  0.44099183140E+02 -0.39677985354E+02 -0.32171293086E+03  0.32713650111E+03  0.00000000000E+00 0. -1.
         11    1    5    5    0    0  0.14633478884E+02 -0.15877453918E+01  0.15049289590E+03  0.15121101599E+03  0.00000000000E+00 0. -1.
        -12    1    5    5    0    0 -0.54350075002E+02 -0.23593644075E+02  0.98405246386E+02  0.11486593581E+03  0.00000000000E+00 0.  1.
          5    1    4    4  501    0 -0.57197256063E+02  0.61431162337E+02 -0.13622495978E+02  0.85137292674E+02  0.41800000000E+01 0. -1.
         -5    1    4    4    0  501  0.44039474162E+02 -0.19736686749E+02 -0.56783555017E+01  0.48772207347E+02  0.41800000000E+01 0. -1.
</event>
<event>
11    1  0.7157190E-009  0.1309387E+03  0.7561462E-02  0.1118121E+00
         22   -1    0    0    0    0  0.00000000000E+00  0.00000000000E+00  0.14336023548E+04  0.14336023548E+04  0.00000000000E+00 0.  1.
         22   -1    0    0    0    0 -0.00000000000E+00 -0.00000000000E+00 -0.16234963015E+03  0.16234963015E+03  0.00000000000E+00 0. -1.
        -24    2    1    2    0    0 -0.85189405522E+01  0.38984693034E+02 -0.13798299109E+03  0.16481562921E+03  0.80823926916E+02 0.  0.
         25    2    1    2    0    0  0.85588033510E+01  0.29350300086E+01  0.43156300282E+03  0.44941752365E+03  0.12509043789E+03 0.  0.
         24    2    1    2    0    0 -0.39862798790E-01 -0.41919723043E+02  0.97767271290E+03  0.98171883206E+03  0.78553592587E+02 0.  0.
        -13    1    5    5    0    0 -0.11023239472E+02 -0.26790950934E+02  0.93086505590E+03  0.93131574622E+03  0.00000000000E+00 0.  1.
         14    1    5    5    0    0  0.10983376673E+02 -0.15128772109E+02  0.46807656997E+02  0.50403085841E+02  0.00000000000E+00 0. -1.
         11    1    3    3    0    0  0.81675669512E+01 -0.19517152880E+02 -0.72105504809E+02  0.75145407246E+02  0.00000000000E+00 0. -1.
        -12    1    3    3    0    0 -0.16686507503E+02  0.58501845914E+02 -0.65877486279E+02  0.89670221961E+02  0.00000000000E+00 0.  1.
          5    1    4    4  501    0  0.78517076798E+01 -0.57193476277E+02  0.13657453259E+03  0.14833347024E+03  0.41800000000E+01 0.  1.
         -5    1    4    4    0  501  0.70709567124E+00  0.60128506285E+02  0.29498847023E+03  0.30108405341E+03  0.41800000000E+01 0.  1.
</event>
<event>
11    1  0.7157190E-009  0.1701734E+03  0.7561462E-02  0.1077881E+00
         22   -1    0    0    0    0  0.00000000000E+00  0.00000000000E+00  0.60085354708E+03  0.60085354708E+03  0.00000000000E+00 0.  1.
         22   -1    0    0    0    0 -0.00000000000E+00 -0.00000000000E+00 -0.20927223835E+03  0.20927223835E+03  0.00000000000E+00 0. -1.
         24    2    1    2    0    0  0.28452434028E+02 -0.11846961922E+03 -0.14832050883E+03  0.20783876730E+03  0.79708143697E+02 0.  0.
         25    2    1    2    0    0 -0.55400052223E+02  0.50988931166E+02  0.21731489130E+03  0.26180530745E+03  0.12508884899E+03 0.  0.
        -24    2    1    2    0    0  0.26947618195E+02  0.67480688052E+02  0.32258692626E+03  0.34048171068E+03  0.81152035883E+02 0.  0.
        -11    1    3    3    0    0 -0.23282930228E+01 -0.11214011474E+03 -0.12902529094E+03  0.17096301350E+03  0.00000000000E+00 0.  1.
         12    1    3    3    0    0  0.30780727051E+02 -0.63295044802E+01 -0.19295217886E+02  0.36875753796E+02  0.00000000000E+00 0. -1.
         11    1    5    5    0    0 -0.34817647649E+01 -0.10916506197E+02  0.60364009582E+01  0.12951097635E+02  0.00000000000E+00 0. -1.
        -12    1    5    5    0    0  0.30429382960E+02  0.78397194249E+02  0.31655052530E+03  0.32753061305E+03  0.00000000000E+00 0.  1.
          5    1    4    4  501    0 -0.85656817855E+02  0.58686081525E+02  0.11615331853E+03  0.15585317582E+03  0.41800000000E+01 0.  1.
         -5    1    4    4    0  501  0.30256765632E+02 -0.76971503592E+01  0.10116157277E+03  0.10595213163E+03  0.41800000000E+01 0.  1.
</event>
<event>
11    1  0.7859990E-009  0.1506415E+03  0.7561462E-02  0.1096225E+00
         22   -1    0    0    0    0  0.00000000000E+00  0.00000000000E+00  0.10503980402E+04  0.10503980402E+04  0.00000000000E+00 0. -1.
         22   -1    0    0    0    0 -0.00000000000E+00 -0.00000000000E+00 -0.63891633182E+03  0.63891633182E+03  0.00000000000E+00 0. -1.
        -24    2    1    2    0    0 -0.57007268553E+02 -0.26335308760E+02 -0.47513957629E+03  0.48614229411E+03  0.81445294544E+02 0.  0.
         25    2    1    2    0    0 -0.27763539511E+02  0.33724504272E+02 -0.12658504012E+03  0.18324630926E+03  0.12508909289E+03 0.  0.
         24    2    1    2    0    0  0.84770808063E+02 -0.73891955121E+01  0.10132063248E+04  0.10199257687E+04  0.80130062142E+02 0.  0.
        -13    1    5    5    0    0  0.29588712268E+00  0.24682366268E+02  0.30099555468E+03  0.30200601102E+03  0.00000000000E+00 0.  1.
         14    1    5    5    0    0  0.84474920940E+02 -0.32071561781E+02  0.71221077014E+03  0.71791975766E+03  0.00000000000E+00 0. -1.
         13    1    3    3    0    0 -0.43653127061E+02  0.10443571740E+02 -0.38840954617E+03  0.39099442355E+03  0.00000000000E+00 0. -1.
        -14    1    3    3    0    0 -0.13354141492E+02 -0.36778880500E+02 -0.86730030128E+02  0.95147870558E+02  0.00000000000E+00 0.  1.
          5    1    4    4  501    0 -0.70337855711E+02  0.44540747477E+02 -0.57481794793E+02  0.10125670973E+03  0.41800000000E+01 0. -1.
         -5    1    4    4    0  501  0.42574316201E+02 -0.10816243205E+02 -0.69103245329E+02  0.81989599536E+02  0.41800000000E+01 0. -1.
</event>
<event>
11    1  0.7157190E-009  0.1494310E+03  0.7561462E-02  0.1097462E+00
         22   -1    0    0    0    0  0.00000000000E+00  0.00000000000E+00  0.34034877569E+03  0.34034877569E+03  0.00000000000E+00 0.  1.
         22   -1    0    0    0    0 -0.00000000000E+00 -0.00000000000E+00 -0.21698232542E+03  0.21698232542E+03  0.00000000000E+00 0. -1.
         24    2    1    2    0    0  0.66497833341E+02 -0.31649381302E+02 -0.13276858174E+03  0.17140374784E+03  0.79549376502E+02 0.  0.
         25    2    1    2    0    0 -0.94288794806E+02 -0.44567760690E+02  0.93946862857E+02  0.18801762760E+03  0.12509177882E+03 0.  0.
        -24    2    1    2    0    0  0.27790961465E+02  0.76217141992E+02  0.16218816915E+03  0.19790972568E+03  0.79258230066E+02 0.  0.
        -13    1    3    3    0    0 -0.74510488156E+00  0.13105771609E+02  0.29612941504E+01  0.13456808455E+02  0.00000000000E+00 0.  1.
         14    1    3    3    0    0  0.67242938222E+02 -0.44755152911E+02 -0.13572987589E+03  0.15794693939E+03  0.00000000000E+00 0. -1.
         13    1    5    5    0    0  0.54616930830E+01 -0.12104400425E+02  0.58041677890E+02  0.59541439126E+02  0.00000000000E+00 0. -1.
        -14    1    5    5    0    0  0.22329268382E+02  0.88321542417E+02  0.10414649126E+03  0.13836828655E+03  0.00000000000E+00 0.  1.
          5    1    4    4  501    0 -0.95511377195E+02 -0.17429481274E+02  0.11703534303E+03  0.15212151034E+03  0.41800000000E+01 0.  1.
         -5    1    4    4    0  501  0.12225823887E+01 -0.27138279416E+02 -0.23088480170E+02  0.35896117254E+02  0.41800000000E+01 0.  1.
</event>
<event>
11    1  0.7157190E-009  0.1365843E+03  0.7561462E-02  0.1111434E+00
         22   -1    0    0    0    0  0.00000000000E+00  0.00000000000E+00  0.49012884820E+03  0.49012884820E+03  0.00000000000E+00 0.  1.
         22   -1    0    0    0    0 -0.00000000000E+00 -0.00000000000E+00 -0.81866859333E+03  0.81866859333E+03  0.00000000000E+00 0.  1.
         24    2    1    2    0    0  0.24028451649E+02 -0.48816828695E+02 -0.72611179623E+03  0.73181561936E+03  0.73179989540E+02 0.  0.
         25    2    1    2    0    0 -0.47821589747E+02  0.47617548377E+02 -0.26514008083E+02  0.14458092116E+03  0.12508523006E+03 0.  0.
        -24    2    1    2    0    0  0.23793138098E+02  0.11992803179E+01  0.42408605918E+03  0.43240090101E+03  0.80956790393E+02 0.  0.
        -11    1    3    3    0    0  0.59909020086E+01 -0.39308148967E+02 -0.68266449491E+03  0.68382149286E+03  0.00000000000E+00 0.  1.
         12    1    3    3    0    0  0.18037549640E+02 -0.95086797284E+01 -0.43447301314E+02  0.47994126502E+02  0.00000000000E+00 0. -1.
         11    1    5    5    0    0  0.28106611830E+02  0.26676273644E+02  0.99369720964E+02  0.10665808290E+03  0.00000000000E+00 0. -1.
        -12    1    5    5    0    0 -0.43134737324E+01 -0.25476993327E+02  0.32471633821E+03  0.32574281811E+03  0.00000000000E+00 0.  1.
          5    1    4    4  501    0  0.26056641765E+02  0.51352330061E+02 -0.38683653730E+02  0.69497538436E+02  0.41800000000E+01 0.  1.
         -5    1    4    4    0  501 -0.73878231512E+02 -0.37347816841E+01  0.12169645647E+02  0.75083382720E+02  0.41800000000E+01 0.  1.
</event>
<event>
11    1  0.7157190E-009  0.1732753E+03  0.7561462E-02  0.1075216E+00
         22   -1    0    0    0    0  0.00000000000E+00  0.00000000000E+00  0.18925540834E+04  0.18925540834E+04  0.00000000000E+00 0.  1.
         22   -1    0    0    0    0 -0.00000000000E+00 -0.00000000000E+00 -0.78725330485E+03  0.78725330485E+03  0.00000000000E+00 0.  1.
         24    2    1    2    0    0  0.92816239415E+02  0.52513332734E+02 -0.73859208521E+03  0.75038966300E+03  0.78701166422E+02 0.  0.
         25    2    1    2    0    0  0.25344373791E+02 -0.93351230658E+02  0.11838649650E+03  0.19753345124E+03  0.12508921719E+03 0.  0.
        -24    2    1    2    0    0 -0.11816061321E+03  0.40837897924E+02  0.17255063673E+04  0.17318842740E+04  0.80132706611E+02 0.  0.
        -11    1    3    3    0    0  0.55962499276E+02 -0.19481402519E+01 -0.49213880721E+03  0.49531424585E+03  0.00000000000E+00 0.  1.
         12    1    3    3    0    0  0.36853740138E+02  0.54461472986E+02 -0.24645327799E+03  0.25507541715E+03  0.00000000000E+00 0. -1.
         13    1    5    5    0    0 -0.75481988574E+02 -0.10871703456E+02  0.68797412500E+03  0.69218792333E+03  0.00000000000E+00 0. -1.
        -14    1    5    5    0    0 -0.42678624631E+02  0.51709601381E+02  0.10375322423E+04  0.10396963507E+04  0.00000000000E+00 0.  1.
          5    1    4    4  501    0 -0.89419890020E+01 -0.44837071637E+02  0.12910290195E+03  0.13702318728E+03  0.41800000000E+01 0. -1.
         -5    1    4    4    0  501  0.34286362793E+02 -0.48514159022E+02 -0.10716405450E+02  0.60510263963E+02  0.41800000000E+01 0. -1.
</event>
<event>
11    1  0.7157190E-009  0.2361096E+03  0.7561462E-02  0.1031570E+00
         22   -1    0    0    0    0  0.00000000000E+00  0.00000000000E+00  0.28131582603E+04  0.28131582603E+04  0.00000000000E+00 0.  1.
         22   -1    0    0    0    0 -0.00000000000E+00 -0.00000000000E+00 -0.99948321491E+03  0.99948321491E+03  0.00000000000E+00 0.  1.
         24    2    1    2    0    0 -0.38213729006E+02 -0.12981147643E+02 -0.71886339133E+03  0.72399800267E+03  0.76024556564E+02 0.  0.
         25    2    1    2    0    0  0.93394094601E+02 -0.17954616076E+03 -0.22214099374E+03  0.32550501715E+03  0.12509042463E+03 0.  0.
        -24    2    1    2    0    0 -0.55180365595E+02  0.19252730841E+03  0.27546794305E+04  0.27631384554E+04  0.81016799442E+02 0.  0.
        -11    1    3    3    0    0 -0.33038427784E+02 -0.72736109794E+01 -0.71418190067E+03  0.71498267837E+03  0.00000000000E+00 0.  1.
         12    1    3    3    0    0 -0.51753012219E+01 -0.57075366635E+01 -0.46814906662E+01  0.90153243069E+01  0.00000000000E+00 0. -1.
         11    1    5    5    0    0  0.10290862337E+02  0.10278851084E+03  0.14988874831E+04  0.15024430328E+04  0.00000000000E+00 0. -1.
        -12    1    5    5    0    0 -0.65471227932E+02  0.89738797564E+02  0.12557919474E+04  0.12606954226E+04  0.00000000000E+00 0.  1.
          5    1    4    4  501    0  0.60018051840E+02 -0.88633314936E+02 -0.31540258885E+02  0.11167045891E+03  0.41800000000E+01 0. -1.
         -5    1    4    4    0  501  0.33376042761E+02 -0.90912845827E+02 -0.19060073486E+03  0.21383455823E+03  0.41800000000E+01 0. -1.
</event>
<event>
11    1  0.7157190E-009  0.1988907E+03  0.7561462E-02  0.1055311E+00
         22   -1    0    0    0    0  0.00000000000E+00  0.00000000000E+00  0.21486670386E+04  0.21486670386E+04  0.00000000000E+00 0.  1.
         22   -1    0    0    0    0 -0.00000000000E+00 -0.00000000000E+00 -0.17326149972E+03  0.17326149972E+03  0.00000000000E+00 0.  1.
         24    2    1    2    0    0 -0.62886115868E+02 -0.11031027466E+03 -0.11232903447E+03  0.18810142640E+03  0.81494259688E+02 0.  0.
         25    2    1    2    0    0 -0.19042463886E+02  0.22251716897E+03  0.92967971137E+03  0.96427615405E+03  0.12509048573E+03 0.  0.
        -24    2    1    2    0    0  0.81928579754E+02 -0.11220689431E+03  0.11580548620E+04  0.11695509579E+04  0.86346397721E+02 0.  0.
        -11    1    3    3    0    0 -0.73720815902E+02 -0.11686592435E+03 -0.10167723066E+03  0.17155367150E+03  0.00000000000E+00 0.  1.
         12    1    3    3    0    0  0.10834700034E+02  0.65556496857E+01 -0.10651803809E+02  0.16547754894E+02  0.00000000000E+00 0. -1.
         13    1    5    5    0    0  0.92704367047E+01  0.14670002962E+02  0.12825334194E+03  0.12942206034E+03  0.00000000000E+00 0. -1.
        -14    1    5    5    0    0  0.72658143049E+02 -0.12687689727E+03  0.10298015201E+04  0.10401288976E+04  0.00000000000E+00 0.  1.
          5    1    4    4  501    0  0.10446400507E+02  0.17621455359E+03  0.48388952530E+03  0.51509925381E+03  0.41800000000E+01 0.  1.
         -5    1    4    4    0  501 -0.29488864393E+02  0.46302615382E+02  0.44579018607E+03  0.44917690024E+03  0.41800000000E+01 0.  1.
</event>
<event>
11    1  0.7157190E-009  0.1657847E+03  0.7561462E-02  0.1081759E+00
         22   -1    0    0    0    0  0.00000000000E+00  0.00000000000E+00  0.22453911313E+03  0.22453911313E+03  0.00000000000E+00 0. -1.
         22   -1    0    0    0    0 -0.00000000000E+00 -0.00000000000E+00 -0.13120779233E+04  0.13120779233E+04  0.00000000000E+00 0. -1.
        -24    2    1    2    0    0  0.17648168016E+02 -0.63295756192E+01 -0.85832156356E+03  0.86231859179E+03  0.80783203245E+02 0.  0.
         25    2    1    2    0    0 -0.95243105688E+02  0.81392771330E+02 -0.41136999220E+03  0.44784896122E+03  0.12508952466E+03 0.  0.
         24    2    1    2    0    0  0.77594937672E+02 -0.75063195711E+02  0.18215274554E+03  0.22644948346E+03  0.80276323719E+02 0.  0.
        -13    1    5    5    0    0  0.40927976144E+02 -0.86457560618E+02  0.13837432785E+03  0.16821849966E+03  0.00000000000E+00 0.  1.
         14    1    5    5    0    0  0.36666961529E+02  0.11394364907E+02  0.43778417690E+02  0.58230983805E+02  0.00000000000E+00 0. -1.
         11    1    3    3    0    0 -0.27553187781E+02 -0.99045768785E+01 -0.53890469383E+03  0.53969949772E+03  0.00000000000E+00 0. -1.
        -12    1    3    3    0    0  0.45201355797E+02  0.35750012593E+01 -0.31941686972E+03  0.32261909408E+03  0.00000000000E+00 0.  1.
          5    1    4    4  501    0 -0.99854187788E+02  0.63773774718E+02 -0.41243137698E+03  0.42913292379E+03  0.41800000000E+01 0.  1.
         -5    1    4    4    0  501  0.46110820999E+01  0.17618996612E+02  0.10613847770E+01  0.18716037438E+02  0.41800000000E+01 0.  1.
</event>
<event>
11    1  0.7157190E-009  0.2237502E+03  0.7561462E-02  0.1038893E+00
         22   -1    0    0    0    0  0.00000000000E+00  0.00000000000E+00  0.77892781633E+03  0.77892781633E+03  0.00000000000E+00 0. -1.
         22   -1    0    0    0    0 -0.00000000000E+00 -0.00000000000E+00 -0.11386202830E+04  0.11386202830E+04  0.00000000000E+00 0. -1.
         24    2    1    2    0    0  0.12363324550E+03  0.16201403574E+03 -0.93544136332E+03  0.96073780950E+03  0.80205157024E+02 0.  0.
         25    2    1    2    0    0  0.14399430963E+02 -0.14518356887E+03 -0.13070259282E+03  0.23241400576E+03  0.12508992774E+03 0.  0.
        -24    2    1    2    0    0 -0.13803267646E+03 -0.16830466875E+02  0.70645148951E+03  0.72439628403E+03  0.79624022123E+02 0.  0.
        -13    1    3    3    0    0  0.91815441787E+01  0.55230661069E+02 -0.15622341902E+03  0.16595325645E+03  0.00000000000E+00 0.  1.
         14    1    3    3    0    0  0.11445170132E+03  0.10678337467E+03 -0.77921794430E+03  0.79478455305E+03  0.00000000000E+00 0. -1.
         13    1    5    5    0    0 -0.35447600104E+02 -0.32974317171E+01  0.38633527841E+03  0.38797210306E+03  0.00000000000E+00 0. -1.
        -14    1    5    5    0    0 -0.10258507636E+03 -0.13533035158E+02  0.32011621110E+03  0.33642418097E+03  0.00000000000E+00 0.  1.
          5    1    4    4  501    0  0.39296820378E+02  0.48962306630E+01 -0.31148440423E+02  0.50556017518E+02  0.41800000000E+01 0.  1.
         -5    1    4    4    0  501 -0.24897389415E+02 -0.15007979953E+03 -0.99554152399E+02  0.18185798824E+03  0.41800000000E+01 0.  1.
</event>
<event>
11    1  0.7157190E-009  0.1802599E+03  0.7561462E-02  0.1069433E+00
         22   -1    0    0    0    0  0.00000000000E+00  0.00000000000E+00  0.11626180659E+03  0.11626180659E+03  0.00000000000E+00 0.  1.
         22   -1    0    0    0    0 -0.00000000000E+00 -0.00000000000E+00 -0.28177220461E+04  0.28177220461E+04  0.00000000000E+00 0.  1.
         24    2    1    2    0    0 -0.12578118792E+03  0.18623769998E+02 -0.22734263611E+04  0.22783700989E+04  0.79593570451E+02 0.  0.
         25    2    1    2    0    0  0.14183062717E+03 -0.62592883463E+02 -0.49984113670E+03  0.53807275606E+03  0.12508930017E+03 0.  0.
        -24    2    1    2    0    0 -0.16049439250E+02  0.43969113465E+02  0.71807258227E+02  0.11754099774E+03  0.80428455010E+02 0.  0.
        -11    1    3    3    0    0 -0.40498812431E+02  0.24526939563E+02 -0.13927182558E+04  0.13935228252E+04  0.00000000000E+00 0.  1.
         12    1    3    3    0    0 -0.85282375485E+02 -0.59031695656E+01 -0.88070810530E+03  0.88484727367E+03  0.00000000000E+00 0. -1.
         11    1    5    5    0    0 -0.33049850387E+02 -0.10916844885E+02  0.19815718656E+02  0.40051626917E+02  0.00000000000E+00 0. -1.
        -12    1    5    5    0    0  0.17000411137E+02  0.54885958350E+02  0.51991539571E+02  0.77489370818E+02  0.00000000000E+00 0.  1.
          5    1    4    4  501    0  0.17951072528E+02  0.11564265943E+01  0.70649504627E+00  0.18481067680E+02  0.41800000000E+01 0.  1.
         -5    1    4    4    0  501  0.12387955464E+03 -0.63749310057E+02 -0.50054763174E+03  0.51959168838E+03  0.41800000000E+01 0.  1.
</event>
<event>
11    1  0.7157190E-009  0.1359758E+03  0.7561462E-02  0.1112137E+00
         22   -1    0    0    0    0  0.00000000000E+00  0.00000000000E+00  0.83671981675E+03  0.83671981675E+03  0.00000000000E+00 0.  1.
         22   -1    0    0    0    0 -0.00000000000E+00 -0.00000000000E+00 -0.10500232805E+04  0.10500232805E+04  0.00000000000E+00 0. -1.
        -24    2    1    2    0    0 -0.19347167135E+02  0.50428371764E+02 -0.93394947625E+03  0.94199846748E+03  0.11037280007E+03 0.  0.
         25    2    1    2    0    0 -0.68269688228E+02 -0.67553981731E+02 -0.49631435480E+02  0.16533031756E+03  0.12508614527E+03 0.  0.
         24    2    1    2    0    0  0.87616855363E+02  0.17125609967E+02  0.77027744795E+03  0.77941431225E+03  0.78672253436E+02 0.  0.
        -13    1    5    5    0    0  0.59627089188E+02 -0.91615242281E+01  0.65785220379E+03  0.66061247742E+03  0.00000000000E+00 0.  1.
         14    1    5    5    0    0  0.27989766175E+02  0.26287134195E+02  0.11242524415E+03  0.11880183482E+03  0.00000000000E+00 0. -1.
         13    1    3    3    0    0 -0.97501514136E+01  0.24026972932E+02 -0.88633984071E+03  0.88671905027E+03  0.00000000000E+00 0. -1.
        -14    1    3    3    0    0 -0.95970157219E+01  0.26401398832E+02 -0.47609635541E+02  0.55279417213E+02  0.00000000000E+00 0.  1.
          5    1    4    4  501    0 -0.43888780167E+02 -0.44584324855E+02 -0.91890203065E+02  0.11124418577E+03  0.41800000000E+01 0. -1.
         -5    1    4    4    0  501 -0.24380908061E+02 -0.22969656876E+02  0.42258767585E+02  0.54086131796E+02  0.41800000000E+01 0. -1.
</event>
<event>
11    1  0.7157190E-009  0.1380178E+03  0.7561462E-02  0.1109792E+00
         22   -1    0    0    0    0  0.00000000000E+00  0.00000000000E+00  0.35599445318E+03  0.35599445318E+03  0.00000000000E+00 0.  1.
         22   -1    0    0    0    0 -0.00000000000E+00 -0.00000000000E+00 -0.45243071656E+03  0.45243071656E+03  0.00000000000E+00 0. -1.
        -24    2    1    2    0    0  0.18529066467E+02 -0.17371322602E+02 -0.37643221621E+03  0.38560311044E+03  0.79645817348E+02 0.  0.
         25    2    1    2    0    0 -0.22573107108E+02  0.73171408086E+02  0.23620496509E+02  0.14855537224E+03  0.12508865113E+03 0.  0.
         24    2    1    2    0    0  0.40440406413E+01 -0.55800085484E+02  0.25637545632E+03  0.27426668706E+03  0.79773662458E+02 0.  0.
        -13    1    5    5    0    0 -0.82812169623E+01 -0.11653896419E+02  0.20467806506E+03  0.20517675836E+03  0.00000000000E+00 0.  1.
         14    1    5    5    0    0  0.12325257604E+02 -0.44146189065E+02  0.51697391262E+02  0.69089928696E+02  0.00000000000E+00 0. -1.
         13    1    3    3    0    0  0.37472074957E+02 -0.32260499236E+02 -0.32579579192E+03  0.32952662145E+03  0.00000000000E+00 0. -1.
        -14    1    3    3    0    0 -0.18943008491E+02  0.14889176634E+02 -0.50636424292E+02  0.56076488983E+02  0.00000000000E+00 0.  1.
          5    1    4    4  501    0  0.44938004544E+02  0.61885154528E+02  0.23014770354E+02  0.79977175855E+02  0.41800000000E+01 0. -1.
         -5    1    4    4    0  501 -0.67511111652E+02  0.11286253559E+02  0.60572615495E+00  0.68578196389E+02  0.41800000000E+01 0. -1.
</event>
<event>
11    1  0.7157190E-009  0.1406390E+03  0.7561462E-02  0.1106847E+00
         22   -1    0    0    0    0  0.00000000000E+00  0.00000000000E+00  0.11279178154E+04  0.11279178154E+04  0.00000000000E+00 0. -1.
         22   -1    0    0    0    0 -0.00000000000E+00 -0.00000000000E+00 -0.17285778691E+04  0.17285778691E+04  0.00000000000E+00 0.  1.
        -24    2    1    2    0    0 -0.61985266334E+02 -0.17591484555E+02 -0.16495577449E+04  0.16527375797E+04  0.79681367022E+02 0.  0.
         25    2    1    2    0    0  0.66163026117E+02 -0.23069278538E+02 -0.74605373901E+01  0.14357246667E+03  0.12509059089E+03 0.  0.
         24    2    1    2    0    0 -0.41777597834E+01  0.40660763093E+02  0.10563582285E+04  0.10601856381E+04  0.80188084826E+02 0.  0.
        -11    1    5    5    0    0  0.10168527759E+02  0.12922538469E+02  0.38702324313E+02  0.42050693983E+02  0.00000000000E+00 0.  1.
         12    1    5    5    0    0 -0.14346287543E+02  0.27738224624E+02  0.10176559042E+04  0.10181349441E+04  0.00000000000E+00 0. -1.
         13    1    3    3    0    0 -0.35615883303E+02 -0.28615466289E+02 -0.36318636867E+03  0.36604873233E+03  0.00000000000E+00 0. -1.
        -14    1    3    3    0    0 -0.26369383030E+02  0.11023981735E+02 -0.12863713762E+04  0.12866888474E+04  0.00000000000E+00 0.  1.
          5    1    4    4  501    0 -0.68041881879E+01 -0.14572029787E+02 -0.54007757783E+02  0.56506206117E+02  0.41800000000E+01 0. -1.
         -5    1    4    4    0  501  0.72967214305E+02 -0.84972487503E+01  0.46547220393E+02  0.87066260549E+02  0.41800000000E+01 0. -1.
</event>
<event>
11    1  0.7157190E-009  0.1594582E+03  0.7561462E-02  0.1087588E+00
         22   -1    0    0    0    0  0.00000000000E+00  0.00000000000E+00  0.44446683017E+03  0.44446683017E+03  0.00000000000E+00 0. -1.
         22   -1    0    0    0    0 -0.00000000000E+00 -0.00000000000E+00 -0.33232619495E+03  0.33232619495E+03  0.00000000000E+00 0.  1.
         24    2    1    2    0    0  0.79964258280E+01  0.98791917824E+02 -0.26622126286E+03  0.29525497885E+03  0.80485749545E+02 0.  0.
         25    2    1    2    0    0 -0.28380857941E+02 -0.94604086133E+02  0.93530208468E+02  0.18479705357E+03  0.12508654964E+03 0.  0.
        -24    2    1    2    0    0  0.20384432113E+02 -0.41878316908E+01  0.28483168961E+03  0.29674099270E+03  0.80579540401E+02 0.  0.
        -11    1    3    3    0    0  0.40858886838E+01  0.79810557051E+02 -0.10048120842E+03  0.12838571863E+03  0.00000000000E+00 0.  1.
         12    1    3    3    0    0  0.39105371441E+01  0.18981360773E+02 -0.16574005445E+03  0.16686926022E+03  0.00000000000E+00 0. -1.
         11    1    5    5    0    0 -0.14215367867E+02 -0.28520972106E+02  0.19328450525E+03  0.19589390624E+03  0.00000000000E+00 0. -1.
        -12    1    5    5    0    0  0.34599799980E+02  0.24333140415E+02  0.91547184362E+02  0.10084708645E+03  0.00000000000E+00 0.  1.
          5    1    4    4  501    0 -0.50656159551E+02 -0.24142461689E+02  0.95397317139E+02  0.11075660465E+03  0.41800000000E+01 0. -1.
         -5    1    4    4    0  501  0.22275301610E+02 -0.70461624443E+02 -0.18671086709E+01  0.74040448917E+02  0.41800000000E+01 0. -1.
</event>
<event>
11    1  0.7157190E-009  0.1368814E+03  0.7561462E-02  0.1111092E+00
         22   -1    0    0    0    0  0.00000000000E+00  0.00000000000E+00  0.12108495359E+04  0.12108495359E+04  0.00000000000E+00 0. -1.
         22   -1    0    0    0    0 -0.00000000000E+00 -0.00000000000E+00 -0.40974745282E+02  0.40974745282E+02  0.00000000000E+00 0.  1.
        -24    2    1    2    0    0 -0.25091626829E+02 -0.51298685260E+02  0.49354339420E+02  0.10896805334E+03  0.78594153617E+02 0.  0.
         25    2    1    2    0    0  0.49460971608E+02  0.22652402493E+02  0.63140062690E+03  0.64596724360E+03  0.12508960427E+03 0.  0.
         24    2    1    2    0    0 -0.24369344779E+02  0.28646282767E+02  0.48911982431E+03  0.49688898427E+03  0.79031548548E+02 0.  0.
        -13    1    5    5    0    0 -0.29595041956E+02  0.47320519699E+01  0.59975961381E+02  0.67047556017E+02  0.00000000000E+00 0.  1.
         14    1    5    5    0    0  0.52256971777E+01  0.23914230797E+02  0.42914386293E+03  0.42984142825E+03  0.00000000000E+00 0. -1.
         13    1    3    3    0    0  0.31384439598E+01  0.15996127261E+02  0.28898536099E+02  0.33179079350E+02  0.00000000000E+00 0. -1.
        -14    1    3    3    0    0 -0.28230070789E+02 -0.67294812521E+02  0.20455803321E+02  0.75788973990E+02  0.00000000000E+00 0.  1.
          5    1    4    4  501    0  0.71954135069E+02 -0.21395792325E+02  0.49777460520E+03  0.50342050759E+03  0.41800000000E+01 0.  1.
         -5    1    4    4    0  501 -0.22493163462E+02  0.44048194818E+02  0.13362602170E+03  0.14254673600E+03  0.41800000000E+01 0.  1.
</event>
<event>
11    1  0.7157190E-009  0.1758777E+03  0.7561462E-02  0.1073027E+00
         22   -1    0    0    0    0  0.00000000000E+00  0.00000000000E+00  0.11187458320E+04  0.11187458320E+04  0.00000000000E+00 0. -1.
         22   -1    0    0    0    0 -0.00000000000E+00 -0.00000000000E+00 -0.52454570604E+03  0.52454570604E+03  0.00000000000E+00 0.  1.
        -24    2    1    2    0    0 -0.40294313233E+02 -0.11476707802E+03 -0.42419644449E+03  0.44872958401E+03  0.81366468367E+02 0.  0.
         25    2    1    2    0    0  0.11454995760E+03  0.10949802736E+03  0.34920421248E+02  0.20488511919E+03  0.12508783099E+03 0.  0.
         24    2    1    2    0    0 -0.74255644366E+02  0.52690506587E+01  0.98347614917E+03  0.98967683481E+03  0.81812210319E+02 0.  0.
        -11    1    5    5    0    0 -0.14789614798E+02  0.38888345634E+01  0.24655465595E+02  0.29012888926E+02  0.00000000000E+00 0.  1.
         12    1    5    5    0    0 -0.59466029569E+02  0.13802160953E+01  0.95882068357E+03  0.96066394588E+03  0.00000000000E+00 0. -1.
         13    1    3    3    0    0  0.82248345321E+01 -0.32205036112E+02 -0.36437045922E+02  0.49320082823E+02  0.00000000000E+00 0. -1.
        -14    1    3    3    0    0 -0.48519147766E+02 -0.82562041909E+02 -0.38775939856E+03  0.39940950119E+03  0.00000000000E+00 0.  1.
          5    1    4    4  501    0  0.10821875937E+03  0.53033564296E+02  0.68568240452E+02  0.13871890577E+03  0.41800000000E+01 0. -1.
         -5    1    4    4    0  501  0.63311982346E+01  0.56464463067E+02 -0.33647819203E+02  0.66166213415E+02  0.41800000000E+01 0. -1.
</event>
<event>
11    1  0.7157190E-009  0.2798304E+03  0.7561462E-02  0.1009108E+00
         22   -1    0    0    0    0  0.00000000000E+00  0.00000000000E+00  0.14117413311E+04  0.14117413311E+04  0.00000000000E+00 0.  1.
         22   -1    0    0    0    0 -0.00000000000E+00 -0.00000000000E+00 -0.23051460642E+03  0.23051460642E+03  0.00000000000E+00 0. -1.
         24    2    1    2    0    0 -0.83264724974E+02 -0.24567580440E+03 -0.99277331451E+02  0.29112703723E+03  0.87231576679E+02 0.  0.
         25    2    1    2    0    0  0.58722354083E+02  0.19934040116E+03  0.41746464552E+03  0.48281424589E+03  0.12509178779E+03 0.  0.
        -24    2    1    2    0    0  0.24542370891E+02  0.46335403238E+02  0.86303941057E+03  0.86831465437E+03  0.79900045238E+02 0.  0.
        -11    1    3    3    0    0 -0.18161065732E+02  0.10772260583E+01 -0.33657806831E+01  0.18501708140E+02  0.00000000000E+00 0.  1.
         12    1    3    3    0    0 -0.65103659242E+02 -0.24675303046E+03 -0.95911550768E+02  0.27262532909E+03  0.00000000000E+00 0. -1.
         13    1    5    5    0    0 -0.39404980489E+01 -0.12500211613E+01  0.69890733924E+00  0.41926780518E+01  0.00000000000E+00 0. -1.
        -14    1    5    5    0    0  0.28482868940E+02  0.47585424400E+02  0.86234050323E+03  0.86412197631E+03  0.00000000000E+00 0.  1.
          5    1    4    4  501    0  0.93191130770E+02  0.18010836679E+03  0.34627800180E+03  0.40130977757E+03  0.41800000000E+01 0. -1.
         -5    1    4    4    0  501 -0.34468776687E+02  0.19232034376E+02  0.71186643719E+02  0.81504468322E+02  0.41800000000E+01 0. -1.
</event>
<event>
11    1  0.7157190E-009  0.1412160E+03  0.7561462E-02  0.1106208E+00
         22   -1    0    0    0    0  0.00000000000E+00  0.00000000000E+00  0.17787241344E+04  0.17787241344E+04  0.00000000000E+00 0. -1.
         22   -1    0    0    0    0 -0.00000000000E+00 -0.00000000000E+00 -0.83404322703E+03  0.83404322703E+03  0.00000000000E+00 0. -1.
        -24    2    1    2    0    0 -0.61277637764E+01 -0.32633857268E+02 -0.80595411406E+03  0.81063667683E+03  0.80419336741E+02 0.  0.
         25    2    1    2    0    0 -0.58819243233E+02  0.19175963876E+02  0.17797568791E+03  0.22616053752E+03  0.12508326139E+03 0.  0.
         24    2    1    2    0    0  0.64947007009E+02  0.13457893392E+02  0.15726593335E+04  0.15759701471E+04  0.77622784125E+02 0.  0.
        -13    1    5    5    0    0  0.10790844303E+02  0.12789989891E+02  0.58601542917E+02  0.60943966022E+02  0.00000000000E+00 0.  1.
         14    1    5    5    0    0  0.54156162706E+02  0.66790350052E+00  0.15140577906E+04  0.15150261811E+04  0.00000000000E+00 0. -1.
         11    1    3    3    0    0  0.20246972170E+02 -0.16965232323E+02 -0.69549914162E+03  0.69600058547E+03  0.00000000000E+00 0. -1.
        -12    1    3    3    0    0 -0.26374735946E+02 -0.15668624945E+02 -0.11045497244E+03  0.11463609135E+03  0.00000000000E+00 0.  1.
          5    1    4    4  501    0 -0.38832748157E+02 -0.50616983053E+02  0.10636752214E+03  0.12410311627E+03  0.41800000000E+01 0.  1.
         -5    1    4    4    0  501 -0.19986495076E+02  0.69792946929E+02  0.71608165777E+02  0.10205742125E+03  0.41800000000E+01 0.  1.
</event>
<event>
11    1  0.7157190E-009  0.1802381E+03  0.7561462E-02  0.1069450E+00
         22   -1    0    0    0    0  0.00000000000E+00  0.00000000000E+00  0.75332872341E+03  0.75332872341E+03  0.00000000000E+00 0. -1.
         22   -1    0    0    0    0 -0.00000000000E+00 -0.00000000000E+00 -0.32160034602E+03  0.32160034602E+03  0.00000000000E+00 0.  1.
        -24    2    1    2    0    0  0.73763239063E+01  0.14485866248E+03 -0.20598589148E+03  0.26477159056E+03  0.81457752394E+02 0.  0.
         25    2    1    2    0    0  0.39775838921E+02 -0.89628464585E+02 -0.44164939964E+01  0.15900312328E+03  0.12508840381E+03 0.  0.
         24    2    1    2    0    0 -0.47152162827E+02 -0.55230197896E+02  0.64213076287E+03  0.65115435559E+03  0.79977352809E+02 0.  0.
        -13    1    5    5    0    0 -0.15356416723E+02 -0.52905873409E+02  0.18798077055E+03  0.19588675573E+03  0.00000000000E+00 0.  1.
         14    1    5    5    0    0 -0.31795746104E+02 -0.23243244874E+01  0.45414999232E+03  0.45526759986E+03  0.00000000000E+00 0. -1.
         11    1    3    3    0    0  0.31263625009E+02  0.62451517464E+02 -0.47219672734E+02  0.84304826525E+02  0.00000000000E+00 0. -1.
        -12    1    3    3    0    0 -0.23887301103E+02  0.82407145017E+02 -0.15876621875E+03  0.18046676403E+03  0.00000000000E+00 0.  1.
          5    1    4    4  501    0  0.79714270063E+02 -0.74470433294E+02 -0.24078109933E+02  0.11179194096E+03  0.41800000000E+01 0. -1.
         -5    1    4    4    0  501 -0.39938431142E+02 -0.15158031291E+02  0.19661615936E+02  0.47211182318E+02  0.41800000000E+01 0. -1.
</event>
<event>
11    1  0.7157190E-009  0.1408545E+03  0.7561462E-02  0.1106608E+00
         22   -1    0    0    0    0  0.00000000000E+00  0.00000000000E+00  0.45444224546E+03  0.45444224546E+03  0.00000000000E+00 0. -1.
         22   -1    0    0    0    0 -0.00000000000E+00 -0.00000000000E+00 -0.89432931761E+03  0.89432931761E+03  0.00000000000E+00 0.  1.
         24    2    1    2    0    0  0.26802164254E+02  0.90500338429E+01 -0.55289248193E+03  0.56100125322E+03  0.90730647590E+02 0.  0.
         25    2    1    2    0    0 -0.41782073132E+02  0.53988872673E+02 -0.31583004810E+03  0.34649215112E+03  0.12509057317E+03 0.  0.
        -24    2    1    2    0    0  0.14979908878E+02 -0.63038906516E+02  0.42883545789E+03  0.44127815874E+03  0.81414139015E+02 0.  0.
        -11    1    3    3    0    0  0.30063912104E+02 -0.25255537538E+02 -0.46407267754E+03  0.46573074950E+03  0.00000000000E+00 0.  1.
         12    1    3    3    0    0 -0.32617478500E+01  0.34305571381E+02 -0.88819804390E+02  0.95270503718E+02  0.00000000000E+00 0. -1.
         11    1    5    5    0    0  0.42626874418E+02 -0.61620226574E+02  0.27783246862E+03  0.28775855046E+03  0.00000000000E+00 0. -1.
        -12    1    5    5    0    0 -0.27646965541E+02 -0.14186799424E+01  0.15100298927E+03  0.15351960827E+03  0.00000000000E+00 0.  1.
          5    1    4    4  501    0 -0.43615532403E+02  0.11233895461E+02 -0.23417013064E+02  0.50934703051E+02  0.41800000000E+01 0. -1.
         -5    1    4    4    0  501  0.18334592714E+01  0.42754977212E+02 -0.29241303503E+03  0.29555744807E+03  0.41800000000E+01 0. -1.
</event>
<event>
11    1  0.7157190E-009  0.1353871E+03  0.7561462E-02  0.1112822E+00
         22   -1    0    0    0    0  0.00000000000E+00  0.00000000000E+00  0.16289232544E+04  0.16289232544E+04  0.00000000000E+00 0.  1.
         22   -1    0    0    0    0 -0.00000000000E+00 -0.00000000000E+00 -0.10342766591E+04  0.10342766591E+04  0.00000000000E+00 0.  1.
        -24    2    1    2    0    0  0.36527026335E+02 -0.36418570151E+02 -0.10063256070E+04  0.10108570452E+04  0.80499705350E+02 0.  0.
         25    2    1    2    0    0 -0.38228717970E+02  0.63345829922E+02  0.19159853316E+03  0.24048185092E+03  0.12508954260E+03 0.  0.
         24    2    1    2    0    0  0.17016916349E+01 -0.26927259771E+02  0.14093736691E+04  0.14118610174E+04  0.79305863953E+02 0.  0.
        -11    1    5    5    0    0  0.44702157897E+01  0.61286635431E+01  0.11872378484E+04  0.11872620823E+04  0.00000000000E+00 0.  1.
         12    1    5    5    0    0 -0.27685241548E+01 -0.33055923314E+02  0.22213582076E+03  0.22459893512E+03  0.00000000000E+00 0. -1.
         13    1    3    3    0    0  0.12592306854E+02  0.14183198289E+02 -0.61115928584E+02  0.63991296536E+02  0.00000000000E+00 0. -1.
        -14    1    3    3    0    0  0.23934719481E+02 -0.50601768440E+02 -0.94520967841E+03  0.94686574862E+03  0.00000000000E+00 0.  1.
          5    1    4    4  501    0 -0.69874657206E+02 -0.36287225499E+01  0.78719702079E+02  0.10540350678E+03  0.41800000000E+01 0.  1.
         -5    1    4    4    0  501  0.31645939236E+02  0.66974552471E+02  0.11287883108E+03  0.13507834414E+03  0.41800000000E+01 0.  1.
</event>
<event>
11    1  0.7157190E-009  0.1602051E+03  0.7561462E-02  0.1086885E+00
         22   -1    0    0    0    0  0.00000000000E+00  0.00000000000E+00  0.17038337099E+03  0.17038337099E+03  0.00000000000E+00 0.  1.
         22   -1    0    0    0    0 -0.00000000000E+00 -0.00000000000E+00 -0.21884628067E+04  0.21884628067E+04  0.00000000000E+00 0. -1.
        -24    2    1    2    0    0 -0.70449684479E+01 -0.50673335466E+02 -0.10717961435E+04  0.10760775439E+04  0.81107882930E+02 0.  0.
         25    2    1    2    0    0  0.44544406902E+02  0.14226452201E+03 -0.10803829966E+04  0.10977686196E+04  0.12508047182E+03 0.  0.
         24    2    1    2    0    0 -0.37499438454E+02 -0.91591186545E+02  0.13409970443E+03  0.18500001418E+03  0.80293967277E+02 0.  0.
        -11    1    5    5    0    0 -0.51688209824E+02 -0.92276311837E+02  0.13410534765E+03  0.17079471019E+03  0.00000000000E+00 0.  1.
         12    1    5    5    0    0  0.14188771370E+02  0.68512529231E+00 -0.56432144790E-02  0.14205303992E+02  0.00000000000E+00 0. -1.
         13    1    3    3    0    0  0.64526811144E+01 -0.71089835300E+02 -0.81119395771E+03  0.81432858159E+03  0.00000000000E+00 0. -1.
        -14    1    3    3    0    0 -0.13497649562E+02  0.20416499835E+02 -0.26060218583E+03  0.26174896231E+03  0.00000000000E+00 0.  1.
          5    1    4    4  501    0 -0.15102323669E+02 -0.44999751532E+01 -0.35049801930E+03  0.35087699254E+03  0.41800000000E+01 0. -1.
         -5    1    4    4    0  501  0.59646730571E+02  0.14676449716E+03 -0.72988497728E+03  0.74689162705E+03  0.41800000000E+01 0. -1.
</event>
<event>
11    1  0.7157190E-009  0.1467604E+03  0.7561462E-02  0.1100236E+00
         22   -1    0    0    0    0  0.00000000000E+00  0.00000000000E+00  0.49682421554E+03  0.49682421554E+03  0.00000000000E+00 0.  1.
         22   -1    0    0    0    0 -0.00000000000E+00 -0.00000000000E+00 -0.17620768568E+03  0.17620768568E+03  0.00000000000E+00 0.  1.
         24    2    1    2    0    0  0.13341077551E+02  0.32329740332E+02 -0.96049965422E+02  0.13145788035E+03  0.82658223969E+02 0.  0.
         25    2    1    2    0    0 -0.50233462808E+02  0.38167431383E+02  0.35738995197E+02  0.14458388578E+03  0.12508825142E+03 0.  0.
        -24    2    1    2    0    0  0.36892385257E+02 -0.70497171715E+02  0.38092750009E+03  0.39699013510E+03  0.78514379147E+02 0.  0.
        -13    1    3    3    0    0  0.39230615116E+02  0.45998684136E+02 -0.63386513241E+02  0.87594350077E+02  0.00000000000E+00 0.  1.
         14    1    3    3    0    0 -0.25889537565E+02 -0.13668943804E+02 -0.32663452181E+02  0.43863530278E+02  0.00000000000E+00 0. -1.
         11    1    5    5    0    0  0.16335427850E+02 -0.62559412101E+00  0.10406553806E+02  0.19378697922E+02  0.00000000000E+00 0. -1.
        -12    1    5    5    0    0  0.20556957407E+02 -0.69871577594E+02  0.37052094628E+03  0.37761143717E+03  0.00000000000E+00 0.  1.
          5    1    4    4  501    0 -0.71051377844E+02  0.36404984593E+01  0.63501688516E+02  0.95454116553E+02  0.41800000000E+01 0. -1.
         -5    1    4    4    0  501  0.20817915036E+02  0.34526932923E+02 -0.27762693318E+02  0.49129769222E+02  0.41800000000E+01 0. -1.
</event>
<event>
11    1  0.7157190E-009  0.1465780E+03  0.7561462E-02  0.1100428E+00
         22   -1    0    0    0    0  0.00000000000E+00  0.00000000000E+00  0.81501394324E+03  0.81501394324E+03  0.00000000000E+00 0.  1.
         22   -1    0    0    0    0 -0.00000000000E+00 -0.00000000000E+00 -0.12680834513E+04  0.12680834513E+04  0.00000000000E+00 0. -1.
        -24    2    1    2    0    0  0.54220957006E+02  0.66547432865E+02 -0.25952535893E+03  0.28493888321E+03  0.80425631720E+02 0.  0.
         25    2    1    2    0    0 -0.71164639798E+02 -0.26149088928E+02 -0.98781174068E+03  0.99858698758E+03  0.12512296326E+03 0.  0.
         24    2    1    2    0    0  0.16943682792E+02 -0.40398343937E+02  0.79426759155E+03  0.79957152375E+03  0.80836254381E+02 0.  0.
        -11    1    5    5    0    0 -0.18027532211E+01  0.69737332249E+01  0.55001978414E+03  0.55006694667E+03  0.00000000000E+00 0.  1.
         12    1    5    5    0    0  0.18746436013E+02 -0.47372077162E+02  0.24424780741E+03  0.24950457708E+03  0.00000000000E+00 0. -1.
         11    1    3    3    0    0  0.42509943148E+02  0.83853764870E+02 -0.23241698209E+03  0.25071139327E+03  0.00000000000E+00 0. -1.
        -12    1    3    3    0    0  0.11711013858E+02 -0.17306332004E+02 -0.27108376843E+02  0.34227489947E+02  0.00000000000E+00 0.  1.
          5    1    4    4  501    0 -0.71382080301E+02 -0.16772838925E+02 -0.24661628132E+03  0.25732040752E+03  0.41800000000E+01 0.  1.
         -5    1    4    4    0  501  0.21744050297E+00 -0.93762500032E+01 -0.74119545935E+03  0.74126658006E+03  0.41800000000E+01 0.  1.
</event>
<event>
11    1  0.7157190E-009  0.1501797E+03  0.7561462E-02  0.1096695E+00
         22   -1    0    0    0    0  0.00000000000E+00  0.00000000000E+00  0.62308453945E+03  0.62308453945E+03  0.00000000000E+00 0. -1.
         22   -1    0    0    0    0 -0.00000000000E+00 -0.00000000000E+00 -0.34168553497E+03  0.34168553497E+03  0.00000000000E+00 0.  1.
        -24    2    1    2    0    0  0.46948375434E+02 -0.70873101280E+02 -0.28921615724E+03  0.31349421391E+03  0.86055157352E+02 0.  0.
         25    2    1    2    0    0 -0.96968119529E+01  0.66463976195E+02  0.10322361176E+03  0.17554105341E+03  0.12509220245E+03 0.  0.
         24    2    1    2    0    0 -0.37251563481E+02  0.44091250850E+01  0.46739154996E+03  0.47573480710E+03  0.80384241938E+02 0.  0.
        -11    1    5    5    0    0 -0.11959949409E+01 -0.11627928919E+01 -0.32649514134E+01  0.36663877237E+01  0.00000000000E+00 0.  1.
         12    1    5    5    0    0 -0.36055568540E+02  0.55719179769E+01  0.47065650137E+03  0.47206841938E+03  0.00000000000E+00 0. -1.
         13    1    3    3    0    0  0.65881385630E+02 -0.42872130556E+02 -0.14057287948E+03  0.16105623551E+03  0.00000000000E+00 0. -1.
        -14    1    3    3    0    0 -0.18933010196E+02 -0.28000970725E+02 -0.14864327776E+03  0.15243797840E+03  0.00000000000E+00 0.  1.
          5    1    4    4  501    0 -0.25896273867E+02  0.99878595617E+02  0.86032030796E+02  0.13440734201E+03  0.41800000000E+01 0.  1.
         -5    1    4    4    0  501  0.16199461914E+02 -0.33414619422E+02  0.17191580965E+02  0.41133711400E+02  0.41800000000E+01 0.  1.
</event>
<event>
11    1  0.7157190E-009  0.1345750E+03  0.7561462E-02  0.1113772E+00
         22   -1    0    0    0    0  0.00000000000E+00  0.00000000000E+00  0.55393759221E+03  0.55393759221E+03  0.00000000000E+00 0.  1.
         22   -1    0    0    0    0 -0.00000000000E+00 -0.00000000000E+00 -0.27537469275E+03  0.27537469275E+03  0.00000000000E+00 0. -1.
         24    2    1    2    0    0 -0.45706437362E+02 -0.26854000035E-02 -0.13999496507E+03  0.16770434670E+03  0.80231410514E+02 0.  0.
         25    2    1    2    0    0  0.60874008197E+02  0.13324233872E+02 -0.76934088704E+02  0.15952847324E+03  0.12508916694E+03 0.  0.
        -24    2    1    2    0    0 -0.15167570834E+02 -0.13321548472E+02  0.49549195324E+03  0.50207946502E+03  0.78511111379E+02 0.  0.
        -11    1    3    3    0    0  0.63747126291E+01 -0.28740345778E+02 -0.69427201645E+02  0.75410747011E+02  0.00000000000E+00 0.  1.
         12    1    3    3    0    0 -0.52081149991E+02  0.28737660378E+02 -0.70567763428E+02  0.92293599690E+02  0.00000000000E+00 0. -1.
         13    1    5    5    0    0 -0.23361767023E+02 -0.24245632489E+01  0.40017381929E+02  0.46400878459E+02  0.00000000000E+00 0. -1.
        -14    1    5    5    0    0  0.81941961888E+01 -0.10896985223E+02  0.45547457131E+03  0.45567858656E+03  0.00000000000E+00 0.  1.
          5    1    4    4  501    0  0.36345474784E+02 -0.31150636134E+02 -0.94178359916E+02  0.10572791280E+03  0.41800000000E+01 0.  1.
         -5    1    4    4    0  501  0.24528533413E+02  0.44474870006E+02  0.17244271212E+02  0.53800560434E+02  0.41800000000E+01 0.  1.
</event>
<event>
11    1  0.7157190E-009  0.1591421E+03  0.7561462E-02  0.1087887E+00
         22   -1    0    0    0    0  0.00000000000E+00  0.00000000000E+00  0.15803617217E+04  0.15803617217E+04  0.00000000000E+00 0.  1.
         22   -1    0    0    0    0 -0.00000000000E+00 -0.00000000000E+00 -0.16272248741E+03  0.16272248741E+03  0.00000000000E+00 0. -1.
        -24    2    1    2    0    0  0.12643379107E+02 -0.58164668560E+02 -0.10141175797E+03  0.14275853466E+03  0.80948569223E+02 0.  0.
         25    2    1    2    0    0 -0.10505423443E+03  0.22909504596E+02  0.14194303683E+03  0.21761737701E+03  0.12509300339E+03 0.  0.
         24    2    1    2    0    0  0.92410855327E+02  0.35255163964E+02  0.13771079555E+04  0.13827082975E+04  0.75320794924E+02 0.  0.
        -11    1    5    5    0    0  0.59878729268E+02  0.23119050290E+02  0.12253009832E+04  0.12269810317E+04  0.00000000000E+00 0.  1.
         12    1    5    5    0    0  0.32532126059E+02  0.12136113674E+02  0.15180697225E+03  0.15572726577E+03  0.00000000000E+00 0. -1.
         11    1    3    3    0    0 -0.94182103567E+01 -0.63402929807E+02 -0.10154477200E+03  0.12008319997E+03  0.00000000000E+00 0. -1.
        -12    1    3    3    0    0  0.22061589464E+02  0.52382612469E+01  0.13301402737E+00  0.22675334690E+02  0.00000000000E+00 0.  1.
          5    1    4    4  501    0 -0.34827168402E+02 -0.29398642454E+02 -0.54831179903E+01  0.46094997775E+02  0.41800000000E+01 0.  1.
         -5    1    4    4    0  501 -0.70227066033E+02  0.52308147050E+02  0.14742615482E+03  0.17152237923E+03  0.41800000000E+01 0.  1.
</event>
<event>
11    1  0.7157190E-009  0.1357548E+03  0.7561462E-02  0.1112394E+00
         22   -1    0    0    0    0  0.00000000000E+00  0.00000000000E+00  0.11426810306E+04  0.11426810306E+04  0.00000000000E+00 0. -1.
         22   -1    0    0    0    0 -0.00000000000E+00 -0.00000000000E+00 -0.13271743771E+03  0.13271743771E+03  0.00000000000E+00 0. -1.
        -24    2    1    2    0    0  0.10021010613E+02 -0.39294715259E+02 -0.10172498745E+03  0.13634891314E+03  0.81231507078E+02 0.  0.
         25    2    1    2    0    0 -0.34238101060E+02  0.72523845639E+02  0.56980862234E+03  0.58886413649E+03  0.12508856626E+03 0.  0.
         24    2    1    2    0    0  0.24217090447E+02 -0.33229130380E+02  0.54187995802E+03  0.55018541869E+03  0.85903803497E+02 0.  0.
        -11    1    5    5    0    0 -0.21995218235E+01 -0.45817725624E+02  0.14175611251E+03  0.14899294383E+03  0.00000000000E+00 0.  1.
         12    1    5    5    0    0  0.26416612270E+02  0.12588595244E+02  0.40012384551E+03  0.40119247485E+03  0.00000000000E+00 0. -1.
         11    1    3    3    0    0  0.22181669279E+02  0.19724955381E+02 -0.42648756696E+02  0.51961685543E+02  0.00000000000E+00 0. -1.
        -12    1    3    3    0    0 -0.12160658666E+02 -0.59019670640E+02 -0.59076230757E+02  0.84387227600E+02  0.00000000000E+00 0.  1.
          5    1    4    4  501    0  0.15090213555E+02  0.91274978198E+02  0.30226441216E+03  0.31613301543E+03  0.41800000000E+01 0.  1.
         -5    1    4    4    0  501 -0.49328314615E+02 -0.18751132559E+02  0.26754421018E+03  0.27273112106E+03  0.41800000000E+01 0.  1.
</event>
<event>
11    1  0.7157190E-009  0.2138148E+03  0.7561462E-02  0.1045163E+00
         22   -1    0    0    0    0  0.00000000000E+00  0.00000000000E+00  0.20640273839E+03  0.20640273839E+03  0.00000000000E+00 0.  1.
         22   -1    0    0    0    0 -0.00000000000E+00 -0.00000000000E+00 -0.25498688273E+04  0.25498688273E+04  0.00000000000E+00 0. -1.
         24    2    1    2    0    0  0.24064361020E+02  0.40865764460E+02 -0.23220505063E+04  0.23238969844E+04  0.79558381169E+02 0.  0.
         25    2    1    2    0    0 -0.44586798787E+01 -0.20142045222E+03 -0.68973173514E+02  0.24697155874E+03  0.12509026247E+03 0.  0.
        -24    2    1    2    0    0 -0.19605681141E+02  0.16055468776E+03  0.47557590857E+02  0.18540302262E+03  0.77138614549E+02 0.  0.
        -13    1    3    3    0    0  0.10551898183E+02 -0.44794973810E+01 -0.47837330093E+02  0.49191651755E+02  0.00000000000E+00 0.  1.
         14    1    3    3    0    0  0.13512462837E+02  0.45345261841E+02 -0.22742131762E+04  0.22747053326E+04  0.00000000000E+00 0. -1.
         11    1    5    5    0    0 -0.48005925698E+02  0.97202869916E+02  0.40047946521E+02  0.11557164377E+03  0.00000000000E+00 0. -1.
        -12    1    5    5    0    0  0.28400244557E+02  0.63351817839E+02  0.75096443362E+01  0.69831378853E+02  0.00000000000E+00 0.  1.
          5    1    4    4  501    0  0.83831335442E+01  0.83343094148E+01  0.15938481098E+02  0.20279181965E+02  0.41800000000E+01 0.  1.
         -5    1    4    4    0  501 -0.12841813423E+02 -0.20975476163E+03 -0.84911654612E+02  0.22669237677E+03  0.41800000000E+01 0.  1.
</event>
<event>
11    1  0.7157190E-009  0.1395791E+03  0.7561462E-02  0.1108029E+00
         22   -1    0    0    0    0  0.00000000000E+00  0.00000000000E+00  0.93733669682E+03  0.93733669682E+03  0.00000000000E+00 0.  1.
         22   -1    0    0    0    0 -0.00000000000E+00 -0.00000000000E+00 -0.67668953631E+02  0.67668953631E+02  0.00000000000E+00 0. -1.
         24    2    1    2    0    0  0.59351163284E+02  0.15717773174E+02  0.73372814572E+01  0.10098424586E+03  0.79839672064E+02 0.  0.
         25    2    1    2    0    0  0.14461941291E+02  0.26769743083E+01  0.23121245133E+03  0.26329384535E+03  0.12509251540E+03 0.  0.
        -24    2    1    2    0    0 -0.73813104574E+02 -0.18394747482E+02  0.63111801040E+03  0.64072755924E+03  0.80219205848E+02 0.  0.
        -13    1    3    3    0    0  0.56242422008E+02  0.31659955101E+02  0.31540841299E+02  0.71835836879E+02  0.00000000000E+00 0.  1.
         14    1    3    3    0    0  0.31087412758E+01 -0.15942181927E+02 -0.24203559841E+02  0.29148408977E+02  0.00000000000E+00 0. -1.
         13    1    5    5    0    0 -0.77377763100E+02  0.40117110646E+00  0.32788859133E+03  0.33689524705E+03  0.00000000000E+00 0. -1.
        -14    1    5    5    0    0  0.35646585254E+01 -0.18795918589E+02  0.30322941907E+03  0.30383231220E+03  0.00000000000E+00 0.  1.
          5    1    4    4  501    0  0.66102017517E+02 -0.66941491067E+01  0.16990701547E+03  0.18248329967E+03  0.41800000000E+01 0. -1.
         -5    1    4    4    0  501 -0.51640076226E+02  0.93711234150E+01  0.61305435866E+02  0.80810545682E+02  0.41800000000E+01 0. -1.
</event>
<event>
11    1  0.7157190E-009  0.1402825E+03  0.7561462E-02  0.1107243E+00
         22   -1    0    0    0    0  0.00000000000E+00  0.00000000000E+00  0.93905166700E+03  0.93905166700E+03  0.00000000000E+00 0.  1.
         22   -1    0    0    0    0 -0.00000000000E+00 -0.00000000000E+00 -0.54365507344E+03  0.54365507344E+03  0.00000000000E+00 0. -1.
         24    2    1    2    0    0 -0.39751614479E+02  0.48300198133E+02 -0.47433551867E+03  0.48457739575E+03  0.76863308609E+02 0.  0.
         25    2    1    2    0    0  0.84197154623E+02 -0.35263758569E+02  0.35681888604E+02  0.15891158695E+03  0.12508797615E+03 0.  0.
        -24    2    1    2    0    0 -0.44445540144E+02 -0.13036439564E+02  0.83405022362E+03  0.83921775773E+03  0.80630729710E+02 0.  0.
        -13    1    3    3    0    0  0.53764741393E+01 -0.17743186363E+02 -0.70559555327E+02  0.72954629630E+02  0.00000000000E+00 0.  1.
         14    1    3    3    0    0 -0.45128088618E+02  0.66043384496E+02 -0.40377596334E+03  0.41162276612E+03  0.00000000000E+00 0. -1.
         11    1    5    5    0    0 -0.21591540791E+02 -0.44981770993E+02  0.34452997641E+03  0.34812420054E+03  0.00000000000E+00 0. -1.
        -12    1    5    5    0    0 -0.22853999353E+02  0.31945331429E+02  0.48952024722E+03  0.49109355720E+03  0.00000000000E+00 0.  1.
          5    1    4    4  501    0  0.16432610702E+02 -0.64140385822E+01  0.73717939436E+02  0.75914277841E+02  0.41800000000E+01 0.  1.
         -5    1    4    4    0  501  0.67764543921E+02 -0.28849719987E+02 -0.38036050832E+02  0.82997309108E+02  0.41800000000E+01 0.  1.
</event>
<event>
11    1  0.9953656E-009  0.1634559E+03  0.7561462E-02  0.1083871E+00
         22   -1    0    0    0    0  0.00000000000E+00  0.00000000000E+00  0.22066104106E+03  0.22066104106E+03  0.00000000000E+00 0. -1.
         22   -1    0    0    0    0 -0.00000000000E+00 -0.00000000000E+00 -0.25703885392E+04  0.25703885392E+04  0.00000000000E+00 0. -1.
         24    2    1    2    0    0 -0.56002656838E+02  0.67533372441E+02 -0.21666365624E+04  0.21698446463E+04  0.78833632918E+02 0.  0.
         25    2    1    2    0    0  0.37901039389E+02  0.40304382050E+02 -0.36779857952E+03  0.39240836901E+03  0.12509037122E+03 0.  0.
        -24    2    1    2    0    0  0.18101617449E+02 -0.10783775449E+03  0.18470764377E+03  0.22879656493E+03  0.79210508172E+02 0.  0.
        -11    1    3    3    0    0  0.11721573478E+02  0.45033287479E+02 -0.88638046756E+03  0.88760110722E+03  0.00000000000E+00 0.  1.
         12    1    3    3    0    0 -0.67724230316E+02  0.22500084962E+02 -0.12802560948E+04  0.12822435391E+04  0.00000000000E+00 0. -1.
         11    1    5    5    0    0  0.33883914733E+02 -0.52631127582E+02  0.14788132398E+03  0.16058344015E+03  0.00000000000E+00 0. -1.
        -12    1    5    5    0    0 -0.15782297285E+02 -0.55206626909E+02  0.36826319799E+02  0.68213124779E+02  0.00000000000E+00 0.  1.
          5    1    4    4  501    0  0.88602429782E+01  0.11510224295E+02 -0.34513544773E+03  0.34546626297E+03  0.41800000000E+01 0.  1.
         -5    1    4    4    0  501  0.29040796411E+02  0.28794157756E+02 -0.22663131790E+02  0.46942106041E+02  0.41800000000E+01 0.  1.
</event>
<event>
11    1  0.7157190E-009  0.1419999E+03  0.7561462E-02  0.1105346E+00
         22   -1    0    0    0    0  0.00000000000E+00  0.00000000000E+00  0.40668627546E+03  0.40668627546E+03  0.00000000000E+00 0. -1.
         22   -1    0    0    0    0 -0.00000000000E+00 -0.00000000000E+00 -0.78957025086E+03  0.78957025086E+03  0.00000000000E+00 0. -1.
        -24    2    1    2    0    0 -0.60325256525E+02 -0.29060498640E+02 -0.63075297601E+03  0.63888147579E+03  0.76397475177E+02 0.  0.
         25    2    1    2    0    0  0.32930683699E+02  0.85924754918E+02 -0.10913161129E+03  0.18980030504E+03  0.12508778427E+03 0.  0.
         24    2    1    2    0    0  0.27394572826E+02 -0.56864256279E+02  0.35700061190E+03  0.36757474548E+03  0.60644458614E+02 0.  0.
        -13    1    5    5    0    0 -0.52190329064E+01 -0.33451255693E+00  0.15919575932E+03  0.15928163732E+03  0.00000000000E+00 0.  1.
         14    1    5    5    0    0  0.32613605732E+02 -0.56529743722E+02  0.19780485258E+03  0.20829310816E+03  0.00000000000E+00 0. -1.
         13    1    3    3    0    0 -0.52958189998E+02 -0.42606240079E+02 -0.60542927272E+03  0.60923268613E+03  0.00000000000E+00 0. -1.
        -14    1    3    3    0    0 -0.73670665264E+01  0.13545741439E+02 -0.25323703285E+02  0.29648789662E+02  0.00000000000E+00 0.  1.
          5    1    4    4  501    0 -0.29814218863E+02  0.82329626933E+02 -0.40243996020E+02  0.96457797678E+02  0.41800000000E+01 0.  1.
         -5    1    4    4    0  501  0.62744902562E+02  0.35951279854E+01 -0.68887615270E+02  0.93342507360E+02  0.41800000000E+01 0.  1.
</event>
<event>
11    1  0.7157190E-009  0.1387645E+03  0.7561462E-02  0.1108946E+00
         22   -1    0    0    0    0  0.00000000000E+00  0.00000000000E+00  0.11225495293E+03  0.11225495293E+03  0.00000000000E+00 0. -1.
         22   -1    0    0    0    0 -0.00000000000E+00 -0.00000000000E+00 -0.71819750503E+03  0.71819750503E+03  0.00000000000E+00 0. -1.
        -24    2    1    2    0    0 -0.64197103448E+01 -0.59218763145E+02 -0.57144435329E+03  0.58030219484E+03  0.81571525893E+02 0.  0.
         25    2    1    2    0    0  0.27763227421E+02  0.62044397949E+02 -0.72300556165E+02  0.15967225729E+03  0.12509018831E+03 0.  0.
         24    2    1    2    0    0 -0.21343517076E+02 -0.28256348044E+01  0.37802357356E+02  0.90478005834E+02  0.79332977914E+02 0.  0.
        -13    1    5    5    0    0 -0.26527645678E+02 -0.30604883719E+02 -0.32588061721E+01  0.40632434216E+02  0.00000000000E+00 0.  1.
         14    1    5    5    0    0  0.51841286015E+01  0.27779248915E+02  0.41061163528E+02  0.49845571617E+02  0.00000000000E+00 0. -1.
         11    1    3    3    0    0 -0.40367906617E+02 -0.40917912824E+02 -0.42480435358E+03  0.42867538102E+03  0.00000000000E+00 0. -1.
        -12    1    3    3    0    0  0.33948196272E+02 -0.18300850321E+02 -0.14663999971E+03  0.15162681382E+03  0.00000000000E+00 0.  1.
          5    1    4    4  501    0 -0.11909694412E+02 -0.27572131835E+02  0.96797412986E+01  0.31831322098E+02  0.41800000000E+01 0.  1.
         -5    1    4    4    0  501  0.39672921833E+02  0.89616529784E+02 -0.81980297463E+02  0.12784093519E+03  0.41800000000E+01 0.  1.
</event>
<event>
11    1  0.7157190E-009  0.1443176E+03  0.7561462E-02  0.1102831E+00
         22   -1    0    0    0    0  0.00000000000E+00  0.00000000000E+00  0.37752904679E+03  0.37752904679E+03  0.00000000000E+00 0. -1.
         22   -1    0    0    0    0 -0.00000000000E+00 -0.00000000000E+00 -0.11775644153E+04  0.11775644153E+04  0.00000000000E+00 0. -1.
        -24    2    1    2    0    0  0.17997121255E+02  0.20237830064E+02 -0.75885002851E+03  0.76403130352E+03  0.84599059391E+02 0.  0.
         25    2    1    2    0    0 -0.84672682835E+02  0.63743381904E+01 -0.39410695357E+03  0.42211179628E+03  0.12509189543E+03 0.  0.
         24    2    1    2    0    0  0.66675561580E+02 -0.26612168254E+02  0.35292161360E+03  0.36895036225E+03  0.80105345923E+02 0.  0.
        -13    1    5    5    0    0  0.43936807184E+02 -0.39046460225E+02  0.11062398576E+03  0.12527064822E+03  0.00000000000E+00 0.  1.
         14    1    5    5    0    0  0.22738754396E+02  0.12434291971E+02  0.24229762785E+03  0.24367971403E+03  0.00000000000E+00 0. -1.
         13    1    3    3    0    0 -0.72027598121E+00  0.29105111003E+02 -0.71439788957E+03  0.71499088869E+03  0.00000000000E+00 0. -1.
        -14    1    3    3    0    0  0.18717397236E+02 -0.88672809394E+01 -0.44452138933E+02  0.49040414826E+02  0.00000000000E+00 0.  1.
          5    1    4    4  501    0 -0.10458068682E+03  0.58507690541E+01 -0.19005526457E+03  0.21704798443E+03  0.41800000000E+01 0. -1.
         -5    1    4    4    0  501  0.19908003985E+02  0.52356913630E+00 -0.20405168900E+03  0.20506381185E+03  0.41800000000E+01 0. -1.
</event>
<event>
11    1  0.7157190E-009  0.2309858E+03  0.7561462E-02  0.1034546E+00
         22   -1    0    0    0    0  0.00000000000E+00  0.00000000000E+00  0.88494965768E+02  0.88494965768E+02  0.00000000000E+00 0.  1.
         22   -1    0    0    0    0 -0.00000000000E+00 -0.00000000000E+00 -0.97175136135E+03  0.97175136135E+03  0.00000000000E+00 0.  1.
        -24    2    1    2    0    0  0.44083615859E+02 -0.19106755812E+03 -0.56248138133E+03  0.60045551471E+03  0.75573433493E+02 0.  0.
         25    2    1    2    0    0 -0.52908317434E+02  0.18303558088E+03 -0.29986670588E+03  0.37665397139E+03  0.12508740523E+03 0.  0.
         24    2    1    2    0    0  0.88247015744E+01  0.80319772392E+01 -0.20908308373E+02  0.83136841014E+02  0.79575052363E+02 0.  0.
        -11    1    5    5    0    0  0.35787652936E+02  0.26044899742E+02  0.52925247831E+00  0.44264805584E+02  0.00000000000E+00 0.  1.
         12    1    5    5    0    0 -0.26962951361E+02 -0.18012922503E+02 -0.21437560851E+02  0.38872035430E+02  0.00000000000E+00 0. -1.
         13    1    3    3    0    0  0.23177769962E+02 -0.70677834291E+02 -0.11802087282E+03  0.13950445047E+03  0.00000000000E+00 0. -1.
        -14    1    3    3    0    0  0.20905845897E+02 -0.12038972383E+03 -0.44446050851E+03  0.46095106424E+03  0.00000000000E+00 0.  1.
          5    1    4    4  501    0  0.37972752148E+02  0.52150425896E+02 -0.12012280057E+03  0.13641318281E+03  0.41800000000E+01 0. -1.
         -5    1    4    4    0  501 -0.90881069582E+02  0.13088515499E+03 -0.17974390531E+03  0.24024078859E+03  0.41800000000E+01 0. -1.
</event>
<event>
11    1  0.7157190E-009  0.1489605E+03  0.7561462E-02  0.1097946E+00
         22   -1    0    0    0    0  0.00000000000E+00  0.00000000000E+00  0.40869409807E+03  0.40869409807E+03  0.00000000000E+00 0.  1.
         22   -1    0    0    0    0 -0.00000000000E+00 -0.00000000000E+00 -0.21142562638E+04  0.21142562638E+04  0.00000000000E+00 0. -1.
         24    2    1    2    0    0  0.57663202720E+02 -0.59349079718E+02 -0.15070342830E+04  0.15113047796E+04  0.77733187382E+02 0.  0.
         25    2    1    2    0    0 -0.13191563324E+02  0.84407154840E+02 -0.58984457768E+03  0.60898553380E+03  0.12509264339E+03 0.  0.
        -24    2    1    2    0    0 -0.44471639397E+02 -0.25058075121E+02  0.39131669495E+03  0.40266004849E+03  0.80004531559E+02 0.  0.
        -11    1    3    3    0    0  0.39900372516E+01 -0.55873343567E+02 -0.57571354301E+03  0.57843222120E+03  0.00000000000E+00 0.  1.
         12    1    3    3    0    0  0.53673165469E+02 -0.34757361515E+01 -0.93132073998E+03  0.93287255836E+03  0.00000000000E+00 0. -1.
         13    1    5    5    0    0  0.18639107973E+02 -0.25450096314E+02  0.14436016877E+03  0.14776664737E+03  0.00000000000E+00 0. -1.
        -14    1    5    5    0    0 -0.63110747370E+02  0.39202119258E+00  0.24695652618E+03  0.25489340113E+03  0.00000000000E+00 0.  1.
          5    1    4    4  501    0  0.55895773688E+02  0.34141706495E+02 -0.23693155430E+03  0.24585367083E+03  0.41800000000E+01 0.  1.
         -5    1    4    4    0  501 -0.69087337011E+02  0.50265448345E+02 -0.35291302338E+03  0.36313186297E+03  0.41800000000E+01 0.  1.
</event>
<event>
11    1  0.7157190E-009  0.1521842E+03  0.7561462E-02  0.1094668E+00
         22   -1    0    0    0    0  0.00000000000E+00  0.00000000000E+00  0.99810714004E+03  0.99810714004E+03  0.00000000000E+00 0.  1.
         22   -1    0    0    0    0 -0.00000000000E+00 -0.00000000000E+00 -0.30901234188E+03  0.30901234188E+03  0.00000000000E+00 0.  1.
        -24    2    1    2    0    0  0.36132197082E+02  0.35380389648E+02 -0.24501487758E+03  0.26312840228E+03  0.81528879649E+02 0.  0.
         25    2    1    2    0    0  0.10232044736E+02  0.42084825870E+02  0.35240577324E+02  0.13699171061E+03  0.12509597586E+03 0.  0.
         24    2    1    2    0    0 -0.46364241818E+02 -0.77465215517E+02  0.89886909841E+03  0.90699936902E+03  0.80818913670E+02 0.  0.
        -11    1    5    5    0    0 -0.46813726268E+02 -0.50499556150E+02  0.83274034052E+03  0.83558255420E+03  0.00000000000E+00 0.  1.
         12    1    5    5    0    0  0.44948445051E+00 -0.26965659367E+02  0.66128757882E+02  0.71416814829E+02  0.00000000000E+00 0. -1.
         13    1    3    3    0    0 -0.10603094719E+02 -0.17446177888E+02 -0.97553057775E+02  0.99666412706E+02  0.00000000000E+00 0. -1.
        -14    1    3    3    0    0  0.46735291801E+02  0.52826567536E+02 -0.14746181980E+03  0.16346198958E+03  0.00000000000E+00 0.  1.
          5    1    4    4  501    0  0.41082940189E+02 -0.27017711645E+02  0.36186439130E+02  0.61193917132E+02  0.41800000000E+01 0.  1.
         -5    1    4    4    0  501 -0.30850895453E+02  0.69102537515E+02 -0.94586180558E+00  0.75797793476E+02  0.41800000000E+01 0.  1.
</event>
<event>
11    1  0.7157190E-009  0.2083802E+03  0.7561462E-02  0.1048751E+00
         22   -1    0    0    0    0  0.00000000000E+00  0.00000000000E+00  0.15634354108E+04  0.15634354108E+04  0.00000000000E+00 0.  1.
         22   -1    0    0    0    0 -0.00000000000E+00 -0.00000000000E+00 -0.45335343421E+03  0.45335343421E+03  0.00000000000E+00 0.  1.
        -24    2    1    2    0    0  0.11750294678E+03 -0.10999606680E+03 -0.27800311569E+03  0.33004038164E+03  0.75728752587E+02 0.  0.
         25    2    1    2    0    0 -0.16114892480E+03  0.97976403962E+02 -0.61322875513E+02  0.23447052915E+03  0.12509029650E+03 0.  0.
         24    2    1    2    0    0  0.43645978024E+02  0.12019662836E+02  0.14494079678E+04  0.14522779342E+04  0.79235707895E+02 0.  0.
        -13    1    5    5    0    0  0.30075153582E+02  0.10933878885E+02  0.14137082571E+04  0.14140704016E+04  0.00000000000E+00 0.  1.
         14    1    5    5    0    0  0.13570824442E+02  0.10857839515E+01  0.35699710753E+02  0.38207532643E+02  0.00000000000E+00 0. -1.
         13    1    3    3    0    0 -0.93517727889E+01 -0.20796198765E+02 -0.35826736052E+02  0.42467547063E+02  0.00000000000E+00 0. -1.
        -14    1    3    3    0    0  0.12685471957E+03 -0.89199868033E+02 -0.24217637964E+03  0.28757283458E+03  0.00000000000E+00 0.  1.
          5    1    4    4  501    0 -0.21646199380E+02  0.83047593064E+02 -0.24939660231E+02  0.89470216909E+02  0.41800000000E+01 0. -1.
         -5    1    4    4    0  501 -0.13950272542E+03  0.14928810897E+02 -0.36383215282E+02  0.14500031224E+03  0.41800000000E+01 0. -1.
</event>
<event>
11    1  0.7157190E-009  0.1419422E+03  0.7561462E-02  0.1105409E+00
         22   -1    0    0    0    0  0.00000000000E+00  0.00000000000E+00  0.94654402488E+03  0.94654402488E+03  0.00000000000E+00 0. -1.
         22   -1    0    0    0    0 -0.00000000000E+00 -0.00000000000E+00 -0.52139678905E+02  0.52139678905E+02  0.00000000000E+00 0. -1.
         24    2    1    2    0    0 -0.61097851713E+02 -0.18445181293E+02  0.41417312598E+02  0.11078211754E+03  0.80523981437E+02 0.  0.
         25    2    1    2    0    0  0.87898041322E+02  0.34237738056E+02  0.61857022978E+03  0.63810174078E+03  0.12508562685E+03 0.  0.
        -24    2    1    2    0    0 -0.26800189610E+02 -0.15792556763E+02  0.23441680360E+03  0.24979984547E+03  0.80505092843E+02 0.  0.
        -13    1    3    3    0    0 -0.38346129745E+02  0.29435572828E+02  0.10689918470E+02  0.49509120079E+02  0.00000000000E+00 0.  1.
         14    1    3    3    0    0 -0.22751721968E+02 -0.47880754120E+02  0.30727394128E+02  0.61272997458E+02  0.00000000000E+00 0. -1.
         13    1    5    5    0    0  0.33117808460E+00 -0.15537711118E+02  0.21700531587E+03  0.21756111156E+03  0.00000000000E+00 0. -1.
        -14    1    5    5    0    0 -0.27131367694E+02 -0.25484564541E+00  0.17411487729E+02  0.32238733911E+02  0.00000000000E+00 0.  1.
          5    1    4    4  501    0  0.46481013693E+02 -0.31642830077E+02  0.43549985676E+03  0.43913477540E+03  0.41800000000E+01 0. -1.
         -5    1    4    4    0  501  0.41417027629E+02  0.65880568133E+02  0.18307037302E+03  0.19896696538E+03  0.41800000000E+01 0. -1.
</event>
<event>
11    1  0.7157190E-009  0.1564412E+03  0.7561462E-02  0.1090473E+00
         22   -1    0    0    0    0  0.00000000000E+00  0.00000000000E+00  0.10796580832E+04  0.10796580832E+04  0.00000000000E+00 0.  1.
         22   -1    0    0    0    0 -0.00000000000E+00 -0.00000000000E+00 -0.20200055978E+03  0.20200055978E+03  0.00000000000E+00 0.  1.
        -24    2    1    2    0    0  0.52307747864E+02 -0.80710119839E+02 -0.15510354959E+03  0.20072894335E+03  0.83574958400E+02 0.  0.
         25    2    1    2    0    0 -0.55775283400E+02  0.47440971154E+02  0.21909903024E+03  0.26270578881E+03  0.12509363869E+03 0.  0.
         24    2    1    2    0    0  0.34675355359E+01  0.33269148685E+02  0.81366204280E+03  0.81822391086E+03  0.79533567452E+02 0.  0.
        -13    1    5    5    0    0  0.27603607739E+02  0.11268671593E+02  0.67914644673E+03  0.67980058710E+03  0.00000000000E+00 0.  1.
         14    1    5    5    0    0 -0.24136072204E+02  0.22000477092E+02  0.13451559607E+03  0.13842332376E+03  0.00000000000E+00 0. -1.
         13    1    3    3    0    0  0.26184001251E+02  0.12779868866E+02 -0.24926530804E+02  0.38343955295E+02  0.00000000000E+00 0. -1.
        -14    1    3    3    0    0  0.26123746613E+02 -0.93489988706E+02 -0.13017701879E+03  0.16238498805E+03  0.00000000000E+00 0.  1.
          5    1    4    4  501    0 -0.17690774200E+02  0.18182443263E+02 -0.10741360874E+02  0.27864205860E+02  0.41800000000E+01 0. -1.
         -5    1    4    4    0  501 -0.38084509199E+02  0.29258527892E+02  0.22984039111E+03  0.23484158295E+03  0.41800000000E+01 0. -1.
</event>
<event>
11    1  0.7157190E-009  0.1671993E+03  0.7561462E-02  0.1080495E+00
         22   -1    0    0    0    0  0.00000000000E+00  0.00000000000E+00  0.25111299098E+04  0.25111299098E+04  0.00000000000E+00 0.  1.
         22   -1    0    0    0    0 -0.00000000000E+00 -0.00000000000E+00 -0.14569067369E+04  0.14569067369E+04  0.00000000000E+00 0.  1.
        -24    2    1    2    0    0  0.11332162733E+03  0.22705150864E+02 -0.13699576846E+04  0.13781739536E+04  0.96031629130E+02 0.  0.
         25    2    1    2    0    0 -0.51056255428E+02  0.31913968354E+02 -0.22326296937E+02  0.14060851677E+03  0.12508816435E+03 0.  0.
         24    2    1    2    0    0 -0.62265371900E+02 -0.54619119218E+02  0.24465071545E+04  0.24492541764E+04  0.81169815024E+02 0.  0.
        -11    1    5    5    0    0 -0.39253183133E+02 -0.55788911712E+02  0.22942022935E+04  0.22952161943E+04  0.00000000000E+00 0.  1.
         12    1    5    5    0    0 -0.23012188767E+02  0.11697924942E+01  0.15230486093E+03  0.15403798203E+03  0.00000000000E+00 0. -1.
         13    1    3    3    0    0 -0.64203547068E+01 -0.12209794562E+01 -0.46152098091E+03  0.46156725140E+03  0.00000000000E+00 0. -1.
        -14    1    3    3    0    0  0.11974198203E+03  0.23926130320E+02 -0.90843670366E+03  0.91660670221E+03  0.00000000000E+00 0.  1.
          5    1    4    4  501    0  0.35708459514E+02  0.35074652432E+02  0.22510561910E+01  0.50277877621E+02  0.41800000000E+01 0.  1.
         -5    1    4    4    0  501 -0.86764714942E+02 -0.31606840779E+01 -0.24577353128E+02  0.90330639151E+02  0.41800000000E+01 0.  1.
</event>
<event>
11    1  0.7157190E-009  0.1423291E+03  0.7561462E-02  0.1104985E+00
         22   -1    0    0    0    0  0.00000000000E+00  0.00000000000E+00  0.45019996049E+03  0.45019996049E+03  0.00000000000E+00 0. -1.
         22   -1    0    0    0    0 -0.00000000000E+00 -0.00000000000E+00 -0.45299279251E+03  0.45299279251E+03  0.00000000000E+00 0.  1.
         24    2    1    2    0    0 -0.31848097627E+02 -0.32720878826E+02 -0.41046460160E+03  0.42069869003E+03  0.80132648731E+02 0.  0.
         25    2    1    2    0    0  0.69870937430E+02  0.66472578511E+02  0.24300916175E+03  0.28983047711E+03  0.12509077175E+03 0.  0.
        -24    2    1    2    0    0 -0.38022839804E+02 -0.33751699685E+02  0.16466260784E+03  0.19266358586E+03  0.86142726439E+02 0.  0.
        -13    1    3    3    0    0 -0.24376240185E+02 -0.94851684544E+00 -0.35853259489E+03  0.35936154826E+03  0.00000000000E+00 0.  1.
         14    1    3    3    0    0 -0.74718574412E+01 -0.31772361981E+02 -0.51932006709E+02  0.61337141769E+02  0.00000000000E+00 0. -1.
         13    1    5    5    0    0  0.28007581718E+02 -0.82636614764E+01  0.50817723821E+02  0.58610185028E+02  0.00000000000E+00 0. -1.
        -14    1    5    5    0    0 -0.66030421521E+02 -0.25488038208E+02  0.11384488401E+03  0.13405340083E+03  0.00000000000E+00 0.  1.
          5    1    4    4  501    0  0.58660539818E+02 -0.22108319412E+02  0.63665115523E+02  0.89445827479E+02  0.41800000000E+01 0. -1.
         -5    1    4    4    0  501  0.11210397613E+02  0.88580897923E+02  0.17934404623E+03  0.20038464963E+03  0.41800000000E+01 0. -1.
</event>
<event>
11    1  0.7157190E-009  0.1439559E+03  0.7561462E-02  0.1103220E+00
         22   -1    0    0    0    0  0.00000000000E+00  0.00000000000E+00  0.11886245217E+04  0.11886245217E+04  0.00000000000E+00 0. -1.
         22   -1    0    0    0    0 -0.00000000000E+00 -0.00000000000E+00 -0.79663958734E+02  0.79663958734E+02  0.00000000000E+00 0.  1.
         24    2    1    2    0    0  0.68148787734E+02 -0.12986723767E+02 -0.92693351259E+01  0.10693982579E+03  0.80853531169E+02 0.  0.
         25    2    1    2    0    0 -0.79233519249E+02  0.23443902051E+02  0.26777802955E+03  0.30688627080E+03  0.12508614225E+03 0.  0.
        -24    2    1    2    0    0  0.11084731515E+02 -0.10457178284E+02  0.85045186854E+03  0.85446238384E+03  0.81273371047E+02 0.  0.
        -11    1    3    3    0    0  0.30965232009E+02 -0.21744931605E+02 -0.42074695348E+02  0.56585931400E+02  0.00000000000E+00 0.  1.
         12    1    3    3    0    0  0.37183555725E+02  0.87582078375E+01  0.32805360222E+02  0.50353894389E+02  0.00000000000E+00 0. -1.
         11    1    5    5    0    0  0.11550556330E+02  0.19621429567E+02  0.72847707073E+03  0.72883280554E+03  0.00000000000E+00 0. -1.
        -12    1    5    5    0    0 -0.46582481539E+00 -0.30078607851E+02  0.12197479781E+03  0.12562957830E+03  0.00000000000E+00 0.  1.
          5    1    4    4  501    0 -0.53575640246E+02 -0.53717562868E+01  0.22415268019E+02  0.58473255713E+02  0.41800000000E+01 0. -1.
         -5    1    4    4    0  501 -0.25657879003E+02  0.28815658338E+02  0.24536276153E+03  0.24841301509E+03  0.41800000000E+01 0. -1.
</event>
<event>
11    1  0.7157190E-009  0.1325454E+03  0.7561462E-02  0.1116180E+00
         22   -1    0    0    0    0  0.00000000000E+00  0.00000000000E+00  0.37386124349E+03  0.37386124349E+03  0.00000000000E+00 0.  1.
         22   -1    0    0    0    0 -0.00000000000E+00 -0.00000000000E+00 -0.11982452477E+04  0.11982452477E+04  0.00000000000E+00 0. -1.
        -24    2    1    2    0    0  0.19586325307E+02  0.14271908811E+02 -0.11381370966E+04  0.11411529307E+04  0.79288391307E+02 0.  0.
         25    2    1    2    0    0  0.68858776272E+01 -0.48992131830E+02  0.50111872637E+02  0.14354802960E+03  0.12508873943E+03 0.  0.
         24    2    1    2    0    0 -0.26472202935E+02  0.34720223019E+02  0.26364121972E+03  0.28740553094E+03  0.10577795171E+03 0.  0.
        -11    1    5    5    0    0 -0.44645820013E+02  0.40547181220E+02  0.26130915370E+03  0.26817866611E+03  0.00000000000E+00 0.  1.
         12    1    5    5    0    0  0.18173617078E+02 -0.58269582015E+01  0.23320660256E+01  0.19226864839E+02  0.00000000000E+00 0. -1.
         13    1    3    3    0    0  0.97383992664E+01  0.43251795444E+02 -0.89492238727E+03  0.89601988452E+03  0.00000000000E+00 0. -1.
        -14    1    3    3    0    0  0.98479260411E+01 -0.28979886632E+02 -0.24321470933E+03  0.24513304615E+03  0.00000000000E+00 0.  1.
          5    1    4    4  501    0  0.16247215060E+02  0.40290734381E+02  0.82916646483E+01  0.44424535752E+02  0.41800000000E+01 0.  1.
         -5    1    4    4    0  501 -0.93613374328E+01 -0.89282866211E+02  0.41820207988E+02  0.99123493853E+02  0.41800000000E+01 0.  1.
</event>
<event>
11    1  0.7157190E-009  0.1447708E+03  0.7561462E-02  0.1102345E+00
         22   -1    0    0    0    0  0.00000000000E+00  0.00000000000E+00  0.34451514827E+03  0.34451514827E+03  0.00000000000E+00 0.  1.
         22   -1    0    0    0    0 -0.00000000000E+00 -0.00000000000E+00 -0.22209448842E+03  0.22209448842E+03  0.00000000000E+00 0.  1.
        -24    2    1    2    0    0  0.21989841406E+02 -0.38196607259E+02 -0.13793718771E+03  0.16864884114E+03  0.86447845163E+02 0.  0.
         25    2    1    2    0    0 -0.10704166904E+02 -0.41451614970E+02  0.22131009754E+02  0.13405402800E+03  0.12509150754E+03 0.  0.
         24    2    1    2    0    0 -0.11285674501E+02  0.79648222229E+02  0.23822683780E+03  0.26390676756E+03  0.80147052117E+02 0.  0.
        -11    1    5    5    0    0  0.26904115502E+02  0.20127991230E+01  0.60208520805E+02  0.65976880563E+02  0.00000000000E+00 0.  1.
         12    1    5    5    0    0 -0.38189790003E+02  0.77635423106E+02  0.17801831700E+03  0.19792988700E+03  0.00000000000E+00 0. -1.
         11    1    3    3    0    0 -0.20831136277E+02 -0.47906612761E+02 -0.63501841273E+02  0.82228119459E+02  0.00000000000E+00 0. -1.
        -12    1    3    3    0    0  0.42820977683E+02  0.97100055016E+01 -0.74435346433E+02  0.86420721677E+02  0.00000000000E+00 0.  1.
          5    1    4    4  501    0  0.53937429152E+02 -0.30321843792E+02 -0.65119529222E+01  0.62358146263E+02  0.41800000000E+01 0.  1.
         -5    1    4    4    0  501 -0.64641596056E+02 -0.11129771177E+02  0.28642962676E+02  0.71695881737E+02  0.41800000000E+01 0.  1.
</event>
<event>
11    1  0.7157190E-009  0.1444850E+03  0.7561462E-02  0.1102651E+00
         22   -1    0    0    0    0  0.00000000000E+00  0.00000000000E+00  0.48288823015E+03  0.48288823015E+03  0.00000000000E+00 0. -1.
         22   -1    0    0    0    0 -0.00000000000E+00 -0.00000000000E+00 -0.13377254629E+04  0.13377254629E+04  0.00000000000E+00 0. -1.
        -24    2    1    2    0    0 -0.37547348809E+02 -0.59279660898E+02 -0.10739892539E+04  0.10791767038E+04  0.79028848049E+02 0.  0.
         25    2    1    2    0    0  0.90814826181E+02  0.51509955975E+02 -0.23010797309E+03  0.28195445152E+03  0.12509206703E+03 0.  0.
         24    2    1    2    0    0 -0.53267477372E+02  0.77697049237E+01  0.44925999428E+03  0.45948253775E+03  0.79949156188E+02 0.  0.
        -13    1    5    5    0    0 -0.12121652005E+01 -0.30561830588E+02  0.11307827465E+03  0.11714175614E+03  0.00000000000E+00 0.  1.
         14    1    5    5    0    0 -0.52055312171E+02  0.38331535512E+02  0.33618171963E+03  0.34234078161E+03  0.00000000000E+00 0. -1.
         11    1    3    3    0    0 -0.56497154820E+02 -0.18474120269E+02 -0.69163201399E+03  0.69418157884E+03  0.00000000000E+00 0. -1.
        -12    1    3    3    0    0  0.18949806010E+02 -0.40805540629E+02 -0.38235723992E+03  0.38499512492E+03  0.00000000000E+00 0.  1.
          5    1    4    4  501    0  0.89797558501E+02 -0.15936583088E+02 -0.10044913928E+03  0.13573900757E+03  0.41800000000E+01 0.  1.
         -5    1    4    4    0  501  0.10172676806E+01  0.67446539062E+02 -0.12965883381E+03  0.14621544395E+03  0.41800000000E+01 0.  1.
</event>
<event>
11    1  0.7157190E-009  0.1632900E+03  0.7561462E-02  0.1084023E+00
         22   -1    0    0    0    0  0.00000000000E+00  0.00000000000E+00  0.25331764528E+04  0.25331764528E+04  0.00000000000E+00 0.  1.
         22   -1    0    0    0    0 -0.00000000000E+00 -0.00000000000E+00 -0.86076153619E+02  0.86076153619E+02  0.00000000000E+00 0.  1.
        -24    2    1    2    0    0 -0.45013291295E+02 -0.95283474225E+02 -0.50053458877E+01  0.13150546433E+03  0.78507941048E+02 0.  0.
         25    2    1    2    0    0  0.33614375290E+02  0.97507572636E+02  0.36891869180E+03  0.40296311244E+03  0.12506244794E+03 0.  0.
         24    2    1    2    0    0  0.11398916004E+02 -0.22240984117E+01  0.20831869533E+04  0.20847840297E+04  0.80756956877E+02 0.  0.
        -13    1    5    5    0    0  0.11339112133E+02 -0.34666165431E+02  0.16423465345E+04  0.16427514900E+04  0.00000000000E+00 0.  1.
         14    1    5    5    0    0  0.59803871041E-01  0.32442067020E+02  0.44084041878E+03  0.44203253966E+03  0.00000000000E+00 0. -1.
         13    1    3    3    0    0 -0.49946170581E+01  0.11709605749E+02 -0.11407906228E+02  0.17093899229E+02  0.00000000000E+00 0. -1.
        -14    1    3    3    0    0 -0.40018674236E+02 -0.10699307997E+03  0.64025603403E+01  0.11441156510E+03  0.00000000000E+00 0.  1.
          5    1    4    4  501    0 -0.46791155356E+02  0.24369168038E+02  0.13450834777E+03  0.14454492931E+03  0.41800000000E+01 0. -1.
         -5    1    4    4    0  501  0.80405530646E+02  0.73138404599E+02  0.23441034403E+03  0.25841818313E+03  0.41800000000E+01 0. -1.
</event>
<event>
11    1  0.7157190E-009  0.1278913E+03  0.7561462E-02  0.1121887E+00
         22   -1    0    0    0    0  0.00000000000E+00  0.00000000000E+00  0.15193838897E+04  0.15193838897E+04  0.00000000000E+00 0. -1.
         22   -1    0    0    0    0 -0.00000000000E+00 -0.00000000000E+00 -0.81915213938E+02  0.81915213938E+02  0.00000000000E+00 0. -1.
         24    2    1    2    0    0  0.20198627708E+02  0.26107499064E+02 -0.12080768001E+02  0.95641169434E+02  0.88947750205E+02 0.  0.
         25    2    1    2    0    0  0.17289066038E+02 -0.14840694020E+02  0.12622287434E+03  0.17916189447E+03  0.12509041698E+03 0.  0.
        -24    2    1    2    0    0 -0.37487693746E+02 -0.11266805044E+02  0.13233265694E+04  0.13264960397E+04  0.82862935112E+02 0.  0.
        -11    1    3    3    0    0  0.12750435722E+02 -0.48936999786E+01  0.35686554988E+02  0.38210628331E+02  0.00000000000E+00 0.  1.
         12    1    3    3    0    0  0.74481919867E+01  0.31001199042E+02 -0.47767322988E+02  0.57430541103E+02  0.00000000000E+00 0. -1.
         13    1    5    5    0    0  0.52175449631E+01  0.30650039574E+02  0.53412637252E+03  0.53503049401E+03  0.00000000000E+00 0. -1.
        -14    1    5    5    0    0 -0.42705238709E+02 -0.41916844619E+02  0.78920019688E+03  0.79146554570E+03  0.00000000000E+00 0.  1.
          5    1    4    4  501    0  0.52640422750E+02  0.33296791276E+02  0.88836474603E+02  0.10857753928E+03  0.41800000000E+01 0. -1.
         -5    1    4    4    0  501 -0.35351356712E+02 -0.48137485295E+02  0.37386399737E+02  0.70584355187E+02  0.41800000000E+01 0. -1.
</event>
<event>
11    1  0.7157190E-009  0.1515187E+03  0.7561462E-02  0.1095337E+00
         22   -1    0    0    0    0  0.00000000000E+00  0.00000000000E+00  0.13501425999E+04  0.13501425999E+04  0.00000000000E+00 0. -1.
         22   -1    0    0    0    0 -0.00000000000E+00 -0.00000000000E+00 -0.70255275168E+02  0.70255275168E+02  0.00000000000E+00 0. -1.
        -24    2    1    2    0    0  0.52457052937E+02  0.12074076202E+02 -0.13600817892E+02  0.97968851831E+02  0.80717953163E+02 0.  0.
         25    2    1    2    0    0 -0.41686787903E+02 -0.92473709891E+02  0.71510619820E+03  0.73301682793E+03  0.12509044736E+03 0.  0.
         24    2    1    2    0    0 -0.10770265034E+02  0.80399633689E+02  0.57838194443E+03  0.58941219531E+03  0.79378603117E+02 0.  0.
        -13    1    5    5    0    0  0.23043458215E+02  0.26302618462E+02  0.84838537300E+02  0.91762770859E+02  0.00000000000E+00 0.  1.
         14    1    5    5    0    0 -0.33813723249E+02  0.54097015227E+02  0.49354340713E+03  0.49764942445E+03  0.00000000000E+00 0. -1.
         11    1    3    3    0    0  0.66090403108E+02  0.28091849507E+02  0.19033002913E+01  0.71838123192E+02  0.00000000000E+00 0. -1.
        -12    1    3    3    0    0 -0.13633350172E+02 -0.16017773305E+02 -0.15504118184E+02  0.26130728639E+02  0.00000000000E+00 0.  1.
          5    1    4    4  501    0 -0.43593374015E+02 -0.64299235715E+02  0.69181123206E+03  0.69617169374E+03  0.41800000000E+01 0. -1.
         -5    1    4    4    0  501  0.19065861120E+01 -0.28174474176E+02  0.23294966145E+02  0.36845134189E+02  0.41800000000E+01 0. -1.
</event>
<event>
11    1  0.7157190E-009  0.1772228E+03  0.7561462E-02  0.1071912E+00
         22   -1    0    0    0    0  0.00000000000E+00  0.00000000000E+00  0.53869014255E+03  0.53869014255E+03  0.00000000000E+00 0.  1.
         22   -1    0    0    0    0 -0.00000000000E+00 -0.00000000000E+00 -0.97936637871E+03  0.97936637871E+03  0.00000000000E+00 0. -1.
        -24    2    1    2    0    0 -0.11486142661E+03  0.17834347401E+02 -0.68355774252E+03  0.69816217115E+03  0.81657936547E+02 0.  0.
         25    2    1    2    0    0  0.17228047985E+03 -0.91812324864E+02 -0.23286323550E+03  0.32860847853E+03  0.12509268155E+03 0.  0.
         24    2    1    2    0    0 -0.57419053241E+02  0.73977977462E+02  0.47574474187E+03  0.49128587158E+03  0.79114217263E+02 0.  0.
        -11    1    5    5    0    0 -0.40986483600E+02  0.90463337457E+02  0.38519150894E+03  0.39778889605E+03  0.00000000000E+00 0.  1.
         12    1    5    5    0    0 -0.16432569641E+02 -0.16485359994E+02  0.90553232924E+02  0.93496975524E+02  0.00000000000E+00 0. -1.
         13    1    3    3    0    0 -0.15049356954E+02 -0.26821395410E+02 -0.20333490182E+03  0.20564764208E+03  0.00000000000E+00 0. -1.
        -14    1    3    3    0    0 -0.99812069657E+02  0.44655742812E+02 -0.48022284070E+03  0.49251452907E+03  0.00000000000E+00 0.  1.
          5    1    4    4  501    0  0.97486513279E+02 -0.11670366878E+03 -0.16598895648E+03  0.22515144381E+03  0.41800000000E+01 0. -1.
         -5    1    4    4    0  501  0.74793966573E+02  0.24891343913E+02 -0.66874279021E+02  0.10345703472E+03  0.41800000000E+01 0. -1.
</event>
<event>
11    1  0.7157190E-009  0.1457229E+03  0.7561462E-02  0.1101331E+00
         22   -1    0    0    0    0  0.00000000000E+00  0.00000000000E+00  0.48373228312E+03  0.48373228312E+03  0.00000000000E+00 0.  1.
         22   -1    0    0    0    0 -0.00000000000E+00 -0.00000000000E+00 -0.30972551055E+03  0.30972551055E+03  0.00000000000E+00 0. -1.
        -24    2    1    2    0    0 -0.33458714146E+02 -0.63501477872E+02 -0.22495121036E+03  0.25000969253E+03  0.82157629428E+02 0.  0.
         25    2    1    2    0    0  0.48931249262E+02  0.83560503928E+02  0.25221851774E+02  0.16018837907E+03  0.12509016753E+03 0.  0.
         24    2    1    2    0    0 -0.15472535117E+02 -0.20059026056E+02  0.37373613115E+03  0.38325972207E+03  0.81040452634E+02 0.  0.
        -11    1    5    5    0    0 -0.16439525401E+02 -0.32532589113E+02  0.67039947734E+02  0.76308465730E+02  0.00000000000E+00 0.  1.
         12    1    5    5    0    0  0.96699028455E+00  0.12473563057E+02  0.30669618342E+03  0.30695125634E+03  0.00000000000E+00 0. -1.
         13    1    3    3    0    0 -0.18945080163E+02 -0.49563771425E+02 -0.22363588005E+03  0.22984449166E+03  0.00000000000E+00 0. -1.
        -14    1    3    3    0    0 -0.14513633982E+02 -0.13937706447E+02 -0.13153303089E+01  0.20165200872E+02  0.00000000000E+00 0.  1.
          5    1    4    4  501    0  0.46563047776E+02  0.18179865677E+01 -0.35096782989E+02  0.58486571703E+02  0.41800000000E+01 0. -1.
         -5    1    4    4    0  501  0.23682014861E+01  0.81742517360E+02  0.60318634763E+02  0.10170180737E+03  0.41800000000E+01 0. -1.
</event>
<event>
11    1  0.7157190E-009  0.1505327E+03  0.7561462E-02  0.1096336E+00
         22   -1    0    0    0    0  0.00000000000E+00  0.00000000000E+00  0.88190913987E+02  0.88190913987E+02  0.00000000000E+00 0. -1.
         22   -1    0    0    0    0 -0.00000000000E+00 -0.00000000000E+00 -0.30099399168E+04  0.30099399168E+04  0.00000000000E+00 0.  1.
        -24    2    1    2    0    0 -0.83437354215E+01  0.29992090005E+02 -0.19698041654E+04  0.19717484413E+04  0.81818839738E+02 0.  0.
         25    2    1    2    0    0  0.90834207692E+02 -0.16442694315E+02 -0.99185399031E+03  0.10039638796E+04  0.12509163843E+03 0.  0.
         24    2    1    2    0    0 -0.82490472271E+02 -0.13549395690E+02  0.39909152910E+02  0.12241850981E+03  0.80033036423E+02 0.  0.
        -11    1    5    5    0    0 -0.32686519514E+02 -0.12352478984E+02 -0.23254066616E+02  0.41973133182E+02  0.00000000000E+00 0.  1.
         12    1    5    5    0    0 -0.49803952757E+02 -0.11969167055E+01  0.63163219526E+02  0.80445376627E+02  0.00000000000E+00 0. -1.
         11    1    3    3    0    0  0.15913247816E+02 -0.19669458282E+02 -0.10368330991E+04  0.10371417427E+04  0.00000000000E+00 0. -1.
        -12    1    3    3    0    0 -0.24256983238E+02  0.49661548286E+02 -0.93297106626E+03  0.93460669862E+03  0.00000000000E+00 0.  1.
          5    1    4    4  501    0  0.61216827057E+02  0.51657421559E+02 -0.56759620297E+03  0.57323547617E+03  0.41800000000E+01 0. -1.
         -5    1    4    4    0  501  0.29617380635E+02 -0.68100115874E+02 -0.42425778734E+03  0.43072840345E+03  0.41800000000E+01 0. -1.
</event>
<event>
11    1  0.7157190E-009  0.1456640E+03  0.7561462E-02  0.1101393E+00
         22   -1    0    0    0    0  0.00000000000E+00  0.00000000000E+00  0.17146965794E+03  0.17146965794E+03  0.00000000000E+00 0. -1.
         22   -1    0    0    0    0 -0.00000000000E+00 -0.00000000000E+00 -0.89569841677E+03  0.89569841677E+03  0.00000000000E+00 0. -1.
         24    2    1    2    0    0 -0.26146541420E+02 -0.68913180750E+02 -0.47983472209E+03  0.49204665780E+03  0.80223966599E+02 0.  0.
         25    2    1    2    0    0  0.77310221950E+02  0.46463129963E+02 -0.37790860111E+03  0.40816444671E+03  0.12509041489E+03 0.  0.
        -24    2    1    2    0    0 -0.51163680529E+02  0.22450050787E+02  0.13351456437E+03  0.16695697021E+03  0.83227183155E+02 0.  0.
        -11    1    3    3    0    0  0.65539205645E+01 -0.42407277610E+02 -0.87450916995E+02  0.97411467252E+02  0.00000000000E+00 0.  1.
         12    1    3    3    0    0 -0.32700461985E+02 -0.26505903140E+02 -0.39238380510E+03  0.39463519055E+03  0.00000000000E+00 0. -1.
         11    1    5    5    0    0 -0.46761193454E+02 -0.24352144235E+02  0.78948228097E+02  0.94933971062E+02  0.00000000000E+00 0. -1.
        -12    1    5    5    0    0 -0.44024870752E+01  0.46802195022E+02  0.54566336275E+02  0.72022999145E+02  0.00000000000E+00 0.  1.
          5    1    4    4  501    0  0.48648533197E+02  0.53491804250E+02 -0.76724391940E+02  0.10550904048E+03  0.41800000000E+01 0.  1.
         -5    1    4    4    0  501  0.28661688753E+02 -0.70286742870E+01 -0.30118420917E+03  0.30265540623E+03  0.41800000000E+01 0.  1.
</event>
<event>
11    1  0.7157190E-009  0.1316994E+03  0.7561462E-02  0.1117198E+00
         22   -1    0    0    0    0  0.00000000000E+00  0.00000000000E+00  0.13475792806E+04  0.13475792806E+04  0.00000000000E+00 0.  1.
         22   -1    0    0    0    0 -0.00000000000E+00 -0.00000000000E+00 -0.32350824956E+03  0.32350824956E+03  0.00000000000E+00 0.  1.
        -24    2    1    2    0    0 -0.96112110236E+01 -0.36230834520E+02 -0.24846265744E+03  0.26331055639E+03  0.78700115735E+02 0.  0.
         25    2    1    2    0    0 -0.29222643394E+02  0.49754448524E+02  0.59078756171E+01  0.13788283156E+03  0.12508918503E+03 0.  0.
         24    2    1    2    0    0  0.38833854418E+02 -0.13523614003E+02  0.12666258129E+04  0.12698941422E+04  0.81235621523E+02 0.  0.
        -11    1    5    5    0    0  0.61111257739E+02 -0.87164826061E+01  0.10981838317E+04  0.10999174019E+04  0.00000000000E+00 0.  1.
         12    1    5    5    0    0 -0.22277403321E+02 -0.48071313974E+01  0.16844198125E+03  0.16997674034E+03  0.00000000000E+00 0. -1.
         11    1    3    3    0    0  0.32047281239E+02 -0.14808755487E+02 -0.65071510660E+02  0.74031270241E+02  0.00000000000E+00 0. -1.
        -12    1    3    3    0    0 -0.41658492263E+02 -0.21422079033E+02 -0.18339114678E+03  0.18927928615E+03  0.00000000000E+00 0.  1.
          5    1    4    4  501    0  0.39057608322E+02  0.56719320421E+02  0.26521850525E+01  0.69044076954E+02  0.41800000000E+01 0. -1.
         -5    1    4    4    0  501 -0.68280251717E+02 -0.69648718972E+01  0.32556905646E+01  0.68838754609E+02  0.41800000000E+01 0. -1.
</event>
<event>
11    1  0.7157190E-009  0.1701516E+03  0.7561462E-02  0.1077900E+00
         22   -1    0    0    0    0  0.00000000000E+00  0.00000000000E+00  0.24115727183E+03  0.24115727183E+03  0.00000000000E+00 0.  1.
         22   -1    0    0    0    0 -0.00000000000E+00 -0.00000000000E+00 -0.28270109107E+03  0.28270109107E+03  0.00000000000E+00 0.  1.
         24    2    1    2    0    0 -0.26413703905E+02  0.62744139497E+01 -0.13148940267E+03  0.15656886879E+03  0.80543749816E+02 0.  0.
         25    2    1    2    0    0 -0.14209963949E+02  0.10509932292E+03 -0.45535274884E+02  0.17020342954E+03  0.12509178795E+03 0.  0.
        -24    2    1    2    0    0  0.40623667854E+02 -0.11137373687E+03  0.13548085832E+03  0.19708606457E+03  0.80208866235E+02 0.  0.
        -13    1    3    3    0    0  0.38229323482E+01 -0.23729016063E+02 -0.70602260385E+01  0.25050505120E+02  0.00000000000E+00 0.  1.
         14    1    3    3    0    0 -0.30236636253E+02  0.30003430012E+02 -0.12442917664E+03  0.13151836367E+03  0.00000000000E+00 0. -1.
         11    1    5    5    0    0 -0.37933397685E+01  0.10468097690E+02  0.26489756393E+01  0.11444980025E+02  0.00000000000E+00 0. -1.
        -12    1    5    5    0    0  0.44417007623E+02 -0.12184183456E+03  0.13283188268E+03  0.18564108454E+03  0.00000000000E+00 0.  1.
          5    1    4    4  501    0 -0.30091209547E+02 -0.15122361558E+02  0.11895443131E+02  0.35960265271E+02  0.41800000000E+01 0. -1.
         -5    1    4    4    0  501  0.15881245597E+02  0.12022168448E+03 -0.57430718015E+02  0.13424316427E+03  0.41800000000E+01 0. -1.
</event>
<event>
11    1  0.7157190E-009  0.1574661E+03  0.7561462E-02  0.1089485E+00
         22   -1    0    0    0    0  0.00000000000E+00  0.00000000000E+00  0.19293759711E+03  0.19293759711E+03  0.00000000000E+00 0. -1.
         22   -1    0    0    0    0 -0.00000000000E+00 -0.00000000000E+00 -0.60604200241E+03  0.60604200241E+03  0.00000000000E+00 0. -1.
        -24    2    1    2    0    0 -0.51188218167E+02 -0.68704097507E+02 -0.31880724272E+03  0.33976193376E+03  0.80371804308E+02 0.  0.
         25    2    1    2    0    0  0.30118238164E+02  0.13080912660E+03 -0.22600057998E+03  0.29110445840E+03  0.12508959858E+03 0.  0.
         24    2    1    2    0    0  0.21069980003E+02 -0.62105029098E+02  0.13170341741E+03  0.16811320736E+03  0.81334381640E+02 0.  0.
        -11    1    5    5    0    0 -0.11093724303E+02  0.21846403927E+01 -0.59815951338E+01  0.12791514879E+02  0.00000000000E+00 0.  1.
         12    1    5    5    0    0  0.32163704306E+02 -0.64289669490E+02  0.13768501254E+03  0.15532169248E+03  0.00000000000E+00 0. -1.
         11    1    3    3    0    0 -0.83236427723E+01 -0.43895183108E+02 -0.25553495627E+03  0.25941122567E+03  0.00000000000E+00 0. -1.
        -12    1    3    3    0    0 -0.42864575395E+02 -0.24808914399E+02 -0.63272286450E+02  0.80350708087E+02  0.00000000000E+00 0.  1.
          5    1    4    4  501    0 -0.47407331279E+02  0.30153877961E+02 -0.67283554496E+02  0.87756826063E+02  0.41800000000E+01 0. -1.
         -5    1    4    4    0  501  0.77525569443E+02  0.10065524864E+03 -0.15871702549E+03  0.20334763234E+03  0.41800000000E+01 0. -1.
</event>
<event>
11    1  0.7157190E-009  0.1906612E+03  0.7561462E-02  0.1061331E+00
         22   -1    0    0    0    0  0.00000000000E+00  0.00000000000E+00  0.65221777240E+03  0.65221777240E+03  0.00000000000E+00 0. -1.
         22   -1    0    0    0    0 -0.00000000000E+00 -0.00000000000E+00 -0.16721423566E+04  0.16721423566E+04  0.00000000000E+00 0. -1.
        -24    2    1    2    0    0 -0.19024580882E+02 -0.14042836443E+03 -0.15605628042E+04  0.15690253112E+04  0.80013129439E+02 0.  0.
         25    2    1    2    0    0  0.47418353534E+02  0.24886846984E+03  0.11761961621E+03  0.30604839991E+03  0.12508890213E+03 0.  0.
         24    2    1    2    0    0 -0.28393772652E+02 -0.10844010541E+03  0.42301860387E+03  0.44928641789E+03  0.10172552919E+03 0.  0.
        -13    1    5    5    0    0 -0.18362096140E+02 -0.44884754298E+02  0.46083366197E+02  0.66899061153E+02  0.00000000000E+00 0.  1.
         14    1    5    5    0    0 -0.10031676512E+02 -0.63555351116E+02  0.37693523768E+03  0.38238735673E+03  0.00000000000E+00 0. -1.
         11    1    3    3    0    0 -0.55952969265E+01 -0.13918093942E+03 -0.15179832872E+04  0.15243608173E+04  0.00000000000E+00 0. -1.
        -12    1    3    3    0    0 -0.13429283955E+02 -0.12474250144E+01 -0.42579517073E+02  0.44664493850E+02  0.00000000000E+00 0.  1.
          5    1    4    4  501    0 -0.16480917644E+02 -0.72183366936E+01  0.57031602548E+01  0.19331928717E+02  0.41800000000E+01 0.  1.
         -5    1    4    4    0  501  0.63899271178E+02  0.25608680654E+03  0.11191645596E+03  0.28671647119E+03  0.41800000000E+01 0.  1.
</event>
<event>
11    1  0.7157190E-009  0.1314310E+03  0.7561462E-02  0.1117523E+00
         22   -1    0    0    0    0  0.00000000000E+00  0.00000000000E+00  0.25300539437E+03  0.25300539437E+03  0.00000000000E+00 0. -1.
         22   -1    0    0    0    0 -0.00000000000E+00 -0.00000000000E+00 -0.49126389193E+03  0.49126389193E+03  0.00000000000E+00 0.  1.
         24    2    1    2    0    0 -0.34278886911E+02  0.67756115882E+01 -0.20380046024E+03  0.22335285429E+03  0.84444768502E+02 0.  0.
         25    2    1    2    0    0  0.49754757263E+02 -0.26672833091E+01 -0.25346122926E+03  0.28700774554E+03  0.12509276954E+03 0.  0.
        -24    2    1    2    0    0 -0.15475870351E+02 -0.41083282791E+01  0.21900319194E+03  0.23390868646E+03  0.80588427202E+02 0.  0.
        -13    1    3    3    0    0 -0.31310996593E+02 -0.26150324450E+02 -0.17441164164E+03  0.17911906297E+03  0.00000000000E+00 0.  1.
         14    1    3    3    0    0 -0.29678903188E+01  0.32925936038E+02 -0.29388818594E+02  0.44233791328E+02  0.00000000000E+00 0. -1.
         13    1    5    5    0    0 -0.17377430562E+02 -0.11037852268E+02  0.22413512328E+03  0.22507857020E+03  0.00000000000E+00 0. -1.
        -14    1    5    5    0    0  0.19015602111E+01  0.69295239894E+01 -0.51319313397E+01  0.88301162638E+01  0.00000000000E+00 0.  1.
          5    1    4    4  501    0 -0.64389868036E+01  0.53569258157E+02 -0.11938313240E+03  0.13107604920E+03  0.41800000000E+01 0. -1.
         -5    1    4    4    0  501  0.56193744066E+02 -0.56236541466E+02 -0.13407809685E+03  0.15593169634E+03  0.41800000000E+01 0. -1.
</event>
<event>
11    1  0.7157190E-009  0.1966843E+03  0.7561462E-02  0.1056893E+00
         22   -1    0    0    0    0  0.00000000000E+00  0.00000000000E+00  0.99147260766E+03  0.99147260766E+03  0.00000000000E+00 0. -1.
         22   -1    0    0    0    0 -0.00000000000E+00 -0.00000000000E+00 -0.14140434795E+04  0.14140434795E+04  0.00000000000E+00 0.  1.
         24    2    1    2    0    0  0.95492298506E+01 -0.52523703063E+02 -0.13160570610E+04  0.13199818914E+04  0.86579897085E+02 0.  0.
         25    2    1    2    0    0 -0.15922548656E+03  0.28355249168E+02  0.31813029195E+02  0.20692050455E+03  0.12508897094E+03 0.  0.
        -24    2    1    2    0    0  0.14967625671E+03  0.24168453895E+02  0.86167315990E+03  0.87861369129E+03  0.80587145620E+02 0.  0.
        -13    1    3    3    0    0 -0.27754170749E+02 -0.19557030847E+02 -0.94383220687E+03  0.94444269608E+03  0.00000000000E+00 0.  1.
         14    1    3    3    0    0  0.37303400600E+02 -0.32966672216E+02 -0.37222485412E+03  0.37553919529E+03  0.00000000000E+00 0. -1.
         11    1    5    5    0    0  0.14671161367E+03  0.35110246364E+01  0.67447443977E+03  0.69025531130E+03  0.00000000000E+00 0. -1.
        -12    1    5    5    0    0  0.29646430415E+01  0.20657429259E+02  0.18719872014E+03  0.18835837999E+03  0.00000000000E+00 0.  1.
          5    1    4    4  501    0 -0.41783359811E+02  0.74666240013E+01  0.69682064379E+02  0.81698605418E+02  0.41800000000E+01 0. -1.
         -5    1    4    4    0  501 -0.11744212675E+03  0.20888625167E+02 -0.37869035184E+02  0.12522189913E+03  0.41800000000E+01 0. -1.
</event>
<event>
11    1  0.7157190E-009  0.1291001E+03  0.7561462E-02  0.1120380E+00
         22   -1    0    0    0    0  0.00000000000E+00  0.00000000000E+00  0.57033231678E+03  0.57033231678E+03  0.00000000000E+00 0. -1.
         22   -1    0    0    0    0 -0.00000000000E+00 -0.00000000000E+00 -0.14394056141E+04  0.14394056141E+04  0.00000000000E+00 0. -1.
         24    2    1    2    0    0 -0.26746330102E+01 -0.34817752602E+02 -0.14112647159E+04  0.14138594397E+04  0.78172803253E+02 0.  0.
         25    2    1    2    0    0  0.20145985492E+01 -0.37185569404E+01  0.15836485736E+03  0.20185408926E+03  0.12509100301E+03 0.  0.
        -24    2    1    2    0    0  0.66003446100E+00  0.38536309543E+02  0.38382656128E+03  0.39402440192E+03  0.80292698099E+02 0.  0.
        -11    1    3    3    0    0 -0.11763539342E+02 -0.28197335674E+02 -0.18224498075E+03  0.18478826696E+03  0.00000000000E+00 0.  1.
         12    1    3    3    0    0  0.90889063316E+01 -0.66204169285E+01 -0.12290197352E+04  0.12290711727E+04  0.00000000000E+00 0. -1.
         13    1    5    5    0    0  0.14577140465E+02 -0.17296828233E+02  0.20316894986E+03  0.20442430256E+03  0.00000000000E+00 0. -1.
        -14    1    5    5    0    0 -0.13917106004E+02  0.55833137776E+02  0.18065761142E+03  0.18960009936E+03  0.00000000000E+00 0.  1.
          5    1    4    4  501    0  0.47474050665E+02 -0.24512072314E+02  0.13740714263E+03  0.14748838063E+03  0.41800000000E+01 0.  1.
         -5    1    4    4    0  501 -0.45459452116E+02  0.20793515374E+02  0.20957714728E+02  0.54365708631E+02  0.41800000000E+01 0.  1.
</event>
<event>
11    1  0.7157190E-009  0.2464013E+03  0.7561462E-02  0.1025834E+00
         22   -1    0    0    0    0  0.00000000000E+00  0.00000000000E+00  0.10000484518E+03  0.10000484518E+03  0.00000000000E+00 0. -1.
         22   -1    0    0    0    0 -0.00000000000E+00 -0.00000000000E+00 -0.15412951812E+04  0.15412951812E+04  0.00000000000E+00 0.  1.
        -24    2    1    2    0    0 -0.22377721897E+02  0.10185382512E+02 -0.84086560444E+03  0.84528402263E+03  0.82738199925E+02 0.  0.
         25    2    1    2    0    0 -0.14627868321E+03  0.12893525268E+03 -0.48519248182E+03  0.53766330861E+03  0.12509331100E+03 0.  0.
         24    2    1    2    0    0  0.16865640511E+03 -0.13912063520E+03 -0.11523224975E+03  0.25835269513E+03  0.75286848646E+02 0.  0.
        -11    1    5    5    0    0  0.90308715490E+01 -0.44904541588E+02 -0.20307441293E+02  0.50103559435E+02  0.00000000000E+00 0.  1.
         12    1    5    5    0    0  0.15962553356E+03 -0.94216093608E+02 -0.94924808459E+02  0.20824913570E+03  0.00000000000E+00 0. -1.
         13    1    3    3    0    0 -0.15673806545E+02  0.21526525414E+02 -0.80213521595E+02  0.84517859383E+02  0.00000000000E+00 0. -1.
        -14    1    3    3    0    0 -0.67039153525E+01 -0.11341142901E+02 -0.76065208285E+03  0.76076616325E+03  0.00000000000E+00 0.  1.
          5    1    4    4  501    0 -0.10861834698E+03  0.61411381292E+02 -0.15767305874E+03  0.20111580969E+03  0.41800000000E+01 0.  1.
         -5    1    4    4    0  501 -0.37660336226E+02  0.67523871391E+02 -0.32751942308E+03  0.33654749892E+03  0.41800000000E+01 0.  1.
</event>
<event>
11    1  0.7157190E-009  0.1483996E+03  0.7561462E-02  0.1098525E+00
         22   -1    0    0    0    0  0.00000000000E+00  0.00000000000E+00  0.19491388996E+04  0.19491388996E+04  0.00000000000E+00 0. -1.
         22   -1    0    0    0    0 -0.00000000000E+00 -0.00000000000E+00 -0.99113472872E+03  0.99113472872E+03  0.00000000000E+00 0. -1.
        -24    2    1    2    0    0  0.48534689980E+02 -0.49585986343E+01 -0.94100067498E+03  0.94552937964E+03  0.78506901651E+02 0.  0.
         25    2    1    2    0    0 -0.12652802534E+03  0.39365532495E+01  0.12575402464E+03  0.21792763150E+03  0.12511410876E+03 0.  0.
         24    2    1    2    0    0  0.77993335362E+02  0.10220453848E+01  0.17732508212E+04  0.17768166172E+04  0.81085209656E+02 0.  0.
        -13    1    5    5    0    0  0.32501384351E+02  0.25324802820E+02  0.31879886048E+03  0.32145046129E+03  0.00000000000E+00 0.  1.
         14    1    5    5    0    0  0.45491951011E+02 -0.24302757435E+02  0.14544519608E+04  0.14553661559E+04  0.00000000000E+00 0. -1.
         11    1    3    3    0    0  0.24890029463E+02 -0.29716704329E+02 -0.77835917120E+03  0.77932380656E+03  0.00000000000E+00 0. -1.
        -12    1    3    3    0    0  0.23644660517E+02  0.24758105694E+02 -0.16264150378E+03  0.16620557308E+03  0.00000000000E+00 0.  1.
          5    1    4    4  501    0 -0.77792789537E+02  0.61466311866E+02  0.50601090467E+02  0.11139016274E+03  0.41800000000E+01 0. -1.
         -5    1    4    4    0  501 -0.48735235806E+02 -0.57529758616E+02  0.75152934173E+02  0.10653746876E+03  0.41800000000E+01 0. -1.
</event>
<event>
11    1  0.7157190E-009  0.2048057E+03  0.7561462E-02  0.1051176E+00
         22   -1    0    0    0    0  0.00000000000E+00  0.00000000000E+00  0.21469700312E+04  0.21469700312E+04  0.00000000000E+00 0. -1.
         22   -1    0    0    0    0 -0.00000000000E+00 -0.00000000000E+00 -0.82175805629E+03  0.82175805629E+03  0.00000000000E+00 0. -1.
         24    2    1    2    0    0  0.63265436123E+02  0.65389907558E+01 -0.77604574125E+03  0.78274349330E+03  0.79969431485E+02 0.  0.
         25    2    1    2    0    0 -0.37614012353E+02 -0.16690185090E+03  0.25862435686E+03  0.33437254482E+03  0.12508956394E+03 0.  0.
        -24    2    1    2    0    0 -0.25651423770E+02  0.16036286015E+03  0.18426333593E+04  0.18516120493E+04  0.82433258450E+02 0.  0.
        -11    1    3    3    0    0  0.75472176233E+02  0.21474381826E+02 -0.51019464489E+03  0.51619354329E+03  0.00000000000E+00 0.  1.
         12    1    3    3    0    0 -0.12206740110E+02 -0.14935391070E+02 -0.26585109636E+03  0.26654995000E+03  0.00000000000E+00 0. -1.
         13    1    5    5    0    0  0.58241209154E+01  0.45504639829E+02  0.94499756259E+03  0.94611045123E+03  0.00000000000E+00 0. -1.
        -14    1    5    5    0    0 -0.31475544686E+02  0.11485822032E+03  0.89763579668E+03  0.90550159811E+03  0.00000000000E+00 0.  1.
          5    1    4    4  501    0  0.11866544941E+02 -0.13227589264E+03  0.10532785699E+03  0.16955576227E+03  0.41800000000E+01 0.  1.
         -5    1    4    4    0  501 -0.49480557293E+02 -0.34625958265E+02  0.15329649987E+03  0.16481678255E+03  0.41800000000E+01 0.  1.
</event>
<event>
11    1  0.7157190E-009  0.1326398E+03  0.7561462E-02  0.1116067E+00
         22   -1    0    0    0    0  0.00000000000E+00  0.00000000000E+00  0.74947408444E+03  0.74947408444E+03  0.00000000000E+00 0. -1.
         22   -1    0    0    0    0 -0.00000000000E+00 -0.00000000000E+00 -0.16689677070E+03  0.16689677070E+03  0.00000000000E+00 0. -1.
         24    2    1    2    0    0 -0.26214238537E+02 -0.34173263593E+02 -0.98941204605E+02  0.13375428110E+03  0.79030674409E+02 0.  0.
         25    2    1    2    0    0  0.39263255781E+02  0.32348968753E+02  0.47483688578E+02  0.14314521410E+03  0.12509113719E+03 0.  0.
        -24    2    1    2    0    0 -0.13049017244E+02  0.18242948398E+01  0.63403482977E+03  0.63947135994E+03  0.82157470231E+02 0.  0.
        -11    1    3    3    0    0  0.14428559380E+02 -0.22367410466E+01  0.67612580366E+01  0.16090399203E+02  0.00000000000E+00 0.  1.
         12    1    3    3    0    0 -0.40642797917E+02 -0.31936522546E+02 -0.10570246264E+03  0.11766388190E+03  0.00000000000E+00 0. -1.
         13    1    5    5    0    0 -0.18389401299E+02  0.19959258326E+02  0.59939043486E+03  0.60000452955E+03  0.00000000000E+00 0. -1.
        -14    1    5    5    0    0  0.53403840554E+01 -0.18134963486E+02  0.34644394915E+02  0.39466830396E+02  0.00000000000E+00 0.  1.
          5    1    4    4  501    0 -0.13616504210E+02  0.13478858130E+02 -0.36851155500E+02  0.41744087786E+02  0.41800000000E+01 0. -1.
         -5    1    4    4    0  501  0.52879759991E+02  0.18870110623E+02  0.84334844078E+02  0.10140112631E+03  0.41800000000E+01 0. -1.
</event>
<event>
11    1  0.7157190E-009  0.1589543E+03  0.7561462E-02  0.1088065E+00
         22   -1    0    0    0    0  0.00000000000E+00  0.00000000000E+00  0.74224197850E+03  0.74224197850E+03  0.00000000000E+00 0.  1.
         22   -1    0    0    0    0 -0.00000000000E+00 -0.00000000000E+00 -0.16785113369E+03  0.16785113369E+03  0.00000000000E+00 0.  1.
        -24    2    1    2    0    0 -0.49851570999E+01  0.29708248782E+02 -0.10898217549E+03  0.13928071188E+03  0.81330008553E+02 0.  0.
         25    2    1    2    0    0  0.88660471587E+02 -0.74480135846E+02  0.16333526354E+03  0.23608026484E+03  0.12509002067E+03 0.  0.
         24    2    1    2    0    0 -0.83675314487E+02  0.44771887064E+02  0.52003775676E+03  0.53473213547E+03  0.80579824514E+02 0.  0.
        -11    1    5    5    0    0 -0.91186313957E+02  0.58006134495E+02  0.42734445374E+03  0.44079806900E+03  0.00000000000E+00 0.  1.
         12    1    5    5    0    0  0.75109994696E+01 -0.13234247431E+02  0.92693303022E+02  0.93934066468E+02  0.00000000000E+00 0. -1.
         11    1    3    3    0    0  0.26399804180E+02  0.43104678279E+02 -0.79373281722E+02  0.94101438892E+02  0.00000000000E+00 0. -1.
        -12    1    3    3    0    0 -0.31384961280E+02 -0.13396429497E+02 -0.29608893769E+02  0.45179272991E+02  0.00000000000E+00 0.  1.
          5    1    4    4  501    0 -0.28102398081E+02 -0.39107503302E+02  0.43949340809E+02  0.65331145329E+02  0.41800000000E+01 0. -1.
         -5    1    4    4    0  501  0.11676286967E+03 -0.35372632544E+02  0.11938592273E+03  0.17074911951E+03  0.41800000000E+01 0. -1.
</event>
<event>
11    1  0.8678562E-009  0.1648049E+03  0.7561462E-02  0.1082643E+00
         22   -1    0    0    0    0  0.00000000000E+00  0.00000000000E+00  0.28931267067E+03  0.28931267067E+03  0.00000000000E+00 0. -1.
         22   -1    0    0    0    0 -0.00000000000E+00 -0.00000000000E+00 -0.16880433817E+04  0.16880433817E+04  0.00000000000E+00 0. -1.
        -24    2    1    2    0    0  0.10124919394E+02 -0.15261016233E+01 -0.14428295727E+04  0.14448520106E+04  0.75731854531E+02 0.  0.
         25    2    1    2    0    0 -0.16452079954E+02 -0.10565227022E+03 -0.19703410280E+03  0.25671484883E+03  0.12508798026E+03 0.  0.
         24    2    1    2    0    0  0.63271605599E+01  0.10717837185E+03  0.24113296446E+03  0.27578919291E+03  0.79920810986E+02 0.  0.
        -13    1    5    5    0    0  0.15487086761E+02  0.83814445763E+00  0.44225977860E+01  0.16127979218E+02  0.00000000000E+00 0.  1.
         14    1    5    5    0    0 -0.91599262016E+01  0.10634022739E+03  0.23671036667E+03  0.25966121370E+03  0.00000000000E+00 0. -1.
         11    1    3    3    0    0  0.30302111269E+02 -0.26818868832E+02 -0.57648371331E+03  0.57790219015E+03  0.00000000000E+00 0. -1.
        -12    1    3    3    0    0 -0.20177191875E+02  0.25292767209E+02 -0.86634585941E+03  0.86694982049E+03  0.00000000000E+00 0.  1.
          5    1    4    4  501    0  0.88976146559E+01 -0.45665499854E+02 -0.18442761195E+03  0.19025120728E+03  0.41800000000E+01 0. -1.
         -5    1    4    4    0  501 -0.25349694610E+02 -0.59986770371E+02 -0.12606490849E+02  0.66463641548E+02  0.41800000000E+01 0. -1.
</event>
<event>
11    1  0.7157190E-009  0.1444153E+03  0.7561462E-02  0.1102726E+00
         22   -1    0    0    0    0  0.00000000000E+00  0.00000000000E+00  0.67566316989E+02  0.67566316989E+02  0.00000000000E+00 0. -1.
         22   -1    0    0    0    0 -0.00000000000E+00 -0.00000000000E+00 -0.29099985488E+04  0.29099985488E+04  0.00000000000E+00 0. -1.
        -24    2    1    2    0    0  0.93135895548E+01 -0.32996116676E+02 -0.19693950571E+04  0.19715698446E+04  0.85995780749E+02 0.  0.
         25    2    1    2    0    0 -0.37791580817E+02 -0.34831541996E+02 -0.88539220246E+03  0.89566039270E+03  0.12508695760E+03 0.  0.
         24    2    1    2    0    0  0.28477991262E+02  0.67827658673E+02  0.12355027747E+02  0.11033462856E+03  0.81298808608E+02 0.  0.
        -13    1    5    5    0    0  0.45055796937E+02  0.21717460303E+02 -0.17460295490E+02  0.52976738652E+02  0.00000000000E+00 0.  1.
         14    1    5    5    0    0 -0.16577805675E+02  0.46110198370E+02  0.29815323237E+02  0.57357889906E+02  0.00000000000E+00 0. -1.
         11    1    3    3    0    0  0.35456139901E+02  0.15033411329E+01 -0.14301693985E+04  0.14306096275E+04  0.00000000000E+00 0. -1.
        -12    1    3    3    0    0 -0.26142550347E+02 -0.34499457809E+02 -0.53922565864E+03  0.54096021708E+03  0.00000000000E+00 0.  1.
          5    1    4    4  501    0  0.36017849902E+02  0.14081553882E+02 -0.42755056244E+03  0.42931635365E+03  0.41800000000E+01 0. -1.
         -5    1    4    4    0  501 -0.73809430719E+02 -0.48913095878E+02 -0.45784164002E+03  0.46634403904E+03  0.41800000000E+01 0. -1.
</event>
<event>
11    1  0.7157190E-009  0.1411813E+03  0.7561462E-02  0.1106246E+00
         22   -1    0    0    0    0  0.00000000000E+00  0.00000000000E+00  0.79028646858E+03  0.79028646858E+03  0.00000000000E+00 0.  1.
         22   -1    0    0    0    0 -0.00000000000E+00 -0.00000000000E+00 -0.21365120532E+04  0.21365120532E+04  0.00000000000E+00 0. -1.
         24    2    1    2    0    0 -0.13979467253E+02 -0.63664787327E+02 -0.20667883200E+04  0.20694490367E+04  0.82199300913E+02 0.  0.
         25    2    1    2    0    0  0.48231450732E+02  0.75698512370E+02  0.24205425633E+02  0.15585069848E+03  0.12508796893E+03 0.  0.
        -24    2    1    2    0    0 -0.34251983480E+02 -0.12033725043E+02  0.69635730973E+03  0.70149878664E+03  0.76609633474E+02 0.  0.
        -13    1    3    3    0    0 -0.19083778537E+02 -0.29585699125E+02 -0.26467524450E+03  0.26700653409E+03  0.00000000000E+00 0.  1.
         14    1    3    3    0    0  0.51043112846E+01 -0.34079088202E+02 -0.18021130755E+04  0.18024425026E+04  0.00000000000E+00 0. -1.
         13    1    5    5    0    0  0.14054908675E+02  0.13397182594E+02  0.66410407690E+02  0.69190802921E+02  0.00000000000E+00 0. -1.
        -14    1    5    5    0    0 -0.48306892154E+02 -0.25430907637E+02  0.62994690204E+03  0.63230798372E+03  0.00000000000E+00 0.  1.
          5    1    4    4  501    0  0.26600855778E+02 -0.31682964778E+02 -0.63300863762E+01  0.42058984520E+02  0.41800000000E+01 0.  1.
         -5    1    4    4    0  501  0.21630594954E+02  0.10738147715E+03  0.30535512009E+02  0.11379171396E+03  0.41800000000E+01 0.  1.
</event>
<event>
11    1  0.7157190E-009  0.1519140E+03  0.7561462E-02  0.1094939E+00
         22   -1    0    0    0    0  0.00000000000E+00  0.00000000000E+00  0.25923188914E+03  0.25923188914E+03  0.00000000000E+00 0.  1.
         22   -1    0    0    0    0 -0.00000000000E+00 -0.00000000000E+00 -0.31396629084E+03  0.31396629084E+03  0.00000000000E+00 0.  1.
         24    2    1    2    0    0  0.80534735685E+02 -0.53594554522E+02 -0.23520481258E+03  0.27055044438E+03  0.92293115480E+02 0.  0.
         25    2    1    2    0    0 -0.19977180734E+02  0.14785225416E+02  0.63421358319E+02  0.14243404501E+03  0.12508995902E+03 0.  0.
        -24    2    1    2    0    0 -0.60557554950E+02  0.38809329106E+02  0.11704905256E+03  0.16021369059E+03  0.82429148120E+02 0.  0.
        -13    1    3    3    0    0  0.10114877827E+03 -0.47902319844E+02 -0.20467386563E+03  0.23327472830E+03  0.00000000000E+00 0.  1.
         14    1    3    3    0    0 -0.20614042584E+02 -0.56922346787E+01 -0.30530946955E+02  0.37275716080E+02  0.00000000000E+00 0. -1.
         13    1    5    5    0    0  0.27489280663E+01  0.31033924691E+02  0.53851095098E+01  0.31617408048E+02  0.00000000000E+00 0. -1.
        -14    1    5    5    0    0 -0.63306483016E+02  0.77754044154E+01  0.11166394305E+03  0.12859628254E+03  0.00000000000E+00 0.  1.
          5    1    4    4  501    0  0.18636555176E+02  0.58314435518E+02  0.78468460016E+01  0.61862266130E+02  0.41800000000E+01 0. -1.
         -5    1    4    4    0  501 -0.38613735910E+02 -0.43529210102E+02  0.55574512317E+02  0.80571778883E+02  0.41800000000E+01 0. -1.
</event>
<event>
11    1  0.7157190E-009  0.2052012E+03  0.7561462E-02  0.1050905E+00
         22   -1    0    0    0    0  0.00000000000E+00  0.00000000000E+00  0.12127229783E+04  0.12127229783E+04  0.00000000000E+00 0.  1.
         22   -1    0    0    0    0 -0.00000000000E+00 -0.00000000000E+00 -0.18484248145E+03  0.18484248145E+03  0.00000000000E+00 0.  1.
         24    2    1    2    0    0 -0.33194895514E+02 -0.24245101835E+02 -0.91105706010E+02  0.12813170982E+03  0.80173308165E+02 0.  0.
         25    2    1    2    0    0  0.11116039212E+03  0.16242758982E+03  0.13515054611E+03  0.26954181483E+03  0.12509102733E+03 0.  0.
        -24    2    1    2    0    0 -0.77965496603E+02 -0.13818248798E+03  0.98383565672E+03  0.99989193508E+03  0.81720644635E+02 0.  0.
        -11    1    3    3    0    0 -0.13303440396E+02 -0.10539925632E+02 -0.10071474887E+03  0.10213487259E+03  0.00000000000E+00 0.  1.
         12    1    3    3    0    0 -0.19891455118E+02 -0.13705176203E+02  0.96090428570E+01  0.25996837233E+02  0.00000000000E+00 0. -1.
         13    1    5    5    0    0  0.42255054624E+01 -0.73954058787E+02  0.39348139775E+03  0.40039314190E+03  0.00000000000E+00 0. -1.
        -14    1    5    5    0    0 -0.82191002065E+02 -0.64228429196E+02  0.59035425897E+03  0.59949879318E+03  0.00000000000E+00 0.  1.
          5    1    4    4  501    0  0.10222771943E+03  0.10018490866E+03  0.29013084594E+02  0.14610528403E+03  0.41800000000E+01 0.  1.
         -5    1    4    4    0  501  0.89326726830E+01  0.62242681162E+02  0.10613746151E+03  0.12343653080E+03  0.41800000000E+01 0.  1.
</event>
<event>
11    1  0.7157190E-009  0.1825180E+03  0.7561462E-02  0.1067624E+00
         22   -1    0    0    0    0  0.00000000000E+00  0.00000000000E+00  0.70572124638E+03  0.70572124638E+03  0.00000000000E+00 0. -1.
         22   -1    0    0    0    0 -0.00000000000E+00 -0.00000000000E+00 -0.83111979865E+03  0.83111979865E+03  0.00000000000E+00 0.  1.
        -24    2    1    2    0    0 -0.48906795166E+02 -0.35414641822E+02 -0.74698010741E+03  0.75373074055E+03  0.80527491601E+02 0.  0.
         25    2    1    2    0    0 -0.76180438183E+02 -0.30657662207E+02  0.11699566839E+02  0.15009472599E+03  0.12509274756E+03 0.  0.
         24    2    1    2    0    0  0.12508723335E+03  0.66072304030E+02  0.60988198831E+03  0.63301557848E+03  0.93489665903E+02 0.  0.
        -11    1    5    5    0    0  0.17657165372E+02  0.14430774435E+02  0.17458865523E+02  0.28719936022E+02  0.00000000000E+00 0.  1.
         12    1    5    5    0    0  0.10743006798E+03  0.51641529594E+02  0.59242312278E+03  0.60429564246E+03  0.00000000000E+00 0. -1.
         13    1    3    3    0    0  0.13377802711E+02  0.28688870722E+01 -0.29307097976E+02  0.32343501823E+02  0.00000000000E+00 0. -1.
        -14    1    3    3    0    0 -0.62284597877E+02 -0.38283528895E+02 -0.71767300944E+03  0.72138723872E+03  0.00000000000E+00 0.  1.
          5    1    4    4  501    0 -0.83556392314E+02 -0.29294116078E+02  0.56079711045E+02  0.10489147880E+03  0.41800000000E+01 0.  1.
         -5    1    4    4    0  501  0.73759541313E+01 -0.13635461295E+01 -0.44380144206E+02  0.45203247197E+02  0.41800000000E+01 0.  1.
</event>
<event>
11    1  0.7157190E-009  0.2003145E+03  0.7561462E-02  0.1054301E+00
         22   -1    0    0    0    0  0.00000000000E+00  0.00000000000E+00  0.14814041239E+03  0.14814041239E+03  0.00000000000E+00 0. -1.
         22   -1    0    0    0    0 -0.00000000000E+00 -0.00000000000E+00 -0.14829946179E+04  0.14829946179E+04  0.00000000000E+00 0. -1.
        -24    2    1    2    0    0 -0.22112160179E+02  0.28645404259E+02 -0.90613515695E+03  0.91057923160E+03  0.82244194570E+02 0.  0.
         25    2    1    2    0    0  0.15044284218E+03 -0.11158123204E+03 -0.48821231718E+03  0.53766050630E+03  0.12507650973E+03 0.  0.
         24    2    1    2    0    0 -0.12833068200E+03  0.82935827779E+02  0.59493268659E+02  0.18289529236E+03  0.81019278438E+02 0.  0.
        -13    1    5    5    0    0 -0.94232926222E+01 -0.15700100132E+02  0.40361517180E+01  0.18750522891E+02  0.00000000000E+00 0.  1.
         14    1    5    5    0    0 -0.11890738938E+03  0.98635927911E+02  0.55457116941E+02  0.16414476946E+03  0.00000000000E+00 0. -1.
         11    1    3    3    0    0 -0.45519869107E+02  0.36981493864E+02 -0.76729217675E+03  0.76953035930E+03  0.00000000000E+00 0. -1.
        -12    1    3    3    0    0  0.23407708928E+02 -0.83360896050E+01 -0.13884298020E+03  0.14104887230E+03  0.00000000000E+00 0.  1.
          5    1    4    4  501    0  0.53594084773E+02 -0.69278001731E+02 -0.36449642825E+03  0.37489583360E+03  0.41800000000E+01 0.  1.
         -5    1    4    4    0  501  0.96848757405E+02 -0.42303230307E+02 -0.12371588893E+03  0.16276467270E+03  0.41800000000E+01 0.  1.
</event>
<event>
11    1  0.7157190E-009  0.3264936E+03  0.7561462E-02  0.9895628E-01
         22   -1    0    0    0    0  0.00000000000E+00  0.00000000000E+00  0.79657478624E+03  0.79657478624E+03  0.00000000000E+00 0.  1.
         22   -1    0    0    0    0 -0.00000000000E+00 -0.00000000000E+00 -0.19694330024E+04  0.19694330024E+04  0.00000000000E+00 0. -1.
         24    2    1    2    0    0 -0.20237374882E+02 -0.14179324424E+03 -0.16157891926E+04  0.16241465921E+04  0.81009642714E+02 0.  0.
         25    2    1    2    0    0 -0.26623832636E+03  0.22776371830E+03 -0.20429641243E+03  0.42443368157E+03  0.12509103933E+03 0.  0.
        -24    2    1    2    0    0  0.28647570125E+03 -0.85970474059E+02  0.64722738894E+03  0.71742751492E+03  0.79622210165E+02 0.  0.
        -11    1    3    3    0    0 -0.10707933198E+02 -0.26868773842E+01 -0.25896018634E+02  0.28151073240E+02  0.00000000000E+00 0.  1.
         12    1    3    3    0    0 -0.95294416842E+01 -0.13910636685E+03 -0.15898931740E+04  0.15959955189E+04  0.00000000000E+00 0. -1.
         13    1    5    5    0    0  0.96905917532E+01  0.10274539707E+02  0.53327881128E+02  0.55166444877E+02  0.00000000000E+00 0. -1.
        -14    1    5    5    0    0  0.27678510949E+03 -0.96245013765E+02  0.59389950781E+03  0.66226107004E+03  0.00000000000E+00 0.  1.
          5    1    4    4  501    0 -0.16708793973E+03  0.21265391598E+03 -0.13373335315E+03  0.30173191699E+03  0.41800000000E+01 0.  1.
         -5    1    4    4    0  501 -0.99150386633E+02  0.15109802314E+02 -0.70563059280E+02  0.12270176458E+03  0.41800000000E+01 0.  1.
</event>
<event>
11    1  0.7157190E-009  0.1445744E+03  0.7561462E-02  0.1102555E+00
         22   -1    0    0    0    0  0.00000000000E+00  0.00000000000E+00  0.98803392722E+02  0.98803392722E+02  0.00000000000E+00 0. -1.
         22   -1    0    0    0    0 -0.00000000000E+00 -0.00000000000E+00 -0.84227850189E+03  0.84227850189E+03  0.00000000000E+00 0.  1.
        -24    2    1    2    0    0  0.62262576244E+02 -0.36528643137E+02 -0.48469300922E+03  0.49664253935E+03  0.80718823930E+02 0.  0.
         25    2    1    2    0    0 -0.73305851215E+02  0.18741866946E+02 -0.31224289832E+03  0.34475993274E+03  0.12505510095E+03 0.  0.
         24    2    1    2    0    0  0.11043274971E+02  0.17786776191E+02  0.53460798374E+02  0.99679422519E+02  0.81483783550E+02 0.  0.
        -13    1    5    5    0    0 -0.29190586523E+01  0.28678626943E+02 -0.12472621612E+02  0.31409406817E+02  0.00000000000E+00 0.  1.
         14    1    5    5    0    0  0.13962333624E+02 -0.10891850752E+02  0.65933419985E+02  0.68270015702E+02  0.00000000000E+00 0. -1.
         11    1    3    3    0    0  0.54252190637E+01 -0.49394805032E+02 -0.24226045872E+03  0.24730428550E+03  0.00000000000E+00 0. -1.
        -12    1    3    3    0    0  0.56837357180E+02  0.12866161895E+02 -0.24243255050E+03  0.24933825386E+03  0.00000000000E+00 0.  1.
          5    1    4    4  501    0 -0.89141066473E+01 -0.31725951273E+02 -0.21526585554E+03  0.21781381555E+03  0.41800000000E+01 0. -1.
         -5    1    4    4    0  501 -0.64391744568E+02  0.50467818219E+02 -0.96977042779E+02  0.12694611719E+03  0.41800000000E+01 0. -1.
</event>
<event>
11    1  0.7157190E-009  0.3130277E+03  0.7561462E-02  0.9948235E-01
         22   -1    0    0    0    0  0.00000000000E+00  0.00000000000E+00  0.26117233125E+04  0.26117233125E+04  0.00000000000E+00 0. -1.
         22   -1    0    0    0    0 -0.00000000000E+00 -0.00000000000E+00 -0.51414692681E+03  0.51414692681E+03  0.00000000000E+00 0.  1.
         24    2    1    2    0    0 -0.20965569185E+02 -0.16836045057E+02 -0.22601728330E+03  0.24396570241E+03  0.87820522064E+02 0.  0.
         25    2    1    2    0    0  0.21412414598E+03 -0.19529266695E+03 -0.17817186932E+03  0.36246395878E+03  0.12508609332E+03 0.  0.
        -24    2    1    2    0    0 -0.19315857679E+03  0.21212871200E+03  0.25017655383E+04  0.25194405781E+04  0.80257035549E+02 0.  0.
        -13    1    3    3    0    0 -0.26441593709E+02  0.22372359616E+02 -0.17982248664E+03  0.18312784347E+03  0.00000000000E+00 0.  1.
         14    1    3    3    0    0  0.54760245239E+01 -0.39208404673E+02 -0.46194796668E+02  0.60837858943E+02  0.00000000000E+00 0. -1.
         13    1    5    5    0    0 -0.19590604251E+03  0.21222872393E+03  0.23544356752E+04  0.23720850654E+04  0.00000000000E+00 0. -1.
        -14    1    5    5    0    0  0.27474657164E+01 -0.10001192593E+00  0.14732986311E+03  0.14735551273E+03  0.00000000000E+00 0.  1.
          5    1    4    4  501    0  0.51558038875E+02 -0.89274895786E+01  0.77198677903E+01  0.53056575479E+02  0.41800000000E+01 0.  1.
         -5    1    4    4    0  501  0.16256610710E+03 -0.18636517737E+03 -0.18589173711E+03  0.30940738330E+03  0.41800000000E+01 0.  1.
</event>
<event>
11    1  0.7157190E-009  0.1304058E+03  0.7561462E-02  0.1118771E+00
         22   -1    0    0    0    0  0.00000000000E+00  0.00000000000E+00  0.17582833567E+03  0.17582833567E+03  0.00000000000E+00 0.  1.
         22   -1    0    0    0    0 -0.00000000000E+00 -0.00000000000E+00 -0.10658638220E+04  0.10658638220E+04  0.00000000000E+00 0. -1.
         24    2    1    2    0    0  0.12686046095E+02 -0.31329275382E+02 -0.49804520453E+03  0.50576147470E+03  0.81259979534E+02 0.  0.
         25    2    1    2    0    0 -0.40268440718E+02  0.26838420338E+02 -0.54475418937E+03  0.56102294256E+03  0.12509103533E+03 0.  0.
        -24    2    1    2    0    0  0.27582394623E+02  0.44908550445E+01  0.15276390760E+03  0.17490774038E+03  0.80467073421E+02 0.  0.
        -13    1    3    3    0    0  0.16584333930E+02 -0.23605572851E+02 -0.50703883415E+02  0.58336497966E+02  0.00000000000E+00 0.  1.
         14    1    3    3    0    0 -0.38982878359E+01 -0.77237025314E+01 -0.44734132111E+03  0.44742497673E+03  0.00000000000E+00 0. -1.
         13    1    5    5    0    0 -0.20543810792E+02 -0.11975045492E+02  0.15152480447E+02  0.28196587384E+02  0.00000000000E+00 0. -1.
        -14    1    5    5    0    0  0.48126205415E+02  0.16465900537E+02  0.13761142716E+03  0.14671115299E+03  0.00000000000E+00 0.  1.
          5    1    4    4  501    0  0.42942697897E+01 -0.29542675867E+02 -0.34918117684E+02  0.46129792900E+02  0.41800000000E+01 0.  1.
         -5    1    4    4    0  501 -0.44562710508E+02  0.56381096204E+02 -0.50983607168E+03  0.51489314966E+03  0.41800000000E+01 0.  1.
</event>
<event>
11    1  0.7157190E-009  0.1554483E+03  0.7561462E-02  0.1091438E+00
         22   -1    0    0    0    0  0.00000000000E+00  0.00000000000E+00  0.86005951293E+02  0.86005951293E+02  0.00000000000E+00 0.  1.
         22   -1    0    0    0    0 -0.00000000000E+00 -0.00000000000E+00 -0.13519936341E+04  0.13519936341E+04  0.00000000000E+00 0.  1.
        -24    2    1    2    0    0  0.40062738117E+01 -0.39759431203E+02 -0.68937357416E+03  0.69527390565E+03  0.81074142146E+02 0.  0.
         25    2    1    2    0    0  0.42024453774E+02 -0.43544932849E+02 -0.59969576819E+03  0.61558475691E+03  0.12508941867E+03 0.  0.
         24    2    1    2    0    0 -0.46030727586E+02  0.83304364052E+02  0.23081659557E+02  0.12714092282E+03  0.81077779296E+02 0.  0.
        -13    1    5    5    0    0 -0.68130043432E+02  0.56918731359E+02  0.67183359834E+01  0.89031347491E+02  0.00000000000E+00 0.  1.
         14    1    5    5    0    0  0.22099315846E+02  0.26385632693E+02  0.16363323574E+02  0.38109575330E+02  0.00000000000E+00 0. -1.
         13    1    3    3    0    0  0.33111726051E+02 -0.49620752362E+02 -0.45244348165E+03  0.45635918919E+03  0.00000000000E+00 0. -1.
        -14    1    3    3    0    0 -0.29105452239E+02  0.98613211583E+01 -0.23693009251E+03  0.23891471646E+03  0.00000000000E+00 0.  1.
          5    1    4    4  501    0 -0.19224491609E+02 -0.69554529321E+02 -0.31345860836E+03  0.32168491600E+03  0.41800000000E+01 0. -1.
         -5    1    4    4    0  501  0.61248945384E+02  0.26009596472E+02 -0.28623715983E+03  0.29389984091E+03  0.41800000000E+01 0. -1.
</event>
<event>
11    1  0.7157190E-009  0.1433816E+03  0.7561462E-02  0.1103840E+00
         22   -1    0    0    0    0  0.00000000000E+00  0.00000000000E+00  0.11874555634E+03  0.11874555634E+03  0.00000000000E+00 0.  1.
         22   -1    0    0    0    0 -0.00000000000E+00 -0.00000000000E+00 -0.12611573093E+04  0.12611573093E+04  0.00000000000E+00 0. -1.
        -24    2    1    2    0    0 -0.11426502759E+01  0.72117566434E+02 -0.10706258002E+04  0.10760820929E+04  0.80689637178E+02 0.  0.
         25    2    1    2    0    0 -0.55243364460E+02 -0.96096659787E+02 -0.91341773767E+02  0.19046700146E+03  0.12509181297E+03 0.  0.
         24    2    1    2    0    0  0.56386014736E+02  0.23979093354E+02  0.19555820920E+02  0.11335377137E+03  0.93339529547E+02 0.  0.
        -11    1    5    5    0    0 -0.14981601508E+01 -0.41024750653E+01  0.44232340463E+02  0.44447437815E+02  0.00000000000E+00 0.  1.
         12    1    5    5    0    0  0.57884174887E+02  0.28081568419E+02 -0.24676519543E+02  0.68906333555E+02  0.00000000000E+00 0. -1.
         13    1    3    3    0    0  0.25088963276E+02  0.75047788218E+02 -0.68531657527E+03  0.68986986812E+03  0.00000000000E+00 0. -1.
        -14    1    3    3    0    0 -0.26231613552E+02 -0.29302217841E+01 -0.38530922489E+03  0.38621222474E+03  0.00000000000E+00 0.  1.
          5    1    4    4  501    0 -0.84061198232E+01 -0.97930083123E+02 -0.13215905030E+02  0.99262765308E+02  0.41800000000E+01 0.  1.
         -5    1    4    4    0  501 -0.46837244637E+02  0.18334233353E+01 -0.78125868737E+02  0.91204236153E+02  0.41800000000E+01 0.  1.
</event>
<event>
11    1  0.7157190E-009  0.1551843E+03  0.7561462E-02  0.1091696E+00
         22   -1    0    0    0    0  0.00000000000E+00  0.00000000000E+00  0.10001334672E+04  0.10001334672E+04  0.00000000000E+00 0. -1.
         22   -1    0    0    0    0 -0.00000000000E+00 -0.00000000000E+00 -0.16412451911E+03  0.16412451911E+03  0.00000000000E+00 0.  1.
         24    2    1    2    0    0  0.18916323521E+01  0.78151528462E+02 -0.72190480261E+02  0.13100605921E+03  0.76419123496E+02 0.  0.
         25    2    1    2    0    0  0.36483299129E+02  0.10970772585E+02  0.15677421640E+02  0.13170956440E+03  0.12510091462E+03 0.  0.
        -24    2    1    2    0    0 -0.38374931481E+02 -0.89122301047E+02  0.89252200675E+03  0.90154236274E+03  0.82265906503E+02 0.  0.
        -11    1    3    3    0    0 -0.21077034490E+02  0.44222506419E+02 -0.75390544670E+02  0.89908874325E+02  0.00000000000E+00 0.  1.
         12    1    3    3    0    0  0.22968666842E+02  0.33929022043E+02  0.32000644087E+01  0.41097184886E+02  0.00000000000E+00 0. -1.
         11    1    5    5    0    0 -0.28169344549E+00 -0.87825824712E+02  0.56039119096E+03  0.56723164734E+03  0.00000000000E+00 0. -1.
        -12    1    5    5    0    0 -0.38093238036E+02 -0.12964763351E+01  0.33213081579E+03  0.33431071540E+03  0.00000000000E+00 0.  1.
          5    1    4    4  501    0 -0.71988359918E+00 -0.41276012050E+02 -0.31402356234E+02  0.52036600390E+02  0.41800000000E+01 0. -1.
         -5    1    4    4    0  501  0.37203182728E+02  0.52246784635E+02  0.47079777874E+02  0.79672964012E+02  0.41800000000E+01 0. -1.
</event>
<event>
11    1  0.7157190E-009  0.3519357E+03  0.7561462E-02  0.9803294E-01
         22   -1    0    0    0    0  0.00000000000E+00  0.00000000000E+00  0.21831552112E+03  0.21831552112E+03  0.00000000000E+00 0. -1.
         22   -1    0    0    0    0 -0.00000000000E+00 -0.00000000000E+00 -0.11926733917E+04  0.11926733917E+04  0.00000000000E+00 0.  1.
         24    2    1    2    0    0 -0.23218625098E+03  0.29611021366E+03 -0.53334225697E+03  0.65766774308E+03  0.80505797562E+02 0.  0.
         25    2    1    2    0    0  0.17762172624E+03 -0.23506794704E+03 -0.52269987495E+03  0.61291877673E+03  0.12509136752E+03 0.  0.
        -24    2    1    2    0    0  0.54564524739E+02 -0.61042266616E+02  0.81684261379E+02  0.14040239299E+03  0.79605701589E+02 0.  0.
        -11    1    3    3    0    0 -0.18393389843E+02  0.29001935306E+01 -0.10932696849E+02  0.21592863933E+02  0.00000000000E+00 0.  1.
         12    1    3    3    0    0 -0.21379286114E+03  0.29321002013E+03 -0.52240956012E+03  0.63607487914E+03  0.00000000000E+00 0. -1.
         11    1    5    5    0    0  0.66341563883E+00 -0.55685715952E+02  0.60531490164E+02  0.82252053973E+02  0.00000000000E+00 0. -1.
        -12    1    5    5    0    0  0.53901109100E+02 -0.53565506640E+01  0.21152771216E+02  0.58150339013E+02  0.00000000000E+00 0.  1.
          5    1    4    4  501    0  0.31064495399E+02 -0.14223483302E+03 -0.26154627682E+03  0.29936545879E+03  0.41800000000E+01 0.  1.
         -5    1    4    4    0  501  0.14655723084E+03 -0.92833114027E+02 -0.26115359813E+03  0.31355331794E+03  0.41800000000E+01 0.  1.
</event>
<event>
11    1  0.7157190E-009  0.1356794E+03  0.7561462E-02  0.1112481E+00
         22   -1    0    0    0    0  0.00000000000E+00  0.00000000000E+00  0.91323184594E+02  0.91323184594E+02  0.00000000000E+00 0. -1.
         22   -1    0    0    0    0 -0.00000000000E+00 -0.00000000000E+00 -0.74598398057E+03  0.74598398057E+03  0.00000000000E+00 0. -1.
         24    2    1    2    0    0  0.13864539218E+02 -0.73520498518E+02 -0.30454093242E+03  0.32419193513E+03  0.82205487272E+02 0.  0.
         25    2    1    2    0    0 -0.53729663406E+02  0.34188654211E+01 -0.37953629036E+03  0.40322840159E+03  0.12508710077E+03 0.  0.
        -24    2    1    2    0    0  0.39865124188E+02  0.70101633097E+02  0.29416426800E+02  0.10988682844E+03  0.68602637047E+02 0.  0.
        -11    1    3    3    0    0  0.25642880301E+02 -0.17327097771E+02 -0.27938214854E+02  0.41693278553E+02  0.00000000000E+00 0.  1.
         12    1    3    3    0    0 -0.11778341083E+02 -0.56193400747E+02 -0.27660271756E+03  0.28249865658E+03  0.00000000000E+00 0. -1.
         11    1    5    5    0    0  0.31990876963E+02  0.45541383520E+02  0.51579568700E+02  0.75880733583E+02  0.00000000000E+00 0. -1.
        -12    1    5    5    0    0  0.78742472253E+01  0.24560249576E+02 -0.22163141900E+02  0.34006094858E+02  0.00000000000E+00 0.  1.
          5    1    4    4  501    0 -0.64296687652E+02 -0.28943399223E+02 -0.10493639330E+03  0.12649467752E+03  0.41800000000E+01 0. -1.
         -5    1    4    4    0  501  0.10567024246E+02  0.32362264645E+02 -0.27459989706E+03  0.27673372407E+03  0.41800000000E+01 0. -1.
</event>
<event>
11    1  0.7157190E-009  0.1330838E+03  0.7561462E-02  0.1115537E+00
         22   -1    0    0    0    0  0.00000000000E+00  0.00000000000E+00  0.48454593667E+03  0.48454593667E+03  0.00000000000E+00 0.  1.
         22   -1    0    0    0    0 -0.00000000000E+00 -0.00000000000E+00 -0.28553621520E+03  0.28553621520E+03  0.00000000000E+00 0.  1.
         24    2    1    2    0    0  0.36028753659E+02 -0.29237015453E+02 -0.24663551140E+03  0.26408460144E+03  0.82211477720E+02 0.  0.
         25    2    1    2    0    0  0.16177448070E+02  0.38316131479E+02  0.17972426257E+03  0.22288912288E+03  0.12509562257E+03 0.  0.
        -24    2    1    2    0    0 -0.52206201729E+02 -0.90791160254E+01  0.26592097031E+03  0.28310842755E+03  0.81415609406E+02 0.  0.
        -13    1    3    3    0    0  0.45200193538E+02 -0.48249786014E+02 -0.22203261926E+03  0.23166696649E+03  0.00000000000E+00 0.  1.
         14    1    3    3    0    0 -0.91714398790E+01  0.19012770561E+02 -0.24602892136E+02  0.32417634943E+02  0.00000000000E+00 0. -1.
         11    1    5    5    0    0  0.11412171251E+02 -0.12330967035E+02  0.14913962080E+03  0.15008303333E+03  0.00000000000E+00 0. -1.
        -12    1    5    5    0    0 -0.63618372980E+02  0.32518510092E+01  0.11678134951E+03  0.13302539422E+03  0.00000000000E+00 0.  1.
          5    1    4    4  501    0  0.59994300403E+01  0.75146031143E+02  0.57904599054E+02  0.95149010236E+02  0.41800000000E+01 0. -1.
         -5    1    4    4    0  501  0.10178018030E+02 -0.36829899665E+02  0.12181966351E+03  0.12774011265E+03  0.41800000000E+01 0. -1.
</event>
<event>
11    1  0.7157190E-009  0.1562139E+03  0.7561462E-02  0.1090693E+00
         22   -1    0    0    0    0  0.00000000000E+00  0.00000000000E+00  0.12773588017E+04  0.12773588017E+04  0.00000000000E+00 0. -1.
         22   -1    0    0    0    0 -0.00000000000E+00 -0.00000000000E+00 -0.93613516492E+03  0.93613516492E+03  0.00000000000E+00 0.  1.
        -24    2    1    2    0    0 -0.13655369352E+02  0.76518081218E+02 -0.87292856959E+03  0.88002037606E+03  0.79938031122E+02 0.  0.
         25    2    1    2    0    0  0.11256768488E+02 -0.16576231807E+03  0.13571755600E+03  0.24834195148E+03  0.12510239378E+03 0.  0.
         24    2    1    2    0    0  0.23986008644E+01  0.89244236854E+02  0.10784346504E+04  0.10851316391E+04  0.80740893799E+02 0.  0.
        -11    1    5    5    0    0 -0.22902248629E+02  0.39540048487E+02  0.21028320114E+03  0.21519050422E+03  0.00000000000E+00 0.  1.
         12    1    5    5    0    0  0.25300849493E+02  0.49704188367E+02  0.86815144923E+03  0.86994113486E+03  0.00000000000E+00 0. -1.
         13    1    3    3    0    0 -0.80335516199E+01  0.11782955233E+02 -0.19694460074E+02  0.24315586427E+02  0.00000000000E+00 0. -1.
        -14    1    3    3    0    0 -0.56218177322E+01  0.64735125985E+02 -0.85323410951E+03  0.85570478964E+03  0.00000000000E+00 0.  1.
          5    1    4    4  501    0 -0.27910299975E+02 -0.14486069884E+02  0.73575631325E+02  0.80122886807E+02  0.41800000000E+01 0. -1.
         -5    1    4    4    0  501  0.39167068463E+02 -0.15127624819E+03  0.62141924678E+02  0.16821906468E+03  0.41800000000E+01 0. -1.
</event>
<event>
11    1  0.7157190E-009  0.1440788E+03  0.7561462E-02  0.1103087E+00
         22   -1    0    0    0    0  0.00000000000E+00  0.00000000000E+00  0.26381741521E+04  0.26381741521E+04  0.00000000000E+00 0. -1.
         22   -1    0    0    0    0 -0.00000000000E+00 -0.00000000000E+00 -0.16343305768E+04  0.16343305768E+04  0.00000000000E+00 0.  1.
        -24    2    1    2    0    0 -0.31528389132E+02  0.19665397205E+02 -0.13293488955E+04  0.13323495187E+04  0.81277221981E+02 0.  0.
         25    2    1    2    0    0  0.81175962748E+02 -0.70940351575E+02 -0.28001481256E+03  0.32508345227E+03  0.12509550463E+03 0.  0.
         24    2    1    2    0    0 -0.49647573615E+02  0.51274954370E+02  0.26132072833E+04  0.26150717580E+04  0.68220167702E+02 0.  0.
        -13    1    5    5    0    0 -0.24055669424E+01 -0.83484136286E+01  0.50946483847E+02  0.51681979247E+02  0.00000000000E+00 0.  1.
         14    1    5    5    0    0 -0.47242006673E+02  0.59623367998E+02  0.25622607995E+04  0.25633897787E+04  0.00000000000E+00 0. -1.
         13    1    3    3    0    0 -0.46975838924E+02  0.18617493728E+02 -0.44414088597E+03  0.44700611528E+03  0.00000000000E+00 0. -1.
        -14    1    3    3    0    0  0.15447449792E+02  0.10479034774E+01 -0.88520800952E+03  0.88534340339E+03  0.00000000000E+00 0.  1.
          5    1    4    4  501    0  0.53362316583E+02 -0.94116722142E+02 -0.12287107224E+03  0.16376894398E+03  0.41800000000E+01 0. -1.
         -5    1    4    4    0  501  0.27813646164E+02  0.23176370566E+02 -0.15714374032E+03  0.16131450829E+03  0.41800000000E+01 0. -1.
</event>
<event>
11    1  0.1005300E-008  0.2889665E+03  0.7561462E-02  0.1004972E+00
         22   -1    0    0    0    0  0.00000000000E+00  0.00000000000E+00  0.97509731099E+03  0.97509731099E+03  0.00000000000E+00 0.  1.
         22   -1    0    0    0    0 -0.00000000000E+00 -0.00000000000E+00 -0.14016760916E+04  0.14016760916E+04  0.00000000000E+00 0.  1.
         24    2    1    2    0    0 -0.88300931117E+00  0.13316986080E+02 -0.72102487885E+03  0.72488650328E+03  0.73521730759E+02 0.  0.
         25    2    1    2    0    0 -0.61443066173E+02 -0.26585268687E+03 -0.62456919333E+03  0.69295575491E+03  0.12509236389E+03 0.  0.
        -24    2    1    2    0    0  0.62326075484E+02  0.25253570079E+03  0.91901529161E+03  0.95893114436E+03  0.85445968648E+02 0.  0.
        -13    1    3    3    0    0  0.40208997028E+01  0.55169491266E+01 -0.71185401163E+03  0.71188674537E+03  0.00000000000E+00 0.  1.
         14    1    3    3    0    0 -0.49039090139E+01  0.78000369534E+01 -0.91708672159E+01  0.12999757905E+02  0.00000000000E+00 0. -1.
         13    1    5    5    0    0 -0.12594738706E+02  0.13740219687E+02  0.29645367020E+02  0.35018121964E+02  0.00000000000E+00 0. -1.
        -14    1    5    5    0    0  0.74920814190E+02  0.23879548110E+03  0.88936992459E+03  0.92391302240E+03  0.00000000000E+00 0.  1.
          5    1    4    4  501    0 -0.55930706842E+02 -0.49705003720E+02 -0.95495524338E+02  0.12139068717E+03  0.41800000000E+01 0.  1.
         -5    1    4    4    0  501 -0.55123593315E+01 -0.21614768315E+03 -0.52907366900E+03  0.57156506774E+03  0.41800000000E+01 0.  1.
</event>
<event>
11    1  0.7157190E-009  0.1739807E+03  0.7561462E-02  0.1074618E+00
         22   -1    0    0    0    0  0.00000000000E+00  0.00000000000E+00  0.24207553916E+04  0.24207553916E+04  0.00000000000E+00 0. -1.
         22   -1    0    0    0    0 -0.00000000000E+00 -0.00000000000E+00 -0.89093214476E+03  0.89093214476E+03  0.00000000000E+00 0. -1.
         24    2    1    2    0    0 -0.30096838867E+02  0.11630005317E+03 -0.85209359263E+03  0.86419929243E+03  0.79658046472E+02 0.  0.
         25    2    1    2    0    0  0.64421192184E+02 -0.15450873901E+03  0.31280041785E+03  0.37618479696E+03  0.12509140508E+03 0.  0.
        -24    2    1    2    0    0 -0.34324353317E+02  0.38208685841E+02  0.20691164216E+04  0.20713034470E+04  0.80107042806E+02 0.  0.
        -11    1    3    3    0    0 -0.80228278001E+01 -0.96413088810E+01 -0.15269049556E+03  0.15320479117E+03  0.00000000000E+00 0.  1.
         12    1    3    3    0    0 -0.22074011067E+02  0.12594136205E+03 -0.69940309707E+03  0.71099450126E+03  0.00000000000E+00 0. -1.
         13    1    5    5    0    0 -0.14615423418E+02  0.41144478287E+02  0.19531163732E+04  0.19536043729E+04  0.00000000000E+00 0. -1.
        -14    1    5    5    0    0 -0.19708929899E+02 -0.29357924457E+01  0.11600004849E+03  0.11769907410E+03  0.00000000000E+00 0.  1.
          5    1    4    4  501    0  0.24970434916E+01 -0.14600958621E+03  0.22705649810E+03  0.26999474110E+03  0.41800000000E+01 0.  1.
         -5    1    4    4    0  501  0.61924148692E+02 -0.84991527966E+01  0.85743919744E+02  0.10619005586E+03  0.41800000000E+01 0.  1.
</event>
<event>
11    1  0.7157190E-009  0.1357704E+03  0.7561462E-02  0.1112375E+00
         22   -1    0    0    0    0  0.00000000000E+00  0.00000000000E+00  0.20878173945E+04  0.20878173945E+04  0.00000000000E+00 0.  1.
         22   -1    0    0    0    0 -0.00000000000E+00 -0.00000000000E+00 -0.16365492430E+03  0.16365492430E+03  0.00000000000E+00 0.  1.
        -24    2    1    2    0    0  0.28741105181E+02  0.33874971417E+02 -0.11934232732E+03  0.15050628694E+03  0.80224600367E+02 0.  0.
         25    2    1    2    0    0 -0.56192254877E+02  0.11859368554E+02  0.14438835750E+03  0.19948404207E+03  0.12509065164E+03 0.  0.
         24    2    1    2    0    0  0.27451149696E+02 -0.45734339971E+02  0.18991164400E+04  0.19014819898E+04  0.78392023114E+02 0.  0.
        -13    1    5    5    0    0  0.29600108186E+02 -0.62692568870E+02  0.17527751396E+04  0.17541457221E+04  0.00000000000E+00 0.  1.
         14    1    5    5    0    0 -0.21489584899E+01  0.16958228899E+02  0.14634130043E+03  0.14733626763E+03  0.00000000000E+00 0. -1.
         13    1    3    3    0    0  0.90279196406E+01  0.84184627385E+01  0.10823768049E+02  0.16417301931E+02  0.00000000000E+00 0. -1.
        -14    1    3    3    0    0  0.19713185541E+02  0.25456508679E+02 -0.13016609537E+03  0.13408898501E+03  0.00000000000E+00 0.  1.
          5    1    4    4  501    0 -0.12070398286E+02  0.20639280167E+02  0.15177489240E+03  0.15370349626E+03  0.41800000000E+01 0. -1.
         -5    1    4    4    0  501 -0.44121856591E+02 -0.87799116126E+01 -0.73865348920E+01  0.45780545810E+02  0.41800000000E+01 0. -1.
</event>
<event>
11    1  0.7157190E-009  0.1262923E+03  0.7561462E-02  0.1123910E+00
         22   -1    0    0    0    0  0.00000000000E+00  0.00000000000E+00  0.62031526017E+03  0.62031526017E+03  0.00000000000E+00 0. -1.
         22   -1    0    0    0    0 -0.00000000000E+00 -0.00000000000E+00 -0.84853400378E+03  0.84853400378E+03  0.00000000000E+00 0.  1.
         24    2    1    2    0    0  0.20693542510E+02  0.10261574481E+01 -0.56812542289E+03  0.57428468267E+03  0.81284223009E+02 0.  0.
         25    2    1    2    0    0 -0.21288770760E+01  0.36378787787E+01 -0.26021765126E+03  0.28875251424E+03  0.12508805767E+03 0.  0.
        -24    2    1    2    0    0 -0.18564665434E+02 -0.46640362268E+01  0.60012433054E+03  0.60581206705E+03  0.80576972112E+02 0.  0.
        -13    1    3    3    0    0  0.21837737087E+00 -0.15186782021E+02 -0.51362680225E+03  0.51385131899E+03  0.00000000000E+00 0.  1.
         14    1    3    3    0    0  0.20475165139E+02  0.16212939469E+02 -0.54498620638E+02  0.60433363675E+02  0.00000000000E+00 0. -1.
         11    1    5    5    0    0 -0.24604673400E+02 -0.38974645265E+02  0.40364564994E+03  0.40626865944E+03  0.00000000000E+00 0. -1.
        -12    1    5    5    0    0  0.60400079666E+01  0.34310609038E+02  0.19647868060E+03  0.19954340760E+03  0.00000000000E+00 0.  1.
          5    1    4    4  501    0 -0.32649718930E+02  0.32355440894E+02 -0.30770619846E+02  0.55472354802E+02  0.41800000000E+01 0. -1.
         -5    1    4    4    0  501  0.30520841854E+02 -0.28717562115E+02 -0.22944703142E+03  0.23328015944E+03  0.41800000000E+01 0. -1.
</event>
<event>
11    1  0.7157190E-009  0.1444317E+03  0.7561462E-02  0.1102708E+00
         22   -1    0    0    0    0  0.00000000000E+00  0.00000000000E+00  0.18000735703E+03  0.18000735703E+03  0.00000000000E+00 0. -1.
         22   -1    0    0    0    0 -0.00000000000E+00 -0.00000000000E+00 -0.54430162201E+03  0.54430162201E+03  0.00000000000E+00 0. -1.
        -24    2    1    2    0    0  0.38806071329E+02 -0.33151276418E+02 -0.25776710754E+03  0.27467109549E+03  0.79971311530E+02 0.  0.
         25    2    1    2    0    0 -0.36907821050E+01  0.95320758026E+02 -0.23400545504E+03  0.28196820728E+03  0.12509135920E+03 0.  0.
         24    2    1    2    0    0 -0.35115289224E+02 -0.62169481608E+02  0.12747829761E+03  0.16766967627E+03  0.82245218695E+02 0.  0.
        -11    1    5    5    0    0 -0.67537939329E+01 -0.70785523007E+01 -0.11741575749E+02  0.15283462835E+02  0.00000000000E+00 0.  1.
         12    1    5    5    0    0 -0.28361495292E+02 -0.55090929307E+02  0.13921987336E+03  0.15238621343E+03  0.00000000000E+00 0. -1.
         13    1    3    3    0    0  0.36229787084E+01 -0.12051511727E+02 -0.21514555719E+03  0.21551328425E+03  0.00000000000E+00 0. -1.
        -14    1    3    3    0    0  0.35183092621E+02 -0.21099764691E+02 -0.42621550349E+02  0.59157811239E+02  0.00000000000E+00 0.  1.
          5    1    4    4  501    0 -0.44475063468E+02  0.10588598856E+03 -0.17421209225E+03  0.20870361600E+03  0.41800000000E+01 0. -1.
         -5    1    4    4    0  501  0.40784281363E+02 -0.10565230535E+02 -0.59793362789E+02  0.73264591285E+02  0.41800000000E+01 0. -1.
</event>
<event>
11    1  0.7157190E-009  0.1495960E+03  0.7561462E-02  0.1097292E+00
         22   -1    0    0    0    0  0.00000000000E+00  0.00000000000E+00  0.26035158315E+04  0.26035158315E+04  0.00000000000E+00 0.  1.
         22   -1    0    0    0    0 -0.00000000000E+00 -0.00000000000E+00 -0.96737662092E+03  0.96737662092E+03  0.00000000000E+00 0. -1.
         24    2    1    2    0    0  0.29415839517E+02 -0.28686645797E+02 -0.93594317056E+03  0.94005349197E+03  0.77606275364E+02 0.  0.
         25    2    1    2    0    0 -0.60847313103E+02 -0.47861410083E+02  0.16530050709E+03  0.22128071986E+03  0.12509112378E+03 0.  0.
        -24    2    1    2    0    0  0.31431473586E+02  0.76548055880E+02  0.24067818740E+04  0.24095582406E+04  0.80773654192E+02 0.  0.
        -13    1    3    3    0    0  0.24191280303E+02  0.63250219917E+01 -0.91105753868E+02  0.94474770885E+02  0.00000000000E+00 0.  1.
         14    1    3    3    0    0  0.52245592134E+01 -0.35011667788E+02 -0.84483741670E+03  0.84557872108E+03  0.00000000000E+00 0. -1.
         11    1    5    5    0    0 -0.26177456121E+02  0.37556339190E+02  0.10405026919E+04  0.10415092845E+04  0.00000000000E+00 0. -1.
        -12    1    5    5    0    0  0.57608929707E+02  0.38991716690E+02  0.13662791821E+04  0.13680489561E+04  0.00000000000E+00 0.  1.
          5    1    4    4  501    0 -0.65549972448E+02  0.10165315609E+02  0.14496020014E+03  0.15947120290E+03  0.41800000000E+01 0.  1.
         -5    1    4    4    0  501  0.47026593458E+01 -0.58026725692E+02  0.20340306954E+02  0.61809516957E+02  0.41800000000E+01 0.  1.
</event>
<event>
11    1  0.7157190E-009  0.1524990E+03  0.7561462E-02  0.1094352E+00
         22   -1    0    0    0    0  0.00000000000E+00  0.00000000000E+00  0.16332131021E+04  0.16332131021E+04  0.00000000000E+00 0. -1.
         22   -1    0    0    0    0 -0.00000000000E+00 -0.00000000000E+00 -0.18589243863E+04  0.18589243863E+04  0.00000000000E+00 0. -1.
         24    2    1    2    0    0  0.66182469672E+01  0.13437442428E+02 -0.14002831482E+04  0.14026207522E+04  0.79546925153E+02 0.  0.
         25    2    1    2    0    0  0.50145453328E+00 -0.10029429544E+03 -0.44086299926E+03  0.46911443613E+03  0.12509585488E+03 0.  0.
        -24    2    1    2    0    0 -0.71197015005E+01  0.86856853016E+02  0.16154348632E+04  0.16204023001E+04  0.92081560021E+02 0.  0.
        -13    1    3    3    0    0 -0.18693526697E+02 -0.20539556692E+02 -0.24644215865E+03  0.24800213485E+03  0.00000000000E+00 0.  1.
         14    1    3    3    0    0  0.25311773664E+02  0.33976999120E+02 -0.11538409896E+04  0.11546186174E+04  0.00000000000E+00 0. -1.
         13    1    5    5    0    0 -0.37180134393E+02  0.15604970888E+02  0.87759204590E+03  0.87851788629E+03  0.00000000000E+00 0. -1.
        -14    1    5    5    0    0  0.30060432892E+02  0.71251882128E+02  0.73784281732E+03  0.74188441378E+03  0.00000000000E+00 0.  1.
          5    1    4    4  501    0 -0.24527337587E+02 -0.23122061856E+02 -0.17848531803E+02  0.38370073249E+02  0.41800000000E+01 0.  1.
         -5    1    4    4    0  501  0.25028792121E+02 -0.77172233589E+02 -0.42301446746E+03  0.43074436288E+03  0.41800000000E+01 0.  1.
</event>
<event>
11    1  0.7157190E-009  0.1888964E+03  0.7561462E-02  0.1062666E+00
         22   -1    0    0    0    0  0.00000000000E+00  0.00000000000E+00  0.23589751171E+04  0.23589751171E+04  0.00000000000E+00 0. -1.
         22   -1    0    0    0    0 -0.00000000000E+00 -0.00000000000E+00 -0.25673170176E+03  0.25673170176E+03  0.00000000000E+00 0. -1.
         24    2    1    2    0    0  0.15477462289E+02 -0.33729234644E+02 -0.22982430448E+03  0.24686235255E+03  0.82125495857E+02 0.  0.
         25    2    1    2    0    0  0.12029255757E+02  0.16542712948E+03  0.74963369941E+03  0.77788593983E+03  0.12508003012E+03 0.  0.
        -24    2    1    2    0    0 -0.27506718046E+02 -0.13169789484E+03  0.15824340204E+04  0.15909585265E+04  0.94607869593E+02 0.  0.
        -13    1    3    3    0    0  0.47734078662E+02 -0.13256986065E+02 -0.10105596790E+03  0.11254598435E+03  0.00000000000E+00 0.  1.
         14    1    3    3    0    0 -0.32256616372E+02 -0.20472248579E+02 -0.12876833658E+03  0.13431636820E+03  0.00000000000E+00 0. -1.
         13    1    5    5    0    0 -0.30396198722E+02 -0.49274860774E+02  0.11002434241E+04  0.11017656435E+04  0.00000000000E+00 0. -1.
        -14    1    5    5    0    0  0.28894806755E+01 -0.82423034065E+02  0.48219059631E+03  0.48919288304E+03  0.00000000000E+00 0.  1.
          5    1    4    4  501    0  0.52424352938E+02  0.13395752547E+03  0.65051421448E+03  0.66624255872E+03  0.41800000000E+01 0.  1.
         -5    1    4    4    0  501 -0.40395097181E+02  0.31469604012E+02  0.99119484928E+02  0.11164338111E+03  0.41800000000E+01 0.  1.
</event>
<event>
11    1  0.7157190E-009  0.1596130E+03  0.7561462E-02  0.1087442E+00
         22   -1    0    0    0    0  0.00000000000E+00  0.00000000000E+00  0.39649333902E+03  0.39649333902E+03  0.00000000000E+00 0.  1.
         22   -1    0    0    0    0 -0.00000000000E+00 -0.00000000000E+00 -0.13272053390E+04  0.13272053390E+04  0.00000000000E+00 0. -1.
         24    2    1    2    0    0 -0.49952748032E+02 -0.85406439360E+02 -0.12105127677E+04  0.12171721196E+04  0.79857817542E+02 0.  0.
         25    2    1    2    0    0  0.10807845408E+03  0.55780768004E+02 -0.27085912354E+02  0.17655955185E+03  0.12508869808E+03 0.  0.
        -24    2    1    2    0    0 -0.58125706046E+02  0.29625671356E+02  0.30688668008E+03  0.32996700657E+03  0.10218861437E+03 0.  0.
        -11    1    3    3    0    0  0.27081010390E+01 -0.39545611585E+01 -0.27597359458E+01  0.55306878130E+01  0.00000000000E+00 0.  1.
         12    1    3    3    0    0 -0.52660849071E+02 -0.81451878202E+02 -0.12077530317E+04  0.12116414318E+04  0.00000000000E+00 0. -1.
         11    1    5    5    0    0 -0.87591257407E+01  0.14578620398E+02 -0.17019693883E+01  0.17092546804E+02  0.00000000000E+00 0. -1.
        -12    1    5    5    0    0 -0.49366580305E+02  0.15047050959E+02  0.30858864947E+03  0.31287445977E+03  0.00000000000E+00 0.  1.
          5    1    4    4  501    0  0.26850752888E+02  0.73291408223E+02 -0.46734140330E+02  0.91072200601E+02  0.41800000000E+01 0.  1.
         -5    1    4    4    0  501  0.81227701190E+02 -0.17510640219E+02  0.19648227976E+02  0.85487351252E+02  0.41800000000E+01 0.  1.
</event>
<event>
11    1  0.7157190E-009  0.1615693E+03  0.7561462E-02  0.1085610E+00
         22   -1    0    0    0    0  0.00000000000E+00  0.00000000000E+00  0.17029228306E+03  0.17029228306E+03  0.00000000000E+00 0. -1.
         22   -1    0    0    0    0 -0.00000000000E+00 -0.00000000000E+00 -0.78052933158E+03  0.78052933158E+03  0.00000000000E+00 0. -1.
        -24    2    1    2    0    0  0.32323811626E+02  0.17365210800E+01 -0.59187339588E+03  0.59761267639E+03  0.76019404937E+02 0.  0.
         25    2    1    2    0    0  0.60729638823E+02 -0.55075894223E+02 -0.11432506074E+03  0.18825189895E+03  0.12508842788E+03 0.  0.
         24    2    1    2    0    0 -0.93053450448E+02  0.53339373143E+02  0.95961408105E+02  0.16495703929E+03  0.80611411093E+02 0.  0.
        -13    1    5    5    0    0 -0.26954633786E+02 -0.14555446463E+02  0.76977688471E+00  0.30643202521E+02  0.00000000000E+00 0.  1.
         14    1    5    5    0    0 -0.66098816662E+02  0.67894819606E+02  0.95191631221E+02  0.13431383677E+03  0.00000000000E+00 0. -1.
         11    1    3    3    0    0  0.17519652212E+02  0.95434889932E+01 -0.56858068889E+03  0.56893058994E+03  0.00000000000E+00 0. -1.
        -12    1    3    3    0    0  0.14804159414E+02 -0.78069679132E+01 -0.23292706994E+02  0.28682086449E+02  0.00000000000E+00 0.  1.
          5    1    4    4  501    0  0.80486022847E+02  0.49631610031E+01 -0.38518964112E+02  0.89464047735E+02  0.41800000000E+01 0.  1.
         -5    1    4    4    0  501 -0.19756384024E+02 -0.60039055226E+02 -0.75806096630E+02  0.98787851219E+02  0.41800000000E+01 0.  1.
</event>
<event>
11    1  0.7157190E-009  0.1311729E+03  0.7561462E-02  0.1117836E+00
         22   -1    0    0    0    0  0.00000000000E+00  0.00000000000E+00  0.76064627772E+03  0.76064627772E+03  0.00000000000E+00 0. -1.
         22   -1    0    0    0    0 -0.00000000000E+00 -0.00000000000E+00 -0.13313758447E+03  0.13313758447E+03  0.00000000000E+00 0. -1.
        -24    2    1    2    0    0 -0.34122961325E+02 -0.21959303946E+02 -0.99465937188E+02  0.13357303536E+03  0.79383219861E+02 0.  0.
         25    2    1    2    0    0  0.26533645040E+02 -0.10686012296E+02  0.34162835273E+03  0.36493202092E+03  0.12508886171E+03 0.  0.
         24    2    1    2    0    0  0.75893162850E+01  0.32645316242E+02  0.38534627770E+03  0.39527880591E+03  0.81426447005E+02 0.  0.
        -13    1    5    5    0    0 -0.37085499604E+02  0.15276452724E+02  0.17212918531E+03  0.17674037661E+03  0.00000000000E+00 0.  1.
         14    1    5    5    0    0  0.44674815889E+02  0.17368863518E+02  0.21321709239E+03  0.21853842931E+03  0.00000000000E+00 0. -1.
         13    1    3    3    0    0  0.19599031351E+02 -0.14459030694E+02 -0.64731916361E+02  0.69162176038E+02  0.00000000000E+00 0. -1.
        -14    1    3    3    0    0 -0.53721992676E+02 -0.75002732525E+01 -0.34734020827E+02  0.64410859323E+02  0.00000000000E+00 0.  1.
          5    1    4    4  501    0 -0.47767424793E+02  0.11121793426E+02  0.16111212634E+03  0.16846367802E+03  0.41800000000E+01 0.  1.
         -5    1    4    4    0  501  0.74301069834E+02 -0.21807805723E+02  0.18051622639E+03  0.19646834290E+03  0.41800000000E+01 0.  1.
</event>
<event>
11    1  0.7157190E-009  0.1709010E+03  0.7561462E-02  0.1077250E+00
         22   -1    0    0    0    0  0.00000000000E+00  0.00000000000E+00  0.87681670784E+03  0.87681670784E+03  0.00000000000E+00 0. -1.
         22   -1    0    0    0    0 -0.00000000000E+00 -0.00000000000E+00 -0.31270894144E+04  0.31270894144E+04  0.00000000000E+00 0. -1.
         24    2    1    2    0    0  0.93718521078E+02 -0.65875757693E+02 -0.28695139612E+04  0.28729058440E+04  0.79717239626E+02 0.  0.
         25    2    1    2    0    0 -0.14307718969E+03  0.80122252917E+02 -0.21118559594E+03  0.29519234155E+03  0.12509398450E+03 0.  0.
        -24    2    1    2    0    0  0.49358668608E+02 -0.14246495223E+02  0.83042685051E+03  0.83580793677E+03  0.79541890385E+02 0.  0.
        -11    1    3    3    0    0  0.48576569800E+02 -0.15029979957E+02 -0.20320983435E+04  0.20327344296E+04  0.00000000000E+00 0.  1.
         12    1    3    3    0    0  0.45141951278E+02 -0.50845777736E+02 -0.83741561766E+03  0.84017141440E+03  0.00000000000E+00 0. -1.
         11    1    5    5    0    0  0.66939176829E+02 -0.27752329302E+02  0.62341698357E+03  0.62761435658E+03  0.00000000000E+00 0. -1.
        -12    1    5    5    0    0 -0.17580508221E+02  0.13505834078E+02  0.20700986693E+03  0.20819358019E+03  0.00000000000E+00 0.  1.
          5    1    4    4  501    0  0.16733184663E+02 -0.99722918302E+01 -0.81685765360E+01  0.21532396893E+02  0.41800000000E+01 0.  1.
         -5    1    4    4    0  501 -0.15981037435E+03  0.90094544747E+02 -0.20301701940E+03  0.27365994466E+03  0.41800000000E+01 0.  1.
</event>
<event>
11    1  0.7157190E-009  0.1326350E+03  0.7561462E-02  0.1116073E+00
         22   -1    0    0    0    0  0.00000000000E+00  0.00000000000E+00  0.33565309462E+03  0.33565309462E+03  0.00000000000E+00 0.  1.
         22   -1    0    0    0    0 -0.00000000000E+00 -0.00000000000E+00 -0.39731293064E+03  0.39731293064E+03  0.00000000000E+00 0.  1.
         24    2    1    2    0    0 -0.12369885187E+02  0.49360378178E+02 -0.26638072781E+03  0.28316274777E+03  0.81443161651E+02 0.  0.
         25    2    1    2    0    0  0.30738743808E+02 -0.59056612099E+01 -0.79318937779E+02  0.15138969938E+03  0.12509036727E+03 0.  0.
        -24    2    1    2    0    0 -0.18368858622E+02 -0.43454716969E+02  0.28403982957E+03  0.29841357812E+03  0.78398414699E+02 0.  0.
        -13    1    3    3    0    0 -0.37054622789E+02  0.12375212176E+02 -0.56936810239E+02  0.69050643057E+02  0.00000000000E+00 0.  1.
         14    1    3    3    0    0  0.24684737603E+02  0.36985166003E+02 -0.20944391757E+03  0.21411210471E+03  0.00000000000E+00 0. -1.
         13    1    5    5    0    0  0.19957542859E+02  0.12593868669E+02  0.73601877388E+02  0.77292596023E+02  0.00000000000E+00 0. -1.
        -14    1    5    5    0    0 -0.38326401481E+02 -0.56048585638E+02  0.21043795219E+03  0.22112098209E+03  0.00000000000E+00 0.  1.
          5    1    4    4  501    0  0.38979355142E+01 -0.38031865297E+02  0.20129443725E+02  0.43408335420E+02  0.41800000000E+01 0.  1.
         -5    1    4    4    0  501  0.26840808294E+02  0.32126204087E+02 -0.99448381504E+02  0.10798136396E+03  0.41800000000E+01 0.  1.
</event>
<event>
11    1  0.7157190E-009  0.1939015E+03  0.7561462E-02  0.1058922E+00
         22   -1    0    0    0    0  0.00000000000E+00  0.00000000000E+00  0.32447471385E+03  0.32447471385E+03  0.00000000000E+00 0. -1.
         22   -1    0    0    0    0 -0.00000000000E+00 -0.00000000000E+00 -0.55767205278E+03  0.55767205278E+03  0.00000000000E+00 0. -1.
        -24    2    1    2    0    0 -0.13699798405E+03  0.74183755164E+02 -0.16608590380E+03  0.24169808540E+03  0.81004690477E+02 0.  0.
         25    2    1    2    0    0  0.13192444288E+03 -0.55655057124E+02 -0.32128454307E+03  0.37332779687E+03  0.12509333430E+03 0.  0.
         24    2    1    2    0    0  0.50735411680E+01 -0.18528698040E+02  0.25417310794E+03  0.26712088436E+03  0.79878311166E+02 0.  0.
        -13    1    5    5    0    0 -0.30777702217E+02 -0.17981432864E+02  0.19258349804E+03  0.19585454449E+03  0.00000000000E+00 0.  1.
         14    1    5    5    0    0  0.35851243385E+02 -0.54726517664E+00  0.61589609898E+02  0.71266339873E+02  0.00000000000E+00 0. -1.
         11    1    3    3    0    0 -0.49939994923E+02  0.41600753223E+02 -0.12326934785E+03  0.13935550897E+03  0.00000000000E+00 0. -1.
        -12    1    3    3    0    0 -0.87057989126E+02  0.32583001941E+02 -0.42816555956E+02  0.10234257643E+03  0.00000000000E+00 0.  1.
          5    1    4    4  501    0  0.64218360382E+02  0.28246421790E+01 -0.25197647369E+03  0.26007997252E+03  0.41800000000E+01 0.  1.
         -5    1    4    4    0  501  0.67706082499E+02 -0.58479699303E+02 -0.69308069377E+02  0.11324782434E+03  0.41800000000E+01 0.  1.
</event>
<event>
11    1  0.7157190E-009  0.1528576E+03  0.7561462E-02  0.1093994E+00
         22   -1    0    0    0    0  0.00000000000E+00  0.00000000000E+00  0.28664659938E+03  0.28664659938E+03  0.00000000000E+00 0.  1.
         22   -1    0    0    0    0 -0.00000000000E+00 -0.00000000000E+00 -0.58463179136E+03  0.58463179136E+03  0.00000000000E+00 0.  1.
        -24    2    1    2    0    0  0.25056783726E+02  0.13573281366E+02 -0.47746695852E+03  0.48467947670E+03  0.78277853088E+02 0.  0.
         25    2    1    2    0    0  0.65999486999E+02 -0.82217787008E+01 -0.34301886105E+02  0.14576300871E+03  0.12508679143E+03 0.  0.
         24    2    1    2    0    0 -0.91056270725E+02 -0.53515026653E+01  0.21378365265E+03  0.24083590532E+03  0.63076145532E+02 0.  0.
        -11    1    5    5    0    0 -0.99362823845E+02  0.27130980742E+00  0.20354257142E+03  0.22650082285E+03  0.00000000000E+00 0.  1.
         12    1    5    5    0    0  0.83065531197E+01 -0.56228124727E+01  0.10241081224E+02  0.14335082472E+02  0.00000000000E+00 0. -1.
         11    1    3    3    0    0  0.27149305993E+02 -0.24424399688E+02 -0.12681299011E+03  0.13196655097E+03  0.00000000000E+00 0. -1.
        -12    1    3    3    0    0 -0.20925222672E+01  0.37997681054E+02 -0.35065396841E+03  0.35271292573E+03  0.00000000000E+00 0.  1.
          5    1    4    4  501    0  0.41287376538E+02 -0.59890612739E+02  0.95794092032E+01  0.73489934251E+02  0.41800000000E+01 0. -1.
         -5    1    4    4    0  501  0.24712110461E+02  0.51668834038E+02 -0.43881295309E+02  0.72273074462E+02  0.41800000000E+01 0. -1.
</event>
<event>
11    1  0.7157190E-009  0.1782370E+03  0.7561462E-02  0.1071078E+00
         22   -1    0    0    0    0  0.00000000000E+00  0.00000000000E+00  0.72038533807E+03  0.72038533807E+03  0.00000000000E+00 0.  1.
         22   -1    0    0    0    0 -0.00000000000E+00 -0.00000000000E+00 -0.75726103416E+03  0.75726103416E+03  0.00000000000E+00 0. -1.
         24    2    1    2    0    0  0.29353690643E+02 -0.12261382710E+03 -0.68585211642E+03  0.70195133009E+03  0.80291683664E+02 0.  0.
         25    2    1    2    0    0 -0.10251552061E+03  0.12577490467E+03  0.12394120382E+03  0.23945366181E+03  0.12509146869E+03 0.  0.
        -24    2    1    2    0    0  0.73161829966E+02 -0.31610775662E+01  0.52503521651E+03  0.53624138034E+03  0.80809613492E+02 0.  0.
        -11    1    3    3    0    0  0.31882521060E+02 -0.11249759758E+02 -0.98807301695E+02  0.10443148525E+03  0.00000000000E+00 0.  1.
         12    1    3    3    0    0 -0.25288304176E+01 -0.11136406734E+03 -0.58704481472E+03  0.59751984484E+03  0.00000000000E+00 0. -1.
         11    1    5    5    0    0  0.45668269258E+02 -0.16988190301E+02  0.11298963483E+03  0.12304814914E+03  0.00000000000E+00 0. -1.
        -12    1    5    5    0    0  0.27493560708E+02  0.13827112735E+02  0.41204558168E+03  0.41319323120E+03  0.00000000000E+00 0.  1.
          5    1    4    4  501    0 -0.27098014752E+02  0.96599445288E+02  0.11758949738E+02  0.10110143685E+03  0.41800000000E+01 0.  1.
         -5    1    4    4    0  501 -0.75417505857E+02  0.29175459377E+02  0.11218225409E+03  0.13835222496E+03  0.41800000000E+01 0.  1.
</event>
<event>
11    1  0.7157190E-009  0.1425008E+03  0.7561462E-02  0.1104798E+00
         22   -1    0    0    0    0  0.00000000000E+00  0.00000000000E+00  0.83706687291E+02  0.83706687291E+02  0.00000000000E+00 0. -1.
         22   -1    0    0    0    0 -0.00000000000E+00 -0.00000000000E+00 -0.46523153061E+03  0.46523153061E+03  0.00000000000E+00 0.  1.
         24    2    1    2    0    0  0.58343710066E+02 -0.40461050219E+02 -0.16551622932E+03  0.19744774305E+03  0.80925298747E+02 0.  0.
         25    2    1    2    0    0 -0.27946020992E+02  0.65097771853E+02 -0.21152973446E+03  0.25575590332E+03  0.12509018159E+03 0.  0.
        -24    2    1    2    0    0 -0.30397689074E+02 -0.24636721634E+02 -0.44788795331E+01  0.95734571531E+02  0.87258582790E+02 0.  0.
        -13    1    3    3    0    0  0.60810360945E+02  0.45636554973E+01 -0.11147690774E+03  0.12706623434E+03  0.00000000000E+00 0.  1.
         14    1    3    3    0    0 -0.24666508793E+01 -0.45024705716E+02 -0.54039321586E+02  0.70381508714E+02  0.00000000000E+00 0. -1.
         13    1    5    5    0    0  0.28944202403E+02 -0.21411879912E+02  0.12855263651E+01  0.36026213125E+02  0.00000000000E+00 0. -1.
        -14    1    5    5    0    0 -0.59341891477E+02 -0.32248417224E+01 -0.57644058983E+01  0.59708358406E+02  0.00000000000E+00 0.  1.
          5    1    4    4  501    0 -0.49140541095E+01 -0.37144671268E+02 -0.71124319545E+02  0.80498545094E+02  0.41800000000E+01 0. -1.
         -5    1    4    4    0  501 -0.23031966883E+02  0.10224244312E+03 -0.14040541491E+03  0.17525735822E+03  0.41800000000E+01 0. -1.
</event>
<event>
11    1  0.7157190E-009  0.1440136E+03  0.7561462E-02  0.1103158E+00
         22   -1    0    0    0    0  0.00000000000E+00  0.00000000000E+00  0.10739040794E+03  0.10739040794E+03  0.00000000000E+00 0.  1.
         22   -1    0    0    0    0 -0.00000000000E+00 -0.00000000000E+00 -0.11713962514E+04  0.11713962514E+04  0.00000000000E+00 0. -1.
        -24    2    1    2    0    0  0.24585305095E+02 -0.18920465261E+02 -0.10131625813E+04  0.10167897127E+04  0.80003015288E+02 0.  0.
         25    2    1    2    0    0 -0.75119217703E+02  0.52545577806E+02 -0.43947409707E+02  0.16119361354E+03  0.12509225240E+03 0.  0.
         24    2    1    2    0    0  0.50533912607E+02 -0.33625112545E+02 -0.68958524838E+01  0.10080333315E+03  0.80183755682E+02 0.  0.
        -13    1    5    5    0    0  0.33124729790E+02  0.31528064936E+00  0.32189029650E+02  0.46189617398E+02  0.00000000000E+00 0.  1.
         14    1    5    5    0    0  0.17409182817E+02 -0.33940393194E+02 -0.39084882134E+02  0.54613715749E+02  0.00000000000E+00 0. -1.
         13    1    3    3    0    0  0.19581809954E+02 -0.31021260244E+02 -0.98551983792E+03  0.98620237112E+03  0.00000000000E+00 0. -1.
        -14    1    3    3    0    0  0.50034951411E+01  0.12100794983E+02 -0.27642743385E+02  0.30587341576E+02  0.00000000000E+00 0.  1.
          5    1    4    4  501    0 -0.13337350033E+02  0.17272668841E+02  0.43223162879E+02  0.48599837490E+02  0.41800000000E+01 0. -1.
         -5    1    4    4    0  501 -0.61781867669E+02  0.35272908965E+02 -0.87170572586E+02  0.11259377605E+03  0.41800000000E+01 0. -1.
</event>
<event>
11    1  0.7157190E-009  0.1339611E+03  0.7561462E-02  0.1114496E+00
         22   -1    0    0    0    0  0.00000000000E+00  0.00000000000E+00  0.13253119336E+03  0.13253119336E+03  0.00000000000E+00 0. -1.
         22   -1    0    0    0    0 -0.00000000000E+00 -0.00000000000E+00 -0.68795102527E+03  0.68795102527E+03  0.00000000000E+00 0.  1.
        -24    2    1    2    0    0 -0.49724929639E+02  0.10165080694E+02 -0.56046669333E+03  0.56781551550E+03  0.75601903474E+02 0.  0.
         25    2    1    2    0    0  0.20246155489E+02  0.14856803887E+02 -0.61392480929E+02  0.14158956307E+03  0.12509171124E+03 0.  0.
         24    2    1    2    0    0  0.29478774151E+02 -0.25021884581E+02  0.66439342358E+02  0.11107714007E+03  0.80180122218E+02 0.  0.
        -11    1    5    5    0    0  0.16257787030E+02  0.28150169445E+02  0.35576760949E+02  0.48191841617E+02  0.00000000000E+00 0.  1.
         12    1    5    5    0    0  0.13220987120E+02 -0.53172054026E+02  0.30862581410E+02  0.62885298449E+02  0.00000000000E+00 0. -1.
         11    1    3    3    0    0  0.13807573119E+02  0.20771863209E+02 -0.11177604339E+03  0.11452512061E+03  0.00000000000E+00 0. -1.
        -12    1    3    3    0    0 -0.63532502759E+02 -0.10606782515E+02 -0.44869064995E+03  0.45329039488E+03  0.00000000000E+00 0.  1.
          5    1    4    4  501    0  0.51572604770E+02  0.11188164050E+02  0.18116006708E+02  0.55951502898E+02  0.41800000000E+01 0. -1.
         -5    1    4    4    0  501 -0.31326449281E+02  0.36686398372E+01 -0.79508487637E+02  0.85638060167E+02  0.41800000000E+01 0. -1.
</event>
<event>
11    1  0.7157190E-009  0.2397523E+03  0.7561462E-02  0.1029504E+00
         22   -1    0    0    0    0  0.00000000000E+00  0.00000000000E+00  0.13287328940E+04  0.13287328940E+04  0.00000000000E+00 0.  1.
         22   -1    0    0    0    0 -0.00000000000E+00 -0.00000000000E+00 -0.20063244723E+03  0.20063244723E+03  0.00000000000E+00 0.  1.
         24    2    1    2    0    0  0.11940444250E+03  0.16703236738E+03 -0.72405616975E+02  0.23173261021E+03  0.79373777916E+02 0.  0.
         25    2    1    2    0    0 -0.23815355673E+03 -0.65007569998E+02  0.46316773878E+03  0.53955122459E+03  0.12509224188E+03 0.  0.
        -24    2    1    2    0    0  0.11874911422E+03 -0.10202479738E+03  0.73733832493E+03  0.75808150639E+03  0.80680564598E+02 0.  0.
        -11    1    3    3    0    0  0.25551183389E+02 -0.16658487495E+01 -0.15114786644E+00  0.25605875699E+02  0.00000000000E+00 0.  1.
         12    1    3    3    0    0  0.93853259115E+02  0.16869821613E+03 -0.72254469108E+02  0.20612673451E+03  0.00000000000E+00 0. -1.
         11    1    5    5    0    0  0.25191378107E+02 -0.71827029597E+00  0.40282553355E+02  0.47516371368E+02  0.00000000000E+00 0. -1.
        -12    1    5    5    0    0  0.93557736114E+02 -0.10130652709E+03  0.69705577157E+03  0.71056513502E+03  0.00000000000E+00 0.  1.
          5    1    4    4  501    0 -0.20740136437E+03 -0.77257219844E+02  0.45377500751E+03  0.50488932827E+03  0.41800000000E+01 0.  1.
         -5    1    4    4    0  501 -0.30752192359E+02  0.12249649846E+02  0.93927312696E+01  0.34661896327E+02  0.41800000000E+01 0.  1.
</event>
<event>
11    1  0.7157190E-009  0.1325875E+03  0.7561462E-02  0.1116130E+00
         22   -1    0    0    0    0  0.00000000000E+00  0.00000000000E+00  0.68387669691E+03  0.68387669691E+03  0.00000000000E+00 0.  1.
         22   -1    0    0    0    0 -0.00000000000E+00 -0.00000000000E+00 -0.25547323934E+04  0.25547323934E+04  0.00000000000E+00 0. -1.
         24    2    1    2    0    0  0.28625243004E+02  0.43437423106E+02 -0.16203449075E+04  0.16232371227E+04  0.81700203047E+02 0.  0.
         25    2    1    2    0    0 -0.31768009573E+02  0.62980440434E+00 -0.92536153690E+03  0.93431849859E+03  0.12508988665E+03 0.  0.
        -24    2    1    2    0    0  0.31427665690E+01 -0.44067227510E+02  0.67485074787E+03  0.68105346901E+03  0.80364782323E+02 0.  0.
        -13    1    3    3    0    0 -0.30791857138E+01  0.20514000437E+02 -0.88727539594E+02  0.91120150796E+02  0.00000000000E+00 0.  1.
         14    1    3    3    0    0  0.31704428717E+02  0.22923422669E+02 -0.15316173679E+04  0.15321169719E+04  0.00000000000E+00 0. -1.
         11    1    5    5    0    0 -0.70471183943E+01 -0.60268932834E+01  0.60007682889E+01  0.11045113869E+02  0.00000000000E+00 0. -1.
        -12    1    5    5    0    0  0.10189884963E+02 -0.38040334227E+02  0.66884997958E+03  0.67000835514E+03  0.00000000000E+00 0.  1.
          5    1    4    4  501    0 -0.21153871652E+02 -0.55677707302E+02 -0.27409257467E+03  0.28052041863E+03  0.41800000000E+01 0. -1.
         -5    1    4    4    0  501 -0.10614137920E+02  0.56307511707E+02 -0.65126896223E+03  0.65379807996E+03  0.41800000000E+01 0. -1.
</event>
<event>
11    1  0.7157190E-009  0.1526334E+03  0.7561462E-02  0.1094218E+00
         22   -1    0    0    0    0  0.00000000000E+00  0.00000000000E+00  0.11597805885E+04  0.11597805885E+04  0.00000000000E+00 0. -1.
         22   -1    0    0    0    0 -0.00000000000E+00 -0.00000000000E+00 -0.34602295961E+03  0.34602295961E+03  0.00000000000E+00 0. -1.
         24    2    1    2    0    0 -0.37463267245E+02  0.81053192832E+02 -0.31971522446E+03  0.34097278106E+03  0.77919806289E+02 0.  0.
         25    2    1    2    0    0  0.15632261466E+02 -0.27359134351E+02  0.31361143161E+03  0.33910416662E+03  0.12508643393E+03 0.  0.
        -24    2    1    2    0    0  0.21831005779E+02 -0.53694058481E+02  0.81986142171E+03  0.82572660040E+03  0.79322273505E+02 0.  0.
        -11    1    3    3    0    0  0.22377571628E+02  0.27198477845E+02 -0.13414807840E+03  0.13869470015E+03  0.00000000000E+00 0.  1.
         12    1    3    3    0    0 -0.59840838873E+02  0.53854714987E+02 -0.18556714606E+03  0.20227808092E+03  0.00000000000E+00 0. -1.
         13    1    5    5    0    0 -0.16615211962E+02 -0.55823936594E+02  0.56129804669E+03  0.56431185915E+03  0.00000000000E+00 0. -1.
        -14    1    5    5    0    0  0.38446217742E+02  0.21298781139E+01  0.25856337503E+03  0.26141474125E+03  0.00000000000E+00 0.  1.
          5    1    4    4  501    0 -0.40154856810E+02 -0.31237677378E+02  0.57342293768E+02  0.76771192957E+02  0.41800000000E+01 0. -1.
         -5    1    4    4    0  501  0.55787118276E+02  0.38785430265E+01  0.25626913784E+03  0.26233297366E+03  0.41800000000E+01 0. -1.
</event>
<event>
11    1  0.7157190E-009  0.1435195E+03  0.7561462E-02  0.1103691E+00
         22   -1    0    0    0    0  0.00000000000E+00  0.00000000000E+00  0.10049148984E+04  0.10049148984E+04  0.00000000000E+00 0. -1.
         22   -1    0    0    0    0 -0.00000000000E+00 -0.00000000000E+00 -0.24550497701E+03  0.24550497701E+03  0.00000000000E+00 0.  1.
        -24    2    1    2    0    0 -0.21963766126E+02  0.48885245087E+01 -0.21314750174E+03  0.22892210352E+03  0.80418699848E+02 0.  0.
         25    2    1    2    0    0 -0.51457002067E+02  0.36798857363E+01  0.20185290082E+03  0.24300883790E+03  0.12508931651E+03 0.  0.
         24    2    1    2    0    0  0.73420768192E+02 -0.85684102450E+01  0.77070452227E+03  0.77848893395E+03  0.81212885537E+02 0.  0.
        -13    1    5    5    0    0  0.27919919234E+02  0.26013206626E+02  0.51794408581E+03  0.51934794197E+03  0.00000000000E+00 0.  1.
         14    1    5    5    0    0  0.45500848958E+02 -0.34581616871E+02  0.25276043646E+03  0.25914099198E+03  0.00000000000E+00 0. -1.
         13    1    3    3    0    0 -0.92720848612E+01 -0.34714033643E+02 -0.57403270321E+02  0.67721275335E+02  0.00000000000E+00 0. -1.
        -14    1    3    3    0    0 -0.12691681264E+02  0.39602558152E+02 -0.15574423142E+03  0.16120082818E+03  0.00000000000E+00 0.  1.
          5    1    4    4  501    0 -0.39352524038E+02 -0.54745109789E+02  0.14731942352E+03  0.16206829776E+03  0.41800000000E+01 0.  1.
         -5    1    4    4    0  501 -0.12104478028E+02  0.58424995525E+02  0.54533477300E+02  0.80940540132E+02  0.41800000000E+01 0.  1.
</event>
<event>
11    1  0.7157190E-009  0.1968175E+03  0.7561462E-02  0.1056797E+00
         22   -1    0    0    0    0  0.00000000000E+00  0.00000000000E+00  0.13433647356E+03  0.13433647356E+03  0.00000000000E+00 0. -1.
         22   -1    0    0    0    0 -0.00000000000E+00 -0.00000000000E+00 -0.83016143581E+03  0.83016143581E+03  0.00000000000E+00 0.  1.
         24    2    1    2    0    0  0.57491962515E+02  0.57496506421E+00 -0.36970016594E+03  0.38310357158E+03  0.82367939883E+02 0.  0.
         25    2    1    2    0    0 -0.19745059273E+03 -0.28656794307E+02 -0.34335156460E+03  0.41634610843E+03  0.12508331889E+03 0.  0.
        -24    2    1    2    0    0  0.13995863021E+03  0.28081829243E+02  0.17226768289E+02  0.16504822936E+03  0.81037948911E+02 0.  0.
        -11    1    3    3    0    0  0.11617887770E+02  0.84319578275E+01 -0.29324584365E+03  0.29359699939E+03  0.00000000000E+00 0.  1.
         12    1    3    3    0    0  0.45874074745E+02 -0.78569927632E+01 -0.76454322286E+02  0.89506572190E+02  0.00000000000E+00 0. -1.
         11    1    5    5    0    0  0.14639530893E+03  0.22511378370E+02  0.26165782710E+01  0.14813910731E+03  0.00000000000E+00 0. -1.
        -12    1    5    5    0    0 -0.64366787222E+01  0.55704508723E+01  0.14610190018E+02  0.16909122042E+02  0.00000000000E+00 0.  1.
          5    1    4    4  501    0 -0.11281974549E+03 -0.73835634942E+02 -0.15924589071E+03  0.20870247260E+03  0.41800000000E+01 0.  1.
         -5    1    4    4    0  501 -0.84630847239E+02  0.45178840636E+02 -0.18410567389E+03  0.20764363584E+03  0.41800000000E+01 0.  1.
</event>
<event>
11    1  0.7157190E-009  0.1606183E+03  0.7561462E-02  0.1086497E+00
         22   -1    0    0    0    0  0.00000000000E+00  0.00000000000E+00  0.75306419191E+03  0.75306419191E+03  0.00000000000E+00 0.  1.
         22   -1    0    0    0    0 -0.00000000000E+00 -0.00000000000E+00 -0.29872520284E+03  0.29872520284E+03  0.00000000000E+00 0.  1.
        -24    2    1    2    0    0  0.67698438423E+01  0.90696762084E+01 -0.21058130396E+03  0.22613435828E+03  0.81634383721E+02 0.  0.
         25    2    1    2    0    0 -0.10416445329E+03 -0.31987835932E+02  0.19056419805E+02  0.16698776667E+03  0.12509321367E+03 0.  0.
         24    2    1    2    0    0  0.97394609449E+02  0.22918159724E+02  0.64586387322E+03  0.65866726979E+03  0.81801452133E+02 0.  0.
        -11    1    5    5    0    0  0.67962759047E+02  0.12180112719E+02  0.59454679722E+03  0.59854255141E+03  0.00000000000E+00 0.  1.
         12    1    5    5    0    0  0.29431850402E+02  0.10738047005E+02  0.51317076003E+02  0.60124718386E+02  0.00000000000E+00 0. -1.
         13    1    3    3    0    0  0.16328396704E+02  0.54468413792E+01 -0.20294576837E+01  0.17332146965E+02  0.00000000000E+00 0. -1.
        -14    1    3    3    0    0 -0.95585528620E+01  0.36228348292E+01 -0.20855184628E+03  0.20880221132E+03  0.00000000000E+00 0.  1.
          5    1    4    4  501    0 -0.35340338190E+02  0.14328872447E+02  0.62435423533E+02  0.73279673858E+02  0.41800000000E+01 0.  1.
         -5    1    4    4    0  501 -0.68824115101E+02 -0.46316708380E+02 -0.43379003728E+02  0.93708092815E+02  0.41800000000E+01 0.  1.
</event>
<event>
11    1  0.7157190E-009  0.2662040E+03  0.7561462E-02  0.1015604E+00
         22   -1    0    0    0    0  0.00000000000E+00  0.00000000000E+00  0.52802677588E+03  0.52802677588E+03  0.00000000000E+00 0.  1.
         22   -1    0    0    0    0 -0.00000000000E+00 -0.00000000000E+00 -0.55009164946E+03  0.55009164946E+03  0.00000000000E+00 0.  1.
         24    2    1    2    0    0  0.14838272243E+03  0.19451195828E+03 -0.39856336990E+03  0.47421969027E+03  0.78608018569E+02 0.  0.
         25    2    1    2    0    0 -0.13371948336E+03 -0.15127804494E+03  0.23605482491E+02  0.23868476877E+03  0.12508898004E+03 0.  0.
        -24    2    1    2    0    0 -0.14663239068E+02 -0.43233913336E+02  0.35289301383E+03  0.36521396630E+03  0.82240988125E+02 0.  0.
        -11    1    3    3    0    0  0.11503867853E+03  0.12362645272E+03 -0.20625315647E+03  0.26656661817E+03  0.00000000000E+00 0.  1.
         12    1    3    3    0    0  0.33344043899E+02  0.70885505565E+02 -0.19231021343E+03  0.20765307210E+03  0.00000000000E+00 0. -1.
         11    1    5    5    0    0  0.58419083567E+01  0.12758363694E+02  0.10139309603E+02  0.17312115314E+02  0.00000000000E+00 0. -1.
        -12    1    5    5    0    0 -0.20505147425E+02 -0.55992277030E+02  0.34275370423E+03  0.34790185099E+03  0.00000000000E+00 0.  1.
          5    1    4    4  501    0 -0.68716335460E+02 -0.55185786536E+01 -0.22281374354E+02  0.72569425466E+02  0.41800000000E+01 0.  1.
         -5    1    4    4    0  501 -0.65003147900E+02 -0.14575946629E+03  0.45886856845E+02  0.16611534331E+03  0.41800000000E+01 0.  1.
</event>
<event>
11    1  0.7157190E-009  0.1686938E+03  0.7561462E-02  0.1079174E+00
         22   -1    0    0    0    0  0.00000000000E+00  0.00000000000E+00  0.44116208168E+03  0.44116208168E+03  0.00000000000E+00 0. -1.
         22   -1    0    0    0    0 -0.00000000000E+00 -0.00000000000E+00 -0.58308703541E+03  0.58308703541E+03  0.00000000000E+00 0. -1.
         24    2    1    2    0    0  0.91913295961E+02 -0.76911125515E+02 -0.51812460453E+03  0.53805051676E+03  0.81742752354E+02 0.  0.
         25    2    1    2    0    0 -0.26869442021E+02  0.38954456016E+02  0.56696826911E+02  0.14526018637E+03  0.12508627024E+03 0.  0.
        -24    2    1    2    0    0 -0.65043853940E+02  0.37956669499E+02  0.31950282389E+03  0.34093841397E+03  0.92116968844E+02 0.  0.
        -13    1    3    3    0    0  0.28392271264E+02 -0.25472722850E+02 -0.50237091762E+02  0.63077302302E+02  0.00000000000E+00 0.  1.
         14    1    3    3    0    0  0.63521024697E+02 -0.51438402664E+02 -0.46788751277E+03  0.47497321445E+03  0.00000000000E+00 0. -1.
         13    1    5    5    0    0 -0.22313547748E+02  0.59088688041E+02  0.24060852818E+03  0.24876059033E+03  0.00000000000E+00 0. -1.
        -14    1    5    5    0    0 -0.42730306192E+02 -0.21132018543E+02  0.78894295709E+02  0.92177823637E+02  0.00000000000E+00 0.  1.
          5    1    4    4  501    0 -0.70513943284E+02 -0.60316200700E+01  0.31491205884E+02  0.77574255305E+02  0.41800000000E+01 0. -1.
         -5    1    4    4    0  501  0.43644501262E+02  0.44986076086E+02  0.25205621028E+02  0.67685931060E+02  0.41800000000E+01 0. -1.
</event>
<event>
11    1  0.7157190E-009  0.1497332E+03  0.7561462E-02  0.1097152E+00
         22   -1    0    0    0    0  0.00000000000E+00  0.00000000000E+00  0.11505277584E+04  0.11505277584E+04  0.00000000000E+00 0. -1.
         22   -1    0    0    0    0 -0.00000000000E+00 -0.00000000000E+00 -0.17289331634E+03  0.17289331634E+03  0.00000000000E+00 0. -1.
        -24    2    1    2    0    0  0.93002150866E+01 -0.28235923720E+02 -0.14589955694E+03  0.16904621598E+03  0.80038622121E+02 0.  0.
         25    2    1    2    0    0  0.61187112621E+02 -0.32493782169E+02  0.57463492867E+03  0.59215775871E+03  0.12508317759E+03 0.  0.
         24    2    1    2    0    0 -0.70487327708E+02  0.60729705889E+02  0.54889907038E+03  0.56221710010E+03  0.78366559411E+02 0.  0.
        -11    1    5    5    0    0 -0.74833425944E+02  0.63180381006E+02  0.35522491100E+03  0.36847868267E+03  0.00000000000E+00 0.  1.
         12    1    5    5    0    0  0.43460982362E+01 -0.24506751175E+01  0.19367415938E+03  0.19373841744E+03  0.00000000000E+00 0. -1.
         11    1    3    3    0    0  0.43880924611E+02 -0.10188732316E+02 -0.63229405523E+02  0.77635710428E+02  0.00000000000E+00 0. -1.
        -12    1    3    3    0    0 -0.34580709525E+02 -0.18047191404E+02 -0.82670151421E+02  0.91410505549E+02  0.00000000000E+00 0.  1.
          5    1    4    4  501    0 -0.13016615655E+02  0.35335888890E+02  0.99143393271E+02  0.10613643180E+03  0.41800000000E+01 0.  1.
         -5    1    4    4    0  501  0.74203728276E+02 -0.67829671059E+02  0.47549153540E+03  0.48602132690E+03  0.41800000000E+01 0.  1.
</event>
<event>
11    1  0.7157190E-009  0.1300773E+03  0.7561462E-02  0.1119174E+00
         22   -1    0    0    0    0  0.00000000000E+00  0.00000000000E+00  0.63056536584E+02  0.63056536584E+02  0.00000000000E+00 0.  1.
         22   -1    0    0    0    0 -0.00000000000E+00 -0.00000000000E+00 -0.28667526656E+04  0.28667526656E+04  0.00000000000E+00 0.  1.
         24    2    1    2    0    0 -0.10173102998E+02 -0.71639105972E+01 -0.20221003861E+04  0.20238004255E+04  0.81996201757E+02 0.  0.
         25    2    1    2    0    0 -0.72642494710E+01  0.38245966674E+02 -0.80453827622E+03  0.81513398546E+03  0.12508418393E+03 0.  0.
        -24    2    1    2    0    0  0.17437352469E+02 -0.31082056077E+02  0.22942533313E+02  0.90874791221E+02  0.80384777001E+02 0.  0.
        -13    1    3    3    0    0 -0.41714925515E+02 -0.13250339013E+02 -0.15449761252E+04  0.15455959801E+04  0.00000000000E+00 0.  1.
         14    1    3    3    0    0  0.31541822517E+02  0.60864284160E+01 -0.47712426095E+03  0.47820444536E+03  0.00000000000E+00 0. -1.
         11    1    5    5    0    0 -0.12254305691E+02  0.10097843857E+02 -0.19185351853E+02  0.24904059594E+02  0.00000000000E+00 0. -1.
        -12    1    5    5    0    0  0.29691658159E+02 -0.41179899934E+02  0.42127885167E+02  0.65970731627E+02  0.00000000000E+00 0.  1.
          5    1    4    4  501    0 -0.12170027487E+01 -0.11411459078E+02 -0.68964446175E+03  0.68975260675E+03  0.41800000000E+01 0. -1.
         -5    1    4    4    0  501 -0.60472467223E+01  0.49657425752E+02 -0.11489381446E+03  0.12538137871E+03  0.41800000000E+01 0. -1.
</event>
<event>
11    1  0.7157190E-009  0.1589599E+03  0.7561462E-02  0.1088060E+00
         22   -1    0    0    0    0  0.00000000000E+00  0.00000000000E+00  0.15090183318E+04  0.15090183318E+04  0.00000000000E+00 0. -1.
         22   -1    0    0    0    0 -0.00000000000E+00 -0.00000000000E+00 -0.16051938791E+04  0.16051938791E+04  0.00000000000E+00 0. -1.
        -24    2    1    2    0    0 -0.35447178817E+02 -0.91507017027E+02 -0.15569456183E+04  0.15621250182E+04  0.80776714285E+02 0.  0.
         25    2    1    2    0    0  0.68863180158E+02  0.74602814246E+02  0.10231628265E+03  0.19085779694E+03  0.12510139681E+03 0.  0.
         24    2    1    2    0    0 -0.33416001342E+02  0.16904202782E+02  0.13584537883E+04  0.13612293957E+04  0.78398924585E+02 0.  0.
        -11    1    5    5    0    0  0.24494894025E+02  0.14975956253E+02  0.49794956926E+03  0.49877655581E+03  0.00000000000E+00 0.  1.
         12    1    5    5    0    0 -0.57910895367E+02  0.19282465284E+01  0.86050421908E+03  0.86245283987E+03  0.00000000000E+00 0. -1.
         13    1    3    3    0    0  0.16969027049E+02 -0.67165539903E+02 -0.86667067251E+03  0.86943499597E+03  0.00000000000E+00 0. -1.
        -14    1    3    3    0    0 -0.52416205865E+02 -0.24341477125E+02 -0.69027494581E+03  0.69269002227E+03  0.00000000000E+00 0.  1.
          5    1    4    4  501    0  0.14562629297E+01  0.73723386980E+02  0.98626554883E+02  0.12321496751E+03  0.41800000000E+01 0. -1.
         -5    1    4    4    0  501  0.67406917229E+02  0.87942726569E+00  0.36897277619E+01  0.67642829432E+02  0.41800000000E+01 0. -1.
</event>
<event>
11    1  0.7157190E-009  0.1571690E+03  0.7561462E-02  0.1089771E+00
         22   -1    0    0    0    0  0.00000000000E+00  0.00000000000E+00  0.32191608031E+03  0.32191608031E+03  0.00000000000E+00 0.  1.
         22   -1    0    0    0    0 -0.00000000000E+00 -0.00000000000E+00 -0.23851457699E+04  0.23851457699E+04  0.00000000000E+00 0. -1.
         24    2    1    2    0    0 -0.65387139952E+02  0.68103962507E+02 -0.22928148899E+04  0.22961447923E+04  0.79794486262E+02 0.  0.
         25    2    1    2    0    0  0.10679873332E+03 -0.14280039331E+03  0.11960963651E+03  0.24850049085E+03  0.12509239400E+03 0.  0.
        -24    2    1    2    0    0 -0.41411593366E+02  0.74696430802E+02  0.10997556377E+03  0.16241656709E+03  0.83606457874E+02 0.  0.
        -11    1    3    3    0    0 -0.52360683697E+02  0.38311369212E+02 -0.70055269101E+03  0.70355062013E+03  0.00000000000E+00 0.  1.
         12    1    3    3    0    0 -0.13026456254E+02  0.29792593295E+02 -0.15922621989E+04  0.15925941722E+04  0.00000000000E+00 0. -1.
         13    1    5    5    0    0  0.18287530087E+02 -0.51055708247E+01  0.25356988150E+02  0.31677712325E+02  0.00000000000E+00 0. -1.
        -14    1    5    5    0    0 -0.59699123452E+02  0.79802001626E+02  0.84618575625E+02  0.13073885477E+03  0.00000000000E+00 0.  1.
          5    1    4    4  501    0  0.97488010038E+02 -0.52537139589E+02  0.11165225873E+03  0.15731421556E+03  0.41800000000E+01 0.  1.
         -5    1    4    4    0  501  0.93107232795E+01 -0.90263253720E+02  0.79573777827E+01  0.91186275290E+02  0.41800000000E+01 0.  1.
</event>
<event>
11    1  0.7157190E-009  0.2139410E+03  0.7561462E-02  0.1045081E+00
         22   -1    0    0    0    0  0.00000000000E+00  0.00000000000E+00  0.61675524602E+03  0.61675524602E+03  0.00000000000E+00 0.  1.
         22   -1    0    0    0    0 -0.00000000000E+00 -0.00000000000E+00 -0.92349340197E+03  0.92349340197E+03  0.00000000000E+00 0.  1.
        -24    2    1    2    0    0  0.16954507472E+03 -0.25353666022E+02 -0.83638268695E+03  0.85766799052E+03  0.81670326256E+02 0.  0.
         25    2    1    2    0    0 -0.21840290863E+03  0.10592490063E+03  0.22555308657E+03  0.35416655502E+03  0.12505934096E+03 0.  0.
         24    2    1    2    0    0  0.48857833906E+02 -0.80571234604E+02  0.30409144443E+03  0.32841410246E+03  0.80656086782E+02 0.  0.
        -11    1    5    5    0    0  0.32955136903E+00 -0.19007083671E+02  0.18414213792E+03  0.18512078433E+03  0.00000000000E+00 0.  1.
         12    1    5    5    0    0  0.48528282537E+02 -0.61564150933E+02  0.11994930651E+03  0.14329331812E+03  0.00000000000E+00 0. -1.
         13    1    3    3    0    0  0.84273122178E+01  0.17118817514E+02 -0.15681469822E+03  0.15797127296E+03  0.00000000000E+00 0. -1.
        -14    1    3    3    0    0  0.16111776250E+03 -0.42472483536E+02 -0.67956798873E+03  0.69969671756E+03  0.00000000000E+00 0.  1.
          5    1    4    4  501    0 -0.14821134922E+03  0.61064944524E+02  0.64580846914E+02  0.17286899570E+03  0.41800000000E+01 0.  1.
         -5    1    4    4    0  501 -0.70191559411E+02  0.44859956102E+02  0.16097223966E+03  0.18129755932E+03  0.41800000000E+01 0.  1.
</event>
<event>
11    1  0.7157190E-009  0.1364335E+03  0.7561462E-02  0.1111608E+00
         22   -1    0    0    0    0  0.00000000000E+00  0.00000000000E+00  0.41037417102E+03  0.41037417102E+03  0.00000000000E+00 0.  1.
         22   -1    0    0    0    0 -0.00000000000E+00 -0.00000000000E+00 -0.57034138822E+03  0.57034138822E+03  0.00000000000E+00 0.  1.
        -24    2    1    2    0    0  0.45123435664E+02  0.25964647454E+02 -0.48850926808E+03  0.49809423842E+03  0.82135728990E+02 0.  0.
         25    2    1    2    0    0  0.43400250082E+01  0.65276566185E+01 -0.13935244919E+02  0.12611484088E+03  0.12509722587E+03 0.  0.
         24    2    1    2    0    0 -0.49463460672E+02 -0.32492304072E+02  0.34247729580E+03  0.35650647994E+03  0.79396399992E+02 0.  0.
        -11    1    5    5    0    0 -0.48477824071E+02 -0.56212834357E+02  0.27994671852E+03  0.28962069571E+03  0.00000000000E+00 0.  1.
         12    1    5    5    0    0 -0.98563660097E+00  0.23720530285E+02  0.62530577278E+02  0.66885784224E+02  0.00000000000E+00 0. -1.
         11    1    3    3    0    0 -0.67654476192E+00 -0.86327047493E+00  0.32750232155E+01  0.34537987477E+01  0.00000000000E+00 0. -1.
        -12    1    3    3    0    0  0.45799980426E+02  0.26827917929E+02 -0.49178429130E+03  0.49464043967E+03  0.00000000000E+00 0.  1.
          5    1    4    4  501    0  0.10054929562E+02  0.61508742160E+02  0.14035863416E+02  0.64022689981E+02  0.41800000000E+01 0.  1.
         -5    1    4    4    0  501 -0.57149045542E+01 -0.54981085541E+02 -0.27971108334E+02  0.62092150895E+02  0.41800000000E+01 0.  1.
</event>
<event>
11    1  0.7157190E-009  0.1778485E+03  0.7561462E-02  0.1071397E+00
         22   -1    0    0    0    0  0.00000000000E+00  0.00000000000E+00  0.10358820319E+04  0.10358820319E+04  0.00000000000E+00 0. -1.
         22   -1    0    0    0    0 -0.00000000000E+00 -0.00000000000E+00 -0.56945852043E+03  0.56945852043E+03  0.00000000000E+00 0. -1.
         24    2    1    2    0    0 -0.57044867258E+02  0.11576591527E+03 -0.50028697787E+03  0.52280829579E+03  0.79909886156E+02 0.  0.
         25    2    1    2    0    0 -0.55628427889E+01 -0.10971701050E+03  0.71485859111E+02  0.18117923552E+03  0.12508764814E+03 0.  0.
        -24    2    1    2    0    0  0.62607710047E+02 -0.60489047698E+01  0.89522463022E+03  0.90135302101E+03  0.83986994982E+02 0.  0.
        -13    1    3    3    0    0 -0.46759731234E+02  0.72543433229E+02 -0.18190915699E+03  0.20134538377E+03  0.00000000000E+00 0.  1.
         14    1    3    3    0    0 -0.10285136023E+02  0.43222482044E+02 -0.31837782088E+03  0.32146291202E+03  0.00000000000E+00 0. -1.
         13    1    5    5    0    0 -0.24118011615E+01 -0.30803454448E+02  0.41047439867E+03  0.41163564175E+03  0.00000000000E+00 0. -1.
        -14    1    5    5    0    0  0.65019511208E+02  0.24754549678E+02  0.48475023154E+03  0.48971737926E+03  0.00000000000E+00 0.  1.
          5    1    4    4  501    0 -0.45459776603E+02 -0.10800321454E+03  0.25250773265E+02  0.11994315149E+03  0.41800000000E+01 0. -1.
         -5    1    4    4    0  501  0.39896933814E+02 -0.17137959658E+01  0.46235085845E+02  0.61236084031E+02  0.41800000000E+01 0. -1.
</event>
<event>
11    1  0.7157190E-009  0.1473655E+03  0.7561462E-02  0.1099602E+00
         22   -1    0    0    0    0  0.00000000000E+00  0.00000000000E+00  0.14404411548E+04  0.14404411548E+04  0.00000000000E+00 0. -1.
         22   -1    0    0    0    0 -0.00000000000E+00 -0.00000000000E+00 -0.50662626700E+03  0.50662626700E+03  0.00000000000E+00 0. -1.
         24    2    1    2    0    0 -0.27993669422E+02  0.27799223994E+02 -0.42825188325E+03  0.43759933199E+03  0.80852071525E+02 0.  0.
         25    2    1    2    0    0 -0.23822614186E+02  0.31995235396E+02 -0.11078752528E+02  0.13176243600E+03  0.12508952293E+03 0.  0.
        -24    2    1    2    0    0  0.51816283608E+02 -0.59794459389E+02  0.13731455236E+04  0.13777056538E+04  0.79271274946E+02 0.  0.
        -13    1    3    3    0    0 -0.74054527414E+00 -0.27398340106E+02 -0.10369710529E+03  0.10725813299E+03  0.00000000000E+00 0.  1.
         14    1    3    3    0    0 -0.27253124148E+02  0.55197564099E+02 -0.32455477796E+03  0.33034119900E+03  0.00000000000E+00 0. -1.
         11    1    5    5    0    0  0.32737493397E+02  0.53356885314E+01  0.21206699883E+03  0.21464534711E+03  0.00000000000E+00 0. -1.
        -12    1    5    5    0    0  0.19078790211E+02 -0.65130147921E+02  0.11610785247E+04  0.11630603067E+04  0.00000000000E+00 0.  1.
          5    1    4    4  501    0 -0.39864140302E+02 -0.38094345110E+02  0.11102418206E+02  0.56400929969E+02  0.41800000000E+01 0. -1.
         -5    1    4    4    0  501  0.16041526116E+02  0.70089580506E+02 -0.22181170734E+02  0.75361506028E+02  0.41800000000E+01 0. -1.
</event>
<event>
11    1  0.7157190E-009  0.1361869E+03  0.7561462E-02  0.1111893E+00
         22   -1    0    0    0    0  0.00000000000E+00  0.00000000000E+00  0.68435078824E+03  0.68435078824E+03  0.00000000000E+00 0.  1.
         22   -1    0    0    0    0 -0.00000000000E+00 -0.00000000000E+00 -0.11957954827E+04  0.11957954827E+04  0.00000000000E+00 0.  1.
        -24    2    1    2    0    0 -0.74715049041E+01 -0.30896949030E+02 -0.10322367557E+04  0.10360783951E+04  0.83278305387E+02 0.  0.
         25    2    1    2    0    0  0.35811431292E+02 -0.15462745890E+02 -0.13091882160E+03  0.18522723413E+03  0.12509130782E+03 0.  0.
         24    2    1    2    0    0 -0.28339926388E+02  0.46359694920E+02  0.65171088284E+03  0.65884064170E+03  0.79947130043E+02 0.  0.
        -13    1    5    5    0    0  0.27734115757E+01  0.16981818119E+02  0.52139714204E+03  0.52168098843E+03  0.00000000000E+00 0.  1.
         14    1    5    5    0    0 -0.31113337964E+02  0.29377876800E+02  0.13031374080E+03  0.13715965327E+03  0.00000000000E+00 0. -1.
         11    1    3    3    0    0  0.71835696266E+01 -0.54205980046E+02 -0.47039457058E+03  0.47356197480E+03  0.00000000000E+00 0. -1.
        -12    1    3    3    0    0 -0.14655074531E+02  0.23309031016E+02 -0.56184218514E+03  0.56251642033E+03  0.00000000000E+00 0.  1.
          5    1    4    4  501    0  0.53089871756E+02 -0.12187804608E+02 -0.16033833076E+01  0.54654554268E+02  0.41800000000E+01 0.  1.
         -5    1    4    4    0  501 -0.17278440464E+02 -0.32749412815E+01 -0.12931543830E+03  0.13057267986E+03  0.41800000000E+01 0.  1.
</event>
<event>
11    1  0.7157190E-009  0.1667112E+03  0.7561462E-02  0.1080930E+00
         22   -1    0    0    0    0  0.00000000000E+00  0.00000000000E+00  0.19802201944E+03  0.19802201944E+03  0.00000000000E+00 0.  1.
         22   -1    0    0    0    0 -0.00000000000E+00 -0.00000000000E+00 -0.77148120262E+03  0.77148120262E+03  0.00000000000E+00 0. -1.
         24    2    1    2    0    0  0.10406716156E+03  0.47576134653E+02 -0.54344394393E+03  0.56042703473E+03  0.75190946009E+02 0.  0.
         25    2    1    2    0    0 -0.75318570125E+02 -0.62511118579E+02 -0.17716840919E+03  0.23793867589E+03  0.12508253802E+03 0.  0.
        -24    2    1    2    0    0 -0.28748591436E+02  0.14934983926E+02  0.14715316994E+03  0.17113751144E+03  0.81144667992E+02 0.  0.
        -13    1    3    3    0    0  0.45852096388E+01 -0.75686235361E+01 -0.16554510447E+03  0.16578145199E+03  0.00000000000E+00 0.  1.
         14    1    3    3    0    0  0.99481951922E+02  0.55144758189E+02 -0.37789883945E+03  0.39464558274E+03  0.00000000000E+00 0. -1.
         11    1    5    5    0    0  0.17923557965E+02 -0.14881843346E+02  0.14635811621E+02  0.27512364008E+02  0.00000000000E+00 0. -1.
        -12    1    5    5    0    0 -0.46672149402E+02  0.29816827272E+02  0.13251735832E+03  0.14362514743E+03  0.00000000000E+00 0.  1.
          5    1    4    4  501    0 -0.23817291526E+02 -0.97707960555E+01  0.16371656342E+02  0.30793430510E+02  0.41800000000E+01 0. -1.
         -5    1    4    4    0  501 -0.51501278599E+02 -0.52740322524E+02 -0.19354006553E+03  0.20714524538E+03  0.41800000000E+01 0. -1.
</event>
<event>
11    1  0.7157190E-009  0.1272196E+03  0.7561462E-02  0.1122733E+00
         22   -1    0    0    0    0  0.00000000000E+00  0.00000000000E+00  0.16207899524E+04  0.16207899524E+04  0.00000000000E+00 0. -1.
         22   -1    0    0    0    0 -0.00000000000E+00 -0.00000000000E+00 -0.71371106048E+03  0.71371106048E+03  0.00000000000E+00 0.  1.
         24    2    1    2    0    0 -0.31259169317E+01  0.34621639062E+02 -0.68226580625E+03  0.68799814561E+03  0.81525387090E+02 0.  0.
         25    2    1    2    0    0  0.18957231580E+01 -0.56127675581E+02  0.14552626239E+03  0.19994724181E+03  0.12508835568E+03 0.  0.
        -24    2    1    2    0    0  0.12301937737E+01  0.21506036520E+02  0.14438184358E+04  0.14465556255E+04  0.86298777888E+02 0.  0.
        -11    1    3    3    0    0 -0.32247624344E+02  0.38574361904E+02 -0.55988882070E+03  0.56214178124E+03  0.00000000000E+00 0.  1.
         12    1    3    3    0    0  0.29121707412E+02 -0.39527228425E+01 -0.12237698555E+03  0.12585636438E+03  0.00000000000E+00 0. -1.
         13    1    5    5    0    0  0.28881559960E+02  0.27480271698E+02  0.12546876184E+04  0.12553208075E+04  0.00000000000E+00 0. -1.
        -14    1    5    5    0    0 -0.27651366186E+02 -0.59742351782E+01  0.18913081738E+03  0.19123481802E+03  0.00000000000E+00 0.  1.
          5    1    4    4  501    0 -0.26472644140E+02  0.32735818294E+02  0.32562634421E+02  0.53387566413E+02  0.41800000000E+01 0. -1.
         -5    1    4    4    0  501  0.28368367298E+02 -0.88863493875E+02  0.11296362797E+03  0.14655967540E+03  0.41800000000E+01 0. -1.
</event>
<event>
11    1  0.9739871E-009  0.1755382E+03  0.7561462E-02  0.1073310E+00
         22   -1    0    0    0    0  0.00000000000E+00  0.00000000000E+00  0.36685906777E+03  0.36685906777E+03  0.00000000000E+00 0. -1.
         22   -1    0    0    0    0 -0.00000000000E+00 -0.00000000000E+00 -0.18546382975E+04  0.18546382975E+04  0.00000000000E+00 0. -1.
        -24    2    1    2    0    0 -0.41486835542E+02 -0.10650798322E+03 -0.12904255369E+04  0.12979713065E+04  0.80413544984E+02 0.  0.
         25    2    1    2    0    0  0.38969222173E+02  0.16833646007E+03 -0.53239833315E+03  0.57354306459E+03  0.12509155740E+03 0.  0.
         24    2    1    2    0    0  0.25176133683E+01 -0.61828476848E+02  0.33504464029E+03  0.34998299420E+03  0.80025535374E+02 0.  0.
        -11    1    5    5    0    0  0.33413831703E+02 -0.42517762850E+02  0.27061462316E+03  0.27596470531E+03  0.00000000000E+00 0.  1.
         12    1    5    5    0    0 -0.30896218335E+02 -0.19310713999E+02  0.64430017127E+02  0.74018288886E+02  0.00000000000E+00 0. -1.
         11    1    3    3    0    0 -0.25875459695E+02 -0.11311328311E+03 -0.12212110703E+04  0.12267113077E+04  0.00000000000E+00 0. -1.
        -12    1    3    3    0    0 -0.15611375847E+02  0.66052998888E+01 -0.69214466645E+02  0.71259998845E+02  0.00000000000E+00 0.  1.
          5    1    4    4  501    0  0.20183211509E+02 -0.10949330102E+02 -0.13695160847E+03  0.13892611461E+03  0.41800000000E+01 0.  1.
         -5    1    4    4    0  501  0.18786010664E+02  0.17928579017E+03 -0.39544672468E+03  0.43461694998E+03  0.41800000000E+01 0.  1.
</event>
<event>
11    1  0.7157190E-009  0.1426187E+03  0.7561462E-02  0.1104669E+00
         22   -1    0    0    0    0  0.00000000000E+00  0.00000000000E+00  0.55678995168E+03  0.55678995168E+03  0.00000000000E+00 0.  1.
         22   -1    0    0    0    0 -0.00000000000E+00 -0.00000000000E+00 -0.99475651484E+02  0.99475651484E+02  0.00000000000E+00 0. -1.
         24    2    1    2    0    0  0.14616825184E+03 -0.17729700843E+02  0.18928168445E+03  0.25439192205E+03  0.84901082416E+02 0.  0.
         25    2    1    2    0    0 -0.36292409837E+02  0.76739749351E+01  0.40769137606E+02  0.13669579915E+03  0.12509032745E+03 0.  0.
        -24    2    1    2    0    0 -0.10987584200E+03  0.10055725907E+02  0.22726347814E+03  0.26517788197E+03  0.80602743800E+02 0.  0.
        -13    1    3    3    0    0  0.39282179618E+02 -0.30232498565E+02  0.11022979500E+03  0.12086232378E+03  0.00000000000E+00 0.  1.
         14    1    3    3    0    0  0.10688607222E+03  0.12502797723E+02  0.79051889455E+02  0.13352959826E+03  0.00000000000E+00 0. -1.
         11    1    5    5    0    0  0.77726228303E+01  0.15756860030E+02  0.18745366228E+02  0.25692042711E+02  0.00000000000E+00 0. -1.
        -12    1    5    5    0    0 -0.11764846484E+03 -0.57011341221E+01  0.20851811191E+03  0.23948583925E+03  0.00000000000E+00 0.  1.
          5    1    4    4  501    0 -0.74375251984E+02 -0.15486440934E+02 -0.89644978333E-01  0.76085401995E+02  0.41800000000E+01 0.  1.
         -5    1    4    4    0  501  0.38082842147E+02  0.23160415869E+02  0.40858782585E+02  0.60610397157E+02  0.41800000000E+01 0.  1.
</event>
<event>
11    1  0.7157190E-009  0.1507163E+03  0.7561462E-02  0.1096149E+00
         22   -1    0    0    0    0  0.00000000000E+00  0.00000000000E+00  0.55767976378E+03  0.55767976378E+03  0.00000000000E+00 0. -1.
         22   -1    0    0    0    0 -0.00000000000E+00 -0.00000000000E+00 -0.65728002438E+03  0.65728002438E+03  0.00000000000E+00 0. -1.
         24    2    1    2    0    0 -0.16209080279E+02 -0.59750720372E+02 -0.52573220107E+03  0.53530353912E+03  0.79515085864E+02 0.  0.
         25    2    1    2    0    0  0.95574408290E+02  0.31440061778E+02 -0.66037411689E+02  0.17358530006E+03  0.12509185286E+03 0.  0.
        -24    2    1    2    0    0 -0.79365328011E+02  0.28310658594E+02  0.49216935215E+03  0.50607094898E+03  0.82321233723E+02 0.  0.
        -13    1    3    3    0    0 -0.27128203227E+02 -0.76054685526E+02 -0.40263586424E+03  0.41065300897E+03  0.00000000000E+00 0.  1.
         14    1    3    3    0    0  0.10919122948E+02  0.16303965154E+02 -0.12309633683E+03  0.12465053015E+03  0.00000000000E+00 0. -1.
         11    1    5    5    0    0 -0.76094634370E+02  0.39834287831E+02  0.48402295975E+03  0.49158456997E+03  0.00000000000E+00 0. -1.
        -12    1    5    5    0    0 -0.32706936404E+01 -0.11523629238E+02  0.81463924086E+01  0.14486379015E+02  0.00000000000E+00 0.  1.
          5    1    4    4  501    0  0.12307904606E+03  0.89352240932E+01 -0.41762953748E+02  0.13034533561E+03  0.41800000000E+01 0. -1.
         -5    1    4    4    0  501 -0.27504637769E+02  0.22504837685E+02 -0.24274457941E+02  0.43239964459E+02  0.41800000000E+01 0. -1.
</event>
<event>
11    1  0.7157190E-009  0.1624494E+03  0.7561462E-02  0.1084796E+00
         22   -1    0    0    0    0  0.00000000000E+00  0.00000000000E+00  0.11963265905E+04  0.11963265905E+04  0.00000000000E+00 0. -1.
         22   -1    0    0    0    0 -0.00000000000E+00 -0.00000000000E+00 -0.27629783461E+03  0.27629783461E+03  0.00000000000E+00 0.  1.
        -24    2    1    2    0    0 -0.29650982176E+02  0.22755187481E+02 -0.20102038170E+03  0.21591404558E+03  0.69373639965E+02 0.  0.
         25    2    1    2    0    0 -0.72235889487E+02  0.51252731307E+01  0.17749243251E+02  0.14562265754E+03  0.12508649248E+03 0.  0.
         24    2    1    2    0    0  0.10188687166E+03 -0.27880460611E+02  0.11032998943E+04  0.11110877219E+04  0.78019320723E+02 0.  0.
        -11    1    5    5    0    0  0.58627770500E+02  0.80251416829E+01  0.29743527815E+03  0.30326451006E+03  0.00000000000E+00 0.  1.
         12    1    5    5    0    0  0.43259101163E+02 -0.35905602294E+02  0.80586461613E+03  0.80782321187E+03  0.00000000000E+00 0. -1.
         11    1    3    3    0    0  0.35784889299E+00  0.10047622012E+02  0.20369692808E+01  0.10258265339E+02  0.00000000000E+00 0. -1.
        -12    1    3    3    0    0 -0.30008831069E+02  0.12707565469E+02 -0.20305735098E+03  0.20565578024E+03  0.00000000000E+00 0.  1.
          5    1    4    4  501    0 -0.10317610900E+02 -0.34221068437E+02 -0.38786445441E+02  0.52909312692E+02  0.41800000000E+01 0. -1.
         -5    1    4    4    0  501 -0.61918278586E+02  0.39346341567E+02  0.56535688692E+02  0.92713344852E+02  0.41800000000E+01 0. -1.
</event>
<event>
11    1  0.7157190E-009  0.1414581E+03  0.7561462E-02  0.1105941E+00
         22   -1    0    0    0    0  0.00000000000E+00  0.00000000000E+00  0.53725008130E+02  0.53725008130E+02  0.00000000000E+00 0. -1.
         22   -1    0    0    0    0 -0.00000000000E+00 -0.00000000000E+00 -0.35906574686E+04  0.35906574686E+04  0.00000000000E+00 0. -1.
        -24    2    1    2    0    0 -0.62434584259E+02 -0.24192064789E+02 -0.26044151969E+04  0.26064564533E+04  0.78443558777E+02 0.  0.
         25    2    1    2    0    0  0.51395738785E+02  0.36612127248E+02 -0.94206033292E+03  0.95242174776E+03  0.12509014723E+03 0.  0.
         24    2    1    2    0    0  0.11038845473E+02 -0.12420062460E+02  0.95430692733E+01  0.85504275715E+02  0.83329448178E+02 0.  0.
        -13    1    5    5    0    0 -0.12886585334E+02 -0.21538391092E+02 -0.29551250361E+02  0.38771674846E+02  0.00000000000E+00 0.  1.
         14    1    5    5    0    0  0.23925430807E+02  0.91183286322E+01  0.39094319635E+02  0.46732600870E+02  0.00000000000E+00 0. -1.
         11    1    3    3    0    0 -0.79226754522E+02 -0.77492460598E+01 -0.19850537975E+04  0.19866493169E+04  0.00000000000E+00 0. -1.
        -12    1    3    3    0    0  0.16792170264E+02 -0.16442818729E+02 -0.61936139941E+03  0.61980713641E+03  0.00000000000E+00 0.  1.
          5    1    4    4  501    0  0.80930897207E+02 -0.11249884921E+02 -0.47861391347E+03  0.48555650609E+03  0.41800000000E+01 0.  1.
         -5    1    4    4    0  501 -0.29535158422E+02  0.47862012170E+02 -0.46344641944E+03  0.46686524168E+03  0.41800000000E+01 0.  1.
</event>
<event>
11    1  0.7157190E-009  0.1306922E+03  0.7561462E-02  0.1118421E+00
         22   -1    0    0    0    0  0.00000000000E+00  0.00000000000E+00  0.48043966576E+03  0.48043966576E+03  0.00000000000E+00 0. -1.
         22   -1    0    0    0    0 -0.00000000000E+00 -0.00000000000E+00 -0.18189551060E+03  0.18189551060E+03  0.00000000000E+00 0. -1.
        -24    2    1    2    0    0 -0.21977791884E+02  0.18700838408E+02 -0.86262415351E+02  0.12267773907E+03  0.82315725516E+02 0.  0.
         25    2    1    2    0    0  0.55153658953E+02 -0.20731507478E+01 -0.80446377587E+01  0.13695881661E+03  0.12508707848E+03 0.  0.
         24    2    1    2    0    0 -0.33175867069E+02 -0.16627687660E+02  0.39285120827E+03  0.40269862067E+03  0.80355392473E+02 0.  0.
        -13    1    5    5    0    0 -0.29422633402E+02 -0.35091420400E+02  0.10908221199E+03  0.11830481019E+03  0.00000000000E+00 0.  1.
         14    1    5    5    0    0 -0.37532336666E+01  0.18463732740E+02  0.28376899628E+03  0.28439381048E+03  0.00000000000E+00 0. -1.
         11    1    3    3    0    0  0.10823867671E+02  0.37302101791E+02 -0.73026941434E+02  0.82713584644E+02  0.00000000000E+00 0. -1.
        -12    1    3    3    0    0 -0.32801659554E+02 -0.18601263383E+02 -0.13235473917E+02  0.39964154423E+02  0.00000000000E+00 0.  1.
          5    1    4    4  501    0  0.57705141091E+02 -0.45823003285E+01  0.51239481576E+02  0.77419878951E+02  0.41800000000E+01 0. -1.
         -5    1    4    4    0  501 -0.25514821384E+01  0.25091495807E+01 -0.59284119335E+02  0.59538937663E+02  0.41800000000E+01 0. -1.
</event>
<event>
11    1  0.7157190E-009  0.1727014E+03  0.7561462E-02  0.1075704E+00
         22   -1    0    0    0    0  0.00000000000E+00  0.00000000000E+00  0.23889609636E+04  0.23889609636E+04  0.00000000000E+00 0. -1.
         22   -1    0    0    0    0 -0.00000000000E+00 -0.00000000000E+00 -0.23007782677E+03  0.23007782677E+03  0.00000000000E+00 0.  1.
        -24    2    1    2    0    0 -0.90042972627E+02  0.55870151126E+02 -0.17490002973E+03  0.22076479337E+03  0.83173691066E+02 0.  0.
         25    2    1    2    0    0  0.11540563922E+03 -0.16603641682E+03  0.44611978077E+03  0.50552368291E+03  0.12507910263E+03 0.  0.
         24    2    1    2    0    0 -0.25362666591E+02  0.11016626569E+03  0.18876633858E+04  0.18927503141E+04  0.80317012297E+02 0.  0.
        -13    1    5    5    0    0  0.13756668569E+02  0.68252587262E+02  0.64120154902E+03  0.64497061023E+03  0.00000000000E+00 0.  1.
         14    1    5    5    0    0 -0.39119335160E+02  0.41913678433E+02  0.12464618368E+04  0.12477797038E+04  0.00000000000E+00 0. -1.
         13    1    3    3    0    0  0.14776820900E+02  0.47846129367E+00 -0.30786859682E+02  0.34152805012E+02  0.00000000000E+00 0. -1.
        -14    1    3    3    0    0 -0.10481979353E+03  0.55391689832E+02 -0.14411317005E+03  0.18661198836E+03  0.00000000000E+00 0.  1.
          5    1    4    4  501    0  0.31860162276E+02  0.95521627413E+01  0.25521624920E+02  0.42132404297E+02  0.41800000000E+01 0. -1.
         -5    1    4    4    0  501  0.83545476941E+02 -0.17558857956E+03  0.42059815585E+03  0.46339127862E+03  0.41800000000E+01 0. -1.
</event>
<event>
11    1  0.7157190E-009  0.1324481E+03  0.7561462E-02  0.1116297E+00
         22   -1    0    0    0    0  0.00000000000E+00  0.00000000000E+00  0.42742666877E+03  0.42742666877E+03  0.00000000000E+00 0. -1.
         22   -1    0    0    0    0 -0.00000000000E+00 -0.00000000000E+00 -0.28523774850E+03  0.28523774850E+03  0.00000000000E+00 0.  1.
         24    2    1    2    0    0  0.30986509702E+02  0.30681248319E+02 -0.22190954471E+03  0.23915082399E+03  0.77767395484E+02 0.  0.
         25    2    1    2    0    0 -0.45359616983E+02 -0.14275469969E+02  0.41325940946E+02  0.14005924087E+03  0.12508986234E+03 0.  0.
        -24    2    1    2    0    0  0.14373107282E+02 -0.16405778350E+02  0.32277252402E+03  0.33345435242E+03  0.80832958056E+02 0.  0.
        -13    1    3    3    0    0 -0.35870773026E+01  0.19915501962E+02 -0.18942966686E+03  0.19050746187E+03  0.00000000000E+00 0.  1.
         14    1    3    3    0    0  0.34573587005E+02  0.10765746357E+02 -0.32479877843E+02  0.48643362113E+02  0.00000000000E+00 0. -1.
         13    1    5    5    0    0 -0.55137322511E+01  0.51685905749E+01  0.28738614119E+03  0.28748549480E+03  0.00000000000E+00 0. -1.
        -14    1    5    5    0    0  0.19886839533E+02 -0.21574368925E+02  0.35386382837E+02  0.45968857625E+02  0.00000000000E+00 0.  1.
          5    1    4    4  501    0  0.43283691167E+02 -0.30280857598E+01  0.20722739691E+02  0.48265428256E+02  0.41800000000E+01 0. -1.
         -5    1    4    4    0  501 -0.88643308151E+02 -0.11247384209E+02  0.20603201255E+02  0.91793812609E+02  0.41800000000E+01 0. -1.
</event>
<event>
11    1  0.7157190E-009  0.1279256E+03  0.7561462E-02  0.1121844E+00
         22   -1    0    0    0    0  0.00000000000E+00  0.00000000000E+00  0.22114596088E+02  0.22114596088E+02  0.00000000000E+00 0. -1.
         22   -1    0    0    0    0 -0.00000000000E+00 -0.00000000000E+00 -0.28664537397E+04  0.28664537397E+04  0.00000000000E+00 0.  1.
        -24    2    1    2    0    0 -0.12143812640E+02 -0.83438502377E+01 -0.23018861514E+04  0.23033526342E+04  0.80848075112E+02 0.  0.
         25    2    1    2    0    0  0.35267537257E+02  0.21455346201E+01 -0.39627165181E+03  0.41704538768E+03  0.12508889180E+03 0.  0.
         24    2    1    2    0    0 -0.23123724617E+02  0.61983156176E+01 -0.14618134041E+03  0.16817031396E+03  0.79618744386E+02 0.  0.
        -13    1    5    5    0    0  0.33507753393E+01 -0.23798145657E+02 -0.11489422239E+03  0.11738084073E+03  0.00000000000E+00 0.  1.
         14    1    5    5    0    0 -0.26474499956E+02  0.29996461275E+02 -0.31287118013E+02  0.50789473225E+02  0.00000000000E+00 0. -1.
         11    1    3    3    0    0 -0.10519277288E+02  0.36130529682E+02 -0.10926864461E+04  0.10933342306E+04  0.00000000000E+00 0. -1.
        -12    1    3    3    0    0 -0.16245353520E+01 -0.44474379920E+02 -0.12091997053E+04  0.12100184036E+04  0.00000000000E+00 0.  1.
          5    1    4    4  501    0  0.45380385573E+02  0.98231078105E+01 -0.40036129685E+03  0.40306638815E+03  0.41800000000E+01 0. -1.
         -5    1    4    4    0  501 -0.10112848315E+02 -0.76775731904E+01  0.40896450406E+01  0.13978999524E+02  0.41800000000E+01 0. -1.
</event>
<event>
11    1  0.7157190E-009  0.1403053E+03  0.7561462E-02  0.1107218E+00
         22   -1    0    0    0    0  0.00000000000E+00  0.00000000000E+00  0.17594322723E+03  0.17594322723E+03  0.00000000000E+00 0.  1.
         22   -1    0    0    0    0 -0.00000000000E+00 -0.00000000000E+00 -0.14654156353E+04  0.14654156353E+04  0.00000000000E+00 0.  1.
         24    2    1    2    0    0 -0.73004285435E+01 -0.63048986210E+02 -0.13245080739E+04  0.13277646830E+04  0.67889207203E+02 0.  0.
         25    2    1    2    0    0  0.11269009256E+02  0.64233271981E+02 -0.88486269662E+02  0.16652775947E+03  0.12509504769E+03 0.  0.
        -24    2    1    2    0    0 -0.39685807128E+01 -0.11842857706E+01  0.12352193557E+03  0.14706642006E+03  0.79710169849E+02 0.  0.
        -13    1    3    3    0    0  0.77233499956E+00 -0.38177331121E+02 -0.11966992201E+04  0.11973082847E+04  0.00000000000E+00 0.  1.
         14    1    3    3    0    0 -0.80727635431E+01 -0.24871655089E+02 -0.12780885383E+03  0.13045639829E+03  0.00000000000E+00 0. -1.
         13    1    5    5    0    0  0.45796990594E+01  0.19452046319E+02 -0.15232865512E+01  0.20041859978E+02  0.00000000000E+00 0. -1.
        -14    1    5    5    0    0 -0.85482797723E+01 -0.20636332090E+02  0.12504522212E+03  0.12702456008E+03  0.00000000000E+00 0.  1.
          5    1    4    4  501    0  0.10578709787E+02 -0.35823908052E+02 -0.89442076769E+01  0.38635899625E+02  0.41800000000E+01 0.  1.
         -5    1    4    4    0  501  0.69029946980E+00  0.10005718003E+03 -0.79542061985E+02  0.12789185984E+03  0.41800000000E+01 0.  1.
</event>
<event>
11    1  0.7157190E-009  0.1501457E+03  0.7561462E-02  0.1096730E+00
         22   -1    0    0    0    0  0.00000000000E+00  0.00000000000E+00  0.35394164407E+04  0.35394164407E+04  0.00000000000E+00 0.  1.
         22   -1    0    0    0    0 -0.00000000000E+00 -0.00000000000E+00 -0.60026866621E+02  0.60026866621E+02  0.00000000000E+00 0. -1.
        -24    2    1    2    0    0  0.47746178579E+02  0.66114591552E+02  0.28897246519E+02  0.12340192715E+03  0.87989476547E+02 0.  0.
         25    2    1    2    0    0 -0.22221509184E+02 -0.98101400697E+02  0.52858674619E+03  0.55241982159E+03  0.12508409469E+03 0.  0.
         24    2    1    2    0    0 -0.25524669395E+02  0.31986809145E+02  0.29219055814E+04  0.29236215586E+04  0.91411851918E+02 0.  0.
        -13    1    5    5    0    0 -0.32474056484E+02  0.60871998668E+02  0.22538074546E+04  0.22548631903E+04  0.00000000000E+00 0.  1.
         14    1    5    5    0    0  0.69493870894E+01 -0.28885189523E+02  0.66809812677E+03  0.66875836828E+03  0.00000000000E+00 0. -1.
         13    1    3    3    0    0  0.61313073945E+01  0.31237294505E+02 -0.29684878847E+02  0.43526469309E+02  0.00000000000E+00 0. -1.
        -14    1    3    3    0    0  0.41614871185E+02  0.34877297047E+02  0.58582125365E+02  0.79875457841E+02  0.00000000000E+00 0.  1.
          5    1    4    4  501    0 -0.18497770988E+02  0.18491505028E+02  0.23486470291E+03  0.23635355796E+03  0.41800000000E+01 0. -1.
         -5    1    4    4    0  501 -0.37237381958E+01 -0.11659290572E+03  0.29372204328E+03  0.31606626363E+03  0.41800000000E+01 0. -1.
</event>
<event>
11    1  0.1009579E-008  0.1551210E+03  0.7561462E-02  0.1091758E+00
         22   -1    0    0    0    0  0.00000000000E+00  0.00000000000E+00  0.68178662531E+03  0.68178662531E+03  0.00000000000E+00 0.  1.
         22   -1    0    0    0    0 -0.00000000000E+00 -0.00000000000E+00 -0.76223222521E+03  0.76223222521E+03  0.00000000000E+00 0. -1.
         24    2    1    2    0    0  0.69988092533E+02  0.30812383724E+02 -0.41404765592E+03  0.42795220923E+03  0.76549957020E+02 0.  0.
         25    2    1    2    0    0 -0.12769126965E+03 -0.10068381147E+03 -0.30421053787E+03  0.36691951665E+03  0.12507433834E+03 0.  0.
        -24    2    1    2    0    0  0.57703177118E+02  0.69871427747E+02  0.63781259390E+03  0.64914712463E+03  0.79846173484E+02 0.  0.
        -13    1    3    3    0    0  0.60324845326E+02  0.27606954188E+01 -0.14221318368E+03  0.15450339160E+03  0.00000000000E+00 0.  1.
         14    1    3    3    0    0  0.96632472070E+01  0.28051688305E+02 -0.27183447224E+03  0.27344881762E+03  0.00000000000E+00 0. -1.
         11    1    5    5    0    0 -0.42577754406E+01  0.14824687021E+02  0.17520630097E+02  0.23342503635E+02  0.00000000000E+00 0. -1.
        -12    1    5    5    0    0  0.61960952558E+02  0.55046740727E+02  0.62029196380E+03  0.62580462100E+03  0.00000000000E+00 0.  1.
          5    1    4    4  501    0 -0.10196657334E+03 -0.90863867401E+01 -0.20625776364E+03  0.23030302205E+03  0.41800000000E+01 0. -1.
         -5    1    4    4    0  501 -0.25724696307E+02 -0.91597424731E+02 -0.97952774231E+02  0.13661649460E+03  0.41800000000E+01 0. -1.
</event>
<event>
11    1  0.7157190E-009  0.1386699E+03  0.7561462E-02  0.1109053E+00
         22   -1    0    0    0    0  0.00000000000E+00  0.00000000000E+00  0.19594428140E+04  0.19594428140E+04  0.00000000000E+00 0.  1.
         22   -1    0    0    0    0 -0.00000000000E+00 -0.00000000000E+00 -0.21641000193E+03  0.21641000193E+03  0.00000000000E+00 0. -1.
         24    2    1    2    0    0 -0.16113900789E+02 -0.48492499525E+01 -0.14621686557E+03  0.16768527273E+03  0.80348029768E+02 0.  0.
         25    2    1    2    0    0  0.35954645373E+02  0.61076413286E+02  0.30888939983E+02  0.14705021910E+03  0.12508627239E+03 0.  0.
        -24    2    1    2    0    0 -0.19840744584E+02 -0.56227163333E+02  0.18583607377E+04  0.18611173241E+04  0.81840783245E+02 0.  0.
        -13    1    3    3    0    0  0.29527703880E+02  0.11472569337E+02 -0.76246183615E+02  0.82565038966E+02  0.00000000000E+00 0.  1.
         14    1    3    3    0    0 -0.45641604670E+02 -0.16321819290E+02 -0.69970681958E+02  0.85120233760E+02  0.00000000000E+00 0. -1.
         13    1    5    5    0    0  0.15361745697E+02  0.14613411227E+02  0.29849107426E+03  0.29924313932E+03  0.00000000000E+00 0. -1.
        -14    1    5    5    0    0 -0.35202490281E+02 -0.70840574560E+02  0.15598696634E+04  0.15618741848E+04  0.00000000000E+00 0.  1.
          5    1    4    4  501    0  0.48191251434E+02  0.37705006922E+02 -0.38693713465E+02  0.72517171232E+02  0.41800000000E+01 0.  1.
         -5    1    4    4    0  501 -0.12236606061E+02  0.23371406364E+02  0.69582653448E+02  0.74533047866E+02  0.41800000000E+01 0.  1.
</event>
<event>
11    1  0.7157190E-009  0.6021063E+03  0.7561462E-02  0.9190473E-01
         22   -1    0    0    0    0  0.00000000000E+00  0.00000000000E+00  0.20867265186E+03  0.20867265186E+03  0.00000000000E+00 0. -1.
         22   -1    0    0    0    0 -0.00000000000E+00 -0.00000000000E+00 -0.14722732287E+04  0.14722732287E+04  0.00000000000E+00 0. -1.
        -24    2    1    2    0    0 -0.12125152940E+03 -0.37264850563E+03 -0.88093246029E+03  0.96752677017E+03  0.80605268226E+02 0.  0.
         25    2    1    2    0    0  0.11015693545E+03 -0.48187632500E+02 -0.11318797835E+03  0.20715684141E+03  0.12508333280E+03 0.  0.
         24    2    1    2    0    0  0.11094593947E+02  0.42083613813E+03 -0.26948013814E+03  0.50626226893E+03  0.80347961476E+02 0.  0.
        -13    1    5    5    0    0  0.34675510660E+02  0.36239050899E+03 -0.24416613975E+03  0.43834504201E+03  0.00000000000E+00 0.  1.
         14    1    5    5    0    0 -0.23580916713E+02  0.58445629139E+02 -0.25313998391E+02  0.67917226924E+02  0.00000000000E+00 0. -1.
         13    1    3    3    0    0 -0.88202300438E+02 -0.34641509184E+03 -0.80083565429E+03  0.87699532886E+03  0.00000000000E+00 0. -1.
        -14    1    3    3    0    0 -0.33049228960E+02 -0.26233413792E+02 -0.80096806006E+02  0.90531441315E+02  0.00000000000E+00 0.  1.
          5    1    4    4  501    0  0.10518988089E+02  0.20263327605E+02  0.17511359862E+02  0.29075276099E+02  0.41800000000E+01 0.  1.
         -5    1    4    4    0  501  0.99637947363E+02 -0.68450960105E+02 -0.13069933821E+03  0.17808156531E+03  0.41800000000E+01 0.  1.
</event>
<event>
11    1  0.7157190E-009  0.1769061E+03  0.7561462E-02  0.1072173E+00
         22   -1    0    0    0    0  0.00000000000E+00  0.00000000000E+00  0.23141766642E+03  0.23141766642E+03  0.00000000000E+00 0. -1.
         22   -1    0    0    0    0 -0.00000000000E+00 -0.00000000000E+00 -0.70344457462E+03  0.70344457462E+03  0.00000000000E+00 0. -1.
         24    2    1    2    0    0 -0.68146934786E+02 -0.13137723498E+02 -0.57487503443E+03  0.58470539585E+03  0.81132547305E+02 0.  0.
         25    2    1    2    0    0 -0.36376937453E+02  0.10791631804E+03  0.34891055197E+02  0.17272550410E+03  0.12508997065E+03 0.  0.
        -24    2    1    2    0    0  0.10452387224E+03 -0.94778594545E+02  0.67957071036E+02  0.17743134108E+03  0.83399612969E+02 0.  0.
        -13    1    3    3    0    0 -0.27755463482E+02  0.26665786690E+02 -0.11328404830E+03  0.11964407855E+03  0.00000000000E+00 0.  1.
         14    1    3    3    0    0 -0.40391471304E+02 -0.39803510188E+02 -0.46159098613E+03  0.46506131730E+03  0.00000000000E+00 0. -1.
         11    1    5    5    0    0  0.10165287476E+03 -0.98933514234E+02  0.81068632626E+02  0.16338075279E+03  0.00000000000E+00 0. -1.
        -12    1    5    5    0    0  0.28709974813E+01  0.41549196898E+01 -0.13111561590E+02  0.14050588297E+02  0.00000000000E+00 0.  1.
          5    1    4    4  501    0 -0.71687119947E+02  0.20323480983E+02  0.15146978539E+02  0.76151102450E+02  0.41800000000E+01 0.  1.
         -5    1    4    4    0  501  0.35310182494E+02  0.87592837060E+02  0.19744076658E+02  0.96574401655E+02  0.41800000000E+01 0.  1.
</event>
<event>
11    1  0.7157190E-009  0.1552926E+03  0.7561462E-02  0.1091590E+00
         22   -1    0    0    0    0  0.00000000000E+00  0.00000000000E+00  0.45607511036E+03  0.45607511036E+03  0.00000000000E+00 0. -1.
         22   -1    0    0    0    0 -0.00000000000E+00 -0.00000000000E+00 -0.20981541030E+03  0.20981541030E+03  0.00000000000E+00 0.  1.
        -24    2    1    2    0    0  0.20865473385E+02 -0.34187947400E+02 -0.15245443490E+03  0.17702090773E+03  0.80559687962E+02 0.  0.
         25    2    1    2    0    0  0.21583681062E+02  0.10663339566E+03  0.21561713338E+03  0.27198318420E+03  0.12509023912E+03 0.  0.
         24    2    1    2    0    0 -0.42449154447E+02 -0.72445448263E+02  0.18309700158E+03  0.21688642873E+03  0.80404833751E+02 0.  0.
        -13    1    5    5    0    0 -0.15896310242E+02 -0.38914072604E+02  0.16953428597E+02  0.45325671171E+02  0.00000000000E+00 0.  1.
         14    1    5    5    0    0 -0.26552844204E+02 -0.33531375659E+02  0.16614357299E+03  0.17156075756E+03  0.00000000000E+00 0. -1.
         13    1    3    3    0    0 -0.15296138228E+02 -0.45230819992E+02 -0.57031402665E+02  0.74379969157E+02  0.00000000000E+00 0. -1.
        -14    1    3    3    0    0  0.36161611613E+02  0.11042872592E+02 -0.95423032236E+02  0.10264093857E+03  0.00000000000E+00 0.  1.
          5    1    4    4  501    0  0.32474051440E+02 -0.30370269620E+01  0.12496681061E+03  0.12922060093E+03  0.41800000000E+01 0. -1.
         -5    1    4    4    0  501 -0.10890370378E+02  0.10967042263E+03  0.90650322770E+02  0.14276258328E+03  0.41800000000E+01 0. -1.
</event>
<event>
11    1  0.7157190E-009  0.1518044E+03  0.7561462E-02  0.1095049E+00
         22   -1    0    0    0    0  0.00000000000E+00  0.00000000000E+00  0.13446465153E+04  0.13446465153E+04  0.00000000000E+00 0. -1.
         22   -1    0    0    0    0 -0.00000000000E+00 -0.00000000000E+00 -0.65257207864E+03  0.65257207864E+03  0.00000000000E+00 0.  1.
         24    2    1    2    0    0  0.43418489377E+02 -0.18938972849E+02 -0.62922245323E+03  0.63612190275E+03  0.80537752568E+02 0.  0.
         25    2    1    2    0    0 -0.52047081647E+02  0.99835878228E+02  0.41990378124E+03  0.45237460262E+03  0.12508994485E+03 0.  0.
        -24    2    1    2    0    0  0.86285922695E+01 -0.80896905378E+02  0.90139310870E+03  0.90872208862E+03  0.81532423209E+02 0.  0.
        -11    1    3    3    0    0  0.38241659246E+02  0.12230102743E+02 -0.53962491206E+03  0.54111648065E+03  0.00000000000E+00 0.  1.
         12    1    3    3    0    0  0.51768301317E+01 -0.31169075592E+02 -0.89597541170E+02  0.95005422094E+02  0.00000000000E+00 0. -1.
         13    1    5    5    0    0  0.22265825588E+02 -0.93487201082E+02  0.78454734907E+03  0.79041139079E+03  0.00000000000E+00 0. -1.
        -14    1    5    5    0    0 -0.13637233318E+02  0.12590295704E+02  0.11684575963E+03  0.11831069783E+03  0.00000000000E+00 0.  1.
          5    1    4    4  501    0 -0.47679059215E+02 -0.16174507479E+02  0.10012379562E+03  0.11214791228E+03  0.41800000000E+01 0. -1.
         -5    1    4    4    0  501 -0.43680224322E+01  0.11601038571E+03  0.31977998562E+03  0.34022669033E+03  0.41800000000E+01 0. -1.
</event>
<event>
11    1  0.7157190E-009  0.1389790E+03  0.7561462E-02  0.1108704E+00
         22   -1    0    0    0    0  0.00000000000E+00  0.00000000000E+00  0.30053216529E+03  0.30053216529E+03  0.00000000000E+00 0.  1.
         22   -1    0    0    0    0 -0.00000000000E+00 -0.00000000000E+00 -0.82092405238E+03  0.82092405238E+03  0.00000000000E+00 0.  1.
         24    2    1    2    0    0 -0.58038345537E+02  0.16176006251E+02 -0.63099353659E+03  0.63912394295E+03  0.81831891715E+02 0.  0.
         25    2    1    2    0    0  0.51699903623E+02 -0.44811480339E+02 -0.15078955290E+03  0.20752364789E+03  0.12509047272E+03 0.  0.
        -24    2    1    2    0    0  0.63384419145E+01  0.28635474089E+02  0.26139120240E+03  0.27480862684E+03  0.79588029685E+02 0.  0.
        -11    1    3    3    0    0 -0.37574598583E+02  0.37096492060E+02 -0.55784809438E+03  0.56034141073E+03  0.00000000000E+00 0.  1.
         12    1    3    3    0    0 -0.20463746954E+02 -0.20920485810E+02 -0.73145442212E+02  0.78782532216E+02  0.00000000000E+00 0. -1.
         11    1    5    5    0    0  0.31491109186E+02  0.43853532948E+02  0.14387839094E+03  0.15367437551E+03  0.00000000000E+00 0. -1.
        -12    1    5    5    0    0 -0.25152667272E+02 -0.15218058860E+02  0.11751281146E+03  0.12113425132E+03  0.00000000000E+00 0.  1.
          5    1    4    4  501    0  0.76374923356E+02 -0.27049914746E+02 -0.36102135654E+02  0.88801257897E+02  0.41800000000E+01 0.  1.
         -5    1    4    4    0  501 -0.24675019733E+02 -0.17761565593E+02 -0.11468741725E+03  0.11872238999E+03  0.41800000000E+01 0.  1.
</event>
<event>
11    1  0.7157190E-009  0.1402670E+03  0.7561462E-02  0.1107261E+00
         22   -1    0    0    0    0  0.00000000000E+00  0.00000000000E+00  0.45526321177E+03  0.45526321177E+03  0.00000000000E+00 0.  1.
         22   -1    0    0    0    0 -0.00000000000E+00 -0.00000000000E+00 -0.24566272821E+03  0.24566272821E+03  0.00000000000E+00 0. -1.
         24    2    1    2    0    0  0.25790877479E+02  0.62770864367E+02 -0.14229066454E+03  0.17584946464E+03  0.77916944401E+02 0.  0.
         25    2    1    2    0    0 -0.86478951714E+02 -0.65142234752E+02  0.76591517456E+01  0.16562003373E+03  0.12509681503E+03 0.  0.
        -24    2    1    2    0    0  0.60688074235E+02  0.23713703850E+01  0.34423199635E+03  0.35945644161E+03  0.83812888944E+02 0.  0.
        -11    1    3    3    0    0 -0.34834819277E+01  0.39193343399E+02 -0.13073034599E+03  0.13652353708E+03  0.00000000000E+00 0.  1.
         12    1    3    3    0    0  0.29274359406E+02  0.23577520967E+02 -0.11560318545E+02  0.39325927561E+02  0.00000000000E+00 0. -1.
         13    1    5    5    0    0  0.49029430837E+02  0.19687772827E+02  0.89951525183E+02  0.10432051749E+03  0.00000000000E+00 0. -1.
        -14    1    5    5    0    0  0.11658643398E+02 -0.17316402442E+02  0.25428047117E+03  0.25513592412E+03  0.00000000000E+00 0.  1.
          5    1    4    4  501    0  0.29891805765E+02 -0.68655795259E+01  0.16553970067E+02  0.35102173139E+02  0.41800000000E+01 0. -1.
         -5    1    4    4    0  501 -0.11637075748E+03 -0.58276655226E+02 -0.88948183209E+01  0.13051786059E+03  0.41800000000E+01 0. -1.
</event>
<event>
11    1  0.7157190E-009  0.1305657E+03  0.7561462E-02  0.1118576E+00
         22   -1    0    0    0    0  0.00000000000E+00  0.00000000000E+00  0.34060255962E+03  0.34060255962E+03  0.00000000000E+00 0. -1.
         22   -1    0    0    0    0 -0.00000000000E+00 -0.00000000000E+00 -0.16807775212E+04  0.16807775212E+04  0.00000000000E+00 0.  1.
         24    2    1    2    0    0 -0.36887718870E+02 -0.11329751305E+02 -0.15086388314E+04  0.15112096755E+04  0.79211694773E+02 0.  0.
         25    2    1    2    0    0  0.18124851704E+02 -0.72324113363E+01 -0.14119131503E+03  0.18963998422E+03  0.12509004018E+03 0.  0.
        -24    2    1    2    0    0  0.18762867166E+02  0.18562162642E+02  0.30965518482E+03  0.32053042114E+03  0.78465395743E+02 0.  0.
        -11    1    3    3    0    0 -0.37426161596E+02 -0.34968821338E+02 -0.13333255697E+04  0.13343090387E+04  0.00000000000E+00 0.  1.
         12    1    3    3    0    0  0.53844272591E+00  0.23639070032E+02 -0.17531326172E+03  0.17690063677E+03  0.00000000000E+00 0. -1.
         11    1    5    5    0    0  0.40587285587E+02 -0.69892589930E+01  0.23607096091E+03  0.23963654997E+03  0.00000000000E+00 0. -1.
        -12    1    5    5    0    0 -0.21824418421E+02  0.25551421635E+02  0.73584223903E+02  0.80893871179E+02  0.00000000000E+00 0.  1.
          5    1    4    4  501    0 -0.48434063559E+02 -0.20225675606E+02 -0.91119784464E+02  0.10523889009E+03  0.41800000000E+01 0.  1.
         -5    1    4    4    0  501  0.66558915263E+02  0.12993264270E+02 -0.50071530562E+02  0.84401094129E+02  0.41800000000E+01 0.  1.
</event>
<event>
11    1  0.7157190E-009  0.1341510E+03  0.7561462E-02  0.1114271E+00
         22   -1    0    0    0    0  0.00000000000E+00  0.00000000000E+00  0.31031267919E+03  0.31031267919E+03  0.00000000000E+00 0.  1.
         22   -1    0    0    0    0 -0.00000000000E+00 -0.00000000000E+00 -0.72234261000E+03  0.72234261000E+03  0.00000000000E+00 0.  1.
        -24    2    1    2    0    0  0.23504196088E+02 -0.23444760099E+02 -0.59581453341E+03  0.60372002019E+03  0.91546712351E+02 0.  0.
         25    2    1    2    0    0 -0.16041501672E+02 -0.26856712250E+02 -0.74089272152E+02  0.14871521207E+03  0.12509349018E+03 0.  0.
         24    2    1    2    0    0 -0.74626944154E+01  0.50301472349E+02  0.25787387475E+03  0.28022005692E+03  0.97151505881E+02 0.  0.
        -13    1    5    5    0    0 -0.68688340090E+01  0.61038059383E+02  0.26169614992E+03  0.26880792484E+03  0.00000000000E+00 0.  1.
         14    1    5    5    0    0 -0.59386040641E+00 -0.10736587034E+02 -0.38222751656E+01  0.11412132087E+02  0.00000000000E+00 0. -1.
         11    1    3    3    0    0  0.13607784026E+02 -0.22116005773E+02 -0.39227647749E+02  0.47043573901E+02  0.00000000000E+00 0. -1.
        -12    1    3    3    0    0  0.98964120615E+01 -0.13287543260E+01 -0.55658688566E+03  0.55667644629E+03  0.00000000000E+00 0.  1.
          5    1    4    4  501    0  0.22164222007E+01  0.47673507692E+02 -0.47322797340E+02  0.67339404594E+02  0.41800000000E+01 0. -1.
         -5    1    4    4    0  501 -0.18257923873E+02 -0.74530219942E+02 -0.26766474812E+02  0.81375807477E+02  0.41800000000E+01 0. -1.
</event>
<event>
11    1  0.7157190E-009  0.1618761E+03  0.7561462E-02  0.1085326E+00
         22   -1    0    0    0    0  0.00000000000E+00  0.00000000000E+00  0.10207471939E+04  0.10207471939E+04  0.00000000000E+00 0.  1.
         22   -1    0    0    0    0 -0.00000000000E+00 -0.00000000000E+00 -0.12605878639E+04  0.12605878639E+04  0.00000000000E+00 0.  1.
         24    2    1    2    0    0  0.95597285019E+02 -0.35643645149E+02 -0.12125949329E+04  0.12195482346E+04  0.80635692655E+02 0.  0.
         25    2    1    2    0    0 -0.34769740387E+02 -0.58815786541E+02  0.90603620059E+02  0.16888911469E+03  0.12508511302E+03 0.  0.
        -24    2    1    2    0    0 -0.60827544632E+02  0.94459431690E+02  0.88215064283E+03  0.89289770853E+03  0.80336709153E+02 0.  0.
        -11    1    3    3    0    0  0.33539726911E+02 -0.52871017269E+02 -0.46733629363E+03  0.47151189708E+03  0.00000000000E+00 0.  1.
         12    1    3    3    0    0  0.62057558108E+02  0.17227372120E+02 -0.74525863928E+03  0.74803633755E+03  0.00000000000E+00 0. -1.
         11    1    5    5    0    0 -0.30286949880E+02 -0.38398441502E+01  0.11978068102E+03  0.12361009377E+03  0.00000000000E+00 0. -1.
        -12    1    5    5    0    0 -0.30540594752E+02  0.98299275840E+02  0.76236996181E+03  0.76928761477E+03  0.00000000000E+00 0.  1.
          5    1    4    4  501    0 -0.67069988860E+02 -0.57225280970E+02  0.19108798744E+02  0.90309106834E+02  0.41800000000E+01 0.  1.
         -5    1    4    4    0  501  0.32300248473E+02 -0.15905055712E+01  0.71494821315E+02  0.78580007854E+02  0.41800000000E+01 0.  1.
</event>
<event>
11    1  0.7157190E-009  0.2497771E+03  0.7561462E-02  0.1024018E+00
         22   -1    0    0    0    0  0.00000000000E+00  0.00000000000E+00  0.23163279862E+04  0.23163279862E+04  0.00000000000E+00 0. -1.
         22   -1    0    0    0    0 -0.00000000000E+00 -0.00000000000E+00 -0.99167794021E+03  0.99167794021E+03  0.00000000000E+00 0. -1.
         24    2    1    2    0    0  0.30607018179E+02 -0.63934317050E+01 -0.83904613360E+03  0.84342134262E+03  0.79896691633E+02 0.  0.
         25    2    1    2    0    0 -0.21926951690E+03 -0.97247832833E+02 -0.17835876183E+02  0.27110993379E+03  0.12508483397E+03 0.  0.
        -24    2    1    2    0    0  0.18866249872E+03  0.10364126454E+03  0.21815320557E+04  0.21934746500E+04  0.76901753240E+02 0.  0.
        -13    1    3    3    0    0  0.61227350058E+01  0.33930084534E+02 -0.48849325551E+03  0.48970848390E+03  0.00000000000E+00 0.  1.
         14    1    3    3    0    0  0.24484283174E+02 -0.40323516239E+02 -0.35055287809E+03  0.35371285872E+03  0.00000000000E+00 0. -1.
         13    1    5    5    0    0  0.12782980735E+03  0.10778277739E+03  0.15392709647E+04  0.15483257699E+04  0.00000000000E+00 0. -1.
        -14    1    5    5    0    0  0.60832691374E+02 -0.41415128537E+01  0.64226109100E+03  0.64514888009E+03  0.00000000000E+00 0.  1.
          5    1    4    4  501    0 -0.16090189549E+03 -0.88648879687E+01  0.10021852180E+02  0.16151134985E+03  0.41800000000E+01 0. -1.
         -5    1    4    4    0  501 -0.58367621415E+02 -0.88382944865E+02 -0.27857728363E+02  0.10959858394E+03  0.41800000000E+01 0. -1.
</event>
<event>
11    1  0.7157190E-009  0.1425009E+03  0.7561462E-02  0.1104797E+00
         22   -1    0    0    0    0  0.00000000000E+00  0.00000000000E+00  0.57249558947E+03  0.57249558947E+03  0.00000000000E+00 0.  1.
         22   -1    0    0    0    0 -0.00000000000E+00 -0.00000000000E+00 -0.63970554890E+03  0.63970554890E+03  0.00000000000E+00 0.  1.
        -24    2    1    2    0    0  0.26597241500E+02  0.27289264269E+02 -0.56008722496E+03  0.56736766436E+03  0.82196409944E+02 0.  0.
         25    2    1    2    0    0 -0.39611746646E+02  0.41334239826E+02 -0.30547793915E+01  0.13760049587E+03  0.12508778890E+03 0.  0.
         24    2    1    2    0    0  0.13014505146E+02 -0.68623504095E+02  0.49593204493E+03  0.50723297814E+03  0.80362542685E+02 0.  0.
        -11    1    5    5    0    0  0.98819535780E+00 -0.78947463745E+02  0.28583461939E+03  0.29653854422E+03  0.00000000000E+00 0.  1.
         12    1    5    5    0    0  0.12026309788E+02  0.10323959650E+02  0.21009742553E+03  0.21069443392E+03  0.00000000000E+00 0. -1.
         11    1    3    3    0    0  0.13226700646E+02  0.42481627393E+02 -0.14237045582E+03  0.14916092305E+03  0.00000000000E+00 0. -1.
        -12    1    3    3    0    0  0.13370540854E+02 -0.15192363124E+02 -0.41771676914E+03  0.41820674131E+03  0.00000000000E+00 0.  1.
          5    1    4    4  501    0  0.40484857659E+02  0.39903859298E+02  0.35630506247E+01  0.57109626301E+02  0.41800000000E+01 0. -1.
         -5    1    4    4    0  501 -0.80096604304E+02  0.14303805282E+01 -0.66178300162E+01  0.80490869567E+02  0.41800000000E+01 0. -1.
</event>
<event>
11    1  0.7157190E-009  0.1369624E+03  0.7561462E-02  0.1110999E+00
         22   -1    0    0    0    0  0.00000000000E+00  0.00000000000E+00  0.12138715925E+04  0.12138715925E+04  0.00000000000E+00 0. -1.
         22   -1    0    0    0    0 -0.00000000000E+00 -0.00000000000E+00 -0.31759102496E+03  0.31759102496E+03  0.00000000000E+00 0. -1.
        -24    2    1    2    0    0  0.43016051884E+02  0.11737531920E+02 -0.13278556831E+03  0.16190537347E+03  0.81198475553E+02 0.  0.
         25    2    1    2    0    0 -0.75102640973E+02 -0.31857651716E+02 -0.13537453309E+03  0.20157037290E+03  0.12509610053E+03 0.  0.
         24    2    1    2    0    0  0.32086589089E+02  0.20120119796E+02  0.11644406689E+04  0.11679868711E+04  0.82685495224E+02 0.  0.
        -11    1    5    5    0    0 -0.77673402082E+01  0.17884877554E+02  0.65972399671E+02  0.68793589363E+02  0.00000000000E+00 0.  1.
         12    1    5    5    0    0  0.39853929297E+02  0.22352422421E+01  0.10984682693E+04  0.10991932817E+04  0.00000000000E+00 0. -1.
         13    1    3    3    0    0  0.21680820097E+02  0.44005168359E+02 -0.99240604233E+02  0.11070325348E+03  0.00000000000E+00 0. -1.
        -14    1    3    3    0    0  0.21335231787E+02 -0.32267636438E+02 -0.33544964077E+02  0.51202119992E+02  0.00000000000E+00 0.  1.
          5    1    4    4  501    0  0.51248540145E+01  0.17258475539E+02  0.15232627454E+02  0.23950458153E+02  0.41800000000E+01 0. -1.
         -5    1    4    4    0  501 -0.80227494988E+02 -0.49116127255E+02 -0.15060716054E+03  0.17761991475E+03  0.41800000000E+01 0. -1.
</event>
<event>
11    1  0.7157190E-009  0.1412697E+03  0.7561462E-02  0.1106149E+00
         22   -1    0    0    0    0  0.00000000000E+00  0.00000000000E+00  0.31418064668E+03  0.31418064668E+03  0.00000000000E+00 0.  1.
         22   -1    0    0    0    0 -0.00000000000E+00 -0.00000000000E+00 -0.65743746130E+03  0.65743746130E+03  0.00000000000E+00 0. -1.
         24    2    1    2    0    0  0.16762807735E+02  0.38803369540E+02 -0.21697095577E+03  0.23628595446E+03  0.83474327900E+02 0.  0.
         25    2    1    2    0    0 -0.21951047705E+02  0.27449222250E+02 -0.41148254143E+03  0.43150962951E+03  0.12508944865E+03 0.  0.
        -24    2    1    2    0    0  0.51882399699E+01 -0.66252591790E+02  0.28519668258E+03  0.30382252401E+03  0.80960821343E+02 0.  0.
        -11    1    3    3    0    0 -0.21173747249E+00 -0.25561280784E+02 -0.43123592491E+02  0.50130511043E+02  0.00000000000E+00 0.  1.
         12    1    3    3    0    0  0.16974545208E+02  0.64364650324E+02 -0.17384736328E+03  0.18615544342E+03  0.00000000000E+00 0. -1.
         13    1    5    5    0    0  0.32939708283E+01 -0.31332556831E+02  0.22272902595E+02  0.38583177052E+02  0.00000000000E+00 0. -1.
        -14    1    5    5    0    0  0.18942691416E+01 -0.34920034959E+02  0.26292377998E+03  0.26523934696E+03  0.00000000000E+00 0.  1.
          5    1    4    4  501    0  0.21242334446E+02  0.17030531474E+01 -0.54982968359E+01  0.22401804187E+02  0.41800000000E+01 0. -1.
         -5    1    4    4    0  501 -0.43193382151E+02  0.25746169102E+02 -0.40598424459E+03  0.40910782532E+03  0.41800000000E+01 0. -1.
</event>
<event>
11    1  0.7157190E-009  0.1336935E+03  0.7561462E-02  0.1114812E+00
         22   -1    0    0    0    0  0.00000000000E+00  0.00000000000E+00  0.12360679273E+04  0.12360679273E+04  0.00000000000E+00 0. -1.
         22   -1    0    0    0    0 -0.00000000000E+00 -0.00000000000E+00 -0.34394697292E+03  0.34394697292E+03  0.00000000000E+00 0.  1.
         24    2    1    2    0    0  0.36296891539E+01  0.47313192391E+02 -0.29661567014E+03  0.31067680784E+03  0.79293822830E+02 0.  0.
         25    2    1    2    0    0 -0.26485499644E+02 -0.40616683389E+02  0.76871331036E+02  0.15462074131E+03  0.12508867034E+03 0.  0.
        -24    2    1    2    0    0  0.22855810490E+02 -0.66965090021E+01  0.11118652934E+04  0.11147173510E+04  0.76046765725E+02 0.  0.
        -13    1    3    3    0    0 -0.14223223389E+02  0.64279723898E+02 -0.24142023748E+03  0.25023571698E+03  0.00000000000E+00 0.  1.
         14    1    3    3    0    0  0.17852912543E+02 -0.16966531507E+02 -0.55195432664E+02  0.60441090862E+02  0.00000000000E+00 0. -1.
         11    1    5    5    0    0  0.24773930104E+02 -0.22591790553E+02  0.10578000807E+04  0.10583313032E+04  0.00000000000E+00 0. -1.
        -12    1    5    5    0    0 -0.19181196141E+01  0.15895281551E+02  0.54065212757E+02  0.56386047822E+02  0.00000000000E+00 0.  1.
          5    1    4    4  501    0 -0.52297530872E+02 -0.67737859031E+02  0.79466158882E+02  0.11685799968E+03  0.41800000000E+01 0.  1.
         -5    1    4    4    0  501  0.25812031228E+02  0.27121175642E+02 -0.25948278458E+01  0.37762741636E+02  0.41800000000E+01 0.  1.
</event>
<event>
11    1  0.7157190E-009  0.3066607E+03  0.7561462E-02  0.9974110E-01
         22   -1    0    0    0    0  0.00000000000E+00  0.00000000000E+00  0.14458892306E+04  0.14458892306E+04  0.00000000000E+00 0.  1.
         22   -1    0    0    0    0 -0.00000000000E+00 -0.00000000000E+00 -0.13393148797E+04  0.13393148797E+04  0.00000000000E+00 0.  1.
         24    2    1    2    0    0 -0.12292406077E+02 -0.28204554080E+03 -0.12943567657E+04  0.13273381217E+04  0.82257291461E+02 0.  0.
         25    2    1    2    0    0  0.48210926815E+02  0.19579875285E+03  0.55816917927E+03  0.60651717913E+03  0.12509520696E+03 0.  0.
        -24    2    1    2    0    0 -0.35918520739E+02  0.86246787948E+02  0.84276193742E+03  0.85134880950E+03  0.76278854905E+02 0.  0.
        -13    1    3    3    0    0 -0.78017483659E+01 -0.28274739780E+03 -0.12911645033E+04  0.13217839207E+04  0.00000000000E+00 0.  1.
         14    1    3    3    0    0 -0.44906577107E+01  0.70185700133E+00 -0.31922623740E+01  0.55542010217E+01  0.00000000000E+00 0. -1.
         13    1    5    5    0    0  0.16231159948E+02  0.14371406996E+02  0.64693225502E+02  0.68229035741E+02  0.00000000000E+00 0. -1.
        -14    1    5    5    0    0 -0.52149680687E+02  0.71875380953E+02  0.77806871192E+03  0.78311977376E+03  0.00000000000E+00 0.  1.
          5    1    4    4  501    0  0.86896445666E+02  0.16044031538E+03  0.39590165028E+03  0.43594457924E+03  0.41800000000E+01 0. -1.
         -5    1    4    4    0  501 -0.38685518851E+02  0.35358437472E+02  0.16226752899E+03  0.17057259989E+03  0.41800000000E+01 0. -1.
</event>
<event>
11    1  0.7157190E-009  0.1347467E+03  0.7561462E-02  0.1113571E+00
         22   -1    0    0    0    0  0.00000000000E+00  0.00000000000E+00  0.21326254873E+04  0.21326254873E+04  0.00000000000E+00 0. -1.
         22   -1    0    0    0    0 -0.00000000000E+00 -0.00000000000E+00 -0.10963080115E+03  0.10963080115E+03  0.00000000000E+00 0.  1.
        -24    2    1    2    0    0  0.38784090278E+02  0.29607019928E+02 -0.68930800606E+02  0.11676489349E+03  0.80633763347E+02 0.  0.
         25    2    1    2    0    0 -0.49209727834E+02 -0.47101009806E+02  0.31022399331E+03  0.34136025984E+03  0.12509116090E+03 0.  0.
         24    2    1    2    0    0  0.10425637556E+02  0.17493989879E+02  0.17817014935E+04  0.17841311352E+04  0.90823796197E+02 0.  0.
        -11    1    5    5    0    0 -0.99570805136E+01 -0.21476795402E+02  0.15165689232E+03  0.15349335223E+03  0.00000000000E+00 0.  1.
         12    1    5    5    0    0  0.20382718069E+02  0.38970785280E+02  0.16300446012E+04  0.16306377829E+04  0.00000000000E+00 0. -1.
         13    1    3    3    0    0 -0.24845544969E+02  0.77153423708E+01 -0.26922094661E+02  0.37438306501E+02  0.00000000000E+00 0. -1.
        -14    1    3    3    0    0  0.63629635247E+02  0.21891677557E+02 -0.42008705944E+02  0.79326586987E+02  0.00000000000E+00 0.  1.
          5    1    4    4  501    0 -0.81736263351E+02 -0.64616370104E+02  0.21004067290E+03  0.23450085011E+03  0.41800000000E+01 0.  1.
         -5    1    4    4    0  501  0.32526535517E+02  0.17515360298E+02  0.10018332041E+03  0.10685940973E+03  0.41800000000E+01 0.  1.
</event>
<event>
11    1  0.7157190E-009  0.1797576E+03  0.7561462E-02  0.1069839E+00
         22   -1    0    0    0    0  0.00000000000E+00  0.00000000000E+00  0.47362242699E+03  0.47362242699E+03  0.00000000000E+00 0. -1.
         22   -1    0    0    0    0 -0.00000000000E+00 -0.00000000000E+00 -0.82967834877E+03  0.82967834877E+03  0.00000000000E+00 0. -1.
         24    2    1    2    0    0  0.47037487324E+02  0.77641535621E+02 -0.65305396931E+03  0.66436304899E+03  0.81596818329E+02 0.  0.
         25    2    1    2    0    0 -0.55080958637E+02  0.57292851112E+02 -0.12195113418E+03  0.19191614346E+03  0.12507335527E+03 0.  0.
        -24    2    1    2    0    0  0.80434713133E+01 -0.13493438673E+03  0.41894918171E+03  0.44702158332E+03  0.77703879828E+02 0.  0.
        -11    1    3    3    0    0  0.30732948761E+01  0.75415132593E+02 -0.34349384308E+03  0.35168865151E+03  0.00000000000E+00 0.  1.
         12    1    3    3    0    0  0.43964192448E+02  0.22264030281E+01 -0.30956012623E+03  0.31267439748E+03  0.00000000000E+00 0. -1.
         13    1    5    5    0    0  0.39415743055E+02 -0.43476329246E+02  0.14051241632E+03  0.15227452559E+03  0.00000000000E+00 0. -1.
        -14    1    5    5    0    0 -0.31372271741E+02 -0.91458057487E+02  0.27843676540E+03  0.29474705773E+03  0.00000000000E+00 0.  1.
          5    1    4    4  501    0  0.19002267387E+02  0.16649813071E+02  0.15922498978E+02  0.30154615150E+02  0.41800000000E+01 0. -1.
         -5    1    4    4    0  501 -0.74083226025E+02  0.40643038041E+02 -0.13787363316E+03  0.16176152831E+03  0.41800000000E+01 0. -1.
</event>
<event>
11    1  0.7157190E-009  0.1585397E+03  0.7561462E-02  0.1088459E+00
         22   -1    0    0    0    0  0.00000000000E+00  0.00000000000E+00  0.18362871800E+04  0.18362871800E+04  0.00000000000E+00 0. -1.
         22   -1    0    0    0    0 -0.00000000000E+00 -0.00000000000E+00 -0.24495717483E+03  0.24495717483E+03  0.00000000000E+00 0.  1.
         24    2    1    2    0    0  0.11211429282E+02 -0.69682381746E+02 -0.19697263650E+03  0.22615940323E+03  0.85840116878E+02 0.  0.
         25    2    1    2    0    0 -0.10237874374E+03  0.32506207175E+02  0.18923379387E+03  0.25099122322E+03  0.12509638170E+03 0.  0.
        -24    2    1    2    0    0  0.91167314458E+02  0.37176174571E+02  0.15990688478E+04  0.16040937283E+04  0.80012263301E+02 0.  0.
        -11    1    3    3    0    0  0.37554220481E+02 -0.67949415130E+02 -0.10571942386E+03  0.13116416841E+03  0.00000000000E+00 0.  1.
         12    1    3    3    0    0 -0.26342791199E+02 -0.17329666166E+01 -0.91253212640E+02  0.94995234820E+02  0.00000000000E+00 0. -1.
         13    1    5    5    0    0  0.49233472787E+02  0.49492698278E+02  0.12972370821E+04  0.12991141248E+04  0.00000000000E+00 0. -1.
        -14    1    5    5    0    0  0.41933841672E+02 -0.12316523707E+02  0.30183176564E+03  0.30497960356E+03  0.00000000000E+00 0.  1.
          5    1    4    4  501    0 -0.34399065315E+02  0.72798698688E+02  0.12649348247E+03  0.15000339907E+03  0.41800000000E+01 0.  1.
         -5    1    4    4    0  501 -0.67979678425E+02 -0.40292491513E+02  0.62740311409E+02  0.10098782415E+03  0.41800000000E+01 0.  1.
</event>
<event>
11    1  0.7157190E-009  0.1376869E+03  0.7561462E-02  0.1110169E+00
         22   -1    0    0    0    0  0.00000000000E+00  0.00000000000E+00  0.38497843493E+03  0.38497843493E+03  0.00000000000E+00 0.  1.
         22   -1    0    0    0    0 -0.00000000000E+00 -0.00000000000E+00 -0.16470725881E+03  0.16470725881E+03  0.00000000000E+00 0. -1.
        -24    2    1    2    0    0  0.29195860603E+01 -0.16704387110E+02 -0.96669204113E+02  0.12744465945E+03  0.81299727356E+02 0.  0.
         25    2    1    2    0    0 -0.40827836631E+01  0.71170574773E+02  0.77433845412E+02  0.16347476853E+03  0.12508429036E+03 0.  0.
         24    2    1    2    0    0  0.11631976028E+01 -0.54466187663E+02  0.23950653482E+03  0.25876626576E+03  0.81416714791E+02 0.  0.
        -13    1    5    5    0    0 -0.36795193260E+02 -0.41377874999E+02  0.10955217366E+03  0.12275053376E+03  0.00000000000E+00 0.  1.
         14    1    5    5    0    0  0.37958390863E+02 -0.13088312664E+02  0.12995436116E+03  0.13601573200E+03  0.00000000000E+00 0. -1.
         11    1    3    3    0    0  0.31629304535E+01 -0.26115427229E+02 -0.10888755080E+03  0.11202016956E+03  0.00000000000E+00 0. -1.
        -12    1    3    3    0    0 -0.24334439321E+00  0.94110401188E+01  0.12218346691E+02  0.15424489893E+02  0.00000000000E+00 0.  1.
          5    1    4    4  501    0  0.21869311065E+02  0.89425426252E+01  0.91397386423E+02  0.94494393908E+02  0.41800000000E+01 0.  1.
         -5    1    4    4    0  501 -0.25952094728E+02  0.62228032148E+02 -0.13963541011E+02  0.68980374625E+02  0.41800000000E+01 0.  1.
</event>
<event>
11    1  0.7157190E-009  0.1275827E+03  0.7561462E-02  0.1122275E+00
         22   -1    0    0    0    0  0.00000000000E+00  0.00000000000E+00  0.72263239308E+03  0.72263239308E+03  0.00000000000E+00 0. -1.
         22   -1    0    0    0    0 -0.00000000000E+00 -0.00000000000E+00 -0.19831882525E+03  0.19831882525E+03  0.00000000000E+00 0. -1.
        -24    2    1    2    0    0 -0.18351888170E+02 -0.30051005014E+02 -0.14406394218E+03  0.16625674103E+03  0.75146721824E+02 0.  0.
         25    2    1    2    0    0 -0.32777326831E+01  0.42713076360E+02  0.68257052057E+02  0.14879515479E+03  0.12508326231E+03 0.  0.
         24    2    1    2    0    0  0.21629620853E+02 -0.12662071345E+02  0.60012045794E+03  0.60589932251E+03  0.79632006310E+02 0.  0.
        -11    1    5    5    0    0 -0.28889183438E+02  0.83983731266E+00  0.15065074481E+03  0.15339796986E+03  0.00000000000E+00 0.  1.
         12    1    5    5    0    0  0.50518804290E+02 -0.13501908658E+02  0.44946971314E+03  0.45250135265E+03  0.00000000000E+00 0. -1.
         11    1    3    3    0    0  0.13854160575E+02 -0.64564318317E+01 -0.11706939166E+03  0.11806297362E+03  0.00000000000E+00 0. -1.
        -12    1    3    3    0    0 -0.32206048745E+02 -0.23594573182E+02 -0.26994550521E+02  0.48193767411E+02  0.00000000000E+00 0.  1.
          5    1    4    4  501    0  0.45135715218E+02 -0.20194014973E+02  0.42207452748E+02  0.65145778807E+02  0.41800000000E+01 0.  1.
         -5    1    4    4    0  501 -0.48413447901E+02  0.62907091333E+02  0.26049599309E+02  0.83649375980E+02  0.41800000000E+01 0.  1.
</event>
<event>
11    1  0.7157190E-009  0.1600843E+03  0.7561462E-02  0.1086998E+00
         22   -1    0    0    0    0  0.00000000000E+00  0.00000000000E+00  0.24782364436E+03  0.24782364436E+03  0.00000000000E+00 0. -1.
         22   -1    0    0    0    0 -0.00000000000E+00 -0.00000000000E+00 -0.41157125723E+03  0.41157125723E+03  0.00000000000E+00 0.  1.
         24    2    1    2    0    0 -0.11783643578E+03  0.29503166839E+01 -0.23948281833E+03  0.27813922020E+03  0.78200227443E+02 0.  0.
         25    2    1    2    0    0  0.55737656577E+02 -0.56755855936E+02 -0.94607493508E+02  0.17585644550E+03  0.12508796126E+03 0.  0.
        -24    2    1    2    0    0  0.62098779205E+02  0.53805539252E+02  0.17034269897E+03  0.20539923589E+03  0.80130621979E+02 0.  0.
        -13    1    3    3    0    0  0.11613638357E+02  0.20893249846E+01 -0.24410576376E+02  0.27113061682E+02  0.00000000000E+00 0.  1.
         14    1    3    3    0    0 -0.12945007414E+03  0.86099169928E+00 -0.21507224196E+03  0.25102615852E+03  0.00000000000E+00 0. -1.
         13    1    5    5    0    0  0.24615654131E+02  0.28487270448E+02  0.15199254994E+03  0.15658604740E+03  0.00000000000E+00 0. -1.
        -14    1    5    5    0    0  0.37483125073E+02  0.25318268804E+02  0.18350149035E+02  0.48813188485E+02  0.00000000000E+00 0.  1.
          5    1    4    4  501    0  0.79654324013E+02 -0.20390155570E+02 -0.13104992872E+02  0.83365358611E+02  0.41800000000E+01 0. -1.
         -5    1    4    4    0  501 -0.23916667436E+02 -0.36365700366E+02 -0.81502500636E+02  0.92491086891E+02  0.41800000000E+01 0. -1.
</event>
<event>
11    1  0.7157190E-009  0.2023010E+03  0.7561462E-02  0.1052908E+00
         22   -1    0    0    0    0  0.00000000000E+00  0.00000000000E+00  0.47387117898E+03  0.47387117898E+03  0.00000000000E+00 0. -1.
         22   -1    0    0    0    0 -0.00000000000E+00 -0.00000000000E+00 -0.23603875186E+04  0.23603875186E+04  0.00000000000E+00 0. -1.
         24    2    1    2    0    0  0.15661141126E+03 -0.18777481311E+02 -0.21623643079E+04  0.21695970287E+04  0.80325205516E+02 0.  0.
         25    2    1    2    0    0 -0.17629678426E+03  0.55850945854E+02 -0.12339222209E+03  0.25509459443E+03  0.12509087633E+03 0.  0.
        -24    2    1    2    0    0  0.19685372991E+02 -0.37073464543E+02  0.39924019036E+03  0.40956707452E+03  0.81181914573E+02 0.  0.
        -11    1    3    3    0    0 -0.96362954056E+01 -0.15663492776E+00 -0.13382200606E+03  0.13416859554E+03  0.00000000000E+00 0.  1.
         12    1    3    3    0    0  0.16624770667E+03 -0.18620846383E+02 -0.20285423019E+04  0.20354284331E+04  0.00000000000E+00 0. -1.
         13    1    5    5    0    0  0.23735679279E+02 -0.60873761666E+02  0.25052348053E+03  0.25890347936E+03  0.00000000000E+00 0. -1.
        -14    1    5    5    0    0 -0.40503062877E+01  0.23800297123E+02  0.14871670983E+03  0.15066359516E+03  0.00000000000E+00 0.  1.
          5    1    4    4  501    0 -0.57492719370E+02 -0.37530677679E+02 -0.59610307761E+02  0.91021018117E+02  0.41800000000E+01 0. -1.
         -5    1    4    4    0  501 -0.11880406489E+03  0.93381623533E+02 -0.63781914331E+02  0.16407357631E+03  0.41800000000E+01 0. -1.
</event>
<event>
11    1  0.7157190E-009  0.1443869E+03  0.7561462E-02  0.1102756E+00
         22   -1    0    0    0    0  0.00000000000E+00  0.00000000000E+00  0.13683507390E+03  0.13683507390E+03  0.00000000000E+00 0.  1.
         22   -1    0    0    0    0 -0.00000000000E+00 -0.00000000000E+00 -0.11241088657E+04  0.11241088657E+04  0.00000000000E+00 0. -1.
        -24    2    1    2    0    0  0.41686783236E+01  0.72930624742E+02 -0.95996227875E+03  0.96608637162E+03  0.80368195860E+02 0.  0.
         25    2    1    2    0    0 -0.40018756657E+01 -0.61619684336E+02 -0.11116515273E+03  0.17837886708E+03  0.12509327932E+03 0.  0.
         24    2    1    2    0    0 -0.16680265787E+00 -0.11310940406E+02  0.83853639664E+02  0.11647870093E+03  0.80049295365E+02 0.  0.
        -11    1    5    5    0    0 -0.48562689704E+01 -0.24359270763E+02  0.95309517789E+02  0.98492952040E+02  0.00000000000E+00 0.  1.
         12    1    5    5    0    0  0.46894663125E+01  0.13048330356E+02 -0.11455878125E+02  0.17985748886E+02  0.00000000000E+00 0. -1.
         13    1    3    3    0    0  0.30503723741E+02  0.56338927472E+02 -0.82917115610E+03  0.83164256627E+03  0.00000000000E+00 0. -1.
        -14    1    3    3    0    0 -0.26335045418E+02  0.16591697270E+02 -0.13079112265E+03  0.13444380536E+03  0.00000000000E+00 0.  1.
          5    1    4    4  501    0  0.43929322283E+02 -0.61240011792E+02 -0.24687154463E+02  0.79416952825E+02  0.41800000000E+01 0.  1.
         -5    1    4    4    0  501 -0.47931197949E+02 -0.37967254351E+00 -0.86477998272E+02  0.98961914256E+02  0.41800000000E+01 0.  1.
</event>
<event>
11    1  0.7157190E-009  0.1931756E+03  0.7561462E-02  0.1059457E+00
         22   -1    0    0    0    0  0.00000000000E+00  0.00000000000E+00  0.32185423444E+03  0.32185423444E+03  0.00000000000E+00 0. -1.
         22   -1    0    0    0    0 -0.00000000000E+00 -0.00000000000E+00 -0.70716354091E+03  0.70716354091E+03  0.00000000000E+00 0.  1.
        -24    2    1    2    0    0  0.93170254420E+00 -0.96653919982E+01 -0.52586686006E+03  0.53235953893E+03  0.82319112626E+02 0.  0.
         25    2    1    2    0    0 -0.59109498439E+02 -0.12697492876E+03 -0.92285662621E+02  0.20923858244E+03  0.12509026947E+03 0.  0.
         24    2    1    2    0    0  0.58177795895E+02  0.13664032076E+03  0.23284321622E+03  0.28741965398E+03  0.79616964040E+02 0.  0.
        -11    1    5    5    0    0  0.28230029893E+02  0.34581472501E+02  0.18862778194E+02  0.48462534284E+02  0.00000000000E+00 0.  1.
         12    1    5    5    0    0  0.29947766002E+02  0.10205884826E+03  0.21398043802E+03  0.23895711970E+03  0.00000000000E+00 0. -1.
         13    1    3    3    0    0 -0.84103984278E+01 -0.38755005203E+02 -0.14676356181E+03  0.15202706438E+03  0.00000000000E+00 0. -1.
        -14    1    3    3    0    0  0.93421009720E+01  0.29089613205E+02 -0.37910329826E+03  0.38033247455E+03  0.00000000000E+00 0.  1.
          5    1    4    4  501    0 -0.18234160747E+02 -0.42301087912E+02 -0.10455194528E+03  0.11432606142E+03  0.41800000000E+01 0. -1.
         -5    1    4    4    0  501 -0.40875337692E+02 -0.84673840852E+02  0.12266282663E+02  0.94912521020E+02  0.41800000000E+01 0. -1.
</event>
<event>
11    1  0.7157190E-009  0.1474364E+03  0.7561462E-02  0.1099527E+00
         22   -1    0    0    0    0  0.00000000000E+00  0.00000000000E+00  0.71074251068E+03  0.71074251068E+03  0.00000000000E+00 0. -1.
         22   -1    0    0    0    0 -0.00000000000E+00 -0.00000000000E+00 -0.94004712091E+02  0.94004712091E+02  0.00000000000E+00 0.  1.
         24    2    1    2    0    0  0.21886786165E+01  0.42046282271E+02  0.11671325367E+02  0.90677541575E+02  0.79457639930E+02 0.  0.
         25    2    1    2    0    0 -0.21237328479E+02 -0.11322928385E+03  0.99550113117E+02  0.19705231260E+03  0.12508994379E+03 0.  0.
        -24    2    1    2    0    0  0.19048649863E+02  0.71183001580E+02  0.50551636010E+03  0.51701736859E+03  0.79563171900E+02 0.  0.
        -11    1    3    3    0    0  0.91287239335E+01  0.65099906348E+02  0.65414504546E+01  0.66061501506E+02  0.00000000000E+00 0.  1.
         12    1    3    3    0    0 -0.69400453170E+01 -0.23053624076E+02  0.51298749119E+01  0.24616040069E+02  0.00000000000E+00 0. -1.
         11    1    5    5    0    0 -0.12354194681E+02  0.75013642069E+02  0.32714936922E+03  0.33586661401E+03  0.00000000000E+00 0. -1.
        -12    1    5    5    0    0  0.31402844543E+02 -0.38306404893E+01  0.17836699088E+03  0.18115075458E+03  0.00000000000E+00 0.  1.
          5    1    4    4  501    0  0.20299788358E+02  0.12977614272E+02  0.49130089958E+02  0.54879304103E+02  0.41800000000E+01 0.  1.
         -5    1    4    4    0  501 -0.41537116837E+02 -0.12620689812E+03  0.50420023159E+02  0.14217300849E+03  0.41800000000E+01 0.  1.
</event>
<event>
11    1  0.7157190E-009  0.1317920E+03  0.7561462E-02  0.1117087E+00
         22   -1    0    0    0    0  0.00000000000E+00  0.00000000000E+00  0.14306882008E+04  0.14306882008E+04  0.00000000000E+00 0.  1.
         22   -1    0    0    0    0 -0.00000000000E+00 -0.00000000000E+00 -0.42722134039E+03  0.42722134039E+03  0.00000000000E+00 0.  1.
         24    2    1    2    0    0 -0.26037862919E+01  0.30391670956E+02 -0.31435038265E+03  0.32567444261E+03  0.79481105496E+02 0.  0.
         25    2    1    2    0    0  0.30989151741E+02 -0.60281875121E+02 -0.57891778211E+02  0.15358568766E+03  0.12507147347E+03 0.  0.
        -24    2    1    2    0    0 -0.28385365449E+02  0.29890204165E+02  0.13757090213E+04  0.13786494109E+04  0.79998335583E+02 0.  0.
        -13    1    3    3    0    0  0.23496264356E+02  0.14966032409E+02 -0.27290871415E+03  0.27432685400E+03  0.00000000000E+00 0.  1.
         14    1    3    3    0    0 -0.26100050647E+02  0.15425638547E+02 -0.41441668500E+02  0.51347588614E+02  0.00000000000E+00 0. -1.
         13    1    5    5    0    0 -0.34207792674E+02 -0.85449614624E+01  0.27459734904E+03  0.27685175373E+03  0.00000000000E+00 0. -1.
        -14    1    5    5    0    0  0.58224272243E+01  0.38435165628E+02  0.11011116723E+04  0.11017976572E+04  0.00000000000E+00 0.  1.
          5    1    4    4  501    0  0.29629619788E+02 -0.84519336803E+02 -0.80242924131E+02  0.12032386270E+03  0.41800000000E+01 0. -1.
         -5    1    4    4    0  501  0.13595319533E+01  0.24237461682E+02  0.22351145920E+02  0.33261824963E+02  0.41800000000E+01 0. -1.
</event>
<event>
11    1  0.7157190E-009  0.2497217E+03  0.7561462E-02  0.1024048E+00
         22   -1    0    0    0    0  0.00000000000E+00  0.00000000000E+00  0.10883096838E+04  0.10883096838E+04  0.00000000000E+00 0. -1.
         22   -1    0    0    0    0 -0.00000000000E+00 -0.00000000000E+00 -0.13254387358E+04  0.13254387358E+04  0.00000000000E+00 0.  1.
        -24    2    1    2    0    0  0.15825261574E+03  0.14312906489E+03 -0.82909520830E+03  0.85978238156E+03  0.79354014428E+02 0.  0.
         25    2    1    2    0    0 -0.11175092961E+03 -0.20250020217E+03 -0.44187535263E+03  0.51419478427E+03  0.12509135368E+03 0.  0.
         24    2    1    2    0    0 -0.46501686137E+02  0.59371137277E+02  0.10338415089E+04  0.10397712537E+04  0.81293639077E+02 0.  0.
        -13    1    5    5    0    0  0.19261194338E+02  0.24680620843E+02  0.18033443411E+03  0.18303178625E+03  0.00000000000E+00 0.  1.
         14    1    5    5    0    0 -0.65762880475E+02  0.34690516434E+02  0.85350707482E+03  0.85673946748E+03  0.00000000000E+00 0. -1.
         11    1    3    3    0    0  0.25281567358E+02 -0.68395346381E+01 -0.72351831123E+02  0.76946243242E+02  0.00000000000E+00 0. -1.
        -12    1    3    3    0    0  0.13297104839E+03  0.14996859953E+03 -0.75674337718E+03  0.78283613832E+03  0.00000000000E+00 0.  1.
          5    1    4    4  501    0 -0.34506674319E+02 -0.10908773697E+03 -0.32960330533E+03  0.34892213489E+03  0.41800000000E+01 0. -1.
         -5    1    4    4    0  501 -0.77244255288E+02 -0.93412465196E+02 -0.11227204729E+03  0.16527264938E+03  0.41800000000E+01 0. -1.
</event>
<event>
11    1  0.7157190E-009  0.1564104E+03  0.7561462E-02  0.1090503E+00
         22   -1    0    0    0    0  0.00000000000E+00  0.00000000000E+00  0.21070921751E+04  0.21070921751E+04  0.00000000000E+00 0.  1.
         22   -1    0    0    0    0 -0.00000000000E+00 -0.00000000000E+00 -0.17505063384E+03  0.17505063384E+03  0.00000000000E+00 0. -1.
         24    2    1    2    0    0 -0.32183197518E+01  0.47846484709E+02 -0.12353702446E+03  0.15559023479E+03  0.81530859606E+02 0.  0.
         25    2    1    2    0    0 -0.43167833091E+02  0.36574416571E+02  0.10718188911E+03  0.17417595712E+03  0.12509259340E+03 0.  0.
        -24    2    1    2    0    0  0.46386152843E+02 -0.84420901280E+02  0.19483966766E+04  0.19523766171E+04  0.79033420873E+02 0.  0.
        -13    1    3    3    0    0 -0.47481110458E+01  0.60337249954E+02 -0.43412142556E+02  0.74483168648E+02  0.00000000000E+00 0.  1.
         14    1    3    3    0    0  0.15297912940E+01 -0.12490765245E+02 -0.80124881903E+02  0.81107066139E+02  0.00000000000E+00 0. -1.
         11    1    5    5    0    0  0.63721075605E+02 -0.39370087499E+02  0.13238749992E+04  0.13259922295E+04  0.00000000000E+00 0. -1.
        -12    1    5    5    0    0 -0.17334922762E+02 -0.45050813781E+02  0.62452167745E+03  0.62638438755E+03  0.00000000000E+00 0.  1.
          5    1    4    4  501    0  0.59204152408E+00  0.72626045195E+02  0.87996721782E+02  0.11417437715E+03  0.41800000000E+01 0.  1.
         -5    1    4    4    0  501 -0.43759874615E+02 -0.36051628624E+02  0.19185167330E+02  0.60001579965E+02  0.41800000000E+01 0.  1.
</event>
<event>
11    1  0.7157190E-009  0.2030456E+03  0.7561462E-02  0.1052391E+00
         22   -1    0    0    0    0  0.00000000000E+00  0.00000000000E+00  0.19812490419E+03  0.19812490419E+03  0.00000000000E+00 0. -1.
         22   -1    0    0    0    0 -0.00000000000E+00 -0.00000000000E+00 -0.17187357235E+04  0.17187357235E+04  0.00000000000E+00 0.  1.
         24    2    1    2    0    0  0.15891124022E+03  0.41540721291E+00 -0.15078053895E+04  0.15182795728E+04  0.80267139435E+02 0.  0.
         25    2    1    2    0    0 -0.17139617036E+03 -0.17498040340E+02 -0.13357345383E+03  0.25133846048E+03  0.12508527298E+03 0.  0.
        -24    2    1    2    0    0  0.12484930139E+02  0.17082633127E+02  0.12076802401E+03  0.14724259444E+03  0.81533895757E+02 0.  0.
        -13    1    3    3    0    0  0.78601286686E+02  0.33035371086E+02 -0.94493984689E+03  0.94877858969E+03  0.00000000000E+00 0.  1.
         14    1    3    3    0    0  0.80309953538E+02 -0.32619963873E+02 -0.56286554261E+03  0.56950098309E+03  0.00000000000E+00 0. -1.
         13    1    5    5    0    0 -0.14780599852E+02 -0.25469169831E+02  0.68380993677E+02  0.74452031806E+02  0.00000000000E+00 0. -1.
        -14    1    5    5    0    0  0.27265529991E+02  0.42551802958E+02  0.52387030337E+02  0.72790562631E+02  0.00000000000E+00 0.  1.
          5    1    4    4  501    0 -0.70966944887E+02 -0.28961552841E+02  0.81678170822E+01  0.77196272225E+02  0.41800000000E+01 0.  1.
         -5    1    4    4    0  501 -0.10042922548E+03  0.11463512501E+02 -0.14174127092E+03  0.17414218825E+03  0.41800000000E+01 0.  1.
</event>
<event>
11    1  0.7157190E-009  0.1294727E+03  0.7561462E-02  0.1119919E+00
         22   -1    0    0    0    0  0.00000000000E+00  0.00000000000E+00  0.28475132597E+04  0.28475132597E+04  0.00000000000E+00 0. -1.
         22   -1    0    0    0    0 -0.00000000000E+00 -0.00000000000E+00 -0.13876121329E+03  0.13876121329E+03  0.00000000000E+00 0.  1.
         24    2    1    2    0    0  0.22196439817E+01  0.16818228246E+02 -0.11731982550E+03  0.13934468322E+03  0.73247659804E+02 0.  0.
         25    2    1    2    0    0  0.15698426523E+02 -0.43817716379E+02  0.45222860445E+03  0.47151480123E+03  0.12509621990E+03 0.  0.
        -24    2    1    2    0    0 -0.17918070505E+02  0.26999488133E+02  0.23738432674E+04  0.23754149885E+04  0.80090447134E+02 0.  0.
        -13    1    3    3    0    0  0.27305696872E+02  0.33490742729E+02 -0.83762358478E+02  0.94251597483E+02  0.00000000000E+00 0.  1.
         14    1    3    3    0    0 -0.25086052890E+02 -0.16672514483E+02 -0.33557467022E+02  0.45093085742E+02  0.00000000000E+00 0. -1.
         13    1    5    5    0    0  0.29530970709E+02  0.23910502080E+02  0.12222243195E+04  0.12228148173E+04  0.00000000000E+00 0. -1.
        -14    1    5    5    0    0 -0.47449041214E+02  0.30889860525E+01  0.11516189480E+04  0.11526001712E+04  0.00000000000E+00 0.  1.
          5    1    4    4  501    0  0.43069142639E+02  0.67674866228E+01  0.55907470142E+02  0.71020191077E+02  0.41800000000E+01 0. -1.
         -5    1    4    4    0  501 -0.27370716116E+02 -0.50585203002E+02  0.39632113431E+03  0.40049461015E+03  0.41800000000E+01 0. -1.
</event>
<event>
11    1  0.7157190E-009  0.1615730E+03  0.7561462E-02  0.1085607E+00
         22   -1    0    0    0    0  0.00000000000E+00  0.00000000000E+00  0.28539108853E+04  0.28539108853E+04  0.00000000000E+00 0. -1.
         22   -1    0    0    0    0 -0.00000000000E+00 -0.00000000000E+00 -0.56555216069E+03  0.56555216069E+03  0.00000000000E+00 0.  1.
         24    2    1    2    0    0 -0.10116205601E+03 -0.14277715821E+02 -0.54987690738E+03  0.56517870628E+03  0.81392518201E+02 0.  0.
         25    2    1    2    0    0  0.11509399363E+03  0.18002942705E+02  0.10268469727E+04  0.10409765420E+04  0.12508685934E+03 0.  0.
        -24    2    1    2    0    0 -0.13931937626E+02 -0.37252268839E+01  0.18113886592E+04  0.18133077976E+04  0.82148146477E+02 0.  0.
        -11    1    3    3    0    0 -0.10381398842E+03  0.79829130859E+01 -0.38682464542E+03  0.40059253288E+03  0.00000000000E+00 0.  1.
         12    1    3    3    0    0  0.26519324176E+01 -0.22260628907E+02 -0.16305226196E+03  0.16458617341E+03  0.00000000000E+00 0. -1.
         13    1    5    5    0    0  0.28947818842E+02  0.13671615951E+02  0.45228555492E+03  0.45341715064E+03  0.00000000000E+00 0. -1.
        -14    1    5    5    0    0 -0.42879756468E+02 -0.17396842834E+02  0.13591031043E+04  0.13598906470E+04  0.00000000000E+00 0.  1.
          5    1    4    4  501    0 -0.22804039364E+01  0.46176136571E+02  0.39230976602E+03  0.39504665642E+03  0.41800000000E+01 0. -1.
         -5    1    4    4    0  501  0.11737439757E+03 -0.28173193867E+02  0.63453720668E+03  0.64592988560E+03  0.41800000000E+01 0. -1.
</event>
<event>
11    1  0.7157190E-009  0.1559457E+03  0.7561462E-02  0.1090954E+00
         22   -1    0    0    0    0  0.00000000000E+00  0.00000000000E+00  0.21177140117E+04  0.21177140117E+04  0.00000000000E+00 0.  1.
         22   -1    0    0    0    0 -0.00000000000E+00 -0.00000000000E+00 -0.15682084087E+03  0.15682084087E+03  0.00000000000E+00 0. -1.
        -24    2    1    2    0    0  0.56925940647E+02  0.23421068817E+02 -0.54086969465E+02  0.11153259746E+03  0.75663801432E+02 0.  0.
         25    2    1    2    0    0 -0.10647270179E+03  0.55027113268E+02  0.32748524755E+02  0.17630718578E+03  0.12508932194E+03 0.  0.
         24    2    1    2    0    0  0.49546761146E+02 -0.78448182085E+02  0.19822316155E+04  0.19866950693E+04  0.95426003100E+02 0.  0.
        -11    1    5    5    0    0  0.64743250649E+02 -0.52074105066E+02  0.18017427397E+04  0.18036574789E+04  0.00000000000E+00 0.  1.
         12    1    5    5    0    0 -0.15196489503E+02 -0.26374077019E+02  0.18048887582E+03  0.18303759048E+03  0.00000000000E+00 0. -1.
         11    1    3    3    0    0  0.63620987391E+02  0.36951907454E+02 -0.60379075616E+02  0.95177236109E+02  0.00000000000E+00 0. -1.
        -12    1    3    3    0    0 -0.66950467437E+01 -0.13530838637E+02  0.62921061507E+01  0.16355361351E+02  0.00000000000E+00 0.  1.
          5    1    4    4  501    0 -0.10001476687E+03 -0.12991357656E+02  0.12342676283E+01  0.10094911977E+03  0.41800000000E+01 0.  1.
         -5    1    4    4    0  501 -0.64579349203E+01  0.68018470924E+02  0.31514257127E+02  0.75358066008E+02  0.41800000000E+01 0.  1.
</event>
<event>
11    1  0.7157190E-009  0.1499415E+03  0.7561462E-02  0.1096939E+00
         22   -1    0    0    0    0  0.00000000000E+00  0.00000000000E+00  0.41711714860E+03  0.41711714860E+03  0.00000000000E+00 0.  1.
         22   -1    0    0    0    0 -0.00000000000E+00 -0.00000000000E+00 -0.13131540678E+03  0.13131540678E+03  0.00000000000E+00 0. -1.
         24    2    1    2    0    0  0.25734682323E+02  0.26080330388E+02 -0.45612629315E+02  0.97144744916E+02  0.77550834969E+02 0.  0.
         25    2    1    2    0    0 -0.83201279823E+02  0.33082547507E+02  0.77544157812E+02  0.17227192182E+03  0.12509041020E+03 0.  0.
        -24    2    1    2    0    0  0.57466597500E+02 -0.59162877895E+02  0.25387021333E+03  0.27901588864E+03  0.81222687413E+02 0.  0.
        -11    1    3    3    0    0  0.12596036218E+02 -0.26657178315E+02 -0.65183292114E+01  0.30195262870E+02  0.00000000000E+00 0.  1.
         12    1    3    3    0    0  0.13138646105E+02  0.52737508703E+02 -0.39094300104E+02  0.66949482046E+02  0.00000000000E+00 0. -1.
         13    1    5    5    0    0 -0.73895473331E+01  0.13832093963E+02  0.18865013096E+02  0.24532039302E+02  0.00000000000E+00 0. -1.
        -14    1    5    5    0    0  0.64856144833E+02 -0.72994971858E+02  0.23500520023E+03  0.25448384934E+03  0.00000000000E+00 0.  1.
          5    1    4    4  501    0 -0.30792048713E+02 -0.25137315707E+02  0.84542623066E+02  0.93514503794E+02  0.41800000000E+01 0. -1.
         -5    1    4    4    0  501 -0.52409231110E+02  0.58219863214E+02 -0.69984652541E+01  0.78757418026E+02  0.41800000000E+01 0. -1.
</event>
<event>
11    1  0.7157190E-009  0.2067322E+03  0.7561462E-02  0.1049862E+00
         22   -1    0    0    0    0  0.00000000000E+00  0.00000000000E+00  0.12605710480E+04  0.12605710480E+04  0.00000000000E+00 0.  1.
         22   -1    0    0    0    0 -0.00000000000E+00 -0.00000000000E+00 -0.27704235141E+04  0.27704235141E+04  0.00000000000E+00 0.  1.
         24    2    1    2    0    0 -0.15536126961E+03  0.13167543432E+01 -0.22321341553E+04  0.22390155996E+04  0.81419345542E+02 0.  0.
         25    2    1    2    0    0  0.29923171978E+03 -0.38401565195E+02 -0.47852868198E+03  0.57935381452E+03  0.12508733186E+03 0.  0.
        -24    2    1    2    0    0 -0.14387045016E+03  0.37084810851E+02  0.12008103712E+04  0.12126251480E+04  0.80250934038E+02 0.  0.
        -11    1    3    3    0    0 -0.12430278315E+03 -0.24386394388E+02 -0.13408602670E+04  0.13468304028E+04  0.00000000000E+00 0.  1.
         12    1    3    3    0    0 -0.31058486461E+02  0.25703148731E+02 -0.89127388832E+03  0.89218519683E+03  0.00000000000E+00 0. -1.
         13    1    5    5    0    0 -0.21159773575E+02  0.40747470928E+02  0.30237423107E+03  0.30584026553E+03  0.00000000000E+00 0. -1.
        -14    1    5    5    0    0 -0.12271067659E+03 -0.36626600768E+01  0.89843614010E+03  0.90678488246E+03  0.00000000000E+00 0.  1.
          5    1    4    4  501    0  0.24536414384E+03 -0.77134744970E+02 -0.40891280448E+03  0.48309469676E+03  0.41800000000E+01 0.  1.
         -5    1    4    4    0  501  0.53867575934E+02  0.38733179776E+02 -0.69615877492E+02  0.96259117758E+02  0.41800000000E+01 0.  1.
</event>
<event>
11    1  0.7157190E-009  0.1395120E+03  0.7561462E-02  0.1108105E+00
         22   -1    0    0    0    0  0.00000000000E+00  0.00000000000E+00  0.52870432800E+03  0.52870432800E+03  0.00000000000E+00 0. -1.
         22   -1    0    0    0    0 -0.00000000000E+00 -0.00000000000E+00 -0.24226983472E+03  0.24226983472E+03  0.00000000000E+00 0.  1.
        -24    2    1    2    0    0 -0.10482205020E+02 -0.12985106798E+02 -0.11580883306E+03  0.14243690393E+03  0.81228665910E+02 0.  0.
         25    2    1    2    0    0  0.71606550331E+02  0.16607940491E+02 -0.58781695070E+02  0.15654254049E+03  0.12508779944E+03 0.  0.
         24    2    1    2    0    0 -0.61124345311E+02 -0.36228336935E+01  0.46102502141E+03  0.47199471831E+03  0.80533429251E+02 0.  0.
        -13    1    5    5    0    0 -0.40801812275E+02  0.18208883121E+02  0.97523376472E+02  0.10727143267E+03  0.00000000000E+00 0.  1.
         14    1    5    5    0    0 -0.20322533037E+02 -0.21831716814E+02  0.36350164494E+03  0.36472328563E+03  0.00000000000E+00 0. -1.
         13    1    3    3    0    0 -0.19635937380E+01  0.31857571641E+02 -0.24092054945E+02  0.39989844744E+02  0.00000000000E+00 0. -1.
        -14    1    3    3    0    0 -0.85186112815E+01 -0.44842678438E+02 -0.91716778120E+02  0.10244705919E+03  0.00000000000E+00 0.  1.
          5    1    4    4  501    0 -0.10873900529E+02  0.14691446441E+02 -0.70641112545E+02  0.73087067891E+02  0.41800000000E+01 0. -1.
         -5    1    4    4    0  501  0.82480450859E+02  0.19164940500E+01  0.11859417475E+02  0.83455472596E+02  0.41800000000E+01 0. -1.
</event>
<event>
11    1  0.7157190E-009  0.1544621E+03  0.7561462E-02  0.1092405E+00
         22   -1    0    0    0    0  0.00000000000E+00  0.00000000000E+00  0.18240717488E+03  0.18240717488E+03  0.00000000000E+00 0.  1.
         22   -1    0    0    0    0 -0.00000000000E+00 -0.00000000000E+00 -0.70097975790E+03  0.70097975790E+03  0.00000000000E+00 0. -1.
        -24    2    1    2    0    0 -0.18175236351E+03  0.10957895745E+03 -0.39307571718E+03  0.45405361093E+03  0.81330760562E+02 0.  0.
         25    2    1    2    0    0  0.31350178670E+02 -0.74484269909E+02  0.73060045866E+02  0.16588006684E+03  0.12509071151E+03 0.  0.
         24    2    1    2    0    0  0.15040218484E+03 -0.35094687541E+02 -0.19855691171E+03  0.26345325500E+03  0.78296335081E+02 0.  0.
        -13    1    5    5    0    0  0.40287521926E+02 -0.36511506072E+02 -0.10785927881E+03  0.12078823835E+03  0.00000000000E+00 0.  1.
         14    1    5    5    0    0  0.11011466291E+03  0.14168185305E+01 -0.90697632895E+02  0.14266501665E+03  0.00000000000E+00 0. -1.
         11    1    3    3    0    0 -0.10090628892E+03  0.13991021083E+02 -0.18623106212E+03  0.21227302305E+03  0.00000000000E+00 0. -1.
        -12    1    3    3    0    0 -0.80846074587E+02  0.95587936367E+02 -0.20684465505E+03  0.24178058789E+03  0.00000000000E+00 0.  1.
          5    1    4    4  501    0  0.33214008478E+02 -0.10299360654E+03  0.81792433171E+02  0.13571414028E+03  0.41800000000E+01 0.  1.
         -5    1    4    4    0  501 -0.18638298072E+01  0.28509336635E+02 -0.87323873054E+01  0.30165926556E+02  0.41800000000E+01 0.  1.
</event>
<event>
11    1  0.7157190E-009  0.1749335E+03  0.7561462E-02  0.1073816E+00
         22   -1    0    0    0    0  0.00000000000E+00  0.00000000000E+00  0.66408416053E+03  0.66408416053E+03  0.00000000000E+00 0.  1.
         22   -1    0    0    0    0 -0.00000000000E+00 -0.00000000000E+00 -0.82745859769E+03  0.82745859769E+03  0.00000000000E+00 0.  1.
         24    2    1    2    0    0 -0.10228271705E+02 -0.12350940113E+03 -0.78670154036E+03  0.80082978278E+03  0.84082326723E+02 0.  0.
         25    2    1    2    0    0  0.12451055562E+02  0.77512950586E+02  0.15951123011E+03  0.21738390519E+03  0.12509453789E+03 0.  0.
        -24    2    1    2    0    0 -0.22227838564E+01  0.45996450542E+02  0.46381587308E+03  0.47332907025E+03  0.82429548034E+02 0.  0.
        -13    1    3    3    0    0 -0.45646990132E+02 -0.86691346688E+02 -0.47919889222E+03  0.48911206855E+03  0.00000000000E+00 0.  1.
         14    1    3    3    0    0  0.35418718426E+02 -0.36818054441E+02 -0.30750264814E+03  0.31171771423E+03  0.00000000000E+00 0. -1.
         13    1    5    5    0    0 -0.29424870616E+02  0.11684848189E+02  0.66988600569E+02  0.74093395753E+02  0.00000000000E+00 0. -1.
        -14    1    5    5    0    0  0.27202086760E+02  0.34311602353E+02  0.39682727251E+03  0.39923567450E+03  0.00000000000E+00 0.  1.
          5    1    4    4  501    0 -0.79246043024E+00 -0.20944741954E+02 -0.78043039907E+01  0.22752796967E+02  0.41800000000E+01 0. -1.
         -5    1    4    4    0  501  0.13243515992E+02  0.98457692539E+02  0.16731553411E+03  0.19463110823E+03  0.41800000000E+01 0. -1.
</event>
<event>
11    1  0.7157190E-009  0.1292886E+03  0.7561462E-02  0.1120146E+00
         22   -1    0    0    0    0  0.00000000000E+00  0.00000000000E+00  0.19899332834E+03  0.19899332834E+03  0.00000000000E+00 0.  1.
         22   -1    0    0    0    0 -0.00000000000E+00 -0.00000000000E+00 -0.36226259806E+03  0.36226259806E+03  0.00000000000E+00 0.  1.
        -24    2    1    2    0    0  0.17777284198E+01  0.32138893145E+02 -0.28409751140E+03  0.29699494648E+03  0.80365001585E+02 0.  0.
         25    2    1    2    0    0  0.15981157682E+02 -0.39099987149E+02  0.17485953416E+02  0.13317988074E+03  0.12508763197E+03 0.  0.
         24    2    1    2    0    0 -0.17758886102E+02  0.69610940042E+01  0.10334228826E+03  0.13108109918E+03  0.78350438116E+02 0.  0.
        -11    1    5    5    0    0 -0.23678058305E+02 -0.52726951479E+01  0.11224360307E+03  0.11483500420E+03  0.00000000000E+00 0.  1.
         12    1    5    5    0    0  0.59191722035E+01  0.12233789152E+02 -0.89013148109E+01  0.16246094976E+02  0.00000000000E+00 0. -1.
         11    1    3    3    0    0 -0.47321163641E+01  0.10889919890E+02  0.15534109276E+00  0.11874654157E+02  0.00000000000E+00 0. -1.
        -12    1    3    3    0    0  0.65098447838E+01  0.21248973254E+02 -0.28425285249E+03  0.28512029232E+03  0.00000000000E+00 0.  1.
          5    1    4    4  501    0  0.33517487305E+02  0.11641638785E+02  0.56384779775E+02  0.66750771525E+02  0.41800000000E+01 0.  1.
         -5    1    4    4    0  501 -0.17536329623E+02 -0.50741625934E+02 -0.38898826359E+02  0.66429109216E+02  0.41800000000E+01 0.  1.
</event>
<event>
11    1  0.7157190E-009  0.1283857E+03  0.7561462E-02  0.1121268E+00
         22   -1    0    0    0    0  0.00000000000E+00  0.00000000000E+00  0.83304469941E+03  0.83304469941E+03  0.00000000000E+00 0.  1.
         22   -1    0    0    0    0 -0.00000000000E+00 -0.00000000000E+00 -0.12537067170E+03  0.12537067170E+03  0.00000000000E+00 0. -1.
         24    2    1    2    0    0  0.33102779980E+01 -0.15790692521E+02 -0.38156124026E+02  0.89904421250E+02  0.79791047423E+02 0.  0.
         25    2    1    2    0    0  0.25694755185E+02  0.16689469961E+02  0.11770049831E+02  0.12932313540E+03  0.12508869024E+03 0.  0.
        -24    2    1    2    0    0 -0.29005033183E+02 -0.89877744027E+00  0.73406010191E+03  0.73918781447E+03  0.81928579178E+02 0.  0.
        -13    1    3    3    0    0  0.71881607887E+01  0.22178631386E+02 -0.45418366911E+02  0.51052809899E+02  0.00000000000E+00 0.  1.
         14    1    3    3    0    0 -0.38778827906E+01 -0.37969323907E+02  0.72622428846E+01  0.38851611351E+02  0.00000000000E+00 0. -1.
         13    1    5    5    0    0 -0.14822605380E-01  0.37876657612E+02  0.27894004521E+03  0.28149989384E+03  0.00000000000E+00 0. -1.
        -14    1    5    5    0    0 -0.28990210578E+02 -0.38775435052E+02  0.45512005670E+03  0.45768792062E+03  0.00000000000E+00 0.  1.
          5    1    4    4  501    0 -0.36798562498E+02  0.44918064910E+02  0.16352263862E+02  0.60470122297E+02  0.41800000000E+01 0.  1.
         -5    1    4    4    0  501  0.62493317683E+02 -0.28228594949E+02 -0.45822140309E+01  0.68853013102E+02  0.41800000000E+01 0.  1.
</event>
<event>
11    1  0.7157190E-009  0.1510278E+03  0.7561462E-02  0.1095833E+00
         22   -1    0    0    0    0  0.00000000000E+00  0.00000000000E+00  0.10189025223E+04  0.10189025223E+04  0.00000000000E+00 0. -1.
         22   -1    0    0    0    0 -0.00000000000E+00 -0.00000000000E+00 -0.42578242111E+03  0.42578242111E+03  0.00000000000E+00 0.  1.
        -24    2    1    2    0    0  0.16338314502E+02  0.75148299266E+01 -0.26399981041E+03  0.27679107790E+03  0.81203372587E+02 0.  0.
         25    2    1    2    0    0 -0.93845241833E+02  0.25784095611E+02 -0.11059842657E+03  0.19326582053E+03  0.12509163212E+03 0.  0.
         24    2    1    2    0    0  0.77506927332E+02 -0.33298925538E+02  0.96771833818E+03  0.97462804498E+03  0.79403411608E+02 0.  0.
        -11    1    5    5    0    0  0.44552431669E+02 -0.58447740065E+02  0.55826724717E+03  0.56308380970E+03  0.00000000000E+00 0.  1.
         12    1    5    5    0    0  0.32954495662E+02  0.25148814527E+02  0.40945109102E+03  0.41154423528E+03  0.00000000000E+00 0. -1.
         11    1    3    3    0    0  0.36077071994E+02  0.27257702398E+02 -0.22060724325E+03  0.22519345736E+03  0.00000000000E+00 0. -1.
        -12    1    3    3    0    0 -0.19738757492E+02 -0.19742872471E+02 -0.43392567164E+02  0.51597620544E+02  0.00000000000E+00 0.  1.
          5    1    4    4  501    0 -0.25645519065E+02  0.40607520388E-01  0.27013846385E+02  0.37482190353E+02  0.41800000000E+01 0.  1.
         -5    1    4    4    0  501 -0.68199722768E+02  0.25743488091E+02 -0.13761227295E+03  0.15578363018E+03  0.41800000000E+01 0.  1.
</event>
<event>
11    1  0.7157190E-009  0.2211576E+03  0.7561462E-02  0.1040495E+00
         22   -1    0    0    0    0  0.00000000000E+00  0.00000000000E+00  0.24640708950E+04  0.24640708950E+04  0.00000000000E+00 0. -1.
         22   -1    0    0    0    0 -0.00000000000E+00 -0.00000000000E+00 -0.11848412970E+04  0.11848412970E+04  0.00000000000E+00 0. -1.
        -24    2    1    2    0    0 -0.18031252885E+03  0.20343366312E+02 -0.11262088488E+04  0.11433697811E+04  0.77599128216E+02 0.  0.
         25    2    1    2    0    0  0.21891724624E+03  0.23073083937E+01  0.27495783204E+03  0.37306754088E+03  0.12508995276E+03 0.  0.
         24    2    1    2    0    0 -0.38604717387E+02 -0.22650674706E+02  0.21304806148E+04  0.21324748700E+04  0.80610447532E+02 0.  0.
        -11    1    5    5    0    0 -0.23245323675E+01  0.28657968023E+02  0.56013470013E+03  0.56087214663E+03  0.00000000000E+00 0.  1.
         12    1    5    5    0    0 -0.36280185020E+02 -0.51308642729E+02  0.15703459146E+04  0.15716027234E+04  0.00000000000E+00 0. -1.
         13    1    3    3    0    0 -0.10318828963E+03  0.38398649383E+02 -0.80719781111E+03  0.81467207247E+03  0.00000000000E+00 0. -1.
        -14    1    3    3    0    0 -0.77124239220E+02 -0.18055283071E+02 -0.31901103765E+03  0.32869770864E+03  0.00000000000E+00 0.  1.
          5    1    4    4  501    0  0.26905194553E+02  0.30572648032E+02  0.60105763299E+01  0.41378445227E+02  0.41800000000E+01 0. -1.
         -5    1    4    4    0  501  0.19201205168E+03 -0.28265339638E+02  0.26894725571E+03  0.33168909565E+03  0.41800000000E+01 0. -1.
</event>
<event>
11    1  0.7157190E-009  0.2844850E+03  0.7561462E-02  0.1006980E+00
         22   -1    0    0    0    0  0.00000000000E+00  0.00000000000E+00  0.46090073802E+03  0.46090073802E+03  0.00000000000E+00 0.  1.
         22   -1    0    0    0    0 -0.00000000000E+00 -0.00000000000E+00 -0.44739246006E+03  0.44739246006E+03  0.00000000000E+00 0. -1.
        -24    2    1    2    0    0  0.25024214504E+03  0.78340890236E+02 -0.20302497051E+03  0.34169237277E+03  0.82317147194E+02 0.  0.
         25    2    1    2    0    0 -0.22706138027E+03 -0.92463170089E+02 -0.56072830317E+02  0.28088848661E+03  0.12509145206E+03 0.  0.
         24    2    1    2    0    0 -0.23180764778E+02  0.14122279853E+02  0.27260607879E+03  0.28571233870E+03  0.81121388357E+02 0.  0.
        -13    1    5    5    0    0  0.14246561559E+02  0.37950566887E+02  0.11286033174E+03  0.11991940845E+03  0.00000000000E+00 0.  1.
         14    1    5    5    0    0 -0.37427326337E+02 -0.23828287034E+02  0.15974574705E+03  0.16579293025E+03  0.00000000000E+00 0. -1.
         13    1    3    3    0    0  0.11913015225E+03  0.49820674033E+02 -0.14868163790E+03  0.19692720021E+03  0.00000000000E+00 0. -1.
        -14    1    3    3    0    0  0.13111199279E+03  0.28520216202E+02 -0.54343332610E+02  0.14476517256E+03  0.00000000000E+00 0.  1.
          5    1    4    4  501    0 -0.20299203989E+03 -0.68075932019E+02  0.10495387210E+01  0.21414638617E+03  0.41800000000E+01 0. -1.
         -5    1    4    4    0  501 -0.24069340380E+02 -0.24387238070E+02 -0.57122369038E+02  0.66742100443E+02  0.41800000000E+01 0. -1.
</event>
<event>
11    1  0.7157190E-009  0.1252453E+03  0.7561462E-02  0.1125253E+00
         22   -1    0    0    0    0  0.00000000000E+00  0.00000000000E+00  0.28197911201E+04  0.28197911201E+04  0.00000000000E+00 0.  1.
         22   -1    0    0    0    0 -0.00000000000E+00 -0.00000000000E+00 -0.17119267408E+03  0.17119267408E+03  0.00000000000E+00 0. -1.
        -24    2    1    2    0    0  0.10683422774E+02 -0.98147713933E+01 -0.13222771984E+03  0.15493340627E+03  0.79433778868E+02 0.  0.
         25    2    1    2    0    0 -0.10054401902E+02  0.33779027156E+01  0.11909227887E+03  0.17304089435E+03  0.12509068313E+03 0.  0.
         24    2    1    2    0    0 -0.62902087140E+00  0.64368686777E+01  0.26617338870E+04  0.26630094936E+04  0.82161114387E+02 0.  0.
        -13    1    5    5    0    0 -0.27771017346E+02  0.31443753818E+02  0.17951086153E+04  0.17955987525E+04  0.00000000000E+00 0.  1.
         14    1    5    5    0    0  0.27141996474E+02 -0.25006885140E+02  0.86662527169E+03  0.86741074112E+03  0.00000000000E+00 0. -1.
         13    1    3    3    0    0  0.74670474288E+01 -0.53768079370E+01 -0.14276218542E+03  0.14305840922E+03  0.00000000000E+00 0. -1.
        -14    1    3    3    0    0  0.32163753449E+01 -0.44379634564E+01  0.10534465582E+02  0.11874997056E+02  0.00000000000E+00 0.  1.
          5    1    4    4  501    0 -0.57396662520E+02 -0.15922562114E+02  0.22757901563E+02  0.63900699028E+02  0.41800000000E+01 0.  1.
         -5    1    4    4    0  501  0.47342260618E+02  0.19300464829E+02  0.96334377306E+02  0.10914019532E+03  0.41800000000E+01 0.  1.
</event>
<event>
11    1  0.7157190E-009  0.2249732E+03  0.7561462E-02  0.1038146E+00
         22   -1    0    0    0    0  0.00000000000E+00  0.00000000000E+00  0.58169424075E+03  0.58169424075E+03  0.00000000000E+00 0. -1.
         22   -1    0    0    0    0 -0.00000000000E+00 -0.00000000000E+00 -0.24835364274E+04  0.24835364274E+04  0.00000000000E+00 0.  1.
        -24    2    1    2    0    0  0.37990294801E+02  0.28717610080E+02 -0.21953857776E+04  0.21973870326E+04  0.80765680677E+02 0.  0.
         25    2    1    2    0    0  0.13757065929E+03  0.44303181973E+02 -0.23337965523E+03  0.30166477896E+03  0.12508843735E+03 0.  0.
         24    2    1    2    0    0 -0.17556095409E+03 -0.73020792053E+02  0.52692324616E+03  0.56617885656E+03  0.82199182443E+02 0.  0.
        -13    1    5    5    0    0 -0.87265893864E+01 -0.15286652736E+01 -0.11344574243E-01  0.88594756356E+01  0.00000000000E+00 0.  1.
         14    1    5    5    0    0 -0.16683436471E+03 -0.71492126779E+02  0.52693459073E+03  0.55731938092E+03  0.00000000000E+00 0. -1.
         11    1    3    3    0    0 -0.87780647152E+01 -0.21270312830E+02 -0.79002105957E+03  0.79035609392E+03  0.00000000000E+00 0. -1.
        -12    1    3    3    0    0  0.46768359516E+02  0.49987922910E+02 -0.14053647180E+04  0.14070309387E+04  0.00000000000E+00 0.  1.
          5    1    4    4  501    0  0.14198150397E+03  0.14114606803E+02 -0.22998836036E+03  0.27068448034E+03  0.41800000000E+01 0.  1.
         -5    1    4    4    0  501 -0.44108446788E+01  0.30188575170E+02 -0.33912948637E+01  0.30980298618E+02  0.41800000000E+01 0.  1.
</event>
<event>
11    1  0.7157190E-009  0.1356692E+03  0.7561462E-02  0.1112493E+00
         22   -1    0    0    0    0  0.00000000000E+00  0.00000000000E+00  0.10504663957E+04  0.10504663957E+04  0.00000000000E+00 0. -1.
         22   -1    0    0    0    0 -0.00000000000E+00 -0.00000000000E+00 -0.16712996360E+03  0.16712996360E+03  0.00000000000E+00 0. -1.
         24    2    1    2    0    0  0.13639004378E+02  0.47342865224E+02 -0.11903849556E+03  0.15148488576E+03  0.79687752255E+02 0.  0.
         25    2    1    2    0    0 -0.25470753815E+02 -0.90949794648E+02  0.17976472162E+03  0.23850303120E+03  0.12509083222E+03 0.  0.
        -24    2    1    2    0    0  0.11831749437E+02  0.43606929424E+02  0.82261020607E+03  0.82760844236E+03  0.78782156262E+02 0.  0.
        -11    1    3    3    0    0  0.37282731268E+02  0.40194322459E+02 -0.37844385593E+02  0.66616688071E+02  0.00000000000E+00 0.  1.
         12    1    3    3    0    0 -0.23643726889E+02  0.71485427656E+01 -0.81194109971E+02  0.84868197689E+02  0.00000000000E+00 0. -1.
         11    1    5    5    0    0  0.41365892390E+02  0.14228203789E+02  0.56093171442E+03  0.56263484347E+03  0.00000000000E+00 0. -1.
        -12    1    5    5    0    0 -0.29534142953E+02  0.29378725635E+02  0.26167849165E+03  0.26497359889E+03  0.00000000000E+00 0.  1.
          5    1    4    4  501    0  0.22491437156E+02 -0.44167563018E+02  0.16142275032E+03  0.16891244800E+03  0.41800000000E+01 0.  1.
         -5    1    4    4    0  501 -0.47962190972E+02 -0.46782231630E+02  0.18341971301E+02  0.69590583201E+02  0.41800000000E+01 0.  1.
</event>
<event>
11    1  0.7157190E-009  0.1702840E+03  0.7561462E-02  0.1077785E+00
         22   -1    0    0    0    0  0.00000000000E+00  0.00000000000E+00  0.72792385181E+03  0.72792385181E+03  0.00000000000E+00 0.  1.
         22   -1    0    0    0    0 -0.00000000000E+00 -0.00000000000E+00 -0.80795808217E+03  0.80795808217E+03  0.00000000000E+00 0.  1.
         24    2    1    2    0    0  0.97972358398E+02 -0.61050450514E+02 -0.74823080395E+03  0.76257068736E+03  0.91317997844E+02 0.  0.
         25    2    1    2    0    0 -0.92463593277E+02  0.73961276222E+02  0.97072581876E+02  0.19771267144E+03  0.12508967916E+03 0.  0.
        -24    2    1    2    0    0 -0.55087651216E+01 -0.12910825708E+02  0.57112399171E+03  0.57559857519E+03  0.70242935117E+02 0.  0.
        -13    1    3    3    0    0  0.34739837705E+02  0.11926381483E+02 -0.38417453979E+03  0.38592638148E+03  0.00000000000E+00 0.  1.
         14    1    3    3    0    0  0.63232520693E+02 -0.72976831997E+02 -0.36405626416E+03  0.37664430588E+03  0.00000000000E+00 0. -1.
         13    1    5    5    0    0 -0.81670442026E+01  0.27918324980E+02  0.17931596334E+03  0.18165997960E+03  0.00000000000E+00 0. -1.
        -14    1    5    5    0    0  0.26582790810E+01 -0.40829150688E+02  0.39180802837E+03  0.39393859558E+03  0.00000000000E+00 0.  1.
          5    1    4    4  501    0 -0.39698862385E+02  0.16624255129E+02  0.11038497200E+03  0.11855243556E+03  0.41800000000E+01 0. -1.
         -5    1    4    4    0  501 -0.52764730891E+02  0.57337021093E+02 -0.13312390122E+02  0.79160235881E+02  0.41800000000E+01 0. -1.
</event>
<event>
11    1  0.7157190E-009  0.2015037E+03  0.7561462E-02  0.1053465E+00
         22   -1    0    0    0    0  0.00000000000E+00  0.00000000000E+00  0.15655515009E+04  0.15655515009E+04  0.00000000000E+00 0.  1.
         22   -1    0    0    0    0 -0.00000000000E+00 -0.00000000000E+00 -0.15505870591E+03  0.15505870591E+03  0.00000000000E+00 0. -1.
         24    2    1    2    0    0 -0.17092486736E+03  0.22419098257E+02  0.15020212163E+01  0.19064400589E+03  0.81393824504E+02 0.  0.
         25    2    1    2    0    0  0.13754363418E+03  0.29694324404E+02  0.92724284863E+02  0.20986975238E+03  0.12509003059E+03 0.  0.
        -24    2    1    2    0    0  0.33381233180E+02 -0.52113422661E+02  0.13162664889E+04  0.13200964485E+04  0.79164689409E+02 0.  0.
        -11    1    3    3    0    0 -0.54292636668E+02 -0.30030365488E+02 -0.72251342452E+01  0.62463715968E+02  0.00000000000E+00 0.  1.
         12    1    3    3    0    0 -0.11663223069E+03  0.52449463745E+02  0.87271554615E+01  0.12818028993E+03  0.00000000000E+00 0. -1.
         13    1    5    5    0    0  0.42635973339E+02  0.46871523079E+01  0.54325231902E+03  0.54494300412E+03  0.00000000000E+00 0. -1.
        -14    1    5    5    0    0 -0.92547401590E+01 -0.56800574969E+02  0.77301416987E+03  0.77515344439E+03  0.00000000000E+00 0.  1.
          5    1    4    4  501    0  0.64308349623E+01  0.24581545563E+02 -0.23255325122E+02  0.34697126208E+02  0.41800000000E+01 0. -1.
         -5    1    4    4    0  501  0.13111279922E+03  0.51127788411E+01  0.11597960999E+03  0.17517262617E+03  0.41800000000E+01 0. -1.
</event>
<event>
11    1  0.7157190E-009  0.1487270E+03  0.7561462E-02  0.1098187E+00
         22   -1    0    0    0    0  0.00000000000E+00  0.00000000000E+00  0.12776319051E+03  0.12776319051E+03  0.00000000000E+00 0. -1.
         22   -1    0    0    0    0 -0.00000000000E+00 -0.00000000000E+00 -0.61884269416E+03  0.61884269416E+03  0.00000000000E+00 0. -1.
         24    2    1    2    0    0  0.63719072142E+02 -0.38526441538E+02 -0.31343324864E+03  0.33172357398E+03  0.79093118057E+02 0.  0.
         25    2    1    2    0    0 -0.10186321863E+03 -0.32216276859E+02 -0.23539178351E+03  0.28718614931E+03  0.12511030657E+03 0.  0.
        -24    2    1    2    0    0  0.38144146488E+02  0.70742718397E+02  0.57745528505E+02  0.12769616137E+03  0.80698546759E+02 0.  0.
        -11    1    3    3    0    0  0.43682506920E+02  0.11316390951E+02 -0.21401241361E+03  0.21871793547E+03  0.00000000000E+00 0.  1.
         12    1    3    3    0    0  0.20036565223E+02 -0.49842832489E+02 -0.99420835029E+02  0.11300563851E+03  0.00000000000E+00 0. -1.
         11    1    5    5    0    0  0.43240204377E+01  0.73056887261E+02  0.58648176842E+02  0.93784937895E+02  0.00000000000E+00 0. -1.
        -12    1    5    5    0    0  0.33820126050E+02 -0.23141688641E+01 -0.90264833769E+00  0.33911223476E+02  0.00000000000E+00 0.  1.
          5    1    4    4  501    0 -0.22446030129E+01 -0.24895848933E+02  0.58837972499E+01  0.26017936253E+02  0.41800000000E+01 0. -1.
         -5    1    4    4    0  501 -0.99618615617E+02 -0.73204279258E+01 -0.24127558076E+03  0.26116821306E+03  0.41800000000E+01 0. -1.
</event>
<event>
11    1  0.7157190E-009  0.1530539E+03  0.7561462E-02  0.1093799E+00
         22   -1    0    0    0    0  0.00000000000E+00  0.00000000000E+00  0.11661481945E+04  0.11661481945E+04  0.00000000000E+00 0.  1.
         22   -1    0    0    0    0 -0.00000000000E+00 -0.00000000000E+00 -0.71753418194E+03  0.71753418194E+03  0.00000000000E+00 0.  1.
        -24    2    1    2    0    0 -0.84919089177E+01  0.47405713898E+01 -0.65777816935E+03  0.66296220061E+03  0.82171612113E+02 0.  0.
         25    2    1    2    0    0 -0.59119069715E+02 -0.61685562814E+02  0.52898851488E+02  0.16045463592E+03  0.12508888295E+03 0.  0.
         24    2    1    2    0    0  0.67610978633E+02  0.56944991424E+02  0.10534933305E+04  0.10602655399E+04  0.80627795519E+02 0.  0.
        -11    1    5    5    0    0  0.43500730337E+02  0.91731199163E+01  0.79754965512E+03  0.79878777661E+03  0.00000000000E+00 0.  1.
         12    1    5    5    0    0  0.24110248296E+02  0.47771871508E+02  0.25594367533E+03  0.26147776334E+03  0.00000000000E+00 0. -1.
         11    1    3    3    0    0 -0.14747825605E+02 -0.14405028764E+02 -0.41341588817E+02  0.46196646845E+02  0.00000000000E+00 0. -1.
        -12    1    3    3    0    0  0.62559166876E+01  0.19145600154E+02 -0.61643658053E+03  0.61676555377E+03  0.00000000000E+00 0.  1.
          5    1    4    4  501    0 -0.56573264289E+02 -0.29472056961E+02 -0.30563832179E+02  0.70857297516E+02  0.41800000000E+01 0.  1.
         -5    1    4    4    0  501 -0.25458054260E+01 -0.32213505852E+02  0.83462683667E+02  0.89597338406E+02  0.41800000000E+01 0.  1.
</event>
<event>
11    1  0.8686962E-009  0.1559913E+03  0.7561462E-02  0.1090909E+00
         22   -1    0    0    0    0  0.00000000000E+00  0.00000000000E+00  0.67245945571E+03  0.67245945571E+03  0.00000000000E+00 0. -1.
         22   -1    0    0    0    0 -0.00000000000E+00 -0.00000000000E+00 -0.52571756842E+03  0.52571756842E+03  0.00000000000E+00 0.  1.
        -24    2    1    2    0    0  0.38235958198E+02  0.10327461422E+02 -0.40252591577E+03  0.41262608551E+03  0.81636564196E+02 0.  0.
         25    2    1    2    0    0 -0.44954376704E+02 -0.10258027772E+03 -0.48991436331E+02  0.17490037192E+03  0.12508545039E+03 0.  0.
         24    2    1    2    0    0  0.67184185061E+01  0.92252816299E+02  0.59825923940E+03  0.61065056671E+03  0.80151592870E+02 0.  0.
        -11    1    5    5    0    0 -0.32937064393E+01 -0.13385299574E+02  0.37805856557E+02  0.40240496230E+02  0.00000000000E+00 0.  1.
         12    1    5    5    0    0  0.10012124945E+02  0.10563811587E+03  0.56045338284E+03  0.57041007048E+03  0.00000000000E+00 0. -1.
         11    1    3    3    0    0 -0.25128031569E+02  0.10380457491E+02 -0.10910460639E+03  0.11244103790E+03  0.00000000000E+00 0. -1.
        -12    1    3    3    0    0  0.63363989767E+02 -0.52996068590E-01 -0.29342130938E+03  0.30018504761E+03  0.00000000000E+00 0.  1.
          5    1    4    4  501    0  0.23785413611E+02 -0.10570718925E+02 -0.53757929075E+02  0.59873811784E+02  0.41800000000E+01 0. -1.
         -5    1    4    4    0  501 -0.68739790315E+02 -0.92009558796E+02  0.47664927430E+01  0.11502656013E+03  0.41800000000E+01 0. -1.
</event>
<event>
11    1  0.7157190E-009  0.2040536E+03  0.7561462E-02  0.1051694E+00
         22   -1    0    0    0    0  0.00000000000E+00  0.00000000000E+00  0.73155021273E+02  0.73155021273E+02  0.00000000000E+00 0.  1.
         22   -1    0    0    0    0 -0.00000000000E+00 -0.00000000000E+00 -0.10204052996E+04  0.10204052996E+04  0.00000000000E+00 0. -1.
        -24    2    1    2    0    0  0.53037587218E+02 -0.52209337129E+02 -0.43449230582E+03  0.44741782204E+03  0.76552877985E+02 0.  0.
         25    2    1    2    0    0 -0.11120783276E+03 -0.11136037114E+03 -0.24521755417E+03  0.31709175999E+03  0.12508885263E+03 0.  0.
         24    2    1    2    0    0  0.58170245544E+02  0.16356970827E+03 -0.26754041836E+03  0.32905073886E+03  0.80979542838E+02 0.  0.
        -13    1    5    5    0    0  0.31898917381E+02  0.12590525548E+03 -0.12884208837E+03  0.18294796534E+03  0.00000000000E+00 0.  1.
         14    1    5    5    0    0  0.26271328163E+02  0.37664452787E+02 -0.13869832999E+03  0.14610277352E+03  0.00000000000E+00 0. -1.
         13    1    3    3    0    0 -0.16356587049E+02 -0.29497885804E+02 -0.13316377615E+03  0.13736904486E+03  0.00000000000E+00 0. -1.
        -14    1    3    3    0    0  0.69394174267E+02 -0.22711451324E+02 -0.30132852966E+03  0.31004877718E+03  0.00000000000E+00 0.  1.
          5    1    4    4  501    0 -0.10883874866E+03 -0.90664686129E+02 -0.10784037085E+03  0.17808137608E+03  0.41800000000E+01 0. -1.
         -5    1    4    4    0  501 -0.23690840980E+01 -0.20695685008E+02 -0.13737718332E+03  0.13901038391E+03  0.41800000000E+01 0. -1.
</event>
<event>
11    1  0.7157190E-009  0.1388666E+03  0.7561462E-02  0.1108831E+00
         22   -1    0    0    0    0  0.00000000000E+00  0.00000000000E+00  0.80864801615E+03  0.80864801615E+03  0.00000000000E+00 0.  1.
         22   -1    0    0    0    0 -0.00000000000E+00 -0.00000000000E+00 -0.10442962414E+03  0.10442962414E+03  0.00000000000E+00 0. -1.
         24    2    1    2    0    0 -0.19979507262E+02 -0.33886758879E+02 -0.11800374781E+02  0.95149362163E+02  0.85829244068E+02 0.  0.
         25    2    1    2    0    0 -0.39001740572E+02  0.49582942343E+02  0.57105887740E+02  0.15128974215E+03  0.12509156537E+03 0.  0.
        -24    2    1    2    0    0  0.58981247834E+02 -0.15696183464E+02  0.65891287905E+03  0.66663853597E+03  0.80719252250E+02 0.  0.
        -13    1    3    3    0    0 -0.29316847744E+02  0.13912670677E+02  0.18923635469E+02  0.37565195945E+02  0.00000000000E+00 0.  1.
         14    1    3    3    0    0  0.93373404823E+01 -0.47799429556E+02 -0.30724010250E+02  0.57584166218E+02  0.00000000000E+00 0. -1.
         11    1    5    5    0    0  0.30175864920E+02  0.81316305322E+01  0.71432190380E+02  0.77969635508E+02  0.00000000000E+00 0. -1.
        -12    1    5    5    0    0  0.28805382914E+02 -0.23827813996E+02  0.58748068867E+03  0.58866890046E+03  0.00000000000E+00 0.  1.
          5    1    4    4  501    0  0.15526679205E+02 -0.29611292992E+02  0.42037511231E+02  0.53875144457E+02  0.41800000000E+01 0.  1.
         -5    1    4    4    0  501 -0.54528419777E+02  0.79194235335E+02  0.15068376509E+02  0.97414597696E+02  0.41800000000E+01 0.  1.
</event>
<event>
11    1  0.7157190E-009  0.1604865E+03  0.7561462E-02  0.1086621E+00
         22   -1    0    0    0    0  0.00000000000E+00  0.00000000000E+00  0.14385529396E+03  0.14385529396E+03  0.00000000000E+00 0. -1.
         22   -1    0    0    0    0 -0.00000000000E+00 -0.00000000000E+00 -0.17128466478E+04  0.17128466478E+04  0.00000000000E+00 0. -1.
         24    2    1    2    0    0  0.15808259924E+02  0.10277696377E+03 -0.15599824555E+04  0.15653340270E+04  0.76891801986E+02 0.  0.
         25    2    1    2    0    0 -0.59295177665E+02 -0.33874517274E+02 -0.69585790024E+02  0.15859511413E+03  0.12508727769E+03 0.  0.
        -24    2    1    2    0    0  0.43486917741E+02 -0.68902446493E+02  0.60576891654E+02  0.13277280067E+03  0.85559322394E+02 0.  0.
        -13    1    3    3    0    0 -0.68928214865E+01 -0.11156711992E+02 -0.17023287999E+03  0.17073727373E+03  0.00000000000E+00 0.  1.
         14    1    3    3    0    0  0.22701081410E+02  0.11393367576E+03 -0.13897495755E+04  0.13945967532E+04  0.00000000000E+00 0. -1.
         13    1    5    5    0    0  0.31273421047E+02 -0.78254795781E+01  0.62643985904E+02  0.70452352441E+02  0.00000000000E+00 0. -1.
        -14    1    5    5    0    0  0.12213496695E+02 -0.61076966915E+02 -0.20670942498E+01  0.62320448231E+02  0.00000000000E+00 0.  1.
          5    1    4    4  501    0 -0.26882669984E+02 -0.66217788776E+02  0.41380301027E+01  0.71708222603E+02  0.41800000000E+01 0.  1.
         -5    1    4    4    0  501 -0.32412507681E+02  0.32343271502E+02 -0.73723820126E+02  0.86886891529E+02  0.41800000000E+01 0.  1.
</event>
<event>
11    1  0.7157190E-009  0.1342702E+03  0.7561462E-02  0.1114131E+00
         22   -1    0    0    0    0  0.00000000000E+00  0.00000000000E+00  0.10139286598E+04  0.10139286598E+04  0.00000000000E+00 0. -1.
         22   -1    0    0    0    0 -0.00000000000E+00 -0.00000000000E+00 -0.29974618630E+03  0.29974618630E+03  0.00000000000E+00 0.  1.
         24    2    1    2    0    0 -0.10363785992E+02 -0.39377648499E+02 -0.18144626916E+03  0.20209667492E+03  0.79134759496E+02 0.  0.
         25    2    1    2    0    0  0.58777090345E+02  0.42634505132E+02 -0.56459330878E+02  0.15527034877E+03  0.12509507499E+03 0.  0.
        -24    2    1    2    0    0 -0.48413304353E+02 -0.32568566323E+01  0.95208807358E+03  0.95630782245E+03  0.75488385003E+02 0.  0.
        -11    1    3    3    0    0 -0.17285673095E+02 -0.49574946020E+01 -0.15988985095E+03  0.16089790453E+03  0.00000000000E+00 0.  1.
         12    1    3    3    0    0  0.69218871030E+01 -0.34420153898E+02 -0.21556418215E+02  0.41198770390E+02  0.00000000000E+00 0. -1.
         11    1    5    5    0    0 -0.66771581401E+02 -0.85739977891E+01  0.61389820263E+03  0.61757830330E+03  0.00000000000E+00 0. -1.
        -12    1    5    5    0    0  0.18358277048E+02  0.53171411568E+01  0.33818987095E+03  0.33872951915E+03  0.00000000000E+00 0.  1.
          5    1    4    4  501    0  0.80534143639E+02  0.60859560580E+02 -0.70632542893E+02  0.12327231206E+03  0.41800000000E+01 0.  1.
         -5    1    4    4    0  501 -0.21757053294E+02 -0.18225055448E+02  0.14173212015E+02  0.31998036705E+02  0.41800000000E+01 0.  1.
</event>
<event>
11    1  0.7157190E-009  0.1732610E+03  0.7561462E-02  0.1075228E+00
         22   -1    0    0    0    0  0.00000000000E+00  0.00000000000E+00  0.11462496976E+04  0.11462496976E+04  0.00000000000E+00 0. -1.
         22   -1    0    0    0    0 -0.00000000000E+00 -0.00000000000E+00 -0.60075635164E+03  0.60075635164E+03  0.00000000000E+00 0.  1.
         24    2    1    2    0    0  0.54967592981E+02 -0.10786740802E+03 -0.55823554237E+03  0.57705538382E+03  0.81909591898E+02 0.  0.
         25    2    1    2    0    0 -0.71313603653E+02  0.68864644039E+02  0.17559038797E+03  0.23729219300E+03  0.12509049224E+03 0.  0.
        -24    2    1    2    0    0  0.16346010672E+02  0.39002763980E+02  0.92813850040E+03  0.93265847245E+03  0.81377777310E+02 0.  0.
        -13    1    3    3    0    0  0.80944878773E+01 -0.60861789007E+02 -0.41082451668E+03  0.41538712257E+03  0.00000000000E+00 0.  1.
         14    1    3    3    0    0  0.46873105104E+02 -0.47005619012E+02 -0.14741102569E+03  0.16166826125E+03  0.00000000000E+00 0. -1.
         13    1    5    5    0    0  0.40947431379E+02  0.49894740651E+02  0.68596656204E+03  0.68899659035E+03  0.00000000000E+00 0. -1.
        -14    1    5    5    0    0 -0.24601420707E+02 -0.10891976671E+02  0.24217193836E+03  0.24366188210E+03  0.00000000000E+00 0.  1.
          5    1    4    4  501    0 -0.10276604278E+03  0.36290193960E+02  0.94448200284E+02  0.14427672253E+03  0.41800000000E+01 0.  1.
         -5    1    4    4    0  501  0.31452439128E+02  0.32574450079E+02  0.81142187686E+02  0.93015470474E+02  0.41800000000E+01 0.  1.
</event>
<event>
11    1  0.7157190E-009  0.1323711E+03  0.7561462E-02  0.1116389E+00
         22   -1    0    0    0    0  0.00000000000E+00  0.00000000000E+00  0.16514711124E+03  0.16514711124E+03  0.00000000000E+00 0.  1.
         22   -1    0    0    0    0 -0.00000000000E+00 -0.00000000000E+00 -0.44696569518E+03  0.44696569518E+03  0.00000000000E+00 0. -1.
        -24    2    1    2    0    0  0.12529994430E+02 -0.44961944977E+02 -0.34408079952E+03  0.35646062334E+03  0.80585371734E+02 0.  0.
         25    2    1    2    0    0 -0.17569436557E+02  0.10810911541E+02 -0.27487732870E+02  0.12972596479E+03  0.12509072537E+03 0.  0.
         24    2    1    2    0    0  0.50394421269E+01  0.34151033435E+02  0.89749948456E+02  0.12592621828E+03  0.81306027708E+02 0.  0.
        -13    1    5    5    0    0  0.35193341975E+02  0.81656622087E+01  0.11130289232E+02  0.37803871456E+02  0.00000000000E+00 0.  1.
         14    1    5    5    0    0 -0.30153899848E+02  0.25985371227E+02  0.78619659223E+02  0.88122346827E+02  0.00000000000E+00 0. -1.
         13    1    3    3    0    0 -0.27041946582E+02  0.66080251582E+01 -0.11639012241E+03  0.11967286019E+03  0.00000000000E+00 0. -1.
        -14    1    3    3    0    0  0.39571941012E+02 -0.51569970135E+02 -0.22769067712E+03  0.23678776316E+03  0.00000000000E+00 0.  1.
          5    1    4    4  501    0 -0.62136869429E+01 -0.51258084328E+02  0.14530468958E+02  0.53801561711E+02  0.41800000000E+01 0.  1.
         -5    1    4    4    0  501 -0.11355749614E+02  0.62068995870E+02 -0.42018201828E+02  0.75924403076E+02  0.41800000000E+01 0.  1.
</event>
<event>
11    1  0.7157190E-009  0.1520155E+03  0.7561462E-02  0.1094837E+00
         22   -1    0    0    0    0  0.00000000000E+00  0.00000000000E+00  0.32355803686E+03  0.32355803686E+03  0.00000000000E+00 0.  1.
         22   -1    0    0    0    0 -0.00000000000E+00 -0.00000000000E+00 -0.40065208166E+03  0.40065208166E+03  0.00000000000E+00 0. -1.
         24    2    1    2    0    0 -0.62264459152E+01  0.24904198513E+02 -0.29563368476E+03  0.30708910351E+03  0.79028186098E+02 0.  0.
         25    2    1    2    0    0  0.29643447702E+02 -0.10462254848E+03 -0.72118674426E+01  0.16590528847E+03  0.12509173461E+03 0.  0.
        -24    2    1    2    0    0 -0.23417001786E+02  0.79718349968E+02  0.22575150739E+03  0.25121572654E+03  0.72403224226E+02 0.  0.
        -11    1    3    3    0    0 -0.63635315860E+01 -0.22775925717E+02 -0.35723413027E+02  0.42841563520E+02  0.00000000000E+00 0.  1.
         12    1    3    3    0    0  0.13708567084E+00  0.47680124230E+02 -0.25991027173E+03  0.26424753999E+03  0.00000000000E+00 0. -1.
         13    1    5    5    0    0 -0.20669546354E+02  0.50944362412E+02  0.54045946678E+02  0.77094244665E+02  0.00000000000E+00 0. -1.
        -14    1    5    5    0    0 -0.27474554320E+01  0.28773987556E+02  0.17170556072E+03  0.17412148188E+03  0.00000000000E+00 0.  1.
          5    1    4    4  501    0 -0.12518815600E+02 -0.93306853148E+01  0.46050466006E+02  0.48804715467E+02  0.41800000000E+01 0. -1.
         -5    1    4    4    0  501  0.42162263302E+02 -0.95291863166E+02 -0.53262333448E+02  0.11710057300E+03  0.41800000000E+01 0. -1.
</event>
<event>
11    1  0.7157190E-009  0.1510268E+03  0.7561462E-02  0.1095834E+00
         22   -1    0    0    0    0  0.00000000000E+00  0.00000000000E+00  0.11449970446E+04  0.11449970446E+04  0.00000000000E+00 0. -1.
         22   -1    0    0    0    0 -0.00000000000E+00 -0.00000000000E+00 -0.44915218191E+03  0.44915218191E+03  0.00000000000E+00 0. -1.
        -24    2    1    2    0    0 -0.17701868824E+01  0.66891353912E+02 -0.42653342569E+03  0.43854801526E+03  0.76915613934E+02 0.  0.
         25    2    1    2    0    0  0.84411451949E+02 -0.53283702122E+02  0.65385621802E+03  0.67315730260E+03  0.12509338138E+03 0.  0.
         24    2    1    2    0    0 -0.82641265067E+02 -0.13607651790E+02  0.46852207032E+03  0.48244390863E+03  0.78895169129E+02 0.  0.
        -13    1    5    5    0    0 -0.58136972727E+02 -0.14628135684E+02  0.13138277644E+03  0.14441372475E+03  0.00000000000E+00 0.  1.
         14    1    5    5    0    0 -0.24504292340E+02  0.10204838947E+01  0.33713929389E+03  0.33803018388E+03  0.00000000000E+00 0. -1.
         13    1    3    3    0    0 -0.68211977947E+00  0.40533332896E+02 -0.39652794905E+03  0.39859482026E+03  0.00000000000E+00 0. -1.
        -14    1    3    3    0    0 -0.10880671029E+01  0.26358021016E+02 -0.30005476637E+02  0.39953194992E+02  0.00000000000E+00 0.  1.
          5    1    4    4  501    0  0.10858619051E+03 -0.20784584036E+02  0.56037906070E+03  0.57119622178E+03  0.41800000000E+01 0.  1.
         -5    1    4    4    0  501 -0.24174738563E+02 -0.32499118086E+02  0.93477157325E+02  0.10196108082E+03  0.41800000000E+01 0.  1.
</event>
<event>
11    1  0.7157190E-009  0.4489970E+03  0.7561462E-02  0.9515317E-01
         22   -1    0    0    0    0  0.00000000000E+00  0.00000000000E+00  0.68002726440E+03  0.68002726440E+03  0.00000000000E+00 0. -1.
         22   -1    0    0    0    0 -0.00000000000E+00 -0.00000000000E+00 -0.25219361675E+03  0.25219361675E+03  0.00000000000E+00 0. -1.
        -24    2    1    2    0    0  0.93165891893E+02 -0.19786975631E+03 -0.87315277901E+02  0.24886391730E+03  0.80479610489E+02 0.  0.
         25    2    1    2    0    0 -0.22210767741E+00 -0.76957104435E+02  0.17496361057E+03  0.22843406623E+03  0.12508961721E+03 0.  0.
         24    2    1    2    0    0 -0.92943784216E+02  0.27482686074E+03  0.34018531498E+03  0.45492289762E+03  0.84026447268E+02 0.  0.
        -11    1    5    5    0    0 -0.20045474252E+02  0.14707790044E+02  0.66969216718E+01  0.25748570559E+02  0.00000000000E+00 0.  1.
         12    1    5    5    0    0 -0.72898309964E+02  0.26011907070E+03  0.33348839331E+03  0.42917432706E+03  0.00000000000E+00 0. -1.
         13    1    3    3    0    0  0.96966032864E+02 -0.20338896909E+03 -0.80402477690E+02  0.23923637410E+03  0.00000000000E+00 0. -1.
        -14    1    3    3    0    0 -0.38001409713E+01  0.55192127825E+01 -0.69128002117E+01  0.96275431917E+01  0.00000000000E+00 0.  1.
          5    1    4    4  501    0  0.61254034136E+02 -0.25278553620E+02  0.82082390326E+02  0.10557486999E+03  0.41800000000E+01 0. -1.
         -5    1    4    4    0  501 -0.61476141813E+02 -0.51678550816E+02  0.92881220248E+02  0.12285919624E+03  0.41800000000E+01 0. -1.
</event>
<event>
11    1  0.7157190E-009  0.1507116E+03  0.7561462E-02  0.1096154E+00
         22   -1    0    0    0    0  0.00000000000E+00  0.00000000000E+00  0.62641254292E+03  0.62641254292E+03  0.00000000000E+00 0.  1.
         22   -1    0    0    0    0 -0.00000000000E+00 -0.00000000000E+00 -0.19474385279E+03  0.19474385279E+03  0.00000000000E+00 0.  1.
        -24    2    1    2    0    0 -0.29574673168E+02  0.40698156737E+01 -0.14670825880E+03  0.16970656192E+03  0.79911071000E+02 0.  0.
         25    2    1    2    0    0  0.10407263155E+03 -0.24571396145E+02  0.21237652894E+03  0.26867350903E+03  0.12508716267E+03 0.  0.
         24    2    1    2    0    0 -0.74497958387E+02  0.20501580471E+02  0.36600041999E+03  0.38277632475E+03  0.81185877811E+02 0.  0.
        -13    1    5    5    0    0 -0.17625124311E+02  0.32796179214E+02  0.25249911300E+03  0.25522938005E+03  0.00000000000E+00 0.  1.
         14    1    5    5    0    0 -0.56872834076E+02 -0.12294598743E+02  0.11350130699E+03  0.12754694470E+03  0.00000000000E+00 0. -1.
         11    1    3    3    0    0  0.13797410647E+02  0.26173964080E+02 -0.25398551312E+02  0.38993991139E+02  0.00000000000E+00 0. -1.
        -12    1    3    3    0    0 -0.43372083815E+02 -0.22104148406E+02 -0.12130970748E+03  0.13071257079E+03  0.00000000000E+00 0.  1.
          5    1    4    4  501    0  0.67080946766E+02 -0.75160531893E+02  0.11673493046E+03  0.15425133829E+03  0.41800000000E+01 0.  1.
         -5    1    4    4    0  501  0.36991684789E+02  0.50589135749E+02  0.95641598479E+02  0.11442217075E+03  0.41800000000E+01 0.  1.
</event>
<event>
11    1  0.7157190E-009  0.1491127E+03  0.7561462E-02  0.1097789E+00
         22   -1    0    0    0    0  0.00000000000E+00  0.00000000000E+00  0.18226599458E+03  0.18226599458E+03  0.00000000000E+00 0. -1.
         22   -1    0    0    0    0 -0.00000000000E+00 -0.00000000000E+00 -0.23460475866E+04  0.23460475866E+04  0.00000000000E+00 0.  1.
        -24    2    1    2    0    0  0.33772366739E+02  0.90038432287E+01 -0.22094994575E+04  0.22116346884E+04  0.90655946349E+02 0.  0.
         25    2    1    2    0    0  0.52910335000E+02  0.32312980312E+01 -0.68798140252E+02  0.15228603698E+03  0.12509159892E+03 0.  0.
         24    2    1    2    0    0 -0.86682701739E+02 -0.12235141260E+02  0.11451600570E+03  0.16439285576E+03  0.79041166480E+02 0.  0.
        -13    1    5    5    0    0 -0.72977600483E+02  0.12373059767E+02  0.38725234297E+02  0.83537216566E+02  0.00000000000E+00 0.  1.
         14    1    5    5    0    0 -0.13705101256E+02 -0.24608201027E+02  0.75790771407E+02  0.80855639189E+02  0.00000000000E+00 0. -1.
         11    1    3    3    0    0  0.41287517432E+02 -0.33417306375E+02 -0.10633179833E+04  0.10646438415E+04  0.00000000000E+00 0. -1.
        -12    1    3    3    0    0 -0.75151506928E+01  0.42421149604E+02 -0.11461814741E+04  0.11469908470E+04  0.00000000000E+00 0.  1.
          5    1    4    4  501    0 -0.24700233465E+02  0.37229852060E+02 -0.30875078787E+01  0.44979645647E+02  0.41800000000E+01 0.  1.
         -5    1    4    4    0  501  0.77610568465E+02 -0.33998554029E+02 -0.65710632374E+02  0.10730639133E+03  0.41800000000E+01 0.  1.
</event>
<event>
11    1  0.7157190E-009  0.1806473E+03  0.7561462E-02  0.1069120E+00
         22   -1    0    0    0    0  0.00000000000E+00  0.00000000000E+00  0.11371200015E+04  0.11371200015E+04  0.00000000000E+00 0. -1.
         22   -1    0    0    0    0 -0.00000000000E+00 -0.00000000000E+00 -0.31689545704E+03  0.31689545704E+03  0.00000000000E+00 0. -1.
        -24    2    1    2    0    0 -0.92149530713E+02 -0.10372878775E+03 -0.25318032774E+03  0.30583791291E+03  0.10092251085E+03 0.  0.
         25    2    1    2    0    0  0.62894033935E+02  0.50094471193E+02  0.12494063746E+03  0.19422165459E+03  0.12508706038E+03 0.  0.
         24    2    1    2    0    0  0.29255496778E+02  0.53634316561E+02  0.94846423473E+03  0.95395589104E+03  0.81944575648E+02 0.  0.
        -11    1    5    5    0    0  0.27614459594E+01 -0.16656549863E+02  0.60253761268E+02  0.62574611337E+02  0.00000000000E+00 0.  1.
         12    1    5    5    0    0  0.26494050819E+02  0.70290866423E+02  0.88821047346E+03  0.89138127970E+03  0.00000000000E+00 0. -1.
         11    1    3    3    0    0 -0.85673887805E+02 -0.10642563250E+03 -0.26144878666E+03  0.29499474292E+03  0.00000000000E+00 0. -1.
        -12    1    3    3    0    0 -0.64756429085E+01  0.26968447442E+01  0.82684589144E+01  0.10843169992E+02  0.00000000000E+00 0.  1.
          5    1    4    4  501    0  0.70310169094E+02  0.78855554456E+02  0.57371222607E+02  0.12029400621E+03  0.41800000000E+01 0.  1.
         -5    1    4    4    0  501 -0.74161351584E+01 -0.28761083264E+02  0.67569414853E+02  0.73927648379E+02  0.41800000000E+01 0.  1.
</event>
<event>
11    1  0.7157190E-009  0.1480986E+03  0.7561462E-02  0.1098838E+00
         22   -1    0    0    0    0  0.00000000000E+00  0.00000000000E+00  0.12771161245E+03  0.12771161245E+03  0.00000000000E+00 0.  1.
         22   -1    0    0    0    0 -0.00000000000E+00 -0.00000000000E+00 -0.22913888578E+04  0.22913888578E+04  0.00000000000E+00 0.  1.
         24    2    1    2    0    0 -0.60084577194E+01 -0.77172429093E+02 -0.20484249109E+04  0.20514353684E+04  0.79691717956E+02 0.  0.
         25    2    1    2    0    0 -0.33514939230E+02  0.13310515315E+03 -0.16949938124E+03  0.25142942015E+03  0.12508589101E+03 0.  0.
        -24    2    1    2    0    0  0.39523396950E+02 -0.55932724060E+02  0.54247046735E+02  0.11623568171E+03  0.76664353482E+02 0.  0.
        -11    1    3    3    0    0  0.63306566701E+01 -0.91324397655E+02 -0.17818925688E+04  0.17842425142E+04  0.00000000000E+00 0.  1.
         12    1    3    3    0    0 -0.12339114390E+02  0.14151968562E+02 -0.26653234208E+03  0.26719285420E+03  0.00000000000E+00 0. -1.
         13    1    5    5    0    0  0.20395147413E+02  0.17198241033E+02  0.90955968110E+01  0.28186369294E+02  0.00000000000E+00 0. -1.
        -14    1    5    5    0    0  0.19128249537E+02 -0.73130965093E+02  0.45151449925E+02  0.88049312411E+02  0.00000000000E+00 0.  1.
          5    1    4    4  501    0  0.36129374285E+02  0.10060080143E+03 -0.11536585936E+03  0.15732961209E+03  0.41800000000E+01 0.  1.
         -5    1    4    4    0  501 -0.69644313515E+02  0.32504351719E+02 -0.54133521883E+02  0.94099808061E+02  0.41800000000E+01 0.  1.
</event>
<event>
11    1  0.7157190E-009  0.1302716E+03  0.7561462E-02  0.1118936E+00
         22   -1    0    0    0    0  0.00000000000E+00  0.00000000000E+00  0.31023770859E+04  0.31023770859E+04  0.00000000000E+00 0.  1.
         22   -1    0    0    0    0 -0.00000000000E+00 -0.00000000000E+00 -0.11810017987E+03  0.11810017987E+03  0.00000000000E+00 0. -1.
         24    2    1    2    0    0  0.36497139527E+02 -0.60471853982E+01 -0.67974765736E+02  0.11216282934E+03  0.81186956239E+02 0.  0.
         25    2    1    2    0    0 -0.33779177280E+02 -0.10389425755E+02  0.12628201228E+03  0.18122838146E+03  0.12509039386E+03 0.  0.
        -24    2    1    2    0    0 -0.27179622476E+01  0.16436611153E+02  0.29259696595E+04  0.29270860550E+04  0.79099781544E+02 0.  0.
        -11    1    3    3    0    0 -0.16121393225E+02 -0.13619316849E+01  0.92211141275E+01  0.18622113822E+02  0.00000000000E+00 0.  1.
         12    1    3    3    0    0  0.52618532753E+02 -0.46852537133E+01 -0.77195879863E+02  0.93540715516E+02  0.00000000000E+00 0. -1.
         11    1    5    5    0    0 -0.24129173946E+02 -0.23952526336E+02  0.14944121509E+04  0.14947988551E+04  0.00000000000E+00 0. -1.
        -12    1    5    5    0    0  0.21411211699E+02  0.40389137489E+02  0.14315575086E+04  0.14322871999E+04  0.00000000000E+00 0.  1.
          5    1    4    4  501    0 -0.22395357555E+02  0.34476359101E+02 -0.53164282624E+01  0.41664231499E+02  0.41800000000E+01 0. -1.
         -5    1    4    4    0  501 -0.11383819725E+02 -0.44865784856E+02  0.13159844054E+03  0.13956414996E+03  0.41800000000E+01 0. -1.
</event>
<event>
11    1  0.7157190E-009  0.1634329E+03  0.7561462E-02  0.1083892E+00
         22   -1    0    0    0    0  0.00000000000E+00  0.00000000000E+00  0.12279346551E+04  0.12279346551E+04  0.00000000000E+00 0.  1.
         22   -1    0    0    0    0 -0.00000000000E+00 -0.00000000000E+00 -0.13626313111E+03  0.13626313111E+03  0.00000000000E+00 0. -1.
         24    2    1    2    0    0 -0.10094381456E+03 -0.26763085794E+02 -0.60519176214E+02  0.14453819976E+03  0.79516061528E+02 0.  0.
         25    2    1    2    0    0  0.10777331547E+03  0.18717335539E+02  0.18404077619E+03  0.24795868359E+03  0.12508827000E+03 0.  0.
        -24    2    1    2    0    0 -0.68295009108E+01  0.80457502546E+01  0.96814992401E+03  0.97170090286E+03  0.82322494254E+02 0.  0.
        -13    1    3    3    0    0 -0.63177612451E+01  0.21959337747E+02 -0.16502464226E+01  0.22909603547E+02  0.00000000000E+00 0.  1.
         14    1    3    3    0    0 -0.94626053314E+02 -0.48722423541E+02 -0.58868929791E+02  0.12162859621E+03  0.00000000000E+00 0. -1.
         11    1    5    5    0    0  0.28460892095E+02  0.26646838858E+02  0.32797593675E+03  0.33028516692E+03  0.00000000000E+00 0. -1.
        -12    1    5    5    0    0 -0.35290393006E+02 -0.18601088604E+02  0.64017398726E+03  0.64141573594E+03  0.00000000000E+00 0.  1.
          5    1    4    4  501    0  0.29729602651E+01 -0.43339507583E+02  0.39128460847E+02  0.58614505530E+02  0.41800000000E+01 0. -1.
         -5    1    4    4    0  501  0.10480035521E+03  0.62056843122E+02  0.14491231534E+03  0.18934417806E+03  0.41800000000E+01 0. -1.
</event>
<event>
11    1  0.7157190E-009  0.1406835E+03  0.7561462E-02  0.1106798E+00
         22   -1    0    0    0    0  0.00000000000E+00  0.00000000000E+00  0.10269621328E+04  0.10269621328E+04  0.00000000000E+00 0. -1.
         22   -1    0    0    0    0 -0.00000000000E+00 -0.00000000000E+00 -0.46106164434E+02  0.46106164434E+02  0.00000000000E+00 0.  1.
         24    2    1    2    0    0  0.87426665544E+01  0.59706780491E+02  0.55732843798E+02  0.10979449766E+03  0.72851547571E+02 0.  0.
         25    2    1    2    0    0 -0.16798404313E+02 -0.79553560964E+02  0.32807456986E+03  0.36040323331E+03  0.12508641707E+03 0.  0.
        -24    2    1    2    0    0  0.80557377591E+01  0.19846780473E+02  0.59704855468E+03  0.60287056624E+03  0.80790800163E+02 0.  0.
        -13    1    3    3    0    0  0.80986678917E+01  0.59138115103E+02  0.59296340630E+01  0.59983878164E+02  0.00000000000E+00 0.  1.
         14    1    3    3    0    0  0.64399866270E+00  0.56866538829E+00  0.49803209735E+02  0.49810619495E+02  0.00000000000E+00 0. -1.
         13    1    5    5    0    0  0.40533356934E+02  0.18129025660E+02  0.45425865124E+03  0.45642363745E+03  0.00000000000E+00 0. -1.
        -14    1    5    5    0    0 -0.32477619175E+02  0.17177548130E+01  0.14278990344E+03  0.14644692879E+03  0.00000000000E+00 0.  1.
          5    1    4    4  501    0 -0.20551688170E+02  0.29737188152E+02  0.11872082876E+03  0.12417237949E+03  0.41800000000E+01 0. -1.
         -5    1    4    4    0  501  0.37532838569E+01 -0.10929074912E+03  0.20935374110E+03  0.23623085382E+03  0.41800000000E+01 0. -1.
</event>
<event>
11    1  0.7157190E-009  0.1834174E+03  0.7561462E-02  0.1066912E+00
         22   -1    0    0    0    0  0.00000000000E+00  0.00000000000E+00  0.28610715257E+03  0.28610715257E+03  0.00000000000E+00 0. -1.
         22   -1    0    0    0    0 -0.00000000000E+00 -0.00000000000E+00 -0.52973862544E+04  0.52973862544E+04  0.00000000000E+00 0.  1.
        -24    2    1    2    0    0  0.95439688063E+02 -0.22158308394E+02 -0.46670047119E+04  0.46687227127E+04  0.80243768210E+02 0.  0.
         25    2    1    2    0    0 -0.17546157200E+03 -0.83651673550E+02 -0.58473236103E+03  0.62876344607E+03  0.12508865396E+03 0.  0.
         24    2    1    2    0    0  0.80021883941E+02  0.10580998194E+03  0.24045797115E+03  0.28600724817E+03  0.79880259953E+02 0.  0.
        -13    1    5    5    0    0  0.98261121317E+01  0.18407808133E+02  0.11863223783E+03  0.12045334256E+03  0.00000000000E+00 0.  1.
         14    1    5    5    0    0  0.70195771809E+02  0.87402173811E+02  0.12182573331E+03  0.16555390561E+03  0.00000000000E+00 0. -1.
         13    1    3    3    0    0  0.44025375494E+02 -0.23193690920E+02 -0.90534042229E+03  0.90670693238E+03  0.00000000000E+00 0. -1.
        -14    1    3    3    0    0  0.51414312569E+02  0.10353825261E+01 -0.37616642896E+04  0.37620157803E+04  0.00000000000E+00 0.  1.
          5    1    4    4  501    0  0.18775331411E+02 -0.15774348206E+02 -0.51419991719E+02  0.57121196410E+02  0.41800000000E+01 0.  1.
         -5    1    4    4    0  501 -0.19423690342E+03 -0.67877325344E+02 -0.53331236931E+03  0.57164224966E+03  0.41800000000E+01 0.  1.
</event>
<event>
11    1  0.7157190E-009  0.1331114E+03  0.7561462E-02  0.1115504E+00
         22   -1    0    0    0    0  0.00000000000E+00  0.00000000000E+00  0.23888710968E+04  0.23888710968E+04  0.00000000000E+00 0.  1.
         22   -1    0    0    0    0 -0.00000000000E+00 -0.00000000000E+00 -0.14695334763E+03  0.14695334763E+03  0.00000000000E+00 0. -1.
         24    2    1    2    0    0  0.48488615908E+01  0.29637348374E+02 -0.12176468433E+03  0.14955899576E+03  0.81482335422E+02 0.  0.
         25    2    1    2    0    0  0.22530744613E+01  0.18337537513E+02  0.38286838517E+03  0.40320789573E+03  0.12508822964E+03 0.  0.
        -24    2    1    2    0    0 -0.71019360521E+01 -0.47974885887E+02  0.19808140484E+04  0.19830575530E+04  0.80876059717E+02 0.  0.
        -11    1    3    3    0    0 -0.14633473918E+02 -0.44796786409E+01  0.55817356706E+01  0.16289931023E+02  0.00000000000E+00 0.  1.
         12    1    3    3    0    0  0.19482335509E+02  0.34117027015E+02 -0.12734642000E+03  0.13326906474E+03  0.00000000000E+00 0. -1.
         11    1    5    5    0    0 -0.36459081852E+02 -0.52472866808E+02  0.12339151545E+04  0.12355684015E+04  0.00000000000E+00 0. -1.
        -12    1    5    5    0    0  0.29357145800E+02  0.44979809202E+01  0.74689889389E+03  0.74748915145E+03  0.00000000000E+00 0.  1.
          5    1    4    4  501    0 -0.20902610993E+02  0.51397151183E+02  0.33865658673E+03  0.34319723546E+03  0.41800000000E+01 0. -1.
         -5    1    4    4    0  501  0.23155685454E+02 -0.33059613670E+02  0.44211798439E+02  0.60010660270E+02  0.41800000000E+01 0. -1.
</event>
<event>
11    1  0.7157190E-009  0.1755007E+03  0.7561462E-02  0.1073342E+00
         22   -1    0    0    0    0  0.00000000000E+00  0.00000000000E+00  0.30097995842E+03  0.30097995842E+03  0.00000000000E+00 0. -1.
         22   -1    0    0    0    0 -0.00000000000E+00 -0.00000000000E+00 -0.36020580391E+03  0.36020580391E+03  0.00000000000E+00 0. -1.
         24    2    1    2    0    0  0.49615554233E+02 -0.34261686665E+01 -0.22095426469E+03  0.24097189341E+03  0.82299601926E+02 0.  0.
         25    2    1    2    0    0 -0.16228670876E+03 -0.90761096712E+01 -0.20171374385E+01  0.20511174317E+03  0.12508959485E+03 0.  0.
        -24    2    1    2    0    0  0.11267115452E+03  0.12502278338E+02  0.16374555664E+03  0.21510212574E+03  0.81272511665E+02 0.  0.
        -13    1    3    3    0    0  0.50727151471E+02 -0.35228454758E+02 -0.11761646289E+03  0.13284547514E+03  0.00000000000E+00 0.  1.
         14    1    3    3    0    0 -0.11115972382E+01  0.31802286091E+02 -0.10333780180E+03  0.10812641828E+03  0.00000000000E+00 0. -1.
         13    1    5    5    0    0  0.89127449099E+02  0.28917912856E+02  0.16098393478E+03  0.18626801960E+03  0.00000000000E+00 0. -1.
        -14    1    5    5    0    0  0.23543705424E+02 -0.16415634519E+02  0.27616218611E+01  0.28834106143E+02  0.00000000000E+00 0.  1.
          5    1    4    4  501    0 -0.62352478439E+02  0.56051096207E+02  0.12514581064E+02  0.84874284049E+02  0.41800000000E+01 0. -1.
         -5    1    4    4    0  501 -0.99934230317E+02 -0.65127205878E+02 -0.14531718503E+02  0.12023745913E+03  0.41800000000E+01 0. -1.
</event>
<event>
11    1  0.7157190E-009  0.1674457E+03  0.7561462E-02  0.1080276E+00
         22   -1    0    0    0    0  0.00000000000E+00  0.00000000000E+00  0.22240826525E+03  0.22240826525E+03  0.00000000000E+00 0.  1.
         22   -1    0    0    0    0 -0.00000000000E+00 -0.00000000000E+00 -0.58888900322E+03  0.58888900322E+03  0.00000000000E+00 0.  1.
         24    2    1    2    0    0 -0.49400287328E+02  0.96900277786E+02 -0.42769107362E+03  0.44840097510E+03  0.79458969240E+02 0.  0.
         25    2    1    2    0    0  0.67506151817E+02 -0.10603853792E+03 -0.82413780427E+02  0.19555215359E+03  0.12508941407E+03 0.  0.
        -24    2    1    2    0    0 -0.18105864489E+02  0.91382601314E+01  0.14362411607E+03  0.16734413978E+03  0.83455642565E+02 0.  0.
        -11    1    3    3    0    0 -0.12567304670E+02  0.96523987018E+02 -0.32719844434E+03  0.34137023771E+03  0.00000000000E+00 0.  1.
         12    1    3    3    0    0 -0.36832982658E+02  0.37629076731E+00 -0.10049262928E+03  0.10703073739E+03  0.00000000000E+00 0. -1.
         13    1    5    5    0    0 -0.14533187249E+02 -0.42650786629E+01 -0.65708327517E+01  0.16510005168E+02  0.00000000000E+00 0. -1.
        -14    1    5    5    0    0 -0.35726772407E+01  0.13403338794E+02  0.15019494882E+03  0.15083413462E+03  0.00000000000E+00 0.  1.
          5    1    4    4  501    0  0.34198012881E+02 -0.66674690498E+02 -0.11285135790E+03  0.13552829895E+03  0.41800000000E+01 0.  1.
         -5    1    4    4    0  501  0.33308138937E+02 -0.39363847419E+02  0.30437577468E+02  0.60023854635E+02  0.41800000000E+01 0.  1.
</event>
<event>
11    1  0.7157190E-009  0.1751609E+03  0.7561462E-02  0.1073626E+00
         22   -1    0    0    0    0  0.00000000000E+00  0.00000000000E+00  0.47682523521E+03  0.47682523521E+03  0.00000000000E+00 0. -1.
         22   -1    0    0    0    0 -0.00000000000E+00 -0.00000000000E+00 -0.73013891091E+03  0.73013891091E+03  0.00000000000E+00 0.  1.
         24    2    1    2    0    0  0.59636580427E+02  0.43375997887E+02 -0.64972730745E+03  0.65885733774E+03  0.80680967612E+02 0.  0.
         25    2    1    2    0    0 -0.36211212317E+02  0.87958784214E+02  0.43532321530E+02  0.16306533133E+03  0.12508892695E+03 0.  0.
        -24    2    1    2    0    0 -0.23425368110E+02 -0.13133478210E+03  0.35288131022E+03  0.38504147704E+03  0.77033415366E+02 0.  0.
        -13    1    3    3    0    0  0.49168368701E+02 -0.13823366279E+02 -0.29125593275E+03  0.29570024061E+03  0.00000000000E+00 0.  1.
         14    1    3    3    0    0  0.10468211727E+02  0.57199364167E+02 -0.35847137470E+03  0.36315709714E+03  0.00000000000E+00 0. -1.
         13    1    5    5    0    0 -0.21930237027E+02 -0.13966094379E+03  0.34712574414E+03  0.37480981412E+03  0.00000000000E+00 0. -1.
        -14    1    5    5    0    0 -0.14951310834E+01  0.83261616847E+01  0.57555660796E+01  0.10231662927E+02  0.00000000000E+00 0.  1.
          5    1    4    4  501    0  0.43725671155E+02  0.48382290404E+02  0.41728484958E+01  0.65480267312E+02  0.41800000000E+01 0.  1.
         -5    1    4    4    0  501 -0.79936883473E+02  0.39576493810E+02  0.39359473034E+02  0.97585064017E+02  0.41800000000E+01 0.  1.
</event>
<event>
11    1  0.7157190E-009  0.1498213E+03  0.7561462E-02  0.1097062E+00
         22   -1    0    0    0    0  0.00000000000E+00  0.00000000000E+00  0.19430064466E+04  0.19430064466E+04  0.00000000000E+00 0.  1.
         22   -1    0    0    0    0 -0.00000000000E+00 -0.00000000000E+00 -0.46818406470E+03  0.46818406470E+03  0.00000000000E+00 0. -1.
         24    2    1    2    0    0 -0.80973816609E+02  0.13902433145E+02 -0.44483520972E+03  0.45984431529E+03  0.82634096328E+02 0.  0.
         25    2    1    2    0    0  0.91874994759E+02 -0.82993267608E+02  0.54657104082E+03  0.57420867951E+03  0.12508720091E+03 0.  0.
        -24    2    1    2    0    0 -0.10901178150E+02  0.69090834463E+02  0.13730865508E+04  0.13771375165E+04  0.79048619558E+02 0.  0.
        -11    1    3    3    0    0 -0.97999825614E+01 -0.24619800915E+02 -0.47883459710E+02  0.54726592887E+02  0.00000000000E+00 0.  1.
         12    1    3    3    0    0 -0.71173834048E+02  0.38522234060E+02 -0.39695175001E+03  0.40511772240E+03  0.00000000000E+00 0. -1.
         13    1    5    5    0    0 -0.51102061147E+01 -0.17730483136E+02  0.21996957208E+03  0.22074215021E+03  0.00000000000E+00 0. -1.
        -14    1    5    5    0    0 -0.57909720352E+01  0.86821317599E+02  0.11531169788E+04  0.11563953663E+04  0.00000000000E+00 0.  1.
          5    1    4    4  501    0 -0.12065765438E+02  0.20828379734E+02  0.41182199111E+02  0.47883713532E+02  0.41800000000E+01 0.  1.
         -5    1    4    4    0  501  0.10394076020E+03 -0.10382164734E+03  0.50538884171E+03  0.52632496598E+03  0.41800000000E+01 0.  1.
</event>
<event>
11    1  0.7157190E-009  0.2259511E+03  0.7561462E-02  0.1037552E+00
         22   -1    0    0    0    0  0.00000000000E+00  0.00000000000E+00  0.16436582211E+04  0.16436582211E+04  0.00000000000E+00 0. -1.
         22   -1    0    0    0    0 -0.00000000000E+00 -0.00000000000E+00 -0.29270428314E+04  0.29270428314E+04  0.00000000000E+00 0.  1.
        -24    2    1    2    0    0 -0.18720224977E+03  0.16322982455E+02 -0.26660355501E+04  0.26738814450E+04  0.81149895052E+02 0.  0.
         25    2    1    2    0    0  0.17415019079E+03 -0.18672830369E+03 -0.17094617022E+03  0.33176267511E+03  0.12509249031E+03 0.  0.
         24    2    1    2    0    0  0.13052058979E+02  0.17040532123E+03  0.15535971100E+04  0.15650569324E+04  0.80813932263E+02 0.  0.
        -11    1    5    5    0    0 -0.86781519760E+01  0.77082025504E+02  0.39763488419E+03  0.40513016439E+03  0.00000000000E+00 0.  1.
         12    1    5    5    0    0  0.21730210955E+02  0.93323295730E+02  0.11559622258E+04  0.11599267680E+04  0.00000000000E+00 0. -1.
         13    1    3    3    0    0  0.63338062861E+00 -0.13855493882E+02 -0.13691650413E+03  0.13761724088E+03  0.00000000000E+00 0. -1.
        -14    1    3    3    0    0 -0.18783563040E+03  0.30178476337E+02 -0.25291190460E+04  0.25362642041E+04  0.00000000000E+00 0.  1.
          5    1    4    4  501    0  0.19403865166E+03 -0.16980117909E+03 -0.15454064953E+03  0.30063885896E+03  0.41800000000E+01 0. -1.
         -5    1    4    4    0  501 -0.19888460866E+02 -0.16927124597E+02 -0.16405520697E+02  0.31123816156E+02  0.41800000000E+01 0. -1.
</event>
<event>
11    1  0.7157190E-009  0.2056604E+03  0.7561462E-02  0.1050592E+00
         22   -1    0    0    0    0  0.00000000000E+00  0.00000000000E+00  0.63889274559E+03  0.63889274559E+03  0.00000000000E+00 0.  1.
         22   -1    0    0    0    0 -0.00000000000E+00 -0.00000000000E+00 -0.17640412989E+03  0.17640412989E+03  0.00000000000E+00 0. -1.
        -24    2    1    2    0    0 -0.15129976157E+03 -0.59003878698E+02 -0.68335934594E+02  0.19433591360E+03  0.81997389025E+02 0.  0.
         25    2    1    2    0    0  0.15998017211E+03  0.49168044449E+02  0.23996497246E+03  0.31818490302E+03  0.12508913796E+03 0.  0.
         24    2    1    2    0    0 -0.86804105401E+01  0.98358342494E+01  0.29085957783E+03  0.30277605887E+03  0.83078003378E+02 0.  0.
        -11    1    5    5    0    0 -0.40998202802E+02  0.23165310404E+02  0.13295317038E+03  0.14104619723E+03  0.00000000000E+00 0.  1.
         12    1    5    5    0    0  0.32317792262E+02 -0.13329476155E+02  0.15790640745E+03  0.16172986164E+03  0.00000000000E+00 0. -1.
         11    1    3    3    0    0 -0.12824872259E+03 -0.66517765545E+02 -0.82387903565E+02  0.16631330263E+03  0.00000000000E+00 0. -1.
        -12    1    3    3    0    0 -0.23051038978E+02  0.75138868473E+01  0.14051968971E+02  0.28022610969E+02  0.00000000000E+00 0.  1.
          5    1    4    4  501    0  0.13133674241E+03  0.88849986684E+02  0.19703360435E+03  0.25294935004E+03  0.41800000000E+01 0.  1.
         -5    1    4    4    0  501  0.28643429697E+02 -0.39681942236E+02  0.42931368110E+02  0.65235552977E+02  0.41800000000E+01 0.  1.
</event>
<event>
11    1  0.7157190E-009  0.1428882E+03  0.7561462E-02  0.1104375E+00
         22   -1    0    0    0    0  0.00000000000E+00  0.00000000000E+00  0.10339736970E+04  0.10339736970E+04  0.00000000000E+00 0.  1.
         22   -1    0    0    0    0 -0.00000000000E+00 -0.00000000000E+00 -0.49090051875E+03  0.49090051875E+03  0.00000000000E+00 0. -1.
        -24    2    1    2    0    0 -0.27203429212E+02  0.63502376942E+02 -0.45577392666E+03  0.46750652071E+03  0.77845335422E+02 0.  0.
         25    2    1    2    0    0 -0.30130385614E+02 -0.86663757979E+02  0.20514276579E+03  0.25719355362E+03  0.12508606071E+03 0.  0.
         24    2    1    2    0    0  0.57333814825E+02  0.23161381037E+02  0.79370433910E+03  0.80017414140E+03  0.80550994827E+02 0.  0.
        -11    1    5    5    0    0  0.74110943809E+02  0.32178865517E+02  0.69208705216E+03  0.69678719789E+03  0.00000000000E+00 0.  1.
         12    1    5    5    0    0 -0.16777128983E+02 -0.90174844805E+01  0.10161728694E+03  0.10338694351E+03  0.00000000000E+00 0. -1.
         11    1    3    3    0    0 -0.71556670218E+01  0.69966172968E+02 -0.42112302648E+03  0.42695558594E+03  0.00000000000E+00 0. -1.
        -12    1    3    3    0    0 -0.20047762190E+02 -0.64637960261E+01 -0.34650900178E+02  0.40550934774E+02  0.00000000000E+00 0.  1.
          5    1    4    4  501    0 -0.17330668566E+02  0.18050767697E+02  0.11682306201E+03  0.11954615219E+03  0.41800000000E+01 0. -1.
         -5    1    4    4    0  501 -0.12799717048E+02 -0.10471452568E+03  0.88319703784E+02  0.13764740143E+03  0.41800000000E+01 0. -1.
</event>
<event>
11    1  0.7157190E-009  0.1505507E+03  0.7561462E-02  0.1096317E+00
         22   -1    0    0    0    0  0.00000000000E+00  0.00000000000E+00  0.79943730007E+03  0.79943730007E+03  0.00000000000E+00 0.  1.
         22   -1    0    0    0    0 -0.00000000000E+00 -0.00000000000E+00 -0.63189574591E+03  0.63189574591E+03  0.00000000000E+00 0.  1.
         24    2    1    2    0    0  0.76635210294E+02 -0.30587474619E+02 -0.58648329698E+03  0.59703689074E+03  0.75377995525E+02 0.  0.
         25    2    1    2    0    0 -0.13189534026E+03  0.74251044445E+02  0.24355640164E+03  0.31285330444E+03  0.12509145029E+03 0.  0.
        -24    2    1    2    0    0  0.55260129964E+02 -0.43663569826E+02  0.51046844950E+03  0.52144285081E+03  0.79777311485E+02 0.  0.
        -11    1    3    3    0    0  0.82666681609E+02 -0.25897438228E+02 -0.35461733919E+03  0.36504508600E+03  0.00000000000E+00 0.  1.
         12    1    3    3    0    0 -0.60314713159E+01 -0.46900363913E+01 -0.23186595779E+03  0.23199180474E+03  0.00000000000E+00 0. -1.
         11    1    5    5    0    0 -0.37889947859E+01  0.10727522590E+02  0.21383606170E+03  0.21413850075E+03  0.00000000000E+00 0. -1.
        -12    1    5    5    0    0  0.59049124750E+02 -0.54391092416E+02  0.29663238781E+03  0.30730435006E+03  0.00000000000E+00 0.  1.
          5    1    4    4  501    0 -0.50321660279E+02  0.96810800858E+02  0.11239392418E+03  0.15669865108E+03  0.41800000000E+01 0.  1.
         -5    1    4    4    0  501 -0.81573679979E+02 -0.22559756413E+02  0.13116247745E+03  0.15615465336E+03  0.41800000000E+01 0.  1.
</event>
<event>
11    1  0.7157190E-009  0.1891679E+03  0.7561462E-02  0.1062459E+00
         22   -1    0    0    0    0  0.00000000000E+00  0.00000000000E+00  0.25239649074E+03  0.25239649074E+03  0.00000000000E+00 0. -1.
         22   -1    0    0    0    0 -0.00000000000E+00 -0.00000000000E+00 -0.79643421094E+03  0.79643421094E+03  0.00000000000E+00 0. -1.
        -24    2    1    2    0    0 -0.14176139942E+03  0.22156450187E+02 -0.69855106323E+03  0.71732051665E+03  0.77381735617E+02 0.  0.
         25    2    1    2    0    0  0.12727262442E+03  0.14531183336E+02  0.32979499496E+02  0.18205674055E+03  0.12509010024E+03 0.  0.
         24    2    1    2    0    0  0.14488775009E+02 -0.36687633523E+02  0.12153384354E+03  0.14945344449E+03  0.77523866570E+02 0.  0.
        -13    1    5    5    0    0  0.45055940784E+02 -0.23614403423E+02  0.54039662300E+02  0.74215651654E+02  0.00000000000E+00 0.  1.
         14    1    5    5    0    0 -0.30567165775E+02 -0.13073230100E+02  0.67494181242E+02  0.75237792832E+02  0.00000000000E+00 0. -1.
         11    1    3    3    0    0 -0.30200677383E+02 -0.27545394917E+02 -0.17891611442E+03  0.18352603547E+03  0.00000000000E+00 0. -1.
        -12    1    3    3    0    0 -0.11156072204E+03  0.49701845104E+02 -0.51963494881E+03  0.53379448117E+03  0.00000000000E+00 0.  1.
          5    1    4    4  501    0  0.19614931081E+02  0.19365670932E+02  0.64023666782E+02  0.69830344694E+02  0.41800000000E+01 0.  1.
         -5    1    4    4    0  501  0.10765769333E+03 -0.48344875963E+01 -0.31044167286E+02  0.11222639586E+03  0.41800000000E+01 0.  1.
</event>
<event>
11    1  0.7157190E-009  0.2100175E+03  0.7561462E-02  0.1047657E+00
         22   -1    0    0    0    0  0.00000000000E+00  0.00000000000E+00  0.19041250775E+03  0.19041250775E+03  0.00000000000E+00 0. -1.
         22   -1    0    0    0    0 -0.00000000000E+00 -0.00000000000E+00 -0.10114168729E+04  0.10114168729E+04  0.00000000000E+00 0. -1.
         24    2    1    2    0    0  0.16853697840E+03  0.28711171149E+01 -0.86076492366E+03  0.88059982660E+03  0.78274161820E+02 0.  0.
         25    2    1    2    0    0 -0.17014181681E+03  0.17657012540E+02 -0.26806281529E+02  0.21360818530E+03  0.12509944915E+03 0.  0.
        -24    2    1    2    0    0  0.16048384074E+01 -0.20528129654E+02  0.66566840080E+02  0.10762136871E+03  0.82019724405E+02 0.  0.
        -13    1    3    3    0    0  0.16966365489E+02 -0.97904950939E+01 -0.26510618474E+03  0.26582889335E+03  0.00000000000E+00 0.  1.
         14    1    3    3    0    0  0.15157061291E+03  0.12661612209E+02 -0.59565873892E+03  0.61477093326E+03  0.00000000000E+00 0. -1.
         11    1    5    5    0    0  0.13394407939E+02 -0.40757361701E+02  0.71789494116E+02  0.83631956586E+02  0.00000000000E+00 0. -1.
        -12    1    5    5    0    0 -0.11789569531E+02  0.20229232047E+02 -0.52226540358E+01  0.23989412125E+02  0.00000000000E+00 0.  1.
          5    1    4    4  501    0 -0.15129089813E+03  0.61977196604E+02 -0.19205649792E+02  0.16467069605E+03  0.41800000000E+01 0. -1.
         -5    1    4    4    0  501 -0.18850918682E+02 -0.44320184064E+02 -0.76006317370E+01  0.48937489243E+02  0.41800000000E+01 0. -1.
</event>
<event>
11    1  0.7157190E-009  0.1978187E+03  0.7561462E-02  0.1056077E+00
         22   -1    0    0    0    0  0.00000000000E+00  0.00000000000E+00  0.43997592337E+03  0.43997592337E+03  0.00000000000E+00 0. -1.
         22   -1    0    0    0    0 -0.00000000000E+00 -0.00000000000E+00 -0.77357645176E+03  0.77357645176E+03  0.00000000000E+00 0.  1.
        -24    2    1    2    0    0 -0.51968210383E+02  0.21046141005E+02 -0.53162629850E+03  0.53987779816E+03  0.75484307964E+02 0.  0.
         25    2    1    2    0    0  0.10226153040E+03 -0.16254315627E+03 -0.15831646047E+03  0.27855074414E+03  0.12509483265E+03 0.  0.
         24    2    1    2    0    0 -0.50293320021E+02  0.14149701526E+03  0.35634223058E+03  0.39512383283E+03  0.81192577304E+02 0.  0.
        -13    1    5    5    0    0 -0.65586822228E+01 -0.97744936551E+01  0.40933277648E+02  0.42592138450E+02  0.00000000000E+00 0.  1.
         14    1    5    5    0    0 -0.43734637798E+02  0.15127150892E+03  0.31540895293E+03  0.35253169438E+03  0.00000000000E+00 0. -1.
         13    1    3    3    0    0  0.11584059937E+02 -0.15028717344E+02 -0.16112168713E+03  0.16223517144E+03  0.00000000000E+00 0. -1.
        -14    1    3    3    0    0 -0.63552270321E+02  0.36074858349E+02 -0.37050461137E+03  0.37764262672E+03  0.00000000000E+00 0.  1.
          5    1    4    4  501    0  0.12908654923E+03 -0.12226027168E+03 -0.10545483066E+03  0.20675856677E+03  0.41800000000E+01 0.  1.
         -5    1    4    4    0  501 -0.26825018825E+02 -0.40282884591E+02 -0.52861629811E+02  0.71792177374E+02  0.41800000000E+01 0.  1.
</event>
<event>
11    1  0.7157190E-009  0.1308907E+03  0.7561462E-02  0.1118179E+00
         22   -1    0    0    0    0  0.00000000000E+00  0.00000000000E+00  0.15748586135E+03  0.15748586135E+03  0.00000000000E+00 0. -1.
         22   -1    0    0    0    0 -0.00000000000E+00 -0.00000000000E+00 -0.40582411338E+03  0.40582411338E+03  0.00000000000E+00 0. -1.
         24    2    1    2    0    0  0.33696920743E+02 -0.30179285576E+02 -0.19928435529E+03  0.21946266060E+03  0.80020830986E+02 0.  0.
         25    2    1    2    0    0 -0.35354102230E+02 -0.11295411370E+02 -0.15640644422E+03  0.20368559420E+03  0.12508935458E+03 0.  0.
        -24    2    1    2    0    0  0.16571814869E+01  0.41474696946E+02  0.10735254748E+03  0.14016171992E+03  0.79986508507E+02 0.  0.
        -11    1    3    3    0    0  0.29443309243E+01 -0.24580337989E+02 -0.85605831577E+01  0.26194382685E+02  0.00000000000E+00 0.  1.
         12    1    3    3    0    0  0.30752589819E+02 -0.55989475878E+01 -0.19072377213E+03  0.19326827792E+03  0.00000000000E+00 0. -1.
         13    1    5    5    0    0 -0.72293011687E+01  0.19894040598E+02  0.11395732869E+03  0.11590646405E+03  0.00000000000E+00 0. -1.
        -14    1    5    5    0    0  0.88864826556E+01  0.21580656348E+02 -0.66047812097E+01  0.24255255868E+02  0.00000000000E+00 0.  1.
          5    1    4    4  501    0 -0.49618786473E+02 -0.60026464298E+02 -0.10948325618E+03  0.13442193337E+03  0.41800000000E+01 0.  1.
         -5    1    4    4    0  501  0.14264684243E+02  0.48731052929E+02 -0.46923188035E+02  0.69263660829E+02  0.41800000000E+01 0.  1.
</event>
<event>
11    1  0.7157190E-009  0.2332958E+03  0.7561462E-02  0.1033194E+00
         22   -1    0    0    0    0  0.00000000000E+00  0.00000000000E+00  0.17849460738E+04  0.17849460738E+04  0.00000000000E+00 0. -1.
         22   -1    0    0    0    0 -0.00000000000E+00 -0.00000000000E+00 -0.19842010280E+04  0.19842010280E+04  0.00000000000E+00 0. -1.
        -24    2    1    2    0    0 -0.14015882303E+03 -0.13849806688E+03 -0.19631499305E+04  0.19746706386E+04  0.80871942884E+02 0.  0.
         25    2    1    2    0    0  0.11308797235E+03  0.13797775927E+03  0.91482315073E+03  0.94041296213E+03  0.12509352779E+03 0.  0.
         24    2    1    2    0    0  0.27070850678E+02  0.52030760106E+00  0.84907182556E+03  0.85406350101E+03  0.88138511020E+02 0.  0.
        -11    1    5    5    0    0 -0.50287606533E+01 -0.16459014242E+02  0.33304802331E+02  0.37488630834E+02  0.00000000000E+00 0.  1.
         12    1    5    5    0    0  0.32099611332E+02  0.16979321843E+02  0.81576702322E+03  0.81657487017E+03  0.00000000000E+00 0. -1.
         11    1    3    3    0    0 -0.13571376123E+03 -0.14342842979E+03 -0.19496823203E+04  0.19596558599E+04  0.00000000000E+00 0. -1.
        -12    1    3    3    0    0 -0.44450618016E+01  0.49303629193E+01 -0.13467610284E+02  0.15014778709E+02  0.00000000000E+00 0.  1.
          5    1    4    4  501    0 -0.19376044080E+02  0.46490220852E+02  0.13534917226E+03  0.14447713504E+03  0.41800000000E+01 0.  1.
         -5    1    4    4    0  501  0.13246401643E+03  0.91487538422E+02  0.77947397847E+03  0.79593582709E+03  0.41800000000E+01 0.  1.
</event>
<event>
11    1  0.7157190E-009  0.2513983E+03  0.7561462E-02  0.1023157E+00
         22   -1    0    0    0    0  0.00000000000E+00  0.00000000000E+00  0.36053960228E+03  0.36053960228E+03  0.00000000000E+00 0. -1.
         22   -1    0    0    0    0 -0.00000000000E+00 -0.00000000000E+00 -0.14239323004E+04  0.14239323004E+04  0.00000000000E+00 0. -1.
        -24    2    1    2    0    0  0.49238668019E+02  0.20518016471E+03 -0.10762408222E+04  0.10996844192E+04  0.80549164818E+02 0.  0.
         25    2    1    2    0    0  0.23495953299E+02 -0.27032779934E+03 -0.25258185014E+03  0.39124772595E+03  0.12509201863E+03 0.  0.
         24    2    1    2    0    0 -0.72734621318E+02  0.65147634622E+02  0.26542997420E+03  0.29353975759E+03  0.78600118623E+02 0.  0.
        -13    1    5    5    0    0 -0.81978250344E+02  0.27333173952E+02  0.18440647460E+03  0.20364990499E+03  0.00000000000E+00 0.  1.
         14    1    5    5    0    0  0.92436290255E+01  0.37814460670E+02  0.81023499599E+02  0.89889852601E+02  0.00000000000E+00 0. -1.
         13    1    3    3    0    0  0.28472860848E+02  0.18332944840E+03 -0.77315126423E+03  0.79509953329E+03  0.00000000000E+00 0. -1.
        -14    1    3    3    0    0  0.20765807171E+02  0.21850716318E+02 -0.30308955799E+03  0.30458488589E+03  0.00000000000E+00 0.  1.
          5    1    4    4  501    0  0.25136743431E+02 -0.12487103442E+03 -0.19871622103E+03  0.23607253125E+03  0.41800000000E+01 0.  1.
         -5    1    4    4    0  501 -0.16407901320E+01 -0.14545676491E+03 -0.53865629105E+02  0.15517519470E+03  0.41800000000E+01 0.  1.
</event>
<event>
11    1  0.7157190E-009  0.1736441E+03  0.7561462E-02  0.1074903E+00
         22   -1    0    0    0    0  0.00000000000E+00  0.00000000000E+00  0.72331599600E+03  0.72331599600E+03  0.00000000000E+00 0.  1.
         22   -1    0    0    0    0 -0.00000000000E+00 -0.00000000000E+00 -0.90998688889E+02  0.90998688889E+02  0.00000000000E+00 0.  1.
         24    2    1    2    0    0  0.42506398291E+02  0.98967128438E+02  0.54729825589E+02  0.14460224401E+03  0.79455451407E+02 0.  0.
         25    2    1    2    0    0 -0.13421528967E+02 -0.15993146818E+03  0.23373561768E+03  0.30990166496E+03  0.12509392878E+03 0.  0.
        -24    2    1    2    0    0 -0.29084869324E+02  0.60964339744E+02  0.34385186384E+03  0.35981077591E+03  0.81652372007E+02 0.  0.
        -13    1    3    3    0    0  0.35649532541E+02  0.84625120387E+02  0.45230551764E+01  0.91938882955E+02  0.00000000000E+00 0.  1.
         14    1    3    3    0    0  0.68568657501E+01  0.14342008051E+02  0.50206770412E+02  0.52663361060E+02  0.00000000000E+00 0. -1.
         11    1    5    5    0    0 -0.34877935141E+02  0.47305560326E+02  0.10367007272E+03  0.11917118097E+03  0.00000000000E+00 0. -1.
        -12    1    5    5    0    0  0.57930658172E+01  0.13658779418E+02  0.24018179112E+03  0.24063959494E+03  0.00000000000E+00 0.  1.
          5    1    4    4  501    0  0.40897854991E+02 -0.13537937242E+03  0.14226369997E+03  0.20064057852E+03  0.41800000000E+01 0.  1.
         -5    1    4    4    0  501 -0.54319383958E+02 -0.24552095761E+02  0.91471917718E+02  0.10926108644E+03  0.41800000000E+01 0.  1.
</event>
<event>
11    1  0.7157190E-009  0.1633355E+03  0.7561462E-02  0.1083981E+00
         22   -1    0    0    0    0  0.00000000000E+00  0.00000000000E+00  0.10732639613E+03  0.10732639613E+03  0.00000000000E+00 0. -1.
         22   -1    0    0    0    0 -0.00000000000E+00 -0.00000000000E+00 -0.11347717828E+04  0.11347717828E+04  0.00000000000E+00 0.  1.
         24    2    1    2    0    0 -0.30950803756E+02 -0.99157381847E+02 -0.84505452431E+03  0.85471780652E+03  0.75068242904E+02 0.  0.
         25    2    1    2    0    0  0.17267859293E+02  0.11143753283E+03 -0.22390800718E+03  0.28017776384E+03  0.12509308926E+03 0.  0.
        -24    2    1    2    0    0  0.13682944463E+02 -0.12280150981E+02  0.41517144864E+02  0.10720260853E+03  0.97111795781E+02 0.  0.
        -13    1    3    3    0    0 -0.25739293175E+02 -0.11148942154E+03 -0.77416567772E+03  0.78257581031E+03  0.00000000000E+00 0.  1.
         14    1    3    3    0    0 -0.52115105807E+01  0.12332039689E+02 -0.70888846593E+02  0.72141996207E+02  0.00000000000E+00 0. -1.
         13    1    5    5    0    0  0.22896950515E+02 -0.84700724835E-02  0.70654069872E+02  0.74271582749E+02  0.00000000000E+00 0. -1.
        -14    1    5    5    0    0 -0.92140060514E+01 -0.12271680909E+02 -0.29136925007E+02  0.32931025777E+02  0.00000000000E+00 0.  1.
          5    1    4    4  501    0 -0.51042490704E+02  0.40436906577E+02 -0.58672013590E+02  0.87751677189E+02  0.41800000000E+01 0. -1.
         -5    1    4    4    0  501  0.68310349996E+02  0.71000626251E+02 -0.16523599359E+03  0.19242608665E+03  0.41800000000E+01 0. -1.
</event>
<event>
11    1  0.7157190E-009  0.1500777E+03  0.7561462E-02  0.1096799E+00
         22   -1    0    0    0    0  0.00000000000E+00  0.00000000000E+00  0.65852760667E+03  0.65852760667E+03  0.00000000000E+00 0. -1.
         22   -1    0    0    0    0 -0.00000000000E+00 -0.00000000000E+00 -0.20796765345E+03  0.20796765345E+03  0.00000000000E+00 0. -1.
         24    2    1    2    0    0 -0.40162661113E+02 -0.73574010692E+02 -0.11914567012E+03  0.16617630850E+03  0.79954364497E+02 0.  0.
         25    2    1    2    0    0  0.31969915098E+02  0.73097870176E+02  0.26730444218E+02  0.15075346500E+03  0.12508683570E+03 0.  0.
        -24    2    1    2    0    0  0.81927460154E+01  0.47614051544E+00  0.54297517912E+03  0.54956548663E+03  0.84456090101E+02 0.  0.
        -13    1    3    3    0    0 -0.51646871151E+01 -0.73677464281E+02 -0.51586195287E+02  0.90089834499E+02  0.00000000000E+00 0.  1.
         14    1    3    3    0    0 -0.34997973998E+02  0.10345358926E+00 -0.67559474830E+02  0.76086474001E+02  0.00000000000E+00 0. -1.
         13    1    5    5    0    0 -0.15012685068E+02 -0.21390237949E+02  0.45896140101E+03  0.45970478636E+03  0.00000000000E+00 0. -1.
        -14    1    5    5    0    0  0.23205431084E+02  0.21866378465E+02  0.84013778112E+02  0.89860700262E+02  0.00000000000E+00 0.  1.
          5    1    4    4  501    0  0.54864769618E+01  0.90918445427E+02 -0.20632628898E+02  0.93484987691E+02  0.41800000000E+01 0. -1.
         -5    1    4    4    0  501  0.26483438136E+02 -0.17820575251E+02  0.47363073116E+02  0.57268477305E+02  0.41800000000E+01 0. -1.
</event>
<event>
11    1  0.7157190E-009  0.1562319E+03  0.7561462E-02  0.1090676E+00
         22   -1    0    0    0    0  0.00000000000E+00  0.00000000000E+00  0.98462899478E+03  0.98462899478E+03  0.00000000000E+00 0. -1.
         22   -1    0    0    0    0 -0.00000000000E+00 -0.00000000000E+00 -0.62092532740E+02  0.62092532740E+02  0.00000000000E+00 0. -1.
        -24    2    1    2    0    0 -0.28666989575E+02  0.29216317933E+02  0.11629757507E+02  0.84674555851E+02  0.73206144715E+02 0.  0.
         25    2    1    2    0    0  0.60190074034E+02  0.63226025757E+02  0.28176132354E+03  0.32040189389E+03  0.12509018675E+03 0.  0.
         24    2    1    2    0    0 -0.31523084459E+02 -0.92442343690E+02  0.62914538100E+03  0.64164507778E+03  0.79656786603E+02 0.  0.
        -11    1    5    5    0    0 -0.30712541883E+02  0.26486029820E+01  0.14263542135E+03  0.14592853988E+03  0.00000000000E+00 0.  1.
         12    1    5    5    0    0 -0.81054257577E+00 -0.95090946672E+02  0.48650995964E+03  0.49571653790E+03  0.00000000000E+00 0. -1.
         13    1    3    3    0    0 -0.50420498933E+02  0.44701717660E+01  0.35057605037E+01  0.50739526062E+02  0.00000000000E+00 0. -1.
        -14    1    3    3    0    0  0.21753509357E+02  0.24746146167E+02  0.81239970037E+01  0.33935029790E+02  0.00000000000E+00 0.  1.
          5    1    4    4  501    0  0.81825868483E+01 -0.30179396818E+02  0.19327420345E+02  0.36996922805E+02  0.41800000000E+01 0.  1.
         -5    1    4    4    0  501  0.52007487186E+02  0.93405422575E+02  0.26243390319E+03  0.28340497108E+03  0.41800000000E+01 0.  1.
</event>
<event>
11    1  0.7157190E-009  0.1569980E+03  0.7561462E-02  0.1089935E+00
         22   -1    0    0    0    0  0.00000000000E+00  0.00000000000E+00  0.86784179908E+03  0.86784179908E+03  0.00000000000E+00 0. -1.
         22   -1    0    0    0    0 -0.00000000000E+00 -0.00000000000E+00 -0.27511426675E+03  0.27511426675E+03  0.00000000000E+00 0.  1.
        -24    2    1    2    0    0  0.81560418992E+02 -0.52096640853E+02 -0.23434339904E+03  0.26540306342E+03  0.78458877523E+02 0.  0.
         25    2    1    2    0    0 -0.52896740585E+02  0.42043391264E+02  0.20331156385E+03  0.24808895404E+03  0.12508727038E+03 0.  0.
         24    2    1    2    0    0 -0.28663678407E+02  0.10053249589E+02  0.62375936752E+03  0.62946404836E+03  0.78908588384E+02 0.  0.
        -13    1    5    5    0    0 -0.80996975815E+01  0.38595725767E+02  0.17788377465E+03  0.18220283321E+03  0.00000000000E+00 0.  1.
         14    1    5    5    0    0 -0.20563980825E+02 -0.28542476178E+02  0.44587559288E+03  0.44726121515E+03  0.00000000000E+00 0. -1.
         11    1    3    3    0    0  0.32876232603E+02 -0.29720844451E+02 -0.19217585469E+03  0.19722001519E+03  0.00000000000E+00 0. -1.
        -12    1    3    3    0    0  0.48684186389E+02 -0.22375796402E+02 -0.42167544351E+02  0.68183048227E+02  0.00000000000E+00 0.  1.
          5    1    4    4  501    0 -0.19750794934E+02 -0.11936535310E+02  0.17833454947E+03  0.17987011623E+03  0.41800000000E+01 0. -1.
         -5    1    4    4    0  501 -0.33145945650E+02  0.53979926574E+02  0.24977014374E+02  0.68218837817E+02  0.41800000000E+01 0. -1.
</event>
<event>
11    1  0.7157190E-009  0.2476533E+03  0.7561462E-02  0.1025157E+00
         22   -1    0    0    0    0  0.00000000000E+00  0.00000000000E+00  0.52229678753E+03  0.52229678753E+03  0.00000000000E+00 0. -1.
         22   -1    0    0    0    0 -0.00000000000E+00 -0.00000000000E+00 -0.60331185455E+03  0.60331185455E+03  0.00000000000E+00 0.  1.
         24    2    1    2    0    0  0.55562473878E+01  0.12767223825E+03 -0.47207905297E+03  0.49556383650E+03  0.79961312418E+02 0.  0.
         25    2    1    2    0    0 -0.15384081237E+03 -0.22214497834E+03  0.26913413499E+03  0.40137030162E+03  0.12509815927E+03 0.  0.
        -24    2    1    2    0    0  0.14828456498E+03  0.94472740094E+02  0.12192985096E+03  0.22867450396E+03  0.80695287163E+02 0.  0.
        -13    1    3    3    0    0 -0.65750526428E+01  0.12958179709E+03 -0.35728535147E+03  0.38011510866E+03  0.00000000000E+00 0.  1.
         14    1    3    3    0    0  0.12131300031E+02 -0.19095588398E+01 -0.11479370150E+03  0.11544872784E+03  0.00000000000E+00 0. -1.
         11    1    5    5    0    0  0.58060162416E+02  0.84691579812E+02  0.66384650976E+02  0.12227251546E+03  0.00000000000E+00 0. -1.
        -12    1    5    5    0    0  0.90224402567E+02  0.97811602828E+01  0.55545199987E+02  0.10640198850E+03  0.00000000000E+00 0.  1.
          5    1    4    4  501    0 -0.13326581021E+02 -0.88328451171E+02  0.32095239338E+02  0.95010998501E+02  0.41800000000E+01 0.  1.
         -5    1    4    4    0  501 -0.14051423135E+03 -0.13381652717E+03  0.23703889566E+03  0.30635930312E+03  0.41800000000E+01 0.  1.
</event>
<event>
11    1  0.7157190E-009  0.1468542E+03  0.7561462E-02  0.1100137E+00
         22   -1    0    0    0    0  0.00000000000E+00  0.00000000000E+00  0.41723094403E+03  0.41723094403E+03  0.00000000000E+00 0.  1.
         22   -1    0    0    0    0 -0.00000000000E+00 -0.00000000000E+00 -0.40766729167E+03  0.40766729167E+03  0.00000000000E+00 0. -1.
        -24    2    1    2    0    0  0.66199327733E+02  0.51576514443E+01 -0.21794273447E+03  0.24189305916E+03  0.81266624165E+02 0.  0.
         25    2    1    2    0    0 -0.11196757773E+03 -0.21650919328E+02 -0.13015712587E+03  0.21353100944E+03  0.12509641806E+03 0.  0.
         24    2    1    2    0    0  0.45768249992E+02  0.16493267883E+02  0.35766351269E+03  0.36947416709E+03  0.78874655236E+02 0.  0.
        -11    1    5    5    0    0  0.11916196360E+02  0.41290406275E+02  0.25449800600E+03  0.25810100434E+03  0.00000000000E+00 0.  1.
         12    1    5    5    0    0  0.33852053632E+02 -0.24797138391E+02  0.10316550670E+03  0.11137316274E+03  0.00000000000E+00 0. -1.
         13    1    3    3    0    0  0.43566025506E+02 -0.49555158422E+01 -0.21188425500E+03  0.21637350400E+03  0.00000000000E+00 0. -1.
        -14    1    3    3    0    0  0.22633302228E+02  0.10113167287E+02 -0.60584794664E+01  0.25519555163E+02  0.00000000000E+00 0.  1.
          5    1    4    4  501    0 -0.47438411111E+02  0.49567000206E+02 -0.78509094711E+02  0.10434769145E+03  0.41800000000E+01 0. -1.
         -5    1    4    4    0  501 -0.64529166614E+02 -0.71217919533E+02 -0.51648031156E+02  0.10918331800E+03  0.41800000000E+01 0. -1.
</event>
<event>
11    1  0.7157190E-009  0.1287429E+03  0.7561462E-02  0.1120823E+00
         22   -1    0    0    0    0  0.00000000000E+00  0.00000000000E+00  0.78922538370E+03  0.78922538370E+03  0.00000000000E+00 0. -1.
         22   -1    0    0    0    0 -0.00000000000E+00 -0.00000000000E+00 -0.54095028080E+02  0.54095028080E+02  0.00000000000E+00 0. -1.
        -24    2    1    2    0    0  0.30886206152E+02  0.22835704296E+01  0.91427790227E+01  0.86626938503E+02  0.80383229854E+02 0.  0.
         25    2    1    2    0    0 -0.25216626772E+02  0.80276571913E+01  0.51001704861E+03  0.52580026638E+03  0.12509280039E+03 0.  0.
         24    2    1    2    0    0 -0.56695793800E+01 -0.10311227621E+02  0.21597052799E+03  0.23089320690E+03  0.80808034784E+02 0.  0.
        -13    1    5    5    0    0 -0.23188628172E+02 -0.23488026967E+02  0.33207734049E+02  0.46820438785E+02  0.00000000000E+00 0.  1.
         14    1    5    5    0    0  0.17519048792E+02  0.13176799346E+02  0.18276279394E+03  0.18407276811E+03  0.00000000000E+00 0. -1.
         11    1    3    3    0    0  0.56153493030E+01  0.37403920473E+02 -0.10287375828E+02  0.39197136579E+02  0.00000000000E+00 0. -1.
        -12    1    3    3    0    0  0.25270856849E+02 -0.35120350043E+02  0.19430154850E+02  0.47429801924E+02  0.00000000000E+00 0.  1.
          5    1    4    4  501    0  0.50768693018E+02  0.86635773728E+01  0.19682215388E+03  0.20349189276E+03  0.41800000000E+01 0. -1.
         -5    1    4    4    0  501 -0.75985319790E+02 -0.63592018148E+00  0.31319489473E+03  0.32230837361E+03  0.41800000000E+01 0. -1.
</event>
<event>
11    1  0.7157190E-009  0.1326678E+03  0.7561462E-02  0.1116034E+00
         22   -1    0    0    0    0  0.00000000000E+00  0.00000000000E+00  0.83257636103E+02  0.83257636103E+02  0.00000000000E+00 0. -1.
         22   -1    0    0    0    0 -0.00000000000E+00 -0.00000000000E+00 -0.98066020993E+03  0.98066020993E+03  0.00000000000E+00 0.  1.
         24    2    1    2    0    0 -0.19405095131E+02 -0.61473237711E+01 -0.80970649523E+03  0.81412936675E+03  0.82265849964E+02 0.  0.
         25    2    1    2    0    0  0.34350661904E+02 -0.34770441616E+02 -0.83444676609E+02  0.15811303399E+03  0.12509103037E+03 0.  0.
        -24    2    1    2    0    0 -0.14945566774E+02  0.40917765387E+02 -0.42514019870E+01  0.91675445300E+02  0.80552339269E+02 0.  0.
        -11    1    3    3    0    0  0.31284402087E+02  0.62112041917E+01 -0.35862404039E+03  0.36003957452E+03  0.00000000000E+00 0.  1.
         12    1    3    3    0    0 -0.50689497218E+02 -0.12358527963E+02 -0.45108245484E+03  0.45408979223E+03  0.00000000000E+00 0. -1.
         13    1    5    5    0    0  0.62712419878E+01  0.61340544405E+02 -0.71999076421E+01  0.62079219824E+02  0.00000000000E+00 0. -1.
        -14    1    5    5    0    0 -0.21216808761E+02 -0.20422779017E+02  0.29485056551E+01  0.29596225476E+02  0.00000000000E+00 0.  1.
          5    1    4    4  501    0 -0.56209857129E+01 -0.33488970087E+02 -0.10643201311E+03  0.11179603039E+03  0.41800000000E+01 0. -1.
         -5    1    4    4    0  501  0.39971647617E+02 -0.12814715294E+01  0.22987336499E+02  0.46317003593E+02  0.41800000000E+01 0. -1.
</event>
<event>
11    1  0.7157190E-009  0.1590848E+03  0.7561462E-02  0.1087941E+00
         22   -1    0    0    0    0  0.00000000000E+00  0.00000000000E+00  0.21396117466E+03  0.21396117466E+03  0.00000000000E+00 0. -1.
         22   -1    0    0    0    0 -0.00000000000E+00 -0.00000000000E+00 -0.35595138994E+03  0.35595138994E+03  0.00000000000E+00 0.  1.
        -24    2    1    2    0    0  0.21891043738E+02  0.61011581393E+02 -0.23583903844E+03  0.25750405338E+03  0.80539770271E+02 0.  0.
         25    2    1    2    0    0 -0.15347064376E+02 -0.13688856241E+03  0.55992965019E+02  0.19431070806E+03  0.12508968076E+03 0.  0.
         24    2    1    2    0    0 -0.65439793618E+01  0.75876981019E+02  0.37855858141E+02  0.11809780316E+03  0.81938301188E+02 0.  0.
        -13    1    5    5    0    0  0.15213787422E+02  0.66018582247E+01 -0.19476309898E+02  0.25580666664E+02  0.00000000000E+00 0.  1.
         14    1    5    5    0    0 -0.21757766784E+02  0.69275122794E+02  0.57332168039E+02  0.92517136497E+02  0.00000000000E+00 0. -1.
         13    1    3    3    0    0  0.85155754549E+01  0.10957081506E+02  0.20595133719E+01  0.14029050424E+02  0.00000000000E+00 0. -1.
        -14    1    3    3    0    0  0.13375468283E+02  0.50054499886E+02 -0.23789855181E+03  0.24347500296E+03  0.00000000000E+00 0.  1.
          5    1    4    4  501    0 -0.64668805435E+02 -0.98301227883E+02  0.13487863709E+02  0.11850983363E+03  0.41800000000E+01 0.  1.
         -5    1    4    4    0  501  0.49321741059E+02 -0.38587334529E+02  0.42505101310E+02  0.75800874431E+02  0.41800000000E+01 0.  1.
</event>
<event>
11    1  0.7157190E-009  0.1374636E+03  0.7561462E-02  0.1110424E+00
         22   -1    0    0    0    0  0.00000000000E+00  0.00000000000E+00  0.14719371784E+03  0.14719371784E+03  0.00000000000E+00 0. -1.
         22   -1    0    0    0    0 -0.00000000000E+00 -0.00000000000E+00 -0.36527660471E+03  0.36527660471E+03  0.00000000000E+00 0.  1.
         24    2    1    2    0    0 -0.50222639532E+02 -0.20385256154E+02 -0.19998055749E+03  0.22282898932E+03  0.81991846647E+02 0.  0.
         25    2    1    2    0    0  0.42481561039E+02  0.64034624475E+02 -0.89967421052E+02  0.17218233240E+03  0.12508997793E+03 0.  0.
        -24    2    1    2    0    0  0.77410784935E+01 -0.43649368321E+02  0.71865091674E+02  0.11745900083E+03  0.81650681712E+02 0.  0.
        -11    1    3    3    0    0 -0.50708225928E+02 -0.41545028499E+02 -0.18662183210E+03  0.19780045952E+03  0.00000000000E+00 0.  1.
         12    1    3    3    0    0  0.48558639595E+00  0.21159772345E+02 -0.13358725390E+02  0.25028529799E+02  0.00000000000E+00 0. -1.
         13    1    5    5    0    0  0.19827941415E+02 -0.36544513842E+02  0.87246346481E+02  0.96646643641E+02  0.00000000000E+00 0. -1.
        -14    1    5    5    0    0 -0.12086862921E+02 -0.71048544783E+01 -0.15381254807E+02  0.20812357191E+02  0.00000000000E+00 0.  1.
          5    1    4    4  501    0  0.24287860021E+02 -0.36030743356E+02 -0.16586353857E+02  0.46697903009E+02  0.41800000000E+01 0. -1.
         -5    1    4    4    0  501  0.18193701017E+02  0.10006536783E+03 -0.73381067195E+02  0.12548442939E+03  0.41800000000E+01 0. -1.
</event>
<event>
11    1  0.8400955E-009  0.1431745E+03  0.7561462E-02  0.1104064E+00
         22   -1    0    0    0    0  0.00000000000E+00  0.00000000000E+00  0.36068948780E+03  0.36068948780E+03  0.00000000000E+00 0. -1.
         22   -1    0    0    0    0 -0.00000000000E+00 -0.00000000000E+00 -0.48271245776E+03  0.48271245776E+03  0.00000000000E+00 0. -1.
         24    2    1    2    0    0 -0.45804947588E+02  0.10170901929E+02 -0.35982109048E+03  0.37182984625E+03  0.81146022331E+02 0.  0.
         25    2    1    2    0    0 -0.26512993007E+02 -0.21070390127E+02 -0.68528791666E+02  0.14659527792E+03  0.12508828915E+03 0.  0.
        -24    2    1    2    0    0  0.72317940595E+02  0.10899488198E+02  0.30632691218E+03  0.32497682138E+03  0.80156558873E+02 0.  0.
        -11    1    3    3    0    0 -0.14298269813E+02 -0.31069124403E+01 -0.51457767324E+01  0.15510397891E+02  0.00000000000E+00 0.  1.
         12    1    3    3    0    0 -0.31506677776E+02  0.13277814369E+02 -0.35467531375E+03  0.35631944836E+03  0.00000000000E+00 0. -1.
         11    1    5    5    0    0  0.64513797786E+02  0.41504954714E+02  0.22593706450E+03  0.23860479561E+03  0.00000000000E+00 0. -1.
        -12    1    5    5    0    0  0.78041428096E+01 -0.30605466517E+02  0.80389847679E+02  0.86372025770E+02  0.00000000000E+00 0.  1.
          5    1    4    4  501    0  0.15156634884E+02  0.41745394790E+02 -0.53431323370E+02  0.69604455923E+02  0.41800000000E+01 0. -1.
         -5    1    4    4    0  501 -0.41669627891E+02 -0.62815784917E+02 -0.15097468296E+02  0.76990822000E+02  0.41800000000E+01 0. -1.
</event>
<event>
11    1  0.7157190E-009  0.1290951E+03  0.7561462E-02  0.1120386E+00
         22   -1    0    0    0    0  0.00000000000E+00  0.00000000000E+00  0.98251736452E+02  0.98251736452E+02  0.00000000000E+00 0. -1.
         22   -1    0    0    0    0 -0.00000000000E+00 -0.00000000000E+00 -0.33222200460E+03  0.33222200460E+03  0.00000000000E+00 0. -1.
         24    2    1    2    0    0 -0.44996207651E+01 -0.32311755188E+02 -0.19212580176E+03  0.21204493395E+03  0.83584892201E+02 0.  0.
         25    2    1    2    0    0  0.26213557796E+02  0.23145789585E+02 -0.18706668524E+02  0.13122957165E+03  0.12509349639E+03 0.  0.
        -24    2    1    2    0    0 -0.21713937031E+02  0.91659656032E+01 -0.23137797865E+02  0.87199235450E+02  0.80702162215E+02 0.  0.
        -11    1    3    3    0    0 -0.36831892347E+02 -0.25497668928E+02 -0.54698339365E+02  0.70700974137E+02  0.00000000000E+00 0.  1.
         12    1    3    3    0    0  0.32332271582E+02 -0.68140862607E+01 -0.13742746239E+03  0.14134395982E+03  0.00000000000E+00 0. -1.
         13    1    5    5    0    0  0.67287160983E+01  0.21678595103E+02  0.22517362055E+02  0.31972936992E+02  0.00000000000E+00 0. -1.
        -14    1    5    5    0    0 -0.28442653129E+02 -0.12512629500E+02 -0.45655159920E+02  0.55226298458E+02  0.00000000000E+00 0.  1.
          5    1    4    4  501    0  0.32611633093E+02  0.70187494084E+02  0.56415706838E+01  0.77711663594E+02  0.41800000000E+01 0.  1.
         -5    1    4    4    0  501 -0.63980752970E+01 -0.47041704499E+02 -0.24348239208E+02  0.53517908052E+02  0.41800000000E+01 0.  1.
</event>
<event>
11    1  0.7157190E-009  0.1712565E+03  0.7561462E-02  0.1076943E+00
         22   -1    0    0    0    0  0.00000000000E+00  0.00000000000E+00  0.47401717565E+03  0.47401717565E+03  0.00000000000E+00 0.  1.
         22   -1    0    0    0    0 -0.00000000000E+00 -0.00000000000E+00 -0.68981086963E+03  0.68981086963E+03  0.00000000000E+00 0.  1.
         24    2    1    2    0    0 -0.56029573313E+01  0.11438518485E+03 -0.60954679159E+03  0.62537954371E+03  0.80230411307E+02 0.  0.
         25    2    1    2    0    0  0.52905808854E+02 -0.18337947496E+03  0.16549068229E+03  0.28188978903E+03  0.12509049039E+03 0.  0.
        -24    2    1    2    0    0 -0.47302851523E+02  0.68994290109E+02  0.22826241532E+03  0.25655871254E+03  0.81980917931E+02 0.  0.
        -13    1    3    3    0    0  0.20036437975E+01 -0.55764623614E+01 -0.15789154869E+03  0.15800269830E+03  0.00000000000E+00 0.  1.
         14    1    3    3    0    0 -0.76066011288E+01  0.11996164721E+03 -0.45165524290E+03  0.46737684541E+03  0.00000000000E+00 0. -1.
         11    1    5    5    0    0 -0.48885306351E+02  0.38532961181E+02  0.63217103361E+02  0.88718455982E+02  0.00000000000E+00 0. -1.
        -12    1    5    5    0    0  0.15824548281E+01  0.30461328927E+02  0.16504531196E+03  0.16784025656E+03  0.00000000000E+00 0.  1.
          5    1    4    4  501    0  0.51706733126E+02 -0.14372225267E+03  0.51698538488E+02  0.16130679913E+03  0.41800000000E+01 0. -1.
         -5    1    4    4    0  501  0.11990757281E+01 -0.39657222293E+02  0.11379214380E+03  0.12058298990E+03  0.41800000000E+01 0. -1.
</event>
<event>
11    1  0.7157190E-009  0.1590353E+03  0.7561462E-02  0.1087988E+00
         22   -1    0    0    0    0  0.00000000000E+00  0.00000000000E+00  0.68851128248E+03  0.68851128248E+03  0.00000000000E+00 0. -1.
         22   -1    0    0    0    0 -0.00000000000E+00 -0.00000000000E+00 -0.62196673804E+03  0.62196673804E+03  0.00000000000E+00 0.  1.
        -24    2    1    2    0    0  0.63043630259E+02 -0.72309149011E+02 -0.53591568579E+03  0.54927111189E+03  0.72732521834E+02 0.  0.
         25    2    1    2    0    0 -0.60708456380E+02  0.13244842928E+03  0.48692402735E+02  0.19810923199E+03  0.12509282402E+03 0.  0.
         24    2    1    2    0    0 -0.23351738791E+01 -0.60139280274E+02  0.55376782749E+03  0.56309767664E+03  0.82449988537E+02 0.  0.
        -11    1    5    5    0    0 -0.12059965735E+02 -0.27989996702E+02  0.52496080749E+02  0.60701904277E+02  0.00000000000E+00 0.  1.
         12    1    5    5    0    0  0.97247918560E+01 -0.32149283572E+02  0.50127174674E+03  0.50239577236E+03  0.00000000000E+00 0. -1.
         11    1    3    3    0    0 -0.15383390114E+02 -0.15164736516E+02 -0.13883736779E+03  0.14050776712E+03  0.00000000000E+00 0. -1.
        -12    1    3    3    0    0  0.78427020372E+02 -0.57144412494E+02 -0.39707831800E+03  0.40876334477E+03  0.00000000000E+00 0.  1.
          5    1    4    4  501    0 -0.92789172360E+02  0.80567358106E+02  0.51816013551E+01  0.12306604362E+03  0.41800000000E+01 0.  1.
         -5    1    4    4    0  501  0.32080715981E+02  0.51881071178E+02  0.43510801380E+02  0.75043188373E+02  0.41800000000E+01 0.  1.
</event>
<event>
11    1  0.7157190E-009  0.1462106E+03  0.7561462E-02  0.1100815E+00
         22   -1    0    0    0    0  0.00000000000E+00  0.00000000000E+00  0.15139624385E+03  0.15139624385E+03  0.00000000000E+00 0.  1.
         22   -1    0    0    0    0 -0.00000000000E+00 -0.00000000000E+00 -0.16312385237E+04  0.16312385237E+04  0.00000000000E+00 0.  1.
        -24    2    1    2    0    0  0.62621652463E+02 -0.44432295062E+02 -0.12949064098E+04  0.12996617636E+04  0.80264497889E+02 0.  0.
         25    2    1    2    0    0 -0.70850508903E+02  0.16970813508E+02 -0.30385727903E+03  0.33657768729E+03  0.12508992942E+03 0.  0.
         24    2    1    2    0    0  0.82288564400E+01  0.27461481554E+02  0.11892140890E+03  0.14639531665E+03  0.80420396633E+02 0.  0.
        -13    1    5    5    0    0  0.39312482682E+02  0.28088481781E+01  0.86871214358E+02  0.95393756644E+02  0.00000000000E+00 0.  1.
         14    1    5    5    0    0 -0.31083626242E+02  0.24652633376E+02  0.32050194543E+02  0.51001560005E+02  0.00000000000E+00 0. -1.
         13    1    3    3    0    0 -0.18130195176E+02 -0.15294293008E+01 -0.30448195270E+03  0.30502508528E+03  0.00000000000E+00 0. -1.
        -14    1    3    3    0    0  0.80751847638E+02 -0.42902865761E+02 -0.99042445706E+03  0.99463667836E+03  0.00000000000E+00 0.  1.
          5    1    4    4  501    0 -0.23806881311E+02  0.52789030837E+02 -0.52336355837E+02  0.78166590797E+02  0.41800000000E+01 0. -1.
         -5    1    4    4    0  501 -0.47043627592E+02 -0.35818217330E+02 -0.25152092319E+03  0.25841109650E+03  0.41800000000E+01 0. -1.
</event>
<event>
11    1  0.7157190E-009  0.1578680E+03  0.7561462E-02  0.1089100E+00
         22   -1    0    0    0    0  0.00000000000E+00  0.00000000000E+00  0.17690012289E+03  0.17690012289E+03  0.00000000000E+00 0.  1.
         22   -1    0    0    0    0 -0.00000000000E+00 -0.00000000000E+00 -0.11512226305E+04  0.11512226305E+04  0.00000000000E+00 0. -1.
        -24    2    1    2    0    0 -0.50998852291E+02 -0.78169960650E+02 -0.97439522806E+03  0.98211788948E+03  0.79987890860E+02 0.  0.
         25    2    1    2    0    0  0.69988034348E+02  0.12202730043E+03 -0.96994118949E+02  0.21176461423E+03  0.12508959080E+03 0.  0.
         24    2    1    2    0    0 -0.18989182057E+02 -0.43857339784E+02  0.97066839433E+02  0.13424024965E+03  0.79463312411E+02 0.  0.
        -11    1    5    5    0    0 -0.49494656774E+02 -0.20763742891E+02  0.47891481391E+02  0.71933636484E+02  0.00000000000E+00 0.  1.
         12    1    5    5    0    0  0.30505474717E+02 -0.23093596894E+02  0.49175358042E+02  0.62306613162E+02  0.00000000000E+00 0. -1.
         13    1    3    3    0    0 -0.21066263487E+02 -0.26702281217E+02 -0.72178827100E+03  0.72258916919E+03  0.00000000000E+00 0. -1.
        -14    1    3    3    0    0 -0.29932588803E+02 -0.51467679433E+02 -0.25260695707E+03  0.25952872029E+03  0.00000000000E+00 0.  1.
          5    1    4    4  501    0  0.47296033511E-01  0.71322610445E+02 -0.10267980809E+03  0.12509009708E+03  0.41800000000E+01 0. -1.
         -5    1    4    4    0  501  0.69940738315E+02  0.50704689990E+02  0.56856891394E+01  0.86674517154E+02  0.41800000000E+01 0. -1.
</event>
<event>
11    1  0.7157190E-009  0.1434893E+03  0.7561462E-02  0.1103723E+00
         22   -1    0    0    0    0  0.00000000000E+00  0.00000000000E+00  0.32016330538E+03  0.32016330538E+03  0.00000000000E+00 0. -1.
         22   -1    0    0    0    0 -0.00000000000E+00 -0.00000000000E+00 -0.13265788445E+04  0.13265788445E+04  0.00000000000E+00 0.  1.
         24    2    1    2    0    0 -0.33172040409E+02  0.31995483655E+02 -0.12073910787E+04  0.12108889628E+04  0.79591256419E+02 0.  0.
         25    2    1    2    0    0  0.78674253501E+02 -0.79736692000E+02 -0.40087847708E+02  0.17263336153E+03  0.12509062220E+03 0.  0.
        -24    2    1    2    0    0 -0.45502213092E+02  0.47741208345E+02  0.24106338734E+03  0.26321982548E+03  0.82604149050E+02 0.  0.
        -13    1    3    3    0    0 -0.51698890616E+02  0.18680558327E+02 -0.10848670376E+04  0.10862588217E+04  0.00000000000E+00 0.  1.
         14    1    3    3    0    0  0.18526850207E+02  0.13314925328E+02 -0.12252404116E+03  0.12463014113E+03  0.00000000000E+00 0. -1.
         11    1    5    5    0    0 -0.32926880538E+02  0.48864585823E+02  0.69176031461E+02  0.90869414757E+02  0.00000000000E+00 0. -1.
        -12    1    5    5    0    0 -0.12575332554E+02 -0.11233774784E+01  0.17188735588E+03  0.17235041073E+03  0.00000000000E+00 0.  1.
          5    1    4    4  501    0 -0.32479043732E+02 -0.70191361868E+01  0.10872820364E+01  0.33508374129E+02  0.41800000000E+01 0.  1.
         -5    1    4    4    0  501  0.11115329723E+03 -0.72717555813E+02 -0.41175129744E+02  0.13912498740E+03  0.41800000000E+01 0.  1.
</event>
<event>
11    1  0.7157190E-009  0.1446010E+03  0.7561462E-02  0.1102527E+00
         22   -1    0    0    0    0  0.00000000000E+00  0.00000000000E+00  0.59386670792E+03  0.59386670792E+03  0.00000000000E+00 0.  1.
         22   -1    0    0    0    0 -0.00000000000E+00 -0.00000000000E+00 -0.44464767102E+03  0.44464767102E+03  0.00000000000E+00 0. -1.
        -24    2    1    2    0    0  0.63940123034E+02  0.33582222725E+02 -0.33012086297E+03  0.34746538529E+03  0.80847416714E+02 0.  0.
         25    2    1    2    0    0 -0.66096205047E+02 -0.34423705216E+02 -0.51310736786E+02  0.15437574109E+03  0.12508148514E+03 0.  0.
         24    2    1    2    0    0  0.21560820132E+01  0.84148249076E+00  0.53065063666E+03  0.53667325255E+03  0.80141905617E+02 0.  0.
        -13    1    5    5    0    0 -0.28134902104E+02  0.32176813097E+01  0.44302795352E+03  0.44393208240E+03  0.00000000000E+00 0.  1.
         14    1    5    5    0    0  0.30290984117E+02 -0.23761988189E+01  0.87622683143E+02  0.92741170150E+02  0.00000000000E+00 0. -1.
         11    1    3    3    0    0  0.25960083223E+02  0.45475014836E+02 -0.27218954780E+03  0.27718054193E+03  0.00000000000E+00 0. -1.
        -12    1    3    3    0    0  0.37980039811E+02 -0.11892792110E+02 -0.57931315173E+02  0.70284843358E+02  0.00000000000E+00 0.  1.
          5    1    4    4  501    0 -0.35559177918E+02  0.62041099641E+00 -0.88002638951E+02  0.95009351679E+02  0.41800000000E+01 0. -1.
         -5    1    4    4    0  501 -0.30537027129E+02 -0.35044116213E+02  0.36691902166E+02  0.59366389409E+02  0.41800000000E+01 0. -1.
</event>
<event>
11    1  0.7157190E-009  0.1734464E+03  0.7561462E-02  0.1075071E+00
         22   -1    0    0    0    0  0.00000000000E+00  0.00000000000E+00  0.38642997467E+03  0.38642997467E+03  0.00000000000E+00 0.  1.
         22   -1    0    0    0    0 -0.00000000000E+00 -0.00000000000E+00 -0.45375143707E+03  0.45375143707E+03  0.00000000000E+00 0.  1.
        -24    2    1    2    0    0  0.81325212701E+02 -0.37152746593E+01 -0.28084056285E+03  0.30012796576E+03  0.67659297996E+02 0.  0.
         25    2    1    2    0    0  0.27002329418E+02  0.70120705263E+02 -0.10996429738E+03  0.18270752423E+03  0.12507539171E+03 0.  0.
         24    2    1    2    0    0 -0.10832754212E+03 -0.66405430604E+02  0.32348339782E+03  0.35734592176E+03  0.83126779889E+02 0.  0.
        -13    1    5    5    0    0 -0.97721011002E+02 -0.72087737027E+02  0.32325477236E+03  0.34531099848E+03  0.00000000000E+00 0.  1.
         14    1    5    5    0    0 -0.10606531117E+02  0.56823064231E+01  0.22862546439E+00  0.12034923275E+02  0.00000000000E+00 0. -1.
         13    1    3    3    0    0  0.27975048804E+01  0.19240862107E+02 -0.25930223135E+02  0.32410079914E+02  0.00000000000E+00 0. -1.
        -14    1    3    3    0    0  0.78527707821E+02 -0.22956136766E+02 -0.25491033971E+03  0.26771788585E+03  0.00000000000E+00 0.  1.
          5    1    4    4  501    0  0.55566635646E+02  0.19374772058E+02 -0.90313507185E+00  0.59002718940E+02  0.41800000000E+01 0.  1.
         -5    1    4    4    0  501 -0.28564306228E+02  0.50745933205E+02 -0.10906116231E+03  0.12370480529E+03  0.41800000000E+01 0.  1.
</event>
<event>
11    1  0.7157190E-009  0.1476966E+03  0.7561462E-02  0.1099256E+00
         22   -1    0    0    0    0  0.00000000000E+00  0.00000000000E+00  0.58874039087E+03  0.58874039087E+03  0.00000000000E+00 0. -1.
         22   -1    0    0    0    0 -0.00000000000E+00 -0.00000000000E+00 -0.82928689411E+03  0.82928689411E+03  0.00000000000E+00 0.  1.
         24    2    1    2    0    0 -0.35396077715E+02 -0.69497854881E+02 -0.77225120938E+03  0.77997299639E+03  0.76831702807E+02 0.  0.
         25    2    1    2    0    0  0.53761729216E+02  0.80308506523E+02  0.77150597255E+02  0.17589788636E+03  0.12509225403E+03 0.  0.
        -24    2    1    2    0    0 -0.18365651501E+02 -0.10810651642E+02  0.45455410887E+03  0.46215640224E+03  0.80715146614E+02 0.  0.
        -11    1    3    3    0    0  0.13953266964E+01 -0.70455723138E+02 -0.42833274505E+03  0.43409088488E+03  0.00000000000E+00 0.  1.
         12    1    3    3    0    0 -0.36791404411E+02  0.95786825729E+00 -0.34391846433E+03  0.34588211150E+03  0.00000000000E+00 0. -1.
         13    1    5    5    0    0 -0.11533278878E+02  0.16608694910E+02  0.40181973967E+03  0.40232818502E+03  0.00000000000E+00 0. -1.
        -14    1    5    5    0    0 -0.68323726235E+01 -0.27419346551E+02  0.52734369199E+02  0.59828217220E+02  0.00000000000E+00 0.  1.
          5    1    4    4  501    0  0.68787698270E+02  0.99036645057E+01 -0.90765820061E+00  0.69628487326E+02  0.41800000000E+01 0.  1.
         -5    1    4    4    0  501 -0.15025969053E+02  0.70404842017E+02  0.78058255456E+02  0.10626939903E+03  0.41800000000E+01 0.  1.
</event>
<event>
11    1  0.7157190E-009  0.1692782E+03  0.7561462E-02  0.1078662E+00
         22   -1    0    0    0    0  0.00000000000E+00  0.00000000000E+00  0.51949807275E+03  0.51949807275E+03  0.00000000000E+00 0.  1.
         22   -1    0    0    0    0 -0.00000000000E+00 -0.00000000000E+00 -0.14881410936E+04  0.14881410936E+04  0.00000000000E+00 0. -1.
         24    2    1    2    0    0  0.94736554015E+02  0.37651790741E+02 -0.10117166503E+04  0.10201955391E+04  0.82678205188E+02 0.  0.
         25    2    1    2    0    0 -0.19461403213E+03 -0.53569647762E+02 -0.43312851168E+03  0.49395561614E+03  0.12509002527E+03 0.  0.
        -24    2    1    2    0    0  0.99877478113E+02  0.15917857022E+02  0.47620214112E+03  0.49348801107E+03  0.80827279129E+02 0.  0.
        -11    1    3    3    0    0  0.62539185678E+02 -0.50887026114E+01 -0.30117136917E+03  0.30763816123E+03  0.00000000000E+00 0.  1.
         12    1    3    3    0    0  0.32197368336E+02  0.42740493352E+02 -0.71054528109E+03  0.71255737789E+03  0.00000000000E+00 0. -1.
         13    1    5    5    0    0  0.72964269177E+02 -0.45031527452E+01  0.16514440775E+03  0.18060104754E+03  0.00000000000E+00 0. -1.
        -14    1    5    5    0    0  0.26913208936E+02  0.20421009767E+02  0.31105773337E+03  0.31288696353E+03  0.00000000000E+00 0.  1.
          5    1    4    4  501    0 -0.99972820836E+02 -0.88685904791E+02 -0.20902242205E+03  0.24812819254E+03  0.41800000000E+01 0.  1.
         -5    1    4    4    0  501 -0.94641211292E+02  0.35116257028E+02 -0.22410608963E+03  0.24582742360E+03  0.41800000000E+01 0.  1.
</event>
<event>
11    1  0.7157190E-009  0.1485977E+03  0.7561462E-02  0.1098320E+00
         22   -1    0    0    0    0  0.00000000000E+00  0.00000000000E+00  0.24690025758E+03  0.24690025758E+03  0.00000000000E+00 0.  1.
         22   -1    0    0    0    0 -0.00000000000E+00 -0.00000000000E+00 -0.12625209432E+04  0.12625209432E+04  0.00000000000E+00 0.  1.
         24    2    1    2    0    0  0.93134475461E+01 -0.60489620400E+01 -0.10702758820E+04  0.10733502990E+04  0.80418097915E+02 0.  0.
         25    2    1    2    0    0  0.36181632784E+02  0.72121508121E+02 -0.14483919921E+03  0.20769650673E+03  0.12509525489E+03 0.  0.
        -24    2    1    2    0    0 -0.45495080330E+02 -0.66072546081E+02  0.19949439560E+03  0.22837439505E+03  0.76951067304E+02 0.  0.
        -13    1    3    3    0    0  0.42442671780E+02  0.10037339411E+02 -0.65148803364E+03  0.65294623558E+03  0.00000000000E+00 0.  1.
         14    1    3    3    0    0 -0.33129224234E+02 -0.16086301451E+02 -0.41878784837E+03  0.42040406341E+03  0.00000000000E+00 0. -1.
         11    1    5    5    0    0  0.11292530807E+02 -0.25935533380E+02  0.16817108372E+02  0.32908787242E+02  0.00000000000E+00 0. -1.
        -12    1    5    5    0    0 -0.56787611137E+02 -0.40137012701E+02  0.18267728723E+03  0.19546560781E+03  0.00000000000E+00 0.  1.
          5    1    4    4  501    0 -0.35572720913E+02 -0.11217652799E+02 -0.49285391236E+02  0.61949789320E+02  0.41800000000E+01 0. -1.
         -5    1    4    4    0  501  0.71754353697E+02  0.83339160921E+02 -0.95553807978E+02  0.14574671741E+03  0.41800000000E+01 0. -1.
</event>
<event>
11    1  0.7157190E-009  0.1331315E+03  0.7561462E-02  0.1115480E+00
         22   -1    0    0    0    0  0.00000000000E+00  0.00000000000E+00  0.24486202161E+03  0.24486202161E+03  0.00000000000E+00 0. -1.
         22   -1    0    0    0    0 -0.00000000000E+00 -0.00000000000E+00 -0.28616618356E+03  0.28616618356E+03  0.00000000000E+00 0. -1.
         24    2    1    2    0    0  0.18690999811E+01 -0.46384489406E+02 -0.22574961652E+03  0.24372088988E+03  0.79258869610E+02 0.  0.
         25    2    1    2    0    0  0.82207440112E+01  0.34955983238E+02  0.81163793274E+02  0.15337215428E+03  0.12508379181E+03 0.  0.
        -24    2    1    2    0    0 -0.10089843992E+02  0.11428506169E+02  0.10328166131E+03  0.13393516101E+03  0.83899404566E+02 0.  0.
        -11    1    3    3    0    0 -0.17257728738E+02 -0.65328170942E+01 -0.57553136931E+01  0.19329524984E+02  0.00000000000E+00 0.  1.
         12    1    3    3    0    0  0.19126828719E+02 -0.39851672312E+02 -0.21999430283E+03  0.22439136490E+03  0.00000000000E+00 0. -1.
         13    1    5    5    0    0 -0.39292661472E+02  0.30312432284E+02  0.69940581167E+02  0.85758041550E+02  0.00000000000E+00 0. -1.
        -14    1    5    5    0    0  0.29202817480E+02 -0.18883926115E+02  0.33341080140E+02  0.48177119456E+02  0.00000000000E+00 0.  1.
          5    1    4    4  501    0 -0.14273844883E+02  0.76369616871E+02  0.70226892712E+02  0.10481101988E+03  0.41800000000E+01 0.  1.
         -5    1    4    4    0  501  0.22494588895E+02 -0.41413633634E+02  0.10936900562E+02  0.48561134400E+02  0.41800000000E+01 0.  1.
</event>
<event>
11    1  0.7157190E-009  0.1287018E+03  0.7561462E-02  0.1120874E+00
         22   -1    0    0    0    0  0.00000000000E+00  0.00000000000E+00  0.44865468288E+03  0.44865468288E+03  0.00000000000E+00 0.  1.
         22   -1    0    0    0    0 -0.00000000000E+00 -0.00000000000E+00 -0.23849400915E+03  0.23849400915E+03  0.00000000000E+00 0.  1.
        -24    2    1    2    0    0  0.30241173694E+02  0.27101252358E+02 -0.12256236412E+03  0.15194547399E+03  0.80105477364E+02 0.  0.
         25    2    1    2    0    0 -0.28213666881E+01  0.61996155838E+00 -0.55418090464E+02  0.13684285179E+03  0.12508579805E+03 0.  0.
         24    2    1    2    0    0 -0.27419807005E+02 -0.27721213916E+02  0.38814112831E+03  0.39836036624E+03  0.80728770537E+02 0.  0.
        -13    1    5    5    0    0 -0.45470382279E+02 -0.29396255253E+02  0.36485037492E+03  0.36884616246E+03  0.00000000000E+00 0.  1.
         14    1    5    5    0    0  0.18050575273E+02  0.16750413371E+01  0.23290753388E+02  0.29514203776E+02  0.00000000000E+00 0. -1.
         13    1    3    3    0    0 -0.25676381192E+02 -0.12744937893E+01 -0.48591881189E+02  0.54973373582E+02  0.00000000000E+00 0. -1.
        -14    1    3    3    0    0  0.55917554885E+02  0.28375746147E+02 -0.73970482929E+02  0.96972100413E+02  0.00000000000E+00 0.  1.
          5    1    4    4  501    0 -0.57183363407E+02  0.27746879466E+01 -0.58799012251E+02  0.82173184102E+02  0.41800000000E+01 0. -1.
         -5    1    4    4    0  501  0.54361996719E+02 -0.21547263882E+01  0.33809217866E+01  0.54669667689E+02  0.41800000000E+01 0. -1.
</event>
<event>
11    1  0.7157190E-009  0.1353298E+03  0.7561462E-02  0.1112888E+00
         22   -1    0    0    0    0  0.00000000000E+00  0.00000000000E+00  0.78553154907E+03  0.78553154907E+03  0.00000000000E+00 0. -1.
         22   -1    0    0    0    0 -0.00000000000E+00 -0.00000000000E+00 -0.73082253240E+03  0.73082253240E+03  0.00000000000E+00 0. -1.
        -24    2    1    2    0    0 -0.31076168899E+02 -0.34437948421E+02 -0.55810570662E+03  0.56528399157E+03  0.76891552261E+02 0.  0.
         25    2    1    2    0    0  0.81727274223E+02  0.40614104757E+02 -0.13011445343E+03  0.20225291667E+03  0.12509044109E+03 0.  0.
         24    2    1    2    0    0 -0.50651105323E+02 -0.61761563365E+01  0.74292917672E+03  0.74881717324E+03  0.78611182022E+02 0.  0.
        -13    1    5    5    0    0 -0.26429219339E+02  0.30348964172E+02  0.19337805873E+03  0.19752123141E+03  0.00000000000E+00 0.  1.
         14    1    5    5    0    0 -0.24221885984E+02 -0.36525120509E+02  0.54955111799E+03  0.55129594182E+03  0.00000000000E+00 0. -1.
         11    1    3    3    0    0 -0.50213172057E+02 -0.12368365549E+01 -0.36211712212E+03  0.36558405675E+03  0.00000000000E+00 0. -1.
        -12    1    3    3    0    0  0.19137003158E+02 -0.33201111866E+02 -0.19598858449E+03  0.19969993483E+03  0.00000000000E+00 0.  1.
          5    1    4    4  501    0  0.82700644433E+01  0.71041090751E+02 -0.40188925349E+02  0.82145314301E+02  0.41800000000E+01 0.  1.
         -5    1    4    4    0  501  0.73457209779E+02 -0.30426985993E+02 -0.89925528080E+02  0.12010760236E+03  0.41800000000E+01 0.  1.
</event>
<event>
11    1  0.7157190E-009  0.1354015E+03  0.7561462E-02  0.1112805E+00
         22   -1    0    0    0    0  0.00000000000E+00  0.00000000000E+00  0.60456486129E+03  0.60456486129E+03  0.00000000000E+00 0.  1.
         22   -1    0    0    0    0 -0.00000000000E+00 -0.00000000000E+00 -0.16864891385E+03  0.16864891385E+03  0.00000000000E+00 0.  1.
         24    2    1    2    0    0 -0.47921244920E+02 -0.19427178787E+02 -0.11474193238E+03  0.14680352827E+03  0.75575815416E+02 0.  0.
         25    2    1    2    0    0  0.56752316161E+02 -0.75849679241E+00  0.10352290963E+03  0.17200684919E+03  0.12509181684E+03 0.  0.
        -24    2    1    2    0    0 -0.88310712415E+01  0.20185675579E+02  0.44713497019E+03  0.45440339769E+03  0.77892983947E+02 0.  0.
        -13    1    3    3    0    0 -0.27890310735E+02 -0.28798440635E+02 -0.11784006650E+03  0.12447289218E+03  0.00000000000E+00 0.  1.
         14    1    3    3    0    0 -0.20030934184E+02  0.93712618483E+01  0.30981341208E+01  0.22330636085E+02  0.00000000000E+00 0. -1.
         11    1    5    5    0    0  0.18417183754E+02  0.36360635949E+02  0.14526359662E+03  0.15087346025E+03  0.00000000000E+00 0. -1.
        -12    1    5    5    0    0 -0.27248254996E+02 -0.16174960370E+02  0.30187137357E+03  0.30352993744E+03  0.00000000000E+00 0.  1.
          5    1    4    4  501    0  0.69725646085E+00  0.17326224661E+02 -0.24917278623E+02  0.30643553997E+02  0.41800000000E+01 0. -1.
         -5    1    4    4    0  501  0.56055059700E+02 -0.18084721454E+02  0.12844018825E+03  0.14136329519E+03  0.41800000000E+01 0. -1.
</event>
<event>
11    1  0.7157190E-009  0.1853525E+03  0.7561462E-02  0.1065394E+00
         22   -1    0    0    0    0  0.00000000000E+00  0.00000000000E+00  0.38224290236E+03  0.38224290236E+03  0.00000000000E+00 0. -1.
         22   -1    0    0    0    0 -0.00000000000E+00 -0.00000000000E+00 -0.98501312613E+03  0.98501312613E+03  0.00000000000E+00 0. -1.
        -24    2    1    2    0    0 -0.36727736574E+02 -0.13153886794E+03 -0.59425962951E+03  0.61507971607E+03  0.80790775746E+02 0.  0.
         25    2    1    2    0    0 -0.96867762506E+02  0.15323392299E+03 -0.32851111747E+03  0.39551425881E+03  0.12509187044E+03 0.  0.
         24    2    1    2    0    0  0.13359549908E+03 -0.21695055053E+02  0.32000052320E+03  0.35666205361E+03  0.80554657523E+02 0.  0.
        -13    1    5    5    0    0  0.86813784738E+02 -0.10131331919E+02  0.10641550654E+03  0.13770815931E+03  0.00000000000E+00 0.  1.
         14    1    5    5    0    0  0.46781714341E+02 -0.11563723134E+02  0.21358501666E+03  0.21895389430E+03  0.00000000000E+00 0. -1.
         11    1    3    3    0    0 -0.56540081276E+02 -0.12569868240E+03 -0.50605302568E+03  0.52448699159E+03  0.00000000000E+00 0. -1.
        -12    1    3    3    0    0  0.19812344702E+02 -0.58401855368E+01 -0.88206603827E+02  0.90592724478E+02  0.00000000000E+00 0.  1.
          5    1    4    4  501    0  0.23282751002E+02  0.29914804164E+02 -0.22260048752E+02  0.44158398667E+02  0.41800000000E+01 0. -1.
         -5    1    4    4    0  501 -0.12015051351E+03  0.12331911883E+03 -0.30625106871E+03  0.35135586014E+03  0.41800000000E+01 0. -1.
</event>
<event>
11    1  0.7157190E-009  0.1777921E+03  0.7561462E-02  0.1071443E+00
         22   -1    0    0    0    0  0.00000000000E+00  0.00000000000E+00  0.13997403813E+04  0.13997403813E+04  0.00000000000E+00 0.  1.
         22   -1    0    0    0    0 -0.00000000000E+00 -0.00000000000E+00 -0.36694103017E+03  0.36694103017E+03  0.00000000000E+00 0. -1.
         24    2    1    2    0    0  0.42521052283E+02  0.32714571140E+02 -0.29734676626E+03  0.31250415143E+03  0.79783846771E+02 0.  0.
         25    2    1    2    0    0 -0.64830014005E+02 -0.15411307216E+03  0.13189165023E+03  0.24698084609E+03  0.12510140371E+03 0.  0.
        -24    2    1    2    0    0  0.22308961722E+02  0.12139850102E+03  0.11982544672E+04  0.12071964140E+04  0.79209392998E+02 0.  0.
        -13    1    3    3    0    0 -0.68376648485E+01  0.40391855554E+02 -0.84943891082E+02  0.94306523039E+02  0.00000000000E+00 0.  1.
         14    1    3    3    0    0  0.49358717132E+02 -0.76772844137E+01 -0.21240287517E+03  0.21819762839E+03  0.00000000000E+00 0. -1.
         13    1    5    5    0    0  0.25410476035E+02  0.87501826478E+01  0.41591916424E+03  0.41678652710E+03  0.00000000000E+00 0. -1.
        -14    1    5    5    0    0 -0.31015143124E+01  0.11264831837E+03  0.78233530295E+03  0.79040988687E+03  0.00000000000E+00 0.  1.
          5    1    4    4  501    0 -0.76084310982E+02 -0.26787785592E+02  0.46434960733E+02  0.93166978124E+02  0.41800000000E+01 0. -1.
         -5    1    4    4    0  501  0.11254296977E+02 -0.12732528657E+03  0.85456689496E+02  0.15381386797E+03  0.41800000000E+01 0. -1.
</event>
<event>
11    1  0.7157190E-009  0.1781281E+03  0.7561462E-02  0.1071167E+00
         22   -1    0    0    0    0  0.00000000000E+00  0.00000000000E+00  0.24963658310E+03  0.24963658310E+03  0.00000000000E+00 0.  1.
         22   -1    0    0    0    0 -0.00000000000E+00 -0.00000000000E+00 -0.21619045580E+04  0.21619045580E+04  0.00000000000E+00 0.  1.
        -24    2    1    2    0    0  0.11650168537E+03  0.39503876270E+02 -0.19039669484E+04  0.19096201689E+04  0.80161400682E+02 0.  0.
         25    2    1    2    0    0 -0.20251851028E+03 -0.10033211894E+03 -0.15786562833E+03  0.30273652297E+03  0.12509022596E+03 0.  0.
         24    2    1    2    0    0  0.86016824916E+02  0.60828242675E+02  0.14956460178E+03  0.19918444923E+03  0.78777569358E+02 0.  0.
        -13    1    5    5    0    0  0.37998077592E+02  0.71376829561E+02  0.77926209716E+02  0.11229870818E+03  0.00000000000E+00 0.  1.
         14    1    5    5    0    0  0.48018747323E+02 -0.10548586886E+02  0.71638392060E+02  0.86885741043E+02  0.00000000000E+00 0. -1.
         13    1    3    3    0    0  0.57322052979E+01  0.32587890322E+02 -0.30031827667E+03  0.30213555910E+03  0.00000000000E+00 0. -1.
        -14    1    3    3    0    0  0.11076948007E+03  0.69159859476E+01 -0.16036486717E+04  0.16074846098E+04  0.00000000000E+00 0.  1.
          5    1    4    4  501    0  0.10908288916E+02 -0.31450633322E+02 -0.14650736875E+02  0.36609419477E+02  0.41800000000E+01 0.  1.
         -5    1    4    4    0  501 -0.21342679920E+03 -0.68881485623E+02 -0.14321489145E+03  0.26612710349E+03  0.41800000000E+01 0.  1.
</event>
<event>
11    1  0.7157190E-009  0.1788209E+03  0.7561462E-02  0.1070601E+00
         22   -1    0    0    0    0  0.00000000000E+00  0.00000000000E+00  0.20502040477E+03  0.20502040477E+03  0.00000000000E+00 0. -1.
         22   -1    0    0    0    0 -0.00000000000E+00 -0.00000000000E+00 -0.12489051800E+04  0.12489051800E+04  0.00000000000E+00 0. -1.
         24    2    1    2    0    0  0.75541462595E+01  0.12601061501E+03 -0.75396560344E+03  0.76866499725E+03  0.80287026386E+02 0.  0.
         25    2    1    2    0    0 -0.23984238770E+02 -0.12993475412E+03 -0.46098481435E+03  0.49559285432E+03  0.12508794568E+03 0.  0.
        -24    2    1    2    0    0  0.16430092511E+02  0.39241391141E+01  0.17106564255E+03  0.18966773321E+03  0.80156398083E+02 0.  0.
        -11    1    3    3    0    0  0.11166520916E+02 -0.86439108971E+01 -0.97938214418E+02  0.98951009233E+02  0.00000000000E+00 0.  1.
         12    1    3    3    0    0 -0.36123746569E+01  0.13465452590E+03 -0.65602738902E+03  0.66971398802E+03  0.00000000000E+00 0. -1.
         11    1    5    5    0    0  0.12537856144E+02  0.14971504633E+02  0.17591138045E+03  0.17699197033E+03  0.00000000000E+00 0. -1.
        -12    1    5    5    0    0  0.38922363661E+01 -0.11047365519E+02 -0.48457379052E+01  0.12675762884E+02  0.00000000000E+00 0.  1.
          5    1    4    4  501    0  0.46831089160E+02 -0.87360006086E+02 -0.25334198216E+03  0.27207453739E+03  0.41800000000E+01 0. -1.
         -5    1    4    4    0  501 -0.70815327930E+02 -0.42574748036E+02 -0.20764283220E+03  0.22351831693E+03  0.41800000000E+01 0. -1.
</event>
<event>
11    1  0.7157190E-009  0.1470950E+03  0.7561462E-02  0.1099885E+00
         22   -1    0    0    0    0  0.00000000000E+00  0.00000000000E+00  0.23782479697E+03  0.23782479697E+03  0.00000000000E+00 0. -1.
         22   -1    0    0    0    0 -0.00000000000E+00 -0.00000000000E+00 -0.63781328741E+03  0.63781328741E+03  0.00000000000E+00 0.  1.
         24    2    1    2    0    0 -0.75438927851E+02 -0.28560225591E+02 -0.49011435125E+03  0.50297793520E+03  0.79170750172E+02 0.  0.
         25    2    1    2    0    0  0.67004174346E+02 -0.20836831221E+02 -0.88940186357E+02  0.16877237169E+03  0.12510005508E+03 0.  0.
        -24    2    1    2    0    0  0.84347535049E+01  0.49397056812E+02  0.17906604717E+03  0.20388777749E+03  0.83632304006E+02 0.  0.
        -11    1    3    3    0    0 -0.39847414649E+01  0.23368611020E+02 -0.13339767973E+03  0.13548767879E+03  0.00000000000E+00 0.  1.
         12    1    3    3    0    0 -0.71454186386E+02 -0.51928836611E+02 -0.35671667152E+03  0.36749025642E+03  0.00000000000E+00 0. -1.
         13    1    5    5    0    0  0.36305004462E+02  0.14510113643E+02  0.13725829753E+03  0.14271803316E+03  0.00000000000E+00 0. -1.
        -14    1    5    5    0    0 -0.27870250957E+02  0.34886943169E+02  0.41807749634E+02  0.61169744332E+02  0.00000000000E+00 0.  1.
          5    1    4    4  501    0  0.33979892187E+02  0.30142485462E+01 -0.11513854928E+03  0.12015854816E+03  0.41800000000E+01 0. -1.
         -5    1    4    4    0  501  0.33024282159E+02 -0.23851079767E+02  0.26198362920E+02  0.48613823527E+02  0.41800000000E+01 0. -1.
</event>
<event>
11    1  0.7157190E-009  0.1310360E+03  0.7561462E-02  0.1118003E+00
         22   -1    0    0    0    0  0.00000000000E+00  0.00000000000E+00  0.55885128259E+03  0.55885128259E+03  0.00000000000E+00 0. -1.
         22   -1    0    0    0    0 -0.00000000000E+00 -0.00000000000E+00 -0.36189317097E+03  0.36189317097E+03  0.00000000000E+00 0. -1.
        -24    2    1    2    0    0  0.36203575243E+02 -0.15210129083E+02 -0.30562094345E+03  0.31827911621E+03  0.79720686495E+02 0.  0.
         25    2    1    2    0    0 -0.41959131048E+02 -0.11502142439E+02  0.49428376181E+02  0.14137242971E+03  0.12510048581E+03 0.  0.
         24    2    1    2    0    0  0.57555558051E+01  0.26712271522E+02  0.45315067889E+03  0.46109290763E+03  0.80712203657E+02 0.  0.
        -13    1    5    5    0    0 -0.46860843190E+01  0.53210796591E+02  0.22941561502E+03  0.23555227164E+03  0.00000000000E+00 0.  1.
         14    1    5    5    0    0  0.10441640124E+02 -0.26498525068E+02  0.22373506387E+03  0.22554063600E+03  0.00000000000E+00 0. -1.
         11    1    3    3    0    0  0.58891636322E+02  0.37140545254E+01 -0.21591497115E+03  0.22383318297E+03  0.00000000000E+00 0. -1.
        -12    1    3    3    0    0 -0.22688061079E+02 -0.18924183609E+02 -0.89705972297E+02  0.94445933245E+02  0.00000000000E+00 0.  1.
          5    1    4    4  501    0  0.36421130710E+02 -0.27243085441E+02  0.40093853448E+02  0.60775603253E+02  0.41800000000E+01 0.  1.
         -5    1    4    4    0  501 -0.78380261758E+02  0.15740943002E+02  0.93345227332E+01  0.80596826454E+02  0.41800000000E+01 0.  1.
</event>
<event>
11    1  0.7157190E-009  0.1324621E+03  0.7561462E-02  0.1116280E+00
         22   -1    0    0    0    0  0.00000000000E+00  0.00000000000E+00  0.26741633169E+03  0.26741633169E+03  0.00000000000E+00 0. -1.
         22   -1    0    0    0    0 -0.00000000000E+00 -0.00000000000E+00 -0.29946967201E+03  0.29946967201E+03  0.00000000000E+00 0.  1.
        -24    2    1    2    0    0  0.17462337897E+02  0.43592309854E+02 -0.18127164282E+03  0.20334951114E+03  0.79286773593E+02 0.  0.
         25    2    1    2    0    0 -0.11755478436E+01 -0.32126745171E+02 -0.55314733384E+02  0.14049993324E+03  0.12508797641E+03 0.  0.
         24    2    1    2    0    0 -0.16286790053E+02 -0.11465564683E+02  0.20453303589E+03  0.22303655932E+03  0.86688092143E+02 0.  0.
        -13    1    5    5    0    0 -0.28035668158E+02 -0.15092401105E+02  0.18961902561E+02  0.37058507915E+02  0.00000000000E+00 0.  1.
         14    1    5    5    0    0  0.11748878105E+02  0.36268364229E+01  0.18557113333E+03  0.18597805141E+03  0.00000000000E+00 0. -1.
         11    1    3    3    0    0 -0.21078119560E+02 -0.12171917853E+02 -0.45899271921E+02  0.51953689679E+02  0.00000000000E+00 0. -1.
        -12    1    3    3    0    0  0.38540457457E+02  0.55764227707E+02 -0.13537237090E+03  0.15139582146E+03  0.00000000000E+00 0.  1.
          5    1    4    4  501    0 -0.88402507754E+01  0.40872653051E+02 -0.52062886938E+02  0.66908447879E+02  0.41800000000E+01 0. -1.
         -5    1    4    4    0  501  0.76647029319E+01 -0.72999398223E+02 -0.32518464454E+01  0.73591485358E+02  0.41800000000E+01 0. -1.
</event>
<event>
11    1  0.7157190E-009  0.1613177E+03  0.7561462E-02  0.1085844E+00
         22   -1    0    0    0    0  0.00000000000E+00  0.00000000000E+00  0.87968087180E+03  0.87968087180E+03  0.00000000000E+00 0. -1.
         22   -1    0    0    0    0 -0.00000000000E+00 -0.00000000000E+00 -0.46496487733E+03  0.46496487733E+03  0.00000000000E+00 0.  1.
         24    2    1    2    0    0  0.55017753201E+02  0.67054376315E+02 -0.38569710075E+03  0.40346910613E+03  0.80633885694E+02 0.  0.
         25    2    1    2    0    0 -0.63648485345E+02 -0.16271987905E+03  0.11350012366E+03  0.24302215900E+03  0.12509437624E+03 0.  0.
        -24    2    1    2    0    0  0.86307321434E+01  0.95665502736E+02  0.68691297156E+03  0.69815448401E+03  0.79648446873E+02 0.  0.
        -11    1    3    3    0    0 -0.76998902762E+01  0.48550331574E+02 -0.21801164779E+03  0.22348490235E+03  0.00000000000E+00 0.  1.
         12    1    3    3    0    0  0.62717643478E+02  0.18504044742E+02 -0.16768545296E+03  0.17998420378E+03  0.00000000000E+00 0. -1.
         13    1    5    5    0    0  0.36123605983E+02  0.14306006771E+02  0.20506284680E+03  0.20871115896E+03  0.00000000000E+00 0. -1.
        -14    1    5    5    0    0 -0.27492873839E+02  0.81359495965E+02  0.48185012476E+03  0.48944332504E+03  0.00000000000E+00 0.  1.
          5    1    4    4  501    0 -0.55753166853E+02 -0.67624703795E+02 -0.84160232058E+01  0.88146571256E+02  0.41800000000E+01 0.  1.
         -5    1    4    4    0  501 -0.78953184919E+01 -0.95095175256E+02  0.12191614687E+03  0.15487558774E+03  0.41800000000E+01 0.  1.
</event>
<event>
11    1  0.7157190E-009  0.1987388E+03  0.7561462E-02  0.1055419E+00
         22   -1    0    0    0    0  0.00000000000E+00  0.00000000000E+00  0.19959460633E+04  0.19959460633E+04  0.00000000000E+00 0. -1.
         22   -1    0    0    0    0 -0.00000000000E+00 -0.00000000000E+00 -0.24434194274E+03  0.24434194274E+03  0.00000000000E+00 0. -1.
         24    2    1    2    0    0 -0.74100298528E+02 -0.13560137063E+03 -0.19606611676E+03  0.26190888848E+03  0.79219680414E+02 0.  0.
         25    2    1    2    0    0  0.70669085729E+02  0.13511598820E+03  0.67977413912E+03  0.70780706057E+03  0.12508998691E+03 0.  0.
        -24    2    1    2    0    0  0.34312127992E+01  0.48538242550E+00  0.12678960982E+04  0.12705720570E+04  0.82345779402E+02 0.  0.
        -13    1    3    3    0    0 -0.20294411951E+02 -0.15666092851E+02  0.25995452135E+00  0.25638978100E+02  0.00000000000E+00 0.  1.
         14    1    3    3    0    0 -0.53805886577E+02 -0.11993527778E+03 -0.19632607128E+03  0.23626991038E+03  0.00000000000E+00 0. -1.
         11    1    5    5    0    0 -0.20746777590E+02 -0.34056948530E+02  0.55580867609E+03  0.55723746190E+03  0.00000000000E+00 0. -1.
        -12    1    5    5    0    0  0.24177990389E+02  0.34542330956E+02  0.71208742207E+03  0.71333459506E+03  0.00000000000E+00 0.  1.
          5    1    4    4  501    0 -0.11224830572E+02  0.71580500909E+02  0.13526976389E+03  0.15350943409E+03  0.41800000000E+01 0.  1.
         -5    1    4    4    0  501  0.81893916301E+02  0.63535487292E+02  0.54450437523E+03  0.55429762648E+03  0.41800000000E+01 0.  1.
</event>
<event>
11    1  0.7157190E-009  0.1322078E+03  0.7561462E-02  0.1116586E+00
         22   -1    0    0    0    0  0.00000000000E+00  0.00000000000E+00  0.76936824934E+03  0.76936824934E+03  0.00000000000E+00 0.  1.
         22   -1    0    0    0    0 -0.00000000000E+00 -0.00000000000E+00 -0.11084275686E+03  0.11084275686E+03  0.00000000000E+00 0. -1.
        -24    2    1    2    0    0  0.61393705936E+01 -0.21831431699E+02 -0.35414818051E+02  0.94982931483E+02  0.85165982964E+02 0.  0.
         25    2    1    2    0    0  0.34942851213E+02  0.33669806316E+02  0.63717825170E+02  0.14853334235E+03  0.12509010287E+03 0.  0.
         24    2    1    2    0    0 -0.41082221807E+02 -0.11838374617E+02  0.63022248536E+03  0.63669473236E+03  0.79824213779E+02 0.  0.
        -11    1    5    5    0    0 -0.40332286158E+02  0.46301775119E+01  0.60621000376E+03  0.60756785671E+03  0.00000000000E+00 0.  1.
         12    1    5    5    0    0 -0.74993564947E+00 -0.16468552129E+02  0.24012481598E+02  0.29126875651E+02  0.00000000000E+00 0. -1.
         13    1    3    3    0    0  0.37675145629E+02  0.11300259631E+02 -0.28836762954E+02  0.48771624573E+02  0.00000000000E+00 0. -1.
        -14    1    3    3    0    0 -0.31535775035E+02 -0.33131691330E+02 -0.65780550972E+01  0.46211306910E+02  0.00000000000E+00 0.  1.
          5    1    4    4  501    0  0.33198790684E+01  0.33399148669E+02 -0.32657494879E+02  0.47016051521E+02  0.41800000000E+01 0. -1.
         -5    1    4    4    0  501  0.31622972145E+02  0.27065764688E+00  0.96375320049E+02  0.10151729083E+03  0.41800000000E+01 0. -1.
</event>
<event>
11    1  0.7157190E-009  0.1470806E+03  0.7561462E-02  0.1099900E+00
         22   -1    0    0    0    0  0.00000000000E+00  0.00000000000E+00  0.10572787856E+04  0.10572787856E+04  0.00000000000E+00 0.  1.
         22   -1    0    0    0    0 -0.00000000000E+00 -0.00000000000E+00 -0.91836778540E+02  0.91836778540E+02  0.00000000000E+00 0. -1.
         24    2    1    2    0    0  0.38808961097E+02  0.20642991430E+02 -0.40308963343E+02  0.99995909314E+02  0.80262698666E+02 0.  0.
         25    2    1    2    0    0 -0.45546822317E+01 -0.89163213325E+02  0.32598062306E+03  0.36038993276E+03  0.12508682299E+03 0.  0.
        -24    2    1    2    0    0 -0.34254278866E+02  0.68520221894E+02  0.67977034731E+03  0.68872972203E+03  0.79953289465E+02 0.  0.
        -11    1    3    3    0    0 -0.11637877567E+02 -0.13360379015E+02  0.10618592476E+02  0.20656583160E+02  0.00000000000E+00 0.  1.
         12    1    3    3    0    0  0.50446838664E+02  0.34003370445E+02 -0.50927555819E+02  0.79339326154E+02  0.00000000000E+00 0. -1.
         13    1    5    5    0    0  0.37662105357E+01  0.78837072941E+01  0.47869999841E+01  0.99625574701E+01  0.00000000000E+00 0. -1.
        -14    1    5    5    0    0 -0.38020489401E+02  0.60636514600E+02  0.67498334732E+03  0.67876716456E+03  0.00000000000E+00 0.  1.
          5    1    4    4  501    0 -0.57971542734E+02 -0.46795239116E+02  0.23538147681E+03  0.24692591236E+03  0.41800000000E+01 0. -1.
         -5    1    4    4    0  501  0.53416860502E+02 -0.42367974209E+02  0.90599146252E+02  0.11346402040E+03  0.41800000000E+01 0. -1.
</event>
<event>
11    1  0.7157190E-009  0.1536330E+03  0.7561462E-02  0.1093223E+00
         22   -1    0    0    0    0  0.00000000000E+00  0.00000000000E+00  0.22354788942E+04  0.22354788942E+04  0.00000000000E+00 0. -1.
         22   -1    0    0    0    0 -0.00000000000E+00 -0.00000000000E+00 -0.20718320682E+03  0.20718320682E+03  0.00000000000E+00 0.  1.
         24    2    1    2    0    0 -0.85328655528E+02 -0.22713469865E+02 -0.17819760578E+03  0.21556196060E+03  0.83160633614E+02 0.  0.
         25    2    1    2    0    0  0.14668119004E+03  0.28219274128E+02  0.12264694482E+04  0.12418472265E+04  0.12508208331E+03 0.  0.
        -24    2    1    2    0    0 -0.61352534517E+02 -0.55058042635E+01  0.98002384496E+03  0.98525291396E+03  0.80511616657E+02 0.  0.
        -13    1    3    3    0    0 -0.58703921031E+02 -0.16812475523E+02 -0.17811426632E+03  0.18829100230E+03  0.00000000000E+00 0.  1.
         14    1    3    3    0    0 -0.26624734497E+02 -0.59009943422E+01 -0.83339457937E-01  0.27270958302E+02  0.00000000000E+00 0. -1.
         11    1    5    5    0    0 -0.54601022211E+02 -0.33773894983E+02  0.82735822883E+03  0.82984551962E+03  0.00000000000E+00 0. -1.
        -12    1    5    5    0    0 -0.67515123061E+01  0.28268090720E+02  0.15266561612E+03  0.15540739435E+03  0.00000000000E+00 0.  1.
          5    1    4    4  501    0  0.76014498019E+01  0.37850565699E+02  0.10906580004E+03  0.11577248595E+03  0.41800000000E+01 0.  1.
         -5    1    4    4    0  501  0.13907974024E+03 -0.96312915705E+01  0.11174036482E+04  0.11260747405E+04  0.41800000000E+01 0.  1.
</event>
<event>
11    1  0.7157190E-009  0.4226832E+03  0.7561462E-02  0.9585103E-01
         22   -1    0    0    0    0  0.00000000000E+00  0.00000000000E+00  0.24149018489E+03  0.24149018489E+03  0.00000000000E+00 0. -1.
         22   -1    0    0    0    0 -0.00000000000E+00 -0.00000000000E+00 -0.24454593913E+04  0.24454593913E+04  0.00000000000E+00 0.  1.
        -24    2    1    2    0    0 -0.16756407575E+03  0.41789197999E+03 -0.11715524380E+04  0.12576794548E+04  0.80691199880E+02 0.  0.
         25    2    1    2    0    0 -0.27275779789E+03 -0.38072939663E+03 -0.76884681999E+03  0.90891728620E+03  0.12511399110E+03 0.  0.
         24    2    1    2    0    0  0.44032187364E+03 -0.37162583352E+02 -0.26356994847E+03  0.52035283520E+03  0.77675899478E+02 0.  0.
        -13    1    5    5    0    0  0.13295013103E+03 -0.30023810714E+01 -0.12105809499E+03  0.17983273894E+03  0.00000000000E+00 0.  1.
         14    1    5    5    0    0  0.30737174261E+03 -0.34160202280E+02 -0.14251185348E+03  0.34052009626E+03  0.00000000000E+00 0. -1.
         13    1    3    3    0    0 -0.56403406128E+02  0.16414926016E+03 -0.56061051375E+03  0.58686495206E+03  0.00000000000E+00 0. -1.
        -14    1    3    3    0    0 -0.11116066962E+03  0.25374271983E+03 -0.61094192425E+03  0.67081450278E+03  0.00000000000E+00 0.  1.
          5    1    4    4  501    0 -0.14469186616E+03 -0.14841195858E+03 -0.23920995361E+03  0.31654497293E+03  0.41800000000E+01 0.  1.
         -5    1    4    4    0  501 -0.12806593173E+03 -0.23231743806E+03 -0.52963686639E+03  0.59237231327E+03  0.41800000000E+01 0.  1.
</event>
<event>
11    1  0.7157190E-009  0.1305908E+03  0.7561462E-02  0.1118545E+00
         22   -1    0    0    0    0  0.00000000000E+00  0.00000000000E+00  0.11156174904E+04  0.11156174904E+04  0.00000000000E+00 0. -1.
         22   -1    0    0    0    0 -0.00000000000E+00 -0.00000000000E+00 -0.34433985657E+03  0.34433985657E+03  0.00000000000E+00 0. -1.
        -24    2    1    2    0    0  0.21273018321E+02 -0.36244429750E+02 -0.24135515237E+03  0.25794690834E+03  0.80734738209E+02 0.  0.
         25    2    1    2    0    0 -0.14116011545E+02  0.79108391456E+01 -0.49942313008E+02  0.13566076566E+03  0.12509102906E+03 0.  0.
         24    2    1    2    0    0 -0.71570067761E+01  0.28333590604E+02  0.10625750992E+04  0.10663496730E+04  0.84745315463E+02 0.  0.
        -13    1    5    5    0    0  0.12717933832E+02  0.74058614529E+01  0.30439080429E+02  0.33810209142E+02  0.00000000000E+00 0.  1.
         14    1    5    5    0    0 -0.19874940608E+02  0.20927729151E+02  0.10321360188E+04  0.10325394638E+04  0.00000000000E+00 0. -1.
         11    1    3    3    0    0  0.22979374095E+02  0.16381288904E+01 -0.20194719437E+03  0.20325699106E+03  0.00000000000E+00 0. -1.
        -12    1    3    3    0    0 -0.17063557739E+01 -0.37882558640E+02 -0.39407957994E+02  0.54689917282E+02  0.00000000000E+00 0.  1.
          5    1    4    4  501    0  0.54976341715E+02  0.13429332649E+01 -0.11960599882E+02  0.56433411802E+02  0.41800000000E+01 0.  1.
         -5    1    4    4    0  501 -0.69092353260E+02  0.65679058807E+01 -0.37981713126E+02  0.79227353853E+02  0.41800000000E+01 0.  1.
</event>
<event>
11    1  0.7157190E-009  0.1366705E+03  0.7561462E-02  0.1111334E+00
         22   -1    0    0    0    0  0.00000000000E+00  0.00000000000E+00  0.47524169514E+03  0.47524169514E+03  0.00000000000E+00 0. -1.
         22   -1    0    0    0    0 -0.00000000000E+00 -0.00000000000E+00 -0.17861803523E+04  0.17861803523E+04  0.00000000000E+00 0. -1.
        -24    2    1    2    0    0 -0.48845968305E+02  0.22776006478E+02 -0.15567788486E+04  0.15597247404E+04  0.79222518435E+02 0.  0.
         25    2    1    2    0    0  0.64025649796E+02 -0.37189887136E+02 -0.20046499966E+03  0.24761950479E+03  0.12508729563E+03 0.  0.
         24    2    1    2    0    0 -0.15179681491E+02  0.14413880658E+02  0.44630519106E+03  0.45407780224E+03  0.80994717332E+02 0.  0.
        -11    1    5    5    0    0  0.20243403445E+02 -0.19831273146E+02  0.89296192182E+02  0.93685029305E+02  0.00000000000E+00 0.  1.
         12    1    5    5    0    0 -0.35423084935E+02  0.34245153804E+02  0.35700899888E+03  0.36039277294E+03  0.00000000000E+00 0. -1.
         13    1    3    3    0    0  0.16766073337E+02  0.83073595689E+01 -0.72336773289E+03  0.72360969481E+03  0.00000000000E+00 0. -1.
        -14    1    3    3    0    0 -0.65612041642E+02  0.14468646909E+02 -0.83341111570E+03  0.83611504563E+03  0.00000000000E+00 0.  1.
          5    1    4    4  501    0  0.62541212151E+02 -0.57290488856E+02 -0.20880334265E+03  0.22541054020E+03  0.41800000000E+01 0. -1.
         -5    1    4    4    0  501  0.14844376453E+01  0.20100601720E+02  0.83383429882E+01  0.22208964596E+02  0.41800000000E+01 0. -1.
</event>
<event>
11    1  0.7157190E-009  0.1317242E+03  0.7561462E-02  0.1117168E+00
         22   -1    0    0    0    0  0.00000000000E+00  0.00000000000E+00  0.25041826589E+03  0.25041826589E+03  0.00000000000E+00 0.  1.
         22   -1    0    0    0    0 -0.00000000000E+00 -0.00000000000E+00 -0.90554108396E+03  0.90554108396E+03  0.00000000000E+00 0.  1.
         24    2    1    2    0    0  0.36061811650E+02  0.48522314888E+01 -0.77492609512E+03  0.77985309257E+03  0.79601474056E+02 0.  0.
         25    2    1    2    0    0 -0.65656861523E+02  0.21056144968E+02 -0.75095921616E+02  0.16138199720E+03  0.12510222569E+03 0.  0.
        -24    2    1    2    0    0  0.29595049872E+02 -0.25908376457E+02  0.19489919867E+03  0.21472426009E+03  0.81078352742E+02 0.  0.
        -13    1    3    3    0    0  0.23253484953E+02  0.84114297873E+01 -0.75765452144E+03  0.75805794671E+03  0.00000000000E+00 0.  1.
         14    1    3    3    0    0  0.12808326698E+02 -0.35591982985E+01 -0.17271573682E+02  0.21795145853E+02  0.00000000000E+00 0. -1.
         11    1    5    5    0    0 -0.41194264203E+01  0.25923845744E+02  0.39000032881E+02  0.47010828719E+02  0.00000000000E+00 0. -1.
        -12    1    5    5    0    0  0.33714476293E+02 -0.51832222200E+02  0.15589916579E+03  0.16771343137E+03  0.00000000000E+00 0.  1.
          5    1    4    4  501    0 -0.42674494062E+02  0.27747111715E+02 -0.10859064048E+03  0.12000172604E+03  0.41800000000E+01 0.  1.
         -5    1    4    4    0  501 -0.22982367461E+02 -0.66909667472E+01  0.33494718862E+02  0.41380271166E+02  0.41800000000E+01 0.  1.
</event>
<event>
11    1  0.7157190E-009  0.1407137E+03  0.7561462E-02  0.1106764E+00
         22   -1    0    0    0    0  0.00000000000E+00  0.00000000000E+00  0.13850330317E+03  0.13850330317E+03  0.00000000000E+00 0.  1.
         22   -1    0    0    0    0 -0.00000000000E+00 -0.00000000000E+00 -0.32333861167E+03  0.32333861167E+03  0.00000000000E+00 0.  1.
        -24    2    1    2    0    0 -0.68482209479E+02  0.25301960425E+02 -0.14053060571E+03  0.17722572763E+03  0.79561958109E+02 0.  0.
         25    2    1    2    0    0  0.55040992781E+02  0.21689164410E+02 -0.10434021017E+03  0.17330385686E+03  0.12508963428E+03 0.  0.
         24    2    1    2    0    0  0.13441216698E+02 -0.46991124835E+02  0.60035507381E+02  0.11131233035E+03  0.79983377163E+02 0.  0.
        -11    1    5    5    0    0  0.21044934117E+02  0.16561666829E+02  0.31181701798E+02  0.41103243025E+02  0.00000000000E+00 0.  1.
         12    1    5    5    0    0 -0.76037174190E+01 -0.63552791663E+02  0.28853805583E+02  0.70209087328E+02  0.00000000000E+00 0. -1.
         13    1    3    3    0    0  0.18107642184E+02  0.73957789304E+01 -0.25292754955E+02  0.31973546952E+02  0.00000000000E+00 0. -1.
        -14    1    3    3    0    0 -0.86589851663E+02  0.17906181495E+02 -0.11523785075E+03  0.14525218068E+03  0.00000000000E+00 0.  1.
          5    1    4    4  501    0  0.87781201759E+02  0.13670421270E+02 -0.34042032402E+02  0.95229996167E+02  0.41800000000E+01 0.  1.
         -5    1    4    4    0  501 -0.32740208977E+02  0.80187431397E+01 -0.70298177772E+02  0.78073860693E+02  0.41800000000E+01 0.  1.
</event>
<event>
11    1  0.7157190E-009  0.1629613E+03  0.7561462E-02  0.1084325E+00
         22   -1    0    0    0    0  0.00000000000E+00  0.00000000000E+00  0.45626189332E+03  0.45626189332E+03  0.00000000000E+00 0. -1.
         22   -1    0    0    0    0 -0.00000000000E+00 -0.00000000000E+00 -0.14078589955E+03  0.14078589955E+03  0.00000000000E+00 0. -1.
         24    2    1    2    0    0 -0.19956730794E+02  0.41570556543E+02 -0.64629129478E+02  0.11306822307E+03  0.80505381289E+02 0.  0.
         25    2    1    2    0    0  0.75157628083E+02  0.59259959532E+02  0.18268061889E+03  0.24118202507E+03  0.12504458740E+03 0.  0.
        -24    2    1    2    0    0 -0.55200897289E+02 -0.10083051608E+03  0.19742450436E+03  0.24279754473E+03  0.82220926585E+02 0.  0.
        -11    1    3    3    0    0 -0.40004262376E+02  0.49111023278E+02 -0.66161633140E+02  0.91594734103E+02  0.00000000000E+00 0.  1.
         12    1    3    3    0    0  0.20047531582E+02 -0.75404667343E+01  0.15325036617E+01  0.21473488971E+02  0.00000000000E+00 0. -1.
         11    1    5    5    0    0 -0.18202166031E+02 -0.74862179479E+02  0.17730391886E+03  0.19331928100E+03  0.00000000000E+00 0. -1.
        -12    1    5    5    0    0 -0.36998731258E+02 -0.25968336596E+02  0.20120585508E+02  0.49478263727E+02  0.00000000000E+00 0.  1.
          5    1    4    4  501    0  0.49077578982E+01  0.44284310237E+02 -0.98726329764E-01  0.44751182863E+02  0.41800000000E+01 0.  1.
         -5    1    4    4    0  501  0.70249870184E+02  0.14975649295E+02  0.18277934522E+03  0.19643084221E+03  0.41800000000E+01 0.  1.
</event>
<event>
11    1  0.7157190E-009  0.1397776E+03  0.7561462E-02  0.1107807E+00
         22   -1    0    0    0    0  0.00000000000E+00  0.00000000000E+00  0.44521972763E+03  0.44521972763E+03  0.00000000000E+00 0. -1.
         22   -1    0    0    0    0 -0.00000000000E+00 -0.00000000000E+00 -0.26603717248E+03  0.26603717248E+03  0.00000000000E+00 0. -1.
        -24    2    1    2    0    0  0.70716553279E+01  0.25478689117E+02 -0.22396968284E+03  0.23956923778E+03  0.80819731199E+02 0.  0.
         25    2    1    2    0    0  0.28186173470E+02  0.36752494469E+02  0.18067210501E+03  0.22458367617E+03  0.12510080675E+03 0.  0.
         24    2    1    2    0    0 -0.35257828798E+02 -0.62231183586E+02  0.22248013297E+03  0.24710398616E+03  0.80294057730E+02 0.  0.
        -13    1    5    5    0    0 -0.38696324180E+02 -0.41366535631E+01  0.41034424874E+02  0.56553880790E+02  0.00000000000E+00 0.  1.
         14    1    5    5    0    0  0.34384953817E+01 -0.58094530023E+02  0.18144570810E+03  0.19055010537E+03  0.00000000000E+00 0. -1.
         11    1    3    3    0    0  0.19733442454E+02  0.51586758867E+02 -0.13072626335E+03  0.14191532112E+03  0.00000000000E+00 0. -1.
        -12    1    3    3    0    0 -0.12661787126E+02 -0.26108069750E+02 -0.93243419492E+02  0.97653916654E+02  0.00000000000E+00 0.  1.
          5    1    4    4  501    0 -0.44006823287E+02 -0.12449472644E+02  0.60908096125E+02  0.76281442294E+02  0.41800000000E+01 0. -1.
         -5    1    4    4    0  501  0.72192996757E+02  0.49201967113E+02  0.11976400888E+03  0.14830223387E+03  0.41800000000E+01 0. -1.
</event>
<event>
11    1  0.7157190E-009  0.1638190E+03  0.7561462E-02  0.1083539E+00
         22   -1    0    0    0    0  0.00000000000E+00  0.00000000000E+00  0.17934852670E+03  0.17934852670E+03  0.00000000000E+00 0. -1.
         22   -1    0    0    0    0 -0.00000000000E+00 -0.00000000000E+00 -0.49493040071E+03  0.49493040071E+03  0.00000000000E+00 0. -1.
        -24    2    1    2    0    0 -0.10331661492E+02 -0.20734069636E+02 -0.33197467271E+03  0.34235863192E+03  0.80408983687E+02 0.  0.
         25    2    1    2    0    0 -0.31795929371E+02  0.11387087618E+03 -0.58741301851E+02  0.18186517519E+03  0.12508734483E+03 0.  0.
         24    2    1    2    0    0  0.42127590863E+02 -0.93136806539E+02  0.75134100546E+02  0.15005512030E+03  0.80138676179E+02 0.  0.
        -11    1    5    5    0    0  0.31888873989E+02 -0.22368936437E+02 -0.86556912509E+01  0.39902263002E+02  0.00000000000E+00 0.  1.
         12    1    5    5    0    0  0.10238716874E+02 -0.70767870102E+02  0.83789791796E+02  0.11015285730E+03  0.00000000000E+00 0. -1.
         13    1    3    3    0    0 -0.19918618139E+02 -0.27494021822E+02 -0.32832168680E+03  0.33007242024E+03  0.00000000000E+00 0. -1.
        -14    1    3    3    0    0  0.95869566470E+01  0.67599521858E+01 -0.36529859126E+01  0.12286211677E+02  0.00000000000E+00 0.  1.
          5    1    4    4  501    0  0.55319829005E+01 -0.25962251558E+02 -0.14116392402E+02  0.30354345245E+02  0.41800000000E+01 0.  1.
         -5    1    4    4    0  501 -0.37327912271E+02  0.13983312773E+03 -0.44624909449E+02  0.15151082994E+03  0.41800000000E+01 0.  1.
</event>
<event>
11    1  0.7157190E-009  0.1762283E+03  0.7561462E-02  0.1072735E+00
         22   -1    0    0    0    0  0.00000000000E+00  0.00000000000E+00  0.95165438038E+03  0.95165438038E+03  0.00000000000E+00 0. -1.
         22   -1    0    0    0    0 -0.00000000000E+00 -0.00000000000E+00 -0.29580978937E+03  0.29580978937E+03  0.00000000000E+00 0. -1.
         24    2    1    2    0    0 -0.17811141902E+02  0.12263194913E+03 -0.21932574754E+03  0.26175094802E+03  0.71091093210E+02 0.  0.
         25    2    1    2    0    0  0.74386773498E+02 -0.11477750499E+03  0.11280045583E+03  0.21697755339E+03  0.12509215848E+03 0.  0.
        -24    2    1    2    0    0 -0.56575631597E+02 -0.78544441441E+01  0.76236988271E+03  0.76873566835E+03  0.80524501516E+02 0.  0.
        -13    1    3    3    0    0 -0.24272499748E+02  0.11855206755E+03 -0.15340588594E+03  0.19538964354E+03  0.00000000000E+00 0.  1.
         14    1    3    3    0    0  0.64613578467E+01  0.40798815884E+01 -0.65919861599E+02  0.66361304480E+02  0.00000000000E+00 0. -1.
         11    1    5    5    0    0 -0.41626097304E+02  0.31150113671E+02  0.29897126496E+03  0.30345819947E+03  0.00000000000E+00 0. -1.
        -12    1    5    5    0    0 -0.14949534292E+02 -0.39004557815E+02  0.46339861776E+03  0.46527746888E+03  0.00000000000E+00 0.  1.
          5    1    4    4  501    0  0.10711971122E+03 -0.94069243595E+02  0.69252561975E+02  0.15854666462E+03  0.41800000000E+01 0. -1.
         -5    1    4    4    0  501 -0.32732937725E+02 -0.20708261395E+02  0.43547893859E+02  0.58430888763E+02  0.41800000000E+01 0. -1.
</event>
<event>
11    1  0.7157190E-009  0.1252013E+03  0.7561462E-02  0.1125310E+00
         22   -1    0    0    0    0  0.00000000000E+00  0.00000000000E+00  0.16964894527E+04  0.16964894527E+04  0.00000000000E+00 0.  1.
         22   -1    0    0    0    0 -0.00000000000E+00 -0.00000000000E+00 -0.17433441046E+03  0.17433441046E+03  0.00000000000E+00 0.  1.
         24    2    1    2    0    0  0.28790971874E+01  0.53461290131E+01 -0.11101190263E+03  0.13694856391E+03  0.79964969435E+02 0.  0.
         25    2    1    2    0    0 -0.25527977862E+01 -0.10487481548E+02  0.30526155181E+02  0.12921337168E+03  0.12509094781E+03 0.  0.
        -24    2    1    2    0    0 -0.32629940119E+00  0.51413525347E+01  0.16026407897E+04  0.16046619276E+04  0.80348373052E+02 0.  0.
        -11    1    3    3    0    0  0.10432948765E+02  0.36520864906E+02 -0.25844504819E+02  0.45940814346E+02  0.00000000000E+00 0.  1.
         12    1    3    3    0    0 -0.75538515775E+01 -0.31174735893E+02 -0.85167397811E+02  0.91007749569E+02  0.00000000000E+00 0. -1.
         11    1    5    5    0    0 -0.93177445801E+01 -0.96601233000E+01  0.45831332064E+02  0.47756144579E+02  0.00000000000E+00 0. -1.
        -12    1    5    5    0    0  0.89914451789E+01  0.14801475835E+02  0.15568094576E+04  0.15569057830E+04  0.00000000000E+00 0.  1.
          5    1    4    4  501    0  0.18149252867E+02 -0.39414208764E+02 -0.34086721353E+02  0.55337620158E+02  0.41800000000E+01 0.  1.
         -5    1    4    4    0  501 -0.20702050653E+02  0.28926727216E+02  0.64612876534E+02  0.73875751520E+02  0.41800000000E+01 0.  1.
</event>
<event>
11    1  0.7157190E-009  0.1532646E+03  0.7561462E-02  0.1093589E+00
         22   -1    0    0    0    0  0.00000000000E+00  0.00000000000E+00  0.13669892566E+04  0.13669892566E+04  0.00000000000E+00 0. -1.
         22   -1    0    0    0    0 -0.00000000000E+00 -0.00000000000E+00 -0.13284886820E+03  0.13284886820E+03  0.00000000000E+00 0. -1.
         24    2    1    2    0    0 -0.25529008490E+02  0.22127841181E+02 -0.97675333155E+02  0.13025879401E+03  0.79281215180E+02 0.  0.
         25    2    1    2    0    0  0.99192706274E+02 -0.57868052825E+02  0.46481501019E+03  0.49486131664E+03  0.12508726751E+03 0.  0.
        -24    2    1    2    0    0 -0.73663697784E+02  0.35740211643E+02  0.86700071137E+03  0.87471801415E+03  0.82083297096E+02 0.  0.
        -11    1    3    3    0    0 -0.24995379812E+02  0.11311381543E+02  0.42472505419E+01  0.27762483706E+02  0.00000000000E+00 0.  1.
         12    1    3    3    0    0 -0.53362867784E+00  0.10816459638E+02 -0.10192258370E+03  0.10249631031E+03  0.00000000000E+00 0. -1.
         11    1    5    5    0    0 -0.16448032475E+02 -0.11371396867E+02  0.49511906227E+03  0.49552268593E+03  0.00000000000E+00 0. -1.
        -12    1    5    5    0    0 -0.57215665309E+02  0.47111608510E+02  0.37188164910E+03  0.37919532823E+03  0.00000000000E+00 0.  1.
          5    1    4    4  501    0  0.30484282804E+02  0.16338566944E+02  0.29588641160E+03  0.29793032950E+03  0.41800000000E+01 0.  1.
         -5    1    4    4    0  501  0.68708423470E+02 -0.74206619768E+02  0.16892859859E+03  0.19693098714E+03  0.41800000000E+01 0.  1.
</event>
<event>
11    1  0.7157190E-009  0.1407158E+03  0.7561462E-02  0.1106762E+00
         22   -1    0    0    0    0  0.00000000000E+00  0.00000000000E+00  0.17692626075E+04  0.17692626075E+04  0.00000000000E+00 0.  1.
         22   -1    0    0    0    0 -0.00000000000E+00 -0.00000000000E+00 -0.95308795501E+02  0.95308795501E+02  0.00000000000E+00 0.  1.
        -24    2    1    2    0    0  0.45565869674E+02  0.46751936199E+02 -0.44802577055E+02  0.11962078706E+03  0.89665320881E+02 0.  0.
         25    2    1    2    0    0 -0.54425817118E+02 -0.23693138499E+02  0.39634891248E+03  0.41983791754E+03  0.12509149531E+03 0.  0.
         24    2    1    2    0    0  0.88599474442E+01 -0.23058797700E+02  0.13224074765E+04  0.13251126984E+04  0.80943946950E+02 0.  0.
        -11    1    5    5    0    0  0.44648099419E+02 -0.13451377035E+02  0.83321426988E+03  0.83451807162E+03  0.00000000000E+00 0.  1.
         12    1    5    5    0    0 -0.35788151975E+02 -0.96074206647E+01  0.48919320667E+03  0.49059462676E+03  0.00000000000E+00 0. -1.
         13    1    3    3    0    0  0.42992643873E+02  0.39269869842E+02  0.14326667375E+02  0.59964518698E+02  0.00000000000E+00 0. -1.
        -14    1    3    3    0    0  0.25732258008E+01  0.74820663565E+01 -0.59129244431E+02  0.59656268362E+02  0.00000000000E+00 0.  1.
          5    1    4    4  501    0 -0.48794053951E+02 -0.19557801157E+02  0.47738072337E+02  0.71132012747E+02  0.41800000000E+01 0.  1.
         -5    1    4    4    0  501 -0.56317631673E+01 -0.41353373418E+01  0.34861084015E+03  0.34870590479E+03  0.41800000000E+01 0.  1.
</event>
<event>
11    1  0.7157190E-009  0.2126113E+03  0.7561462E-02  0.1045947E+00
         22   -1    0    0    0    0  0.00000000000E+00  0.00000000000E+00  0.61571691078E+03  0.61571691078E+03  0.00000000000E+00 0. -1.
         22   -1    0    0    0    0 -0.00000000000E+00 -0.00000000000E+00 -0.15046831458E+04  0.15046831458E+04  0.00000000000E+00 0. -1.
         24    2    1    2    0    0  0.17133162632E+03  0.60925574690E+01 -0.14332644711E+04  0.14455730082E+04  0.77734372088E+02 0.  0.
         25    2    1    2    0    0 -0.18729025569E+03 -0.46360646794E+02  0.15832991950E+03  0.27918231882E+03  0.12508978490E+03 0.  0.
        -24    2    1    2    0    0  0.15958629365E+02  0.40268089325E+02  0.38596831659E+03  0.39564472951E+03  0.75412291499E+02 0.  0.
        -13    1    3    3    0    0  0.35059420388E+02 -0.30721132426E+02 -0.40163887753E+03  0.40433493403E+03  0.00000000000E+00 0.  1.
         14    1    3    3    0    0  0.13627220593E+03  0.36813689895E+02 -0.10316255936E+04  0.10412380742E+04  0.00000000000E+00 0. -1.
         11    1    5    5    0    0  0.13963883794E+02  0.22531029672E+02  0.37209583037E+03  0.37303879734E+03  0.00000000000E+00 0. -1.
        -12    1    5    5    0    0  0.19947455716E+01  0.17737059653E+02  0.13872486222E+02  0.22605932164E+02  0.00000000000E+00 0.  1.
          5    1    4    4  501    0 -0.14759810240E+03  0.15034208831E+01  0.15881771429E+03  0.21685939887E+03  0.41800000000E+01 0.  1.
         -5    1    4    4    0  501 -0.39692153291E+02 -0.47864067677E+02 -0.48779479078E+00  0.62322919950E+02  0.41800000000E+01 0.  1.
</event>
<event>
11    1  0.7157190E-009  0.1301138E+03  0.7561462E-02  0.1119129E+00
         22   -1    0    0    0    0  0.00000000000E+00  0.00000000000E+00  0.53501159565E+03  0.53501159565E+03  0.00000000000E+00 0. -1.
         22   -1    0    0    0    0 -0.00000000000E+00 -0.00000000000E+00 -0.32044794999E+03  0.32044794999E+03  0.00000000000E+00 0.  1.
        -24    2    1    2    0    0  0.18804006051E+02  0.42897894768E+02 -0.13815286948E+03  0.16689712294E+03  0.81083995220E+02 0.  0.
         25    2    1    2    0    0 -0.16253172445E+02 -0.10915616700E+02 -0.13974765893E+03  0.18857226989E+03  0.12508707564E+03 0.  0.
         24    2    1    2    0    0 -0.25508336057E+01 -0.31982278069E+02  0.49246417407E+03  0.49999015282E+03  0.80248472350E+02 0.  0.
        -11    1    5    5    0    0 -0.24325672045E+02  0.11113056694E+01  0.48576637535E+02  0.54338412150E+02  0.00000000000E+00 0.  1.
         12    1    5    5    0    0  0.21774838439E+02 -0.33093583738E+02  0.44388753653E+03  0.44565174067E+03  0.00000000000E+00 0. -1.
         13    1    3    3    0    0 -0.19582191850E+02  0.29950591604E+02 -0.17914910957E+02  0.40018048549E+02  0.00000000000E+00 0. -1.
        -14    1    3    3    0    0  0.38386197901E+02  0.12947303165E+02 -0.12023795852E+03  0.12687907439E+03  0.00000000000E+00 0.  1.
          5    1    4    4  501    0  0.20743398817E+02 -0.24608259393E+02  0.97602984486E+01  0.33890866773E+02  0.41800000000E+01 0.  1.
         -5    1    4    4    0  501 -0.36996571263E+02  0.13692642693E+02 -0.14950795738E+03  0.15468140311E+03  0.41800000000E+01 0.  1.
</event>
<event>
11    1  0.7157190E-009  0.2791351E+03  0.7561462E-02  0.1009430E+00
         22   -1    0    0    0    0  0.00000000000E+00  0.00000000000E+00  0.84228595539E+03  0.84228595539E+03  0.00000000000E+00 0. -1.
         22   -1    0    0    0    0 -0.00000000000E+00 -0.00000000000E+00 -0.12081472331E+04  0.12081472331E+04  0.00000000000E+00 0. -1.
         24    2    1    2    0    0 -0.66390576954E+01 -0.29506789498E+02 -0.74262890777E+03  0.74767221939E+03  0.81248540151E+02 0.  0.
         25    2    1    2    0    0 -0.19964647930E+03  0.16899392235E+03 -0.39381474091E+03  0.48903562336E+03  0.12509247889E+03 0.  0.
        -24    2    1    2    0    0  0.20628553700E+03 -0.13948713285E+03  0.77058237094E+03  0.81372534577E+03  0.79632687645E+02 0.  0.
        -11    1    3    3    0    0 -0.81532710164E+01  0.11290299056E+02 -0.23010145190E+02  0.26896346643E+02  0.00000000000E+00 0.  1.
         12    1    3    3    0    0  0.15142133210E+01 -0.40797088554E+02 -0.71961876258E+03  0.72077587275E+03  0.00000000000E+00 0. -1.
         13    1    5    5    0    0  0.15015391896E+03 -0.13410915131E+03  0.65282477327E+03  0.68316297356E+03  0.00000000000E+00 0. -1.
        -14    1    5    5    0    0  0.56131618040E+02 -0.53779815405E+01  0.11775759766E+03  0.13056237221E+03  0.00000000000E+00 0.  1.
          5    1    4    4  501    0 -0.15310379615E+03  0.17493318271E+03 -0.36806172362E+03  0.43534962456E+03  0.41800000000E+01 0.  1.
         -5    1    4    4    0  501 -0.46542683149E+02 -0.59392603554E+01 -0.25753017282E+02  0.53685998803E+02  0.41800000000E+01 0.  1.
</event>
<event>
11    1  0.7157190E-009  0.1536843E+03  0.7561462E-02  0.1093173E+00
         22   -1    0    0    0    0  0.00000000000E+00  0.00000000000E+00  0.27169783892E+03  0.27169783892E+03  0.00000000000E+00 0. -1.
         22   -1    0    0    0    0 -0.00000000000E+00 -0.00000000000E+00 -0.39616471708E+03  0.39616471708E+03  0.00000000000E+00 0. -1.
        -24    2    1    2    0    0 -0.57406645692E+02 -0.71532502446E+02 -0.31485722243E+03  0.33761023655E+03  0.80207103365E+02 0.  0.
         25    2    1    2    0    0  0.35521802096E+02  0.62097500509E+02  0.26676224364E+02  0.14654940055E+03  0.12508879990E+03 0.  0.
         24    2    1    2    0    0  0.21884843596E+02  0.94350019361E+01  0.16371411991E+03  0.18370291890E+03  0.79852887945E+02 0.  0.
        -11    1    5    5    0    0  0.38322666196E+02  0.87085766419E+00  0.29909417467E+02  0.48620555228E+02  0.00000000000E+00 0.  1.
         12    1    5    5    0    0 -0.16437822600E+02  0.85641442720E+01  0.13380470244E+03  0.13508236367E+03  0.00000000000E+00 0. -1.
         11    1    3    3    0    0 -0.41710839036E+02  0.47741399566E+01 -0.14054164370E+03  0.14667835600E+03  0.00000000000E+00 0. -1.
        -12    1    3    3    0    0 -0.15695806656E+02 -0.76306642402E+02 -0.17431557874E+03  0.19093188056E+03  0.00000000000E+00 0.  1.
          5    1    4    4  501    0  0.59143003131E+02  0.77102971854E+02 -0.12670296357E+02  0.98085533580E+02  0.41800000000E+01 0. -1.
         -5    1    4    4    0  501 -0.23621201034E+02 -0.15005471344E+02  0.39346520721E+02  0.48463866967E+02  0.41800000000E+01 0. -1.
</event>
<event>
11    1  0.7157190E-009  0.1495839E+03  0.7561462E-02  0.1097305E+00
         22   -1    0    0    0    0  0.00000000000E+00  0.00000000000E+00  0.11016510691E+04  0.11016510691E+04  0.00000000000E+00 0. -1.
         22   -1    0    0    0    0 -0.00000000000E+00 -0.00000000000E+00 -0.24555821712E+03  0.24555821712E+03  0.00000000000E+00 0.  1.
        -24    2    1    2    0    0  0.73348963537E+02 -0.33578442062E+02 -0.20069527947E+03  0.23054878290E+03  0.79790750556E+02 0.  0.
         25    2    1    2    0    0 -0.79391361307E+02  0.77906821721E+02  0.22869093489E+03  0.28340937652E+03  0.12509544308E+03 0.  0.
         24    2    1    2    0    0  0.60423977703E+01 -0.44328379659E+02  0.82809719652E+03  0.83325112677E+03  0.80999738046E+02 0.  0.
        -13    1    5    5    0    0  0.34849275455E+02  0.43833587000E+01  0.26508153413E+03  0.26739840233E+03  0.00000000000E+00 0.  1.
         14    1    5    5    0    0 -0.28806877684E+02 -0.48711738359E+02  0.56301566239E+03  0.56585272443E+03  0.00000000000E+00 0. -1.
         13    1    3    3    0    0 -0.76182580131E+01 -0.20625453303E+02 -0.12561727585E+02  0.25322799589E+02  0.00000000000E+00 0. -1.
        -14    1    3    3    0    0  0.80967221550E+02 -0.12952988760E+02 -0.18813355188E+03  0.20522598331E+03  0.00000000000E+00 0.  1.
          5    1    4    4  501    0 -0.63736170677E+02 -0.16676498171E+02  0.59360678758E+02  0.88778193417E+02  0.41800000000E+01 0. -1.
         -5    1    4    4    0  501 -0.15655190630E+02  0.94583319892E+02  0.16933025613E+03  0.19463118311E+03  0.41800000000E+01 0. -1.
</event>
<event>
11    1  0.7157190E-009  0.1561915E+03  0.7561462E-02  0.1090715E+00
         22   -1    0    0    0    0  0.00000000000E+00  0.00000000000E+00  0.22966991846E+03  0.22966991846E+03  0.00000000000E+00 0.  1.
         22   -1    0    0    0    0 -0.00000000000E+00 -0.00000000000E+00 -0.10277690116E+04  0.10277690116E+04  0.00000000000E+00 0.  1.
         24    2    1    2    0    0  0.30145999760E+02  0.52320659065E+01 -0.91778046926E+03  0.92165762381E+03  0.78712324001E+02 0.  0.
         25    2    1    2    0    0  0.67577338440E+02 -0.26736865062E+02 -0.19956837440E+02  0.14603738488E+03  0.12508831200E+03 0.  0.
        -24    2    1    2    0    0 -0.97723338200E+02  0.21504799155E+02  0.13963821358E+03  0.18974392135E+03  0.80570576413E+02 0.  0.
        -13    1    3    3    0    0  0.27120452706E+02 -0.20265641353E+02 -0.81553387657E+03  0.81623631321E+03  0.00000000000E+00 0.  1.
         14    1    3    3    0    0  0.30255470540E+01  0.25497707260E+02 -0.10224659270E+03  0.10542131060E+03  0.00000000000E+00 0. -1.
         13    1    5    5    0    0 -0.67826209294E+00 -0.10693185380E+02  0.57782526869E+02  0.58767547715E+02  0.00000000000E+00 0. -1.
        -14    1    5    5    0    0 -0.97045076107E+02  0.32197984535E+02  0.81855686707E+02  0.13097637364E+03  0.00000000000E+00 0.  1.
          5    1    4    4  501    0  0.13629679359E+02  0.45565510642E+02 -0.28040082347E+02  0.55368786672E+02  0.41800000000E+01 0.  1.
         -5    1    4    4    0  501  0.53947659081E+02 -0.72302375704E+02  0.80832449079E+01  0.90668598207E+02  0.41800000000E+01 0.  1.
</event>
<event>
11    1  0.7157190E-009  0.1696623E+03  0.7561462E-02  0.1078326E+00
         22   -1    0    0    0    0  0.00000000000E+00  0.00000000000E+00  0.10487180740E+04  0.10487180740E+04  0.00000000000E+00 0.  1.
         22   -1    0    0    0    0 -0.00000000000E+00 -0.00000000000E+00 -0.36698373313E+03  0.36698373313E+03  0.00000000000E+00 0. -1.
        -24    2    1    2    0    0  0.45033943698E+02  0.18834040922E+02 -0.22008100225E+03  0.23932024405E+03  0.80347709864E+02 0.  0.
         25    2    1    2    0    0 -0.70453339018E+02 -0.12950250700E+03 -0.61455161280E+02  0.20287659662E+03  0.12509038457E+03 0.  0.
         24    2    1    2    0    0  0.25419395320E+02  0.11066846607E+03  0.96327050437E+03  0.97350496644E+03  0.83235809890E+02 0.  0.
        -11    1    5    5    0    0  0.44416871967E+02  0.91780997187E+02  0.88332664439E+03  0.88919208872E+03  0.00000000000E+00 0.  1.
         12    1    5    5    0    0 -0.18997476647E+02  0.18887468886E+02  0.79943859983E+02  0.84312877717E+02  0.00000000000E+00 0. -1.
         11    1    3    3    0    0 -0.33845512803E+01  0.18709883525E+02 -0.16455013929E+03  0.16564499168E+03  0.00000000000E+00 0. -1.
        -12    1    3    3    0    0  0.48418494978E+02  0.12415739637E+00 -0.55530862957E+02  0.73675252370E+02  0.00000000000E+00 0.  1.
          5    1    4    4  501    0 -0.88163697045E+01 -0.10217536433E+03  0.11696981574E+02  0.10330452666E+03  0.41800000000E+01 0. -1.
         -5    1    4    4    0  501 -0.61636969313E+02 -0.27327142667E+02 -0.73152142855E+02  0.99572069963E+02  0.41800000000E+01 0. -1.
</event>
<event>
11    1  0.7157190E-009  0.1483772E+03  0.7561462E-02  0.1098549E+00
         22   -1    0    0    0    0  0.00000000000E+00  0.00000000000E+00  0.19118898596E+04  0.19118898596E+04  0.00000000000E+00 0.  1.
         22   -1    0    0    0    0 -0.00000000000E+00 -0.00000000000E+00 -0.84327339429E+03  0.84327339429E+03  0.00000000000E+00 0. -1.
        -24    2    1    2    0    0 -0.39978935149E+02 -0.68930383074E+02 -0.82968831886E+03  0.83741721623E+03  0.80840426987E+02 0.  0.
         25    2    1    2    0    0  0.72939922640E+02  0.99795006987E+02  0.13794773142E+04  0.13906415196E+04  0.12508756824E+03 0.  0.
         24    2    1    2    0    0 -0.32960987491E+02 -0.30864623913E+02  0.51882746992E+03  0.52710451808E+03  0.81352183344E+02 0.  0.
        -11    1    5    5    0    0 -0.59567593155E+01 -0.12127941731E+02  0.45599054859E+03  0.45619069517E+03  0.00000000000E+00 0.  1.
         12    1    5    5    0    0 -0.27004228175E+02 -0.18736682182E+02  0.62836921324E+02  0.70913822912E+02  0.00000000000E+00 0. -1.
         13    1    3    3    0    0 -0.17396404196E+02 -0.66916595094E+02 -0.32757246429E+03  0.33478976230E+03  0.00000000000E+00 0. -1.
        -14    1    3    3    0    0 -0.22582530954E+02 -0.20137879799E+01 -0.50211585457E+03  0.50262745394E+03  0.00000000000E+00 0.  1.
          5    1    4    4  501    0  0.63074765355E+02  0.14110753443E+02  0.26408305540E+03  0.27190967606E+03  0.41800000000E+01 0.  1.
         -5    1    4    4    0  501  0.98651572847E+01  0.85684253544E+02  0.11153942588E+04  0.11187318435E+04  0.41800000000E+01 0.  1.
</event>
<event>
11    1  0.7157190E-009  0.3103191E+03  0.7561462E-02  0.9959161E-01
         22   -1    0    0    0    0  0.00000000000E+00  0.00000000000E+00  0.18372279573E+04  0.18372279573E+04  0.00000000000E+00 0.  1.
         22   -1    0    0    0    0 -0.00000000000E+00 -0.00000000000E+00 -0.63354184462E+03  0.63354184462E+03  0.00000000000E+00 0. -1.
        -24    2    1    2    0    0 -0.22780969878E+03  0.16153115010E+03 -0.30384063903E+03  0.42036175036E+03  0.79970594175E+02 0.  0.
         25    2    1    2    0    0  0.25533985394E+03 -0.14286874398E+03 -0.17665728447E+03  0.36395755664E+03  0.12508951942E+03 0.  0.
         24    2    1    2    0    0 -0.27530155157E+02 -0.18662406119E+02  0.16841840362E+04  0.16864504949E+04  0.80828270159E+02 0.  0.
        -11    1    5    5    0    0  0.55564721056E+01 -0.16105402796E+02  0.14309379497E+04  0.14310393685E+04  0.00000000000E+00 0.  1.
         12    1    5    5    0    0 -0.33086627263E+02 -0.25570033228E+01  0.25324608649E+03  0.25541112641E+03  0.00000000000E+00 0. -1.
         11    1    3    3    0    0 -0.89821560029E+02  0.19078800613E+02 -0.86846152595E+02  0.12638895323E+03  0.00000000000E+00 0. -1.
        -12    1    3    3    0    0 -0.13798813875E+03  0.14245234948E+03 -0.21699448644E+03  0.29397279713E+03  0.00000000000E+00 0.  1.
          5    1    4    4  501    0  0.49771355861E+02 -0.51461570076E+02 -0.10624687220E+03  0.12818483261E+03  0.41800000000E+01 0.  1.
         -5    1    4    4    0  501  0.20556849807E+03 -0.91407173901E+02 -0.70410412263E+02  0.23577272403E+03  0.41800000000E+01 0.  1.
</event>
<event>
11    1  0.7157190E-009  0.1630941E+03  0.7561462E-02  0.1084203E+00
         22   -1    0    0    0    0  0.00000000000E+00  0.00000000000E+00  0.12242871779E+03  0.12242871779E+03  0.00000000000E+00 0. -1.
         22   -1    0    0    0    0 -0.00000000000E+00 -0.00000000000E+00 -0.15780006710E+04  0.15780006710E+04  0.00000000000E+00 0.  1.
         24    2    1    2    0    0 -0.55317478477E+02 -0.81591028142E+02 -0.11654521097E+04  0.11726940682E+04  0.84944913287E+02 0.  0.
         25    2    1    2    0    0  0.51446565692E+02  0.14174349755E+03 -0.35568804087E+03  0.40607569848E+03  0.12508206210E+03 0.  0.
        -24    2    1    2    0    0  0.38709127853E+01 -0.60152469408E+02  0.65568197405E+02  0.12165962207E+03  0.82876845915E+02 0.  0.
        -11    1    3    3    0    0  0.78144097739E+01  0.11464011929E+02 -0.24604207281E+03  0.24643293239E+03  0.00000000000E+00 0.  1.
         12    1    3    3    0    0 -0.63131888251E+02 -0.93055040071E+02 -0.91941003691E+03  0.92626113584E+03  0.00000000000E+00 0. -1.
         11    1    5    5    0    0  0.30341174704E+02 -0.65531876664E+02  0.33142168896E+02  0.79457014170E+02  0.00000000000E+00 0. -1.
        -12    1    5    5    0    0 -0.26470261919E+02  0.53794072564E+01  0.32426028508E+02  0.42202607897E+02  0.00000000000E+00 0.  1.
          5    1    4    4  501    0 -0.31939239911E+01  0.13265650324E+03 -0.19371573361E+03  0.23484294081E+03  0.41800000000E+01 0. -1.
         -5    1    4    4    0  501  0.54640489683E+02  0.90869943100E+01 -0.16197230726E+03  0.17123275766E+03  0.41800000000E+01 0. -1.
</event>
<event>
11    1  0.7157190E-009  0.1338090E+03  0.7561462E-02  0.1114676E+00
         22   -1    0    0    0    0  0.00000000000E+00  0.00000000000E+00  0.70289181310E+03  0.70289181310E+03  0.00000000000E+00 0. -1.
         22   -1    0    0    0    0 -0.00000000000E+00 -0.00000000000E+00 -0.15063670470E+04  0.15063670470E+04  0.00000000000E+00 0.  1.
         24    2    1    2    0    0 -0.44818397465E+02  0.18422826777E+02 -0.13630633813E+04  0.13663159605E+04  0.80804909263E+02 0.  0.
         25    2    1    2    0    0  0.24770916293E+02 -0.16642874540E+02 -0.10936758968E+03  0.16883162246E+03  0.12510900649E+03 0.  0.
        -24    2    1    2    0    0  0.20047481172E+02 -0.17799522375E+01  0.66895573699E+03  0.67411127715E+03  0.80741353721E+02 0.  0.
        -13    1    3    3    0    0 -0.33309846590E+02 -0.83661815914E+01 -0.12107529926E+04  0.12112400043E+04  0.00000000000E+00 0.  1.
         14    1    3    3    0    0 -0.11508550875E+02  0.26789008369E+02 -0.15231038865E+03  0.15507595624E+03  0.00000000000E+00 0. -1.
         13    1    5    5    0    0  0.37251337555E+02 -0.16682701522E+02  0.60220477782E+03  0.60358642224E+03  0.00000000000E+00 0. -1.
        -14    1    5    5    0    0 -0.17203856383E+02  0.14902749285E+02  0.66750959169E+02  0.70524854915E+02  0.00000000000E+00 0.  1.
          5    1    4    4  501    0  0.43281452555E+02 -0.19326609367E+02 -0.13132873420E+03  0.13968360960E+03  0.41800000000E+01 0.  1.
         -5    1    4    4    0  501 -0.18510536261E+02  0.26837348274E+01  0.21961144518E+02  0.29148012863E+02  0.41800000000E+01 0.  1.
</event>
<event>
11    1  0.7157190E-009  0.1534439E+03  0.7561462E-02  0.1093411E+00
         22   -1    0    0    0    0  0.00000000000E+00  0.00000000000E+00  0.58914428753E+03  0.58914428753E+03  0.00000000000E+00 0.  1.
         22   -1    0    0    0    0 -0.00000000000E+00 -0.00000000000E+00 -0.14060822361E+04  0.14060822361E+04  0.00000000000E+00 0. -1.
        -24    2    1    2    0    0 -0.36366841654E+02 -0.86738673921E+02 -0.12758408405E+04  0.12818947829E+04  0.81475392167E+02 0.  0.
         25    2    1    2    0    0 -0.51840731080E+00  0.32602276898E+02 -0.87317213216E+02  0.15600082300E+03  0.12509509922E+03 0.  0.
         24    2    1    2    0    0  0.36885248964E+02  0.54136397024E+02  0.54622010508E+03  0.55733091775E+03  0.89275291163E+02 0.  0.
        -11    1    5    5    0    0  0.21701863953E+02  0.29851893216E+02  0.50914963748E+03  0.51048551377E+03  0.00000000000E+00 0.  1.
         12    1    5    5    0    0  0.15183385012E+02  0.24284503808E+02  0.37070467604E+02  0.46845403979E+02  0.00000000000E+00 0. -1.
         11    1    3    3    0    0  0.26372748728E+02 -0.23239074974E+02 -0.35037839008E+03  0.35213717883E+03  0.00000000000E+00 0. -1.
        -12    1    3    3    0    0 -0.62739590382E+02 -0.63499598947E+02 -0.92546245039E+03  0.92975760408E+03  0.00000000000E+00 0.  1.
          5    1    4    4  501    0  0.60001517021E+02  0.12247069490E+02 -0.23780718895E+02  0.65826801130E+02  0.41800000000E+01 0. -1.
         -5    1    4    4    0  501 -0.60519924332E+02  0.20355207408E+02 -0.63536494322E+02  0.90174021871E+02  0.41800000000E+01 0. -1.
</event>
<event>
11    1  0.9700705E-009  0.1853476E+03  0.7561462E-02  0.1065397E+00
         22   -1    0    0    0    0  0.00000000000E+00  0.00000000000E+00  0.68720728107E+03  0.68720728107E+03  0.00000000000E+00 0.  1.
         22   -1    0    0    0    0 -0.00000000000E+00 -0.00000000000E+00 -0.65783565690E+03  0.65783565690E+03  0.00000000000E+00 0.  1.
         24    2    1    2    0    0  0.16566493424E+02 -0.49297510100E+02 -0.50952950447E+03  0.51820078409E+03  0.78784792329E+02 0.  0.
         25    2    1    2    0    0  0.11919103606E+03  0.70168610733E+02 -0.68728121508E+02  0.19874982579E+03  0.12509117298E+03 0.  0.
        -24    2    1    2    0    0 -0.13575752948E+03 -0.20871100633E+02  0.60762925014E+03  0.62809232809E+03  0.80130876242E+02 0.  0.
        -13    1    3    3    0    0 -0.13363415451E+02 -0.10207955541E+02 -0.36742625679E+03  0.36781087179E+03  0.00000000000E+00 0.  1.
         14    1    3    3    0    0  0.29929908875E+02 -0.39089554559E+02 -0.14210324768E+03  0.15038991230E+03  0.00000000000E+00 0. -1.
         13    1    5    5    0    0 -0.11463778042E+03 -0.38825302955E+02  0.38071229239E+03  0.39948851601E+03  0.00000000000E+00 0. -1.
        -14    1    5    5    0    0 -0.21119749059E+02  0.17954202322E+02  0.22691695776E+03  0.22860381208E+03  0.00000000000E+00 0.  1.
          5    1    4    4  501    0  0.11010909500E+03  0.10315518658E+02 -0.80609505197E+02  0.13691525648E+03  0.41800000000E+01 0.  1.
         -5    1    4    4    0  501  0.90819410546E+01  0.59853092075E+02  0.11881383689E+02  0.61834569317E+02  0.41800000000E+01 0.  1.
</event>
<event>
11    1  0.7157190E-009  0.1798207E+03  0.7561462E-02  0.1069788E+00
         22   -1    0    0    0    0  0.00000000000E+00  0.00000000000E+00  0.19096694779E+04  0.19096694779E+04  0.00000000000E+00 0. -1.
         22   -1    0    0    0    0 -0.00000000000E+00 -0.00000000000E+00 -0.13513883124E+04  0.13513883124E+04  0.00000000000E+00 0. -1.
        -24    2    1    2    0    0 -0.32110748071E+02 -0.69562770886E+01 -0.13040243603E+04  0.13069318462E+04  0.80695899790E+02 0.  0.
         25    2    1    2    0    0  0.11583979093E+03  0.10290364557E+03  0.18936008263E+03  0.27479499750E+03  0.12508809823E+03 0.  0.
         24    2    1    2    0    0 -0.83729042862E+02 -0.95947368486E+02  0.16729454433E+04  0.16793309466E+04  0.72038336973E+02 0.  0.
        -13    1    5    5    0    0  0.76494225465E+00 -0.41371748540E+02  0.32233902468E+03  0.32498408198E+03  0.00000000000E+00 0.  1.
         14    1    5    5    0    0 -0.84493985116E+02 -0.54575619946E+02  0.13506064186E+04  0.13543468646E+04  0.00000000000E+00 0. -1.
         13    1    3    3    0    0 -0.50389943458E+02  0.61072729747E+00 -0.11991131170E+04  0.12001715656E+04  0.00000000000E+00 0. -1.
        -14    1    3    3    0    0  0.18279195387E+02 -0.75670043860E+01 -0.10491124332E+03  0.10676028060E+03  0.00000000000E+00 0.  1.
          5    1    4    4  501    0  0.73670804631E+02  0.11319568201E+03  0.79923409413E+02  0.15699004317E+03  0.41800000000E+01 0. -1.
         -5    1    4    4    0  501  0.42168986302E+02 -0.10292036439E+02  0.10943667322E+03  0.11780495433E+03  0.41800000000E+01 0. -1.
</event>
<event>
11    1  0.7157190E-009  0.1526054E+03  0.7561462E-02  0.1094246E+00
         22   -1    0    0    0    0  0.00000000000E+00  0.00000000000E+00  0.17587268436E+04  0.17587268436E+04  0.00000000000E+00 0. -1.
         22   -1    0    0    0    0 -0.00000000000E+00 -0.00000000000E+00 -0.49105425356E+02  0.49105425356E+02  0.00000000000E+00 0.  1.
         24    2    1    2    0    0  0.21389027305E+02 -0.76880346371E+02  0.98419652171E+02  0.14999622636E+03  0.80276782703E+02 0.  0.
         25    2    1    2    0    0 -0.11108947596E+01  0.10916119393E+03  0.29407203471E+03  0.33770445241E+03  0.12509410549E+03 0.  0.
        -24    2    1    2    0    0 -0.20278132546E+02 -0.32280847559E+02  0.13171297314E+04  0.13201315902E+04  0.80395462559E+02 0.  0.
        -11    1    3    3    0    0 -0.95493389537E+01 -0.80729976015E+02  0.63273685844E+02  0.10301494174E+03  0.00000000000E+00 0.  1.
         12    1    3    3    0    0  0.30938366259E+02  0.38496296440E+01  0.35145966327E+02  0.46981284616E+02  0.00000000000E+00 0. -1.
         11    1    5    5    0    0 -0.11485344738E+02 -0.38298004190E+02  0.12945187863E+04  0.12951361080E+04  0.00000000000E+00 0. -1.
        -12    1    5    5    0    0 -0.87927878081E+01  0.60171566315E+01  0.22610945091E+02  0.24995482178E+02  0.00000000000E+00 0.  1.
          5    1    4    4  501    0  0.34124409945E+02  0.95228921397E+02  0.10907774570E+03  0.14882355267E+03  0.41800000000E+01 0.  1.
         -5    1    4    4    0  501 -0.35235304705E+02  0.13932272533E+02  0.18499428902E+03  0.18888089974E+03  0.41800000000E+01 0.  1.
</event>
<event>
11    1  0.7157190E-009  0.1507589E+03  0.7561462E-02  0.1096106E+00
         22   -1    0    0    0    0  0.00000000000E+00  0.00000000000E+00  0.22605598699E+03  0.22605598699E+03  0.00000000000E+00 0.  1.
         22   -1    0    0    0    0 -0.00000000000E+00 -0.00000000000E+00 -0.78493427800E+03  0.78493427800E+03  0.00000000000E+00 0. -1.
        -24    2    1    2    0    0 -0.57389396106E+00  0.83502115772E+02 -0.69210695122E+03  0.70168657457E+03  0.79869169943E+02 0.  0.
         25    2    1    2    0    0 -0.28931541946E+02 -0.95563589844E+02  0.11864426142E+02  0.16049431633E+03  0.12509287407E+03 0.  0.
         24    2    1    2    0    0  0.29505435907E+02  0.12061474072E+02  0.12136423407E+03  0.14880937409E+03  0.79993140952E+02 0.  0.
        -13    1    5    5    0    0  0.17698638334E+02  0.17541746430E+01  0.12979835640E+03  0.13101119132E+03  0.00000000000E+00 0.  1.
         14    1    5    5    0    0  0.11806797573E+02  0.10307299429E+02 -0.84341223242E+01  0.17798182768E+02  0.00000000000E+00 0. -1.
         13    1    3    3    0    0  0.25608606864E+02  0.79479800023E+02 -0.60208921933E+03  0.60785217560E+03  0.00000000000E+00 0. -1.
        -14    1    3    3    0    0 -0.26182500825E+02  0.40223157488E+01 -0.90017731895E+02  0.93834398964E+02  0.00000000000E+00 0.  1.
          5    1    4    4  501    0 -0.71379731382E+02 -0.53266971516E+02 -0.21587736096E+02  0.91738427371E+02  0.41800000000E+01 0.  1.
         -5    1    4    4    0  501  0.42448189436E+02 -0.42296618328E+02  0.33452162238E+02  0.68755888961E+02  0.41800000000E+01 0.  1.
</event>
<event>
11    1  0.7157190E-009  0.1891191E+03  0.7561462E-02  0.1062496E+00
         22   -1    0    0    0    0  0.00000000000E+00  0.00000000000E+00  0.44688444817E+03  0.44688444817E+03  0.00000000000E+00 0.  1.
         22   -1    0    0    0    0 -0.00000000000E+00 -0.00000000000E+00 -0.19287141980E+03  0.19287141980E+03  0.00000000000E+00 0.  1.
        -24    2    1    2    0    0 -0.10461602139E+03  0.10278453046E+03 -0.80220571428E+02  0.18545132957E+03  0.80297471478E+02 0.  0.
         25    2    1    2    0    0  0.88203460199E+02 -0.92808397871E+02  0.98305279574E+02  0.20421793468E+03  0.12509111778E+03 0.  0.
         24    2    1    2    0    0  0.16412561191E+02 -0.99761325841E+01  0.23592832023E+03  0.25008660372E+03  0.80698461489E+02 0.  0.
        -13    1    5    5    0    0 -0.37560133630E+01  0.31291038875E+02  0.14293488611E+03  0.14636809221E+03  0.00000000000E+00 0.  1.
         14    1    5    5    0    0  0.20168574554E+02 -0.41267171459E+02  0.92993434117E+02  0.10371851150E+03  0.00000000000E+00 0. -1.
         13    1    3    3    0    0 -0.27822952722E+02  0.12006554360E+02  0.14346781152E+02  0.33527662836E+02  0.00000000000E+00 0. -1.
        -14    1    3    3    0    0 -0.76793068668E+02  0.90777976095E+02 -0.94567352580E+02  0.15192366673E+03  0.00000000000E+00 0.  1.
          5    1    4    4  501    0 -0.11291150046E+02 -0.62511831398E+02  0.40408056699E+01  0.63788867717E+02  0.41800000000E+01 0. -1.
         -5    1    4    4    0  501  0.99494610244E+02 -0.30296566473E+02  0.94264473905E+02  0.14042906696E+03  0.41800000000E+01 0. -1.
</event>
<event>
11    1  0.7157190E-009  0.1625049E+03  0.7561462E-02  0.1084745E+00
         22   -1    0    0    0    0  0.00000000000E+00  0.00000000000E+00  0.15854964341E+03  0.15854964341E+03  0.00000000000E+00 0. -1.
         22   -1    0    0    0    0 -0.00000000000E+00 -0.00000000000E+00 -0.43251975464E+03  0.43251975464E+03  0.00000000000E+00 0.  1.
         24    2    1    2    0    0 -0.30484662413E+02  0.18364578700E+02 -0.23130204378E+03  0.24756803578E+03  0.80763385829E+02 0.  0.
         25    2    1    2    0    0 -0.45773520699E+02  0.62459519918E+02 -0.11558237931E+03  0.18709246363E+03  0.12509155333E+03 0.  0.
        -24    2    1    2    0    0  0.76258183112E+02 -0.80824098618E+02  0.72914311860E+02  0.15640889864E+03  0.82458482228E+02 0.  0.
        -11    1    3    3    0    0 -0.30102025692E+02 -0.27508623369E+01 -0.22453595505E+02  0.37654523573E+02  0.00000000000E+00 0.  1.
         12    1    3    3    0    0 -0.38263672070E+00  0.21115441037E+02 -0.20884844828E+03  0.20991351221E+03  0.00000000000E+00 0. -1.
         11    1    5    5    0    0  0.69342651728E+02 -0.95162026183E+02  0.48676738294E+02  0.12741130023E+03  0.00000000000E+00 0. -1.
        -12    1    5    5    0    0  0.69155313842E+01  0.14337927565E+02  0.24237573566E+02  0.28997598410E+02  0.00000000000E+00 0.  1.
          5    1    4    4  501    0  0.32281355860E+02  0.48618345055E+01  0.38895091394E+01  0.33140972410E+02  0.41800000000E+01 0. -1.
         -5    1    4    4    0  501 -0.78054876559E+02  0.57597685412E+02 -0.11947188845E+03  0.15395149122E+03  0.41800000000E+01 0. -1.
</event>
<event>
11    1  0.7157190E-009  0.1746118E+03  0.7561462E-02  0.1074087E+00
         22   -1    0    0    0    0  0.00000000000E+00  0.00000000000E+00  0.68930062407E+03  0.68930062407E+03  0.00000000000E+00 0.  1.
         22   -1    0    0    0    0 -0.00000000000E+00 -0.00000000000E+00 -0.12245481649E+03  0.12245481649E+03  0.00000000000E+00 0. -1.
        -24    2    1    2    0    0 -0.42269270754E+02 -0.10310340420E+03  0.14963168739E+02  0.13817612973E+03  0.80322743975E+02 0.  0.
         25    2    1    2    0    0 -0.32648448907E+02  0.16751619367E+03  0.17136353419E+03  0.27228558919E+03  0.12508551024E+03 0.  0.
         24    2    1    2    0    0  0.74917719661E+02 -0.64412789465E+02  0.38051910465E+03  0.40129372165E+03  0.80499626493E+02 0.  0.
        -13    1    5    5    0    0  0.73397929903E+02 -0.41199304143E+02  0.36172076246E+03  0.37138463723E+03  0.00000000000E+00 0.  1.
         14    1    5    5    0    0  0.15197897580E+01 -0.23213485322E+02  0.18798342191E+02  0.29909084420E+02  0.00000000000E+00 0. -1.
         13    1    3    3    0    0 -0.35821828417E+02 -0.11639619071E+03  0.17961256202E+02  0.12310111018E+03  0.00000000000E+00 0. -1.
        -14    1    3    3    0    0 -0.64474423369E+01  0.13292786510E+02 -0.29980874635E+01  0.15075019547E+02  0.00000000000E+00 0.  1.
          5    1    4    4  501    0 -0.56499409229E+02  0.16382907535E+03  0.17635707326E+03  0.24728816968E+03  0.41800000000E+01 0.  1.
         -5    1    4    4    0  501  0.23850960322E+02  0.36871183168E+01 -0.49935390675E+01  0.24997419510E+02  0.41800000000E+01 0.  1.
</event>
<event>
11    1  0.7157190E-009  0.1987997E+03  0.7561462E-02  0.1055376E+00
         22   -1    0    0    0    0  0.00000000000E+00  0.00000000000E+00  0.31820359089E+03  0.31820359089E+03  0.00000000000E+00 0. -1.
         22   -1    0    0    0    0 -0.00000000000E+00 -0.00000000000E+00 -0.11052112092E+04  0.11052112092E+04  0.00000000000E+00 0. -1.
         24    2    1    2    0    0  0.14781152611E+03  0.28916916228E+01 -0.73900747893E+03  0.75791378211E+03  0.80278503087E+02 0.  0.
         25    2    1    2    0    0 -0.17852564716E+03  0.20541264426E+01 -0.31602607527E+03  0.38392116448E+03  0.12508938469E+03 0.  0.
        -24    2    1    2    0    0  0.30714121047E+02 -0.49458180654E+01  0.26802593589E+03  0.28157985349E+03  0.80507721571E+02 0.  0.
        -11    1    3    3    0    0  0.99002594988E+02  0.39344386094E+02 -0.43421745218E+03  0.44709539285E+03  0.00000000000E+00 0.  1.
         12    1    3    3    0    0  0.48808931125E+02 -0.36452694471E+02 -0.30479002675E+03  0.31081838925E+03  0.00000000000E+00 0. -1.
         11    1    5    5    0    0  0.50002956246E+02  0.35025073148E+01  0.24620265872E+03  0.25125348226E+03  0.00000000000E+00 0. -1.
        -12    1    5    5    0    0 -0.19288835199E+02 -0.84483253802E+01  0.21823277177E+02  0.30326371227E+02  0.00000000000E+00 0.  1.
          5    1    4    4  501    0 -0.16957453511E+03 -0.40083542126E+02 -0.24328044001E+03  0.29927421906E+03  0.41800000000E+01 0. -1.
         -5    1    4    4    0  501 -0.89511120494E+01  0.42137668568E+02 -0.72745635261E+02  0.84646945419E+02  0.41800000000E+01 0. -1.
</event>
<event>
11    1  0.7157190E-009  0.1449548E+03  0.7561462E-02  0.1102148E+00
         22   -1    0    0    0    0  0.00000000000E+00  0.00000000000E+00  0.27440815843E+03  0.27440815843E+03  0.00000000000E+00 0.  1.
         22   -1    0    0    0    0 -0.00000000000E+00 -0.00000000000E+00 -0.12580586358E+04  0.12580586358E+04  0.00000000000E+00 0. -1.
        -24    2    1    2    0    0 -0.70778225395E+01 -0.13216813046E+02 -0.60629908555E+03  0.61175948318E+03  0.80164233951E+02 0.  0.
         25    2    1    2    0    0  0.71351727919E+02 -0.21882535726E+02 -0.62954095121E+03  0.64617393631E+03  0.12509609215E+03 0.  0.
         24    2    1    2    0    0 -0.64273905379E+02  0.35099348772E+02  0.25218955944E+03  0.27453337469E+03  0.80036871089E+02 0.  0.
        -13    1    5    5    0    0 -0.60955567126E+02  0.58313789513E+02  0.20912308174E+03  0.22549621400E+03  0.00000000000E+00 0.  1.
         14    1    5    5    0    0 -0.33183382533E+01 -0.23214440741E+02  0.43066477696E+02  0.49037160693E+02  0.00000000000E+00 0. -1.
         13    1    3    3    0    0  0.27505728137E+02  0.69021998029E+01 -0.43189029776E+03  0.43282032617E+03  0.00000000000E+00 0. -1.
        -14    1    3    3    0    0 -0.34583550676E+02 -0.20119012849E+02 -0.17440878779E+03  0.17893915701E+03  0.00000000000E+00 0.  1.
          5    1    4    4  501    0 -0.34358116881E+02 -0.14788698016E+01 -0.21936016987E+03  0.22207886837E+03  0.41800000000E+01 0. -1.
         -5    1    4    4    0  501  0.10570984480E+03 -0.20403665925E+02 -0.41018078134E+03  0.42409506794E+03  0.41800000000E+01 0. -1.
</event>
<event>
11    1  0.7157190E-009  0.1580874E+03  0.7561462E-02  0.1088890E+00
         22   -1    0    0    0    0  0.00000000000E+00  0.00000000000E+00  0.17977665779E+03  0.17977665779E+03  0.00000000000E+00 0. -1.
         22   -1    0    0    0    0 -0.00000000000E+00 -0.00000000000E+00 -0.17161344751E+04  0.17161344751E+04  0.00000000000E+00 0.  1.
        -24    2    1    2    0    0  0.30786668882E+02  0.91026964464E+02 -0.16059592392E+04  0.16108324315E+04  0.80264045856E+02 0.  0.
         25    2    1    2    0    0 -0.36215881383E+02 -0.10976873378E+03 -0.94041461514E+01  0.17057791444E+03  0.12509045506E+03 0.  0.
         24    2    1    2    0    0  0.54292125013E+01  0.18741769320E+02  0.79005568085E+02  0.11450078695E+03  0.80547005890E+02 0.  0.
        -11    1    5    5    0    0 -0.27344725767E+02 -0.14458501965E+02  0.12722195959E+02  0.33446024822E+02  0.00000000000E+00 0.  1.
         12    1    5    5    0    0  0.32773938269E+02  0.33200271285E+02  0.66283372126E+02  0.81054762127E+02  0.00000000000E+00 0. -1.
         11    1    3    3    0    0  0.49163421886E+02  0.45346501029E+02 -0.60977038229E+03  0.61342747438E+03  0.00000000000E+00 0. -1.
        -12    1    3    3    0    0 -0.18376753004E+02  0.45680463435E+02 -0.99618885692E+03  0.99740495710E+03  0.00000000000E+00 0.  1.
          5    1    4    4  501    0 -0.14304270703E+02 -0.11212556026E+03  0.37022626818E+02  0.11901638845E+03  0.41800000000E+01 0. -1.
         -5    1    4    4    0  501 -0.21911610680E+02  0.23568264749E+01 -0.46426772969E+02  0.51561525986E+02  0.41800000000E+01 0. -1.
</event>
<event>
11    1  0.7157190E-009  0.2204785E+03  0.7561462E-02  0.1040918E+00
         22   -1    0    0    0    0  0.00000000000E+00  0.00000000000E+00  0.51940276062E+03  0.51940276062E+03  0.00000000000E+00 0. -1.
         22   -1    0    0    0    0 -0.00000000000E+00 -0.00000000000E+00 -0.18213360162E+04  0.18213360162E+04  0.00000000000E+00 0. -1.
        -24    2    1    2    0    0 -0.68724435717E+02  0.10254168434E+02 -0.15639144085E+04  0.15675513219E+04  0.80997985825E+02 0.  0.
         25    2    1    2    0    0  0.47229170847E+02  0.17149393970E+03 -0.18361280655E+03  0.28460246199E+03  0.12507650742E+03 0.  0.
         24    2    1    2    0    0  0.21495264870E+02 -0.18174810813E+03  0.44559395947E+03  0.48858499290E+03  0.81651070705E+02 0.  0.
        -13    1    5    5    0    0  0.51652855230E+01 -0.25417072955E+02  0.16447511696E+03  0.16650757301E+03  0.00000000000E+00 0.  1.
         14    1    5    5    0    0  0.16329979347E+02 -0.15633103517E+03  0.28111884252E+03  0.32207741989E+03  0.00000000000E+00 0. -1.
         11    1    3    3    0    0 -0.56824983580E+02 -0.19972255296E+02 -0.13333510600E+04  0.13347108372E+04  0.00000000000E+00 0. -1.
        -12    1    3    3    0    0 -0.11899452137E+02  0.30226423729E+02 -0.23056334845E+03  0.23284048467E+03  0.00000000000E+00 0.  1.
          5    1    4    4  501    0  0.84689682260E+02  0.97310197413E+02 -0.80555090231E+02  0.15214536393E+03  0.41800000000E+01 0. -1.
         -5    1    4    4    0  501 -0.37460511413E+02  0.74183742282E+02 -0.10305771632E+03  0.13245709806E+03  0.41800000000E+01 0. -1.
</event>
<event>
11    1  0.7157190E-009  0.1353711E+03  0.7561462E-02  0.1112840E+00
         22   -1    0    0    0    0  0.00000000000E+00  0.00000000000E+00  0.51085147516E+03  0.51085147516E+03  0.00000000000E+00 0. -1.
         22   -1    0    0    0    0 -0.00000000000E+00 -0.00000000000E+00 -0.96328546875E+03  0.96328546875E+03  0.00000000000E+00 0.  1.
         24    2    1    2    0    0 -0.30106689833E+02  0.44901887300E+01 -0.72433517350E+03  0.72916771103E+03  0.78086699715E+02 0.  0.
         25    2    1    2    0    0  0.54438182452E+02  0.40936622534E+02 -0.21011717602E+03  0.25384557793E+03  0.12509607109E+03 0.  0.
        -24    2    1    2    0    0 -0.24331492618E+02 -0.45426811264E+02  0.48201835594E+03  0.49112365495E+03  0.78772661963E+02 0.  0.
        -13    1    3    3    0    0 -0.91603043190E+01  0.88700435151E+00 -0.67937073613E+03  0.67943306886E+03  0.00000000000E+00 0.  1.
         14    1    3    3    0    0 -0.20946385514E+02  0.36031843785E+01 -0.44964437377E+02  0.49734642177E+02  0.00000000000E+00 0. -1.
         13    1    5    5    0    0 -0.37596875539E+02 -0.62240729208E+02  0.37253250547E+03  0.37956277617E+03  0.00000000000E+00 0. -1.
        -14    1    5    5    0    0  0.13265382920E+02  0.16813917944E+02  0.10948585047E+03  0.11156087878E+03  0.00000000000E+00 0.  1.
          5    1    4    4  501    0 -0.17942567319E+02 -0.17865687720E+02 -0.12470210079E+03  0.12731537558E+03  0.41800000000E+01 0.  1.
         -5    1    4    4    0  501  0.72380749771E+02  0.58802310253E+02 -0.85415075233E+02  0.12653020235E+03  0.41800000000E+01 0.  1.
</event>
<event>
11    1  0.7157190E-009  0.2099501E+03  0.7561462E-02  0.1047702E+00
         22   -1    0    0    0    0  0.00000000000E+00  0.00000000000E+00  0.22761142338E+04  0.22761142338E+04  0.00000000000E+00 0.  1.
         22   -1    0    0    0    0 -0.00000000000E+00 -0.00000000000E+00 -0.28906267740E+03  0.28906267740E+03  0.00000000000E+00 0.  1.
        -24    2    1    2    0    0  0.34123783597E+02 -0.16865193190E+03 -0.17369803323E+03  0.25701533394E+03  0.79233631703E+02 0.  0.
         25    2    1    2    0    0 -0.65529504818E+02  0.14592296029E+03  0.69071372090E+02  0.21449104374E+03  0.12509167464E+03 0.  0.
         24    2    1    2    0    0  0.31405721220E+02  0.22728971613E+02  0.20916782175E+04  0.20936705335E+04  0.82677758208E+02 0.  0.
        -11    1    5    5    0    0 -0.27391560188E+02  0.24987208916E+01  0.47363137254E+03  0.47442936063E+03  0.00000000000E+00 0.  1.
         12    1    5    5    0    0  0.58797281408E+02  0.20230250721E+02  0.16180468450E+04  0.16192411728E+04  0.00000000000E+00 0. -1.
         11    1    3    3    0    0  0.12574564478E+02  0.15611521800E+01 -0.32264902368E+02  0.34663825420E+02  0.00000000000E+00 0. -1.
        -12    1    3    3    0    0  0.21549219119E+02 -0.17021308408E+03 -0.14143313086E+03  0.22235150852E+03  0.00000000000E+00 0.  1.
          5    1    4    4  501    0 -0.81157897420E+02  0.14870816573E+03  0.29984144868E+02  0.17209661302E+03  0.41800000000E+01 0.  1.
         -5    1    4    4    0  501  0.15628392602E+02 -0.27852054454E+01  0.39087227222E+02  0.42394430726E+02  0.41800000000E+01 0.  1.
</event>
<event>
11    1  0.7157190E-009  0.1536728E+03  0.7561462E-02  0.1093184E+00
         22   -1    0    0    0    0  0.00000000000E+00  0.00000000000E+00  0.42023857622E+03  0.42023857622E+03  0.00000000000E+00 0.  1.
         22   -1    0    0    0    0 -0.00000000000E+00 -0.00000000000E+00 -0.11054565577E+04  0.11054565577E+04  0.00000000000E+00 0.  1.
        -24    2    1    2    0    0 -0.56546708752E+01  0.66220000347E+01 -0.10498939392E+04  0.10530276119E+04  0.80709613690E+02 0.  0.
         25    2    1    2    0    0  0.68925637248E+02 -0.66549351164E+02  0.11130538703E+03  0.19291460226E+03  0.12509034725E+03 0.  0.
         24    2    1    2    0    0 -0.63270966373E+02  0.59927351130E+02  0.25337057062E+03  0.27975291979E+03  0.80439713298E+02 0.  0.
        -13    1    5    5    0    0 -0.32547271563E+02  0.59895607539E+02  0.86775704602E+02  0.11034868190E+03  0.00000000000E+00 0.  1.
         14    1    5    5    0    0 -0.30723694810E+02  0.31743590699E-01  0.16659486601E+03  0.16940423788E+03  0.00000000000E+00 0. -1.
         13    1    3    3    0    0  0.59381534234E+00 -0.23917916489E+02 -0.10801619488E+03  0.11063416155E+03  0.00000000000E+00 0. -1.
        -14    1    3    3    0    0 -0.62484862176E+01  0.30539916524E+02 -0.94187774428E+03  0.94239345035E+03  0.00000000000E+00 0.  1.
          5    1    4    4  501    0 -0.28873081598E+02 -0.84317145623E+01  0.61633864951E+02  0.68709201423E+02  0.41800000000E+01 0. -1.
         -5    1    4    4    0  501  0.97798718847E+02 -0.58117636602E+02  0.49671522082E+02  0.12420540084E+03  0.41800000000E+01 0. -1.
</event>
<event>
11    1  0.7157190E-009  0.2276348E+03  0.7561462E-02  0.1036538E+00
         22   -1    0    0    0    0  0.00000000000E+00  0.00000000000E+00  0.27249687650E+03  0.27249687650E+03  0.00000000000E+00 0. -1.
         22   -1    0    0    0    0 -0.00000000000E+00 -0.00000000000E+00 -0.93370877160E+03  0.93370877160E+03  0.00000000000E+00 0. -1.
        -24    2    1    2    0    0  0.70636663735E+02  0.17956790340E+03 -0.79178711709E+03  0.81881681393E+03  0.79372323882E+02 0.  0.
         25    2    1    2    0    0  0.42110497596E+02 -0.18268906620E+03  0.83773870102E+02  0.24044583812E+03  0.12509017084E+03 0.  0.
         24    2    1    2    0    0 -0.11274716133E+03  0.31211627985E+01  0.46801351880E+02  0.14694299606E+03  0.81732573109E+02 0.  0.
        -13    1    5    5    0    0 -0.51601902301E+02  0.83021226078E+01  0.64556553070E+02  0.83061604277E+02  0.00000000000E+00 0.  1.
         14    1    5    5    0    0 -0.61145259031E+02 -0.51809598093E+01 -0.17755201190E+02  0.63881391780E+02  0.00000000000E+00 0. -1.
         13    1    3    3    0    0  0.35267761389E+02  0.15355576790E+03 -0.69346143167E+03  0.71113426726E+03  0.00000000000E+00 0. -1.
        -14    1    3    3    0    0  0.35368902346E+02  0.26012135501E+02 -0.98325685414E+02  0.10768254668E+03  0.00000000000E+00 0.  1.
          5    1    4    4  501    0  0.30863985571E+02  0.44336293224E+01  0.34257043422E+02  0.46510860004E+02  0.41800000000E+01 0.  1.
         -5    1    4    4    0  501  0.11246512026E+02 -0.18712269552E+03  0.49516826680E+02  0.19393497811E+03  0.41800000000E+01 0.  1.
</event>
<event>
11    1  0.1371677E-008  0.1559229E+03  0.7561462E-02  0.1090976E+00
         22   -1    0    0    0    0  0.00000000000E+00  0.00000000000E+00  0.35773835507E+03  0.35773835507E+03  0.00000000000E+00 0. -1.
         22   -1    0    0    0    0 -0.00000000000E+00 -0.00000000000E+00 -0.14088735169E+04  0.14088735169E+04  0.00000000000E+00 0.  1.
        -24    2    1    2    0    0 -0.63328560581E+02 -0.83800770644E+02 -0.12593012183E+04  0.12684030626E+04  0.10942438064E+03 0.  0.
         25    2    1    2    0    0  0.10661592708E+02  0.10837600282E+02 -0.10421460822E+03  0.16352881687E+03  0.12509942543E+03 0.  0.
         24    2    1    2    0    0  0.52666967873E+02  0.72963170362E+02  0.31238066472E+03  0.33467999246E+03  0.79571250644E+02 0.  0.
        -13    1    5    5    0    0  0.64879316901E+02  0.23624775444E+02  0.19042809504E+03  0.20255941142E+03  0.00000000000E+00 0.  1.
         14    1    5    5    0    0 -0.12212349028E+02  0.49338394918E+02  0.12195256968E+03  0.13212058104E+03  0.00000000000E+00 0. -1.
         13    1    3    3    0    0  0.14263891215E+02 -0.15225976817E+02 -0.43975883923E+02  0.48674093000E+02  0.00000000000E+00 0. -1.
        -14    1    3    3    0    0 -0.77592451796E+02 -0.68574793827E+02 -0.12153253344E+04  0.12197289696E+04  0.00000000000E+00 0.  1.
          5    1    4    4  501    0 -0.26865149505E+02 -0.32802143215E+02  0.19978403605E+01  0.42651853694E+02  0.41800000000E+01 0.  1.
         -5    1    4    4    0  501  0.37526742212E+02  0.43639743497E+02 -0.10621244858E+03  0.12087696318E+03  0.41800000000E+01 0.  1.
</event>
<event>
11    1  0.7157190E-009  0.1529974E+03  0.7561462E-02  0.1093855E+00
         22   -1    0    0    0    0  0.00000000000E+00  0.00000000000E+00  0.73099425351E+03  0.73099425351E+03  0.00000000000E+00 0. -1.
         22   -1    0    0    0    0 -0.00000000000E+00 -0.00000000000E+00 -0.76060442358E+03  0.76060442358E+03  0.00000000000E+00 0.  1.
        -24    2    1    2    0    0  0.45533127899E+02  0.20485951218E+02 -0.48073921533E+03  0.48989603776E+03  0.79968710876E+02 0.  0.
         25    2    1    2    0    0  0.30338905567E+02  0.26063316566E+02 -0.25425809954E+03  0.28617014702E+03  0.12508567544E+03 0.  0.
         24    2    1    2    0    0 -0.75872033466E+02 -0.46549267783E+02  0.70538714480E+03  0.71553249232E+03  0.80574957164E+02 0.  0.
        -13    1    5    5    0    0 -0.10509237857E+02 -0.21114915609E+02  0.39825857942E+02  0.46285880161E+02  0.00000000000E+00 0.  1.
         14    1    5    5    0    0 -0.65362795609E+02 -0.25434352174E+02  0.66556128686E+03  0.66924661216E+03  0.00000000000E+00 0. -1.
         11    1    3    3    0    0 -0.19889699246E+02 -0.93762945676E+01 -0.95160850644E+02  0.97668329213E+02  0.00000000000E+00 0. -1.
        -12    1    3    3    0    0  0.65422827145E+02  0.29862245785E+02 -0.38557836469E+03  0.39222770854E+03  0.00000000000E+00 0.  1.
          5    1    4    4  501    0 -0.35143668115E+02  0.39362251248E+02 -0.56663803733E+02  0.77541751885E+02  0.41800000000E+01 0. -1.
         -5    1    4    4    0  501  0.65482573682E+02 -0.13298934682E+02 -0.19759429581E+03  0.20862839513E+03  0.41800000000E+01 0. -1.
</event>
<event>
11    1  0.7157190E-009  0.1334149E+03  0.7561462E-02  0.1115143E+00
         22   -1    0    0    0    0  0.00000000000E+00  0.00000000000E+00  0.62766910907E+03  0.62766910907E+03  0.00000000000E+00 0.  1.
         22   -1    0    0    0    0 -0.00000000000E+00 -0.00000000000E+00 -0.25438013201E+03  0.25438013201E+03  0.00000000000E+00 0.  1.
         24    2    1    2    0    0  0.20159916059E+02  0.31110821621E+02 -0.11912943598E+03  0.14819795144E+03  0.79978152361E+02 0.  0.
         25    2    1    2    0    0 -0.38799990008E+02 -0.64853041068E+02 -0.71908577336E+02  0.16287994269E+03  0.12509067142E+03 0.  0.
        -24    2    1    2    0    0  0.18640073949E+02  0.33742219447E+02  0.56432699038E+03  0.57097134695E+03  0.77828897184E+02 0.  0.
        -13    1    3    3    0    0  0.29431396762E+02 -0.12571422213E+02 -0.88335739834E+02  0.93954514016E+02  0.00000000000E+00 0.  1.
         14    1    3    3    0    0 -0.92714807028E+01  0.43682243834E+02 -0.30793696147E+02  0.54243437420E+02  0.00000000000E+00 0. -1.
         11    1    5    5    0    0  0.31237563291E+02 -0.15396921387E+02  0.18293028392E+03  0.18621584069E+03  0.00000000000E+00 0. -1.
        -12    1    5    5    0    0 -0.12597489342E+02  0.49139140834E+02  0.38139670647E+03  0.38475550627E+03  0.00000000000E+00 0.  1.
          5    1    4    4  501    0  0.33358593487E+02  0.92033067878E-01 -0.54687157770E+02  0.64194718276E+02  0.41800000000E+01 0.  1.
         -5    1    4    4    0  501 -0.72158583495E+02 -0.64945074136E+02 -0.17221419566E+02  0.98685224418E+02  0.41800000000E+01 0.  1.
</event>
<event>
11    1  0.7157190E-009  0.2817819E+03  0.7561462E-02  0.1008210E+00
         22   -1    0    0    0    0  0.00000000000E+00  0.00000000000E+00  0.55271232370E+03  0.55271232370E+03  0.00000000000E+00 0.  1.
         22   -1    0    0    0    0 -0.00000000000E+00 -0.00000000000E+00 -0.11471245024E+04  0.11471245024E+04  0.00000000000E+00 0.  1.
        -24    2    1    2    0    0 -0.24972958954E+03 -0.12355437579E+03 -0.72221714550E+03  0.77820981349E+03  0.79889654417E+02 0.  0.
         25    2    1    2    0    0  0.17106963725E+03  0.13483080866E+03 -0.34963762105E+03  0.43050816563E+03  0.12508655748E+03 0.  0.
         24    2    1    2    0    0  0.78659952285E+02 -0.11276432872E+02  0.47744258784E+03  0.49111884700E+03  0.83257138848E+02 0.  0.
        -11    1    5    5    0    0  0.50980650122E+02  0.87320825829E+01  0.42748286410E+03  0.43060059806E+03  0.00000000000E+00 0.  1.
         12    1    5    5    0    0  0.27679302162E+02 -0.20008515454E+02  0.49959723738E+02  0.60518248941E+02  0.00000000000E+00 0. -1.
         11    1    3    3    0    0 -0.27976618350E+02 -0.47979053850E+02 -0.14302400325E+03  0.15342928758E+03  0.00000000000E+00 0. -1.
        -12    1    3    3    0    0 -0.22175297119E+03 -0.75575321942E+02 -0.57919314225E+03  0.62478052590E+03  0.00000000000E+00 0.  1.
          5    1    4    4  501    0  0.95103688467E+02  0.59937249391E+02 -0.28330184860E+03  0.30481895486E+03  0.41800000000E+01 0. -1.
         -5    1    4    4    0  501  0.75965948786E+02  0.74893559272E+02 -0.66335772454E+02  0.12568921076E+03  0.41800000000E+01 0. -1.
</event>
<event>
11    1  0.7157190E-009  0.1544550E+03  0.7561462E-02  0.1092412E+00
         22   -1    0    0    0    0  0.00000000000E+00  0.00000000000E+00  0.62128191267E+03  0.62128191267E+03  0.00000000000E+00 0.  1.
         22   -1    0    0    0    0 -0.00000000000E+00 -0.00000000000E+00 -0.22314477276E+04  0.22314477276E+04  0.00000000000E+00 0.  1.
        -24    2    1    2    0    0  0.55694043809E+02  0.71184623749E+02 -0.17731487731E+04  0.17772681789E+04  0.80352541516E+02 0.  0.
         25    2    1    2    0    0 -0.72536021833E+02 -0.59713944725E+02 -0.44001269401E+03  0.46699700111E+03  0.12509116075E+03 0.  0.
         24    2    1    2    0    0  0.16841978024E+02 -0.11470679024E+02  0.60299565214E+03  0.60846446032E+03  0.78803643712E+02 0.  0.
        -11    1    5    5    0    0 -0.82720915477E+01 -0.28297460071E+02  0.50620621593E+03  0.50706400660E+03  0.00000000000E+00 0.  1.
         12    1    5    5    0    0  0.25114069572E+02  0.16826781047E+02  0.96789436216E+02  0.10140045372E+03  0.00000000000E+00 0. -1.
         13    1    3    3    0    0 -0.10429306885E+02  0.21263824763E+02 -0.13768318298E+03  0.13970533119E+03  0.00000000000E+00 0. -1.
        -14    1    3    3    0    0  0.66123350694E+02  0.49920798986E+02 -0.16354655901E+04  0.16375628477E+04  0.00000000000E+00 0.  1.
          5    1    4    4  501    0 -0.37367088552E+02 -0.94181920257E+02 -0.23202495785E+03  0.25321845682E+03  0.41800000000E+01 0. -1.
         -5    1    4    4    0  501 -0.35168933281E+02  0.34467975532E+02 -0.20798773616E+03  0.21377854429E+03  0.41800000000E+01 0. -1.
</event>
<event>
11    1  0.7157190E-009  0.1582206E+03  0.7561462E-02  0.1088763E+00
         22   -1    0    0    0    0  0.00000000000E+00  0.00000000000E+00  0.29206316177E+03  0.29206316177E+03  0.00000000000E+00 0.  1.
         22   -1    0    0    0    0 -0.00000000000E+00 -0.00000000000E+00 -0.81846608991E+03  0.81846608991E+03  0.00000000000E+00 0.  1.
         24    2    1    2    0    0  0.18891354003E+02 -0.26568909866E+02 -0.44747407061E+03  0.45562015489E+03  0.79334049764E+02 0.  0.
         25    2    1    2    0    0 -0.58168530069E+02  0.11373884399E+03 -0.32965414317E+03  0.37501955689E+03  0.12509081271E+03 0.  0.
        -24    2    1    2    0    0  0.39277176067E+02 -0.87169934124E+02  0.25072528563E+03  0.27988953990E+03  0.79584494169E+02 0.  0.
        -13    1    3    3    0    0  0.35240478874E+02 -0.40566833109E+02 -0.39874533642E+03  0.40234985102E+03  0.00000000000E+00 0.  1.
         14    1    3    3    0    0 -0.16349124872E+02  0.13997923243E+02 -0.48728734184E+02  0.53270303870E+02  0.00000000000E+00 0. -1.
         11    1    5    5    0    0  0.19432070461E+02 -0.59050775486E+02  0.61097026285E+02  0.87163329840E+02  0.00000000000E+00 0. -1.
        -12    1    5    5    0    0  0.19845105606E+02 -0.28119158639E+02  0.18962825935E+03  0.19272621006E+03  0.00000000000E+00 0.  1.
          5    1    4    4  501    0 -0.94387424202E+02  0.90157440730E+02 -0.28064553937E+03  0.30954279370E+03  0.41800000000E+01 0.  1.
         -5    1    4    4    0  501  0.36218894132E+02  0.23581403260E+02 -0.49008603799E+02  0.65476763193E+02  0.41800000000E+01 0.  1.
</event>
<event>
11    1  0.7157190E-009  0.2115680E+03  0.7561462E-02  0.1046632E+00
         22   -1    0    0    0    0  0.00000000000E+00  0.00000000000E+00  0.75609163393E+03  0.75609163393E+03  0.00000000000E+00 0.  1.
         22   -1    0    0    0    0 -0.00000000000E+00 -0.00000000000E+00 -0.82005094490E+03  0.82005094490E+03  0.00000000000E+00 0. -1.
         24    2    1    2    0    0  0.11113876475E+03 -0.13675301823E+03 -0.68389516597E+03  0.71020395888E+03  0.74992347284E+02 0.  0.
         25    2    1    2    0    0  0.40888258048E+02  0.18217116243E+03  0.36269161571E+01  0.22476199547E+03  0.12508644218E+03 0.  0.
        -24    2    1    2    0    0 -0.15202702279E+03 -0.45418144205E+02  0.61630893885E+03  0.64117662447E+03  0.78075170066E+02 0.  0.
        -11    1    3    3    0    0  0.28747340917E+02 -0.33421430484E+01 -0.56125092668E+02  0.63147490504E+02  0.00000000000E+00 0.  1.
         12    1    3    3    0    0  0.82391423829E+02 -0.13341087518E+03 -0.62777007330E+03  0.64705646838E+03  0.00000000000E+00 0. -1.
         13    1    5    5    0    0 -0.61687283511E+02  0.80940774005E+01  0.13645545253E+03  0.14996974882E+03  0.00000000000E+00 0. -1.
        -14    1    5    5    0    0 -0.90339739282E+02 -0.53512221606E+02  0.47985348632E+03  0.49120687565E+03  0.00000000000E+00 0.  1.
          5    1    4    4  501    0  0.22999325830E+02  0.17828105047E+02 -0.43779406932E+02  0.52734421297E+02  0.41800000000E+01 0.  1.
         -5    1    4    4    0  501  0.17888932218E+02  0.16434305739E+03  0.47406323089E+02  0.17202757417E+03  0.41800000000E+01 0.  1.
</event>
<event>
11    1  0.7157190E-009  0.1314467E+03  0.7561462E-02  0.1117504E+00
         22   -1    0    0    0    0  0.00000000000E+00  0.00000000000E+00  0.49760547448E+02  0.49760547448E+02  0.00000000000E+00 0. -1.
         22   -1    0    0    0    0 -0.00000000000E+00 -0.00000000000E+00 -0.12210352541E+04  0.12210352541E+04  0.00000000000E+00 0.  1.
         24    2    1    2    0    0 -0.68792296406E+01  0.20757735038E+02 -0.89235546150E+03  0.89642468622E+03  0.82466605628E+02 0.  0.
         25    2    1    2    0    0 -0.72800347894E+01  0.21501500009E+02 -0.24874007331E+03  0.27934717137E+03  0.12509158513E+03 0.  0.
        -24    2    1    2    0    0  0.14159264430E+02 -0.42259235047E+02 -0.30179171843E+02  0.95023943957E+02  0.78309895901E+02 0.  0.
        -11    1    3    3    0    0  0.10896347566E+02 -0.20840735873E+01 -0.78940727774E+03  0.78948522716E+03  0.00000000000E+00 0.  1.
         12    1    3    3    0    0 -0.17775577206E+02  0.22841808625E+02 -0.10294818376E+03  0.10693945906E+03  0.00000000000E+00 0. -1.
         13    1    5    5    0    0  0.23166518543E+02 -0.59394935687E+02 -0.59780079301E+01  0.64032667800E+02  0.00000000000E+00 0. -1.
        -14    1    5    5    0    0 -0.90072541133E+01  0.17135700640E+02 -0.24201163913E+02  0.30991276157E+02  0.00000000000E+00 0.  1.
          5    1    4    4  501    0 -0.38537151837E+02  0.47486591341E+02 -0.22249021967E+03  0.23078010893E+03  0.41800000000E+01 0.  1.
         -5    1    4    4    0  501  0.31257117048E+02 -0.25985091332E+02 -0.26249853642E+02  0.48567062438E+02  0.41800000000E+01 0.  1.
</event>
<event>
11    1  0.7157190E-009  0.1519777E+03  0.7561462E-02  0.1094875E+00
         22   -1    0    0    0    0  0.00000000000E+00  0.00000000000E+00  0.21775961219E+03  0.21775961219E+03  0.00000000000E+00 0. -1.
         22   -1    0    0    0    0 -0.00000000000E+00 -0.00000000000E+00 -0.79094719142E+03  0.79094719142E+03  0.00000000000E+00 0. -1.
         24    2    1    2    0    0  0.11083711266E+02 -0.15487268472E+02 -0.66594137582E+03  0.67105790945E+03  0.80486630435E+02 0.  0.
         25    2    1    2    0    0  0.56113908694E+02  0.69219907378E+02 -0.39997032654E+02  0.15870906534E+03  0.12509451816E+03 0.  0.
        -24    2    1    2    0    0 -0.67197619960E+02 -0.53732638906E+02  0.13275082924E+03  0.17893982882E+03  0.83629917252E+02 0.  0.
        -13    1    3    3    0    0 -0.13772699381E+02  0.14235445303E+02 -0.48317802143E+02  0.52220160428E+02  0.00000000000E+00 0.  1.
         14    1    3    3    0    0  0.24856410647E+02 -0.29722713775E+02 -0.61762357367E+03  0.61883774903E+03  0.00000000000E+00 0. -1.
         13    1    5    5    0    0 -0.70229366793E+02 -0.20056612544E+02  0.12416688454E+03  0.14405501339E+03  0.00000000000E+00 0. -1.
        -14    1    5    5    0    0  0.30317468331E+01 -0.33676026361E+02  0.85839447005E+01  0.34884815421E+02  0.00000000000E+00 0.  1.
          5    1    4    4  501    0  0.20071412027E+01 -0.30260899652E+02 -0.33236832383E+02  0.45187499271E+02  0.41800000000E+01 0. -1.
         -5    1    4    4    0  501  0.54106767491E+02  0.99480807030E+02 -0.67602002715E+01  0.11352156607E+03  0.41800000000E+01 0. -1.
</event>
<event>
11    1  0.7157190E-009  0.1481585E+03  0.7561462E-02  0.1098775E+00
         22   -1    0    0    0    0  0.00000000000E+00  0.00000000000E+00  0.25086897356E+03  0.25086897356E+03  0.00000000000E+00 0.  1.
         22   -1    0    0    0    0 -0.00000000000E+00 -0.00000000000E+00 -0.36444962145E+03  0.36444962145E+03  0.00000000000E+00 0.  1.
        -24    2    1    2    0    0  0.32008215070E+02 -0.38901604523E+02 -0.24749439600E+03  0.26637723277E+03  0.84649237563E+02 0.  0.
         25    2    1    2    0    0 -0.50290875951E+02 -0.43544750644E+02 -0.32584013036E+02  0.14537838650E+03  0.12509132601E+03 0.  0.
         24    2    1    2    0    0  0.18282660881E+02  0.82446355167E+02  0.16649776115E+03  0.20356297574E+03  0.81146308930E+02 0.  0.
        -11    1    5    5    0    0  0.56900294640E+01 -0.14511406017E+02  0.44925774701E+02  0.47552944939E+02  0.00000000000E+00 0.  1.
         12    1    5    5    0    0  0.12592631417E+02  0.96957761184E+02  0.12157198645E+03  0.15601003080E+03  0.00000000000E+00 0. -1.
         13    1    3    3    0    0 -0.13671831709E+02 -0.49203341007E+02 -0.11424488233E+03  0.12513904621E+03  0.00000000000E+00 0. -1.
        -14    1    3    3    0    0  0.45680046779E+02  0.10301736484E+02 -0.13324951368E+03  0.14123818656E+03  0.00000000000E+00 0.  1.
          5    1    4    4  501    0  0.27695008659E+02 -0.16258754004E+02  0.28022426279E+02  0.42826269519E+02  0.41800000000E+01 0. -1.
         -5    1    4    4    0  501 -0.77985884610E+02 -0.27285996639E+02 -0.60606439314E+02  0.10255211698E+03  0.41800000000E+01 0. -1.
</event>
<event>
11    1  0.7157190E-009  0.1322266E+03  0.7561462E-02  0.1116563E+00
         22   -1    0    0    0    0  0.00000000000E+00  0.00000000000E+00  0.28523842948E+03  0.28523842948E+03  0.00000000000E+00 0. -1.
         22   -1    0    0    0    0 -0.00000000000E+00 -0.00000000000E+00 -0.13483568083E+04  0.13483568083E+04  0.00000000000E+00 0.  1.
        -24    2    1    2    0    0 -0.39435136110E+02  0.79679949232E+01 -0.10294075483E+04  0.10331807462E+04  0.78510730123E+02 0.  0.
         25    2    1    2    0    0  0.68770126652E+02  0.12362325820E+02 -0.29416822538E+03  0.32720794836E+03  0.12509172326E+03 0.  0.
         24    2    1    2    0    0 -0.29334990541E+02 -0.20330320743E+02  0.26045739487E+03  0.27320654329E+03  0.74363278165E+02 0.  0.
        -13    1    5    5    0    0  0.30908169872E+01 -0.41303595214E+02  0.10150442635E+03  0.10962978015E+03  0.00000000000E+00 0.  1.
         14    1    5    5    0    0 -0.32425807529E+02  0.20973274471E+02  0.15895296853E+03  0.16357676314E+03  0.00000000000E+00 0. -1.
         11    1    3    3    0    0 -0.40874113424E+02  0.38978327326E+02 -0.59997411493E+03  0.60262670181E+03  0.00000000000E+00 0. -1.
        -12    1    3    3    0    0  0.14389773141E+01 -0.31010332403E+02 -0.42943343341E+03  0.43055404435E+03  0.00000000000E+00 0.  1.
          5    1    4    4  501    0  0.93317766503E+02 -0.15997373751E+02 -0.14413423373E+03  0.17250006158E+03  0.41800000000E+01 0. -1.
         -5    1    4    4    0  501 -0.24547639851E+02  0.28359699572E+02 -0.15003399164E+03  0.15470788678E+03  0.41800000000E+01 0. -1.
</event>
<event>
11    1  0.7408941E-009  0.1517888E+03  0.7561462E-02  0.1095065E+00
         22   -1    0    0    0    0  0.00000000000E+00  0.00000000000E+00  0.23556072876E+04  0.23556072876E+04  0.00000000000E+00 0. -1.
         22   -1    0    0    0    0 -0.00000000000E+00 -0.00000000000E+00 -0.80225091980E+02  0.80225091980E+02  0.00000000000E+00 0.  1.
         24    2    1    2    0    0  0.98028097117E+02  0.30014314290E+02  0.65889303247E+01  0.13086339709E+03  0.81064466995E+02 0.  0.
         25    2    1    2    0    0 -0.28943314030E+02  0.38360025505E+02  0.26313889506E+03  0.29529343136E+03  0.12508767137E+03 0.  0.
        -24    2    1    2    0    0 -0.69084783087E+02 -0.68374339796E+02  0.20056543702E+04  0.20096755511E+04  0.81845038584E+02 0.  0.
        -11    1    3    3    0    0  0.84808798588E+02 -0.12831259987E+02  0.65653984624E+01  0.86024868543E+02  0.00000000000E+00 0.  1.
         12    1    3    3    0    0  0.13219298529E+02  0.42845574278E+02  0.23531862303E-01  0.44838528550E+02  0.00000000000E+00 0. -1.
         11    1    5    5    0    0 -0.18978225319E+02 -0.12991390894E+02  0.12763123369E+04  0.12765195379E+04  0.00000000000E+00 0. -1.
        -12    1    5    5    0    0 -0.50106557768E+02 -0.55382948901E+02  0.72934203332E+03  0.73315601323E+03  0.00000000000E+00 0.  1.
          5    1    4    4  501    0  0.32536891328E+02  0.59547539706E+02  0.11770272901E+03  0.13592631680E+03  0.41800000000E+01 0. -1.
         -5    1    4    4    0  501 -0.61480205358E+02 -0.21187514201E+02  0.14543616605E+03  0.15936711456E+03  0.41800000000E+01 0. -1.
</event>
<event>
11    1  0.7157190E-009  0.1554681E+03  0.7561462E-02  0.1091419E+00
         22   -1    0    0    0    0  0.00000000000E+00  0.00000000000E+00  0.23092858786E+03  0.23092858786E+03  0.00000000000E+00 0.  1.
         22   -1    0    0    0    0 -0.00000000000E+00 -0.00000000000E+00 -0.18560088007E+04  0.18560088007E+04  0.00000000000E+00 0.  1.
        -24    2    1    2    0    0  0.29976618156E+02  0.66402858397E+02 -0.17051771722E+04  0.17085509380E+04  0.78798362375E+02 0.  0.
         25    2    1    2    0    0  0.26110680643E+02 -0.13328380988E+03 -0.60925033677E+02  0.19443607371E+03  0.12508871017E+03 0.  0.
         24    2    1    2    0    0 -0.56087298800E+02  0.66880951484E+02  0.14102199308E+03  0.18395037680E+03  0.79571928678E+02 0.  0.
        -13    1    5    5    0    0 -0.19978444681E+02  0.65849804099E+02  0.12841411490E+03  0.14568980698E+03  0.00000000000E+00 0.  1.
         14    1    5    5    0    0 -0.36108854119E+02  0.10311473850E+01  0.12607878180E+02  0.38260569819E+02  0.00000000000E+00 0. -1.
         13    1    3    3    0    0  0.55182346181E+02  0.44096198160E+02 -0.94910989941E+03  0.95173481977E+03  0.00000000000E+00 0. -1.
        -14    1    3    3    0    0 -0.25205728025E+02  0.22306660237E+02 -0.75606727281E+03  0.75681611824E+03  0.00000000000E+00 0.  1.
          5    1    4    4  501    0  0.19346233373E+02  0.21738079860E+02 -0.10746933942E+02  0.31301595021E+02  0.41800000000E+01 0.  1.
         -5    1    4    4    0  501  0.67644472708E+01 -0.15502188974E+03 -0.50178099735E+02  0.16313447869E+03  0.41800000000E+01 0.  1.
</event>
<event>
11    1  0.7157190E-009  0.1471717E+03  0.7561462E-02  0.1099804E+00
         22   -1    0    0    0    0  0.00000000000E+00  0.00000000000E+00  0.18225074690E+03  0.18225074690E+03  0.00000000000E+00 0. -1.
         22   -1    0    0    0    0 -0.00000000000E+00 -0.00000000000E+00 -0.67230338285E+03  0.67230338285E+03  0.00000000000E+00 0. -1.
         24    2    1    2    0    0 -0.19793745892E+01  0.78374488726E+01 -0.22458808389E+03  0.23860181602E+03  0.80160312224E+02 0.  0.
         25    2    1    2    0    0  0.49964581036E+02 -0.68259341793E+02 -0.40848259961E+03  0.43551297104E+03  0.12513079820E+03 0.  0.
        -24    2    1    2    0    0 -0.47985206446E+02  0.60421892920E+02  0.14301804755E+03  0.18043934269E+03  0.78427095330E+02 0.  0.
        -11    1    3    3    0    0  0.28061514668E+01  0.25317707574E+02 -0.17929558137E+02  0.31150118104E+02  0.00000000000E+00 0.  1.
         12    1    3    3    0    0 -0.47855260560E+01 -0.17480258701E+02 -0.20665852575E+03  0.20745169792E+03  0.00000000000E+00 0. -1.
         13    1    5    5    0    0 -0.26374338749E+02 -0.86410800404E+00  0.97731846071E+02  0.10123174484E+03  0.00000000000E+00 0. -1.
        -14    1    5    5    0    0 -0.21610867697E+02  0.61286000924E+02  0.45286201482E+02  0.79207597846E+02  0.00000000000E+00 0.  1.
          5    1    4    4  501    0  0.32440828066E+02 -0.80082115861E+02 -0.12971303827E+03  0.15591182541E+03  0.41800000000E+01 0.  1.
         -5    1    4    4    0  501  0.17523752969E+02  0.11822774068E+02 -0.27876956134E+03  0.27960114563E+03  0.41800000000E+01 0.  1.
</event>
<event>
11    1  0.7157190E-009  0.3311607E+03  0.7561462E-02  0.9878027E-01
         22   -1    0    0    0    0  0.00000000000E+00  0.00000000000E+00  0.20155752336E+04  0.20155752336E+04  0.00000000000E+00 0. -1.
         22   -1    0    0    0    0 -0.00000000000E+00 -0.00000000000E+00 -0.14778855718E+04  0.14778855718E+04  0.00000000000E+00 0. -1.
         24    2    1    2    0    0 -0.16067455573E+03 -0.24125519027E+03 -0.10387525903E+04  0.10814094130E+04  0.80118630071E+02 0.  0.
         25    2    1    2    0    0  0.18866439595E+03  0.33544528091E+03 -0.31734702472E+03  0.51427091821E+03  0.12509057690E+03 0.  0.
        -24    2    1    2    0    0 -0.27989840222E+02 -0.94190090638E+02  0.18937892769E+04  0.18977804742E+04  0.74011477744E+02 0.  0.
        -11    1    3    3    0    0 -0.12378277621E+01 -0.10090516016E+02 -0.12664394150E+03  0.12705132289E+03  0.00000000000E+00 0.  1.
         12    1    3    3    0    0 -0.15943672797E+03 -0.23116467426E+03 -0.91210864884E+03  0.95435809010E+03  0.00000000000E+00 0. -1.
         13    1    5    5    0    0 -0.47339225050E+02 -0.71915110645E+02  0.16443003427E+04  0.16465528847E+04  0.00000000000E+00 0. -1.
        -14    1    5    5    0    0  0.19349384828E+02 -0.22274979993E+02  0.24948893418E+03  0.25122758946E+03  0.00000000000E+00 0.  1.
          5    1    4    4  501    0  0.75285222255E+02  0.35178310883E+02 -0.75776543719E+02  0.11253859438E+03  0.41800000000E+01 0.  1.
         -5    1    4    4    0  501  0.11337917369E+03  0.30026697003E+03 -0.24157048100E+03  0.40173232383E+03  0.41800000000E+01 0.  1.
</event>
<event>
11    1  0.7157190E-009  0.2625356E+03  0.7561462E-02  0.1017425E+00
         22   -1    0    0    0    0  0.00000000000E+00  0.00000000000E+00  0.25577620605E+03  0.25577620605E+03  0.00000000000E+00 0. -1.
         22   -1    0    0    0    0 -0.00000000000E+00 -0.00000000000E+00 -0.45404023341E+03  0.45404023341E+03  0.00000000000E+00 0.  1.
        -24    2    1    2    0    0 -0.24824561529E+03  0.41737845272E+02 -0.22159780116E+03  0.34464392172E+03  0.79409785668E+02 0.  0.
         25    2    1    2    0    0  0.20016264247E+03  0.21840947174E+02 -0.36253662605E+02  0.23980242441E+03  0.12509502102E+03 0.  0.
         24    2    1    2    0    0  0.48082972817E+02 -0.63578792446E+02  0.59587436402E+02  0.12537009333E+03  0.76241475601E+02 0.  0.
        -13    1    5    5    0    0  0.19976944264E+02 -0.71557903760E+02  0.21451920275E+02  0.77329145710E+02  0.00000000000E+00 0.  1.
         14    1    5    5    0    0  0.28106028554E+02  0.79791113140E+01  0.38135516127E+02  0.48040947625E+02  0.00000000000E+00 0. -1.
         11    1    3    3    0    0 -0.14207957956E+03 -0.77451793986E+01 -0.15284230141E+03  0.20882376261E+03  0.00000000000E+00 0. -1.
        -12    1    3    3    0    0 -0.10616603573E+03  0.49483024671E+02 -0.68755499749E+02  0.13582015910E+03  0.00000000000E+00 0.  1.
          5    1    4    4  501    0  0.16386915611E+03  0.24627999129E+02  0.25781420437E+02  0.16775515701E+03  0.41800000000E+01 0.  1.
         -5    1    4    4    0  501  0.36293486362E+02 -0.27870519544E+01 -0.62035083043E+02  0.72047267395E+02  0.41800000000E+01 0.  1.
</event>
<event>
11    1  0.7157190E-009  0.1498226E+03  0.7561462E-02  0.1097060E+00
         22   -1    0    0    0    0  0.00000000000E+00  0.00000000000E+00  0.42300230522E+03  0.42300230522E+03  0.00000000000E+00 0. -1.
         22   -1    0    0    0    0 -0.00000000000E+00 -0.00000000000E+00 -0.49169387965E+03  0.49169387965E+03  0.00000000000E+00 0. -1.
        -24    2    1    2    0    0  0.65013384652E+02 -0.67084933680E+02 -0.40737533031E+03  0.42544325422E+03  0.79499523902E+02 0.  0.
         25    2    1    2    0    0 -0.14959120875E+01  0.12445873544E+02 -0.64854024608E+01  0.12588352730E+03  0.12508982564E+03 0.  0.
         24    2    1    2    0    0 -0.63517472565E+02  0.54639060136E+02  0.34516915834E+03  0.36336940336E+03  0.76652979139E+02 0.  0.
        -13    1    5    5    0    0 -0.90688964087E+01 -0.17169204122E+02  0.10645967863E+03  0.10821593980E+03  0.00000000000E+00 0.  1.
         14    1    5    5    0    0 -0.54448576156E+02  0.71808264259E+02  0.23870947971E+03  0.25515346356E+03  0.00000000000E+00 0. -1.
         13    1    3    3    0    0  0.17447050385E+02 -0.60095994250E+02 -0.13424177657E+03  0.14811071085E+03  0.00000000000E+00 0. -1.
        -14    1    3    3    0    0  0.47566334267E+02 -0.69889394305E+01 -0.27313355375E+03  0.27733254337E+03  0.00000000000E+00 0.  1.
          5    1    4    4  501    0  0.48780823685E+02  0.85788440027E+00  0.34465172656E+02  0.59880090608E+02  0.41800000000E+01 0. -1.
         -5    1    4    4    0  501 -0.50276735773E+02  0.11587989143E+02 -0.40950575117E+02  0.66003436689E+02  0.41800000000E+01 0. -1.
</event>
<event>
11    1  0.7157190E-009  0.1443424E+03  0.7561462E-02  0.1102804E+00
         22   -1    0    0    0    0  0.00000000000E+00  0.00000000000E+00  0.20344398222E+04  0.20344398222E+04  0.00000000000E+00 0. -1.
         22   -1    0    0    0    0 -0.00000000000E+00 -0.00000000000E+00 -0.41482183372E+02  0.41482183372E+02  0.00000000000E+00 0.  1.
        -24    2    1    2    0    0 -0.29547122355E+02 -0.37365947740E+02  0.43148386665E+02  0.10281959987E+03  0.80254846309E+02 0.  0.
         25    2    1    2    0    0  0.49843019197E+02  0.97215163411E+02  0.72636273259E+03  0.74510712041E+03  0.12508671802E+03 0.  0.
         24    2    1    2    0    0 -0.20295896842E+02 -0.59849215671E+02  0.12234465195E+04  0.12279952853E+04  0.84600132408E+02 0.  0.
        -11    1    5    5    0    0 -0.76233156576E+01 -0.55824037868E+02  0.35469405583E+03  0.35914107449E+03  0.00000000000E+00 0.  1.
         12    1    5    5    0    0 -0.12672581184E+02 -0.40251778033E+01  0.86875246371E+03  0.86885421077E+03  0.00000000000E+00 0. -1.
         13    1    3    3    0    0 -0.44290258466E+02  0.84922664580E+01  0.22720439646E+02  0.50497167864E+02  0.00000000000E+00 0. -1.
        -14    1    3    3    0    0  0.14743136111E+02 -0.45858214198E+02  0.20427947019E+02  0.52322432008E+02  0.00000000000E+00 0.  1.
          5    1    4    4  501    0 -0.30228272503E+02  0.57325364151E+02  0.17793557181E+03  0.18941617129E+03  0.41800000000E+01 0.  1.
         -5    1    4    4    0  501  0.80071291701E+02  0.39889799260E+02  0.54842716079E+03  0.55569094911E+03  0.41800000000E+01 0.  1.
</event>
<event>
11    1  0.7157190E-009  0.2367294E+03  0.7561462E-02  0.1031216E+00
         22   -1    0    0    0    0  0.00000000000E+00  0.00000000000E+00  0.43850826148E+03  0.43850826148E+03  0.00000000000E+00 0. -1.
         22   -1    0    0    0    0 -0.00000000000E+00 -0.00000000000E+00 -0.58755646626E+03  0.58755646626E+03  0.00000000000E+00 0. -1.
        -24    2    1    2    0    0  0.62375426213E+01 -0.19467256789E+03 -0.29625993447E+03  0.36341750147E+03  0.79787317115E+02 0.  0.
         25    2    1    2    0    0 -0.94529412424E+01  0.21186216751E+03 -0.19294169488E+03  0.31280800520E+03  0.12508962536E+03 0.  0.
         24    2    1    2    0    0  0.32153986212E+01 -0.17189599613E+02  0.34015342457E+03  0.34983922108E+03  0.79858044274E+02 0.  0.
        -11    1    5    5    0    0  0.11266049235E+02 -0.46929367600E+02  0.16181941619E+03  0.16886329638E+03  0.00000000000E+00 0.  1.
         12    1    5    5    0    0 -0.80506506139E+01  0.29739767987E+02  0.17833400838E+03  0.18097592470E+03  0.00000000000E+00 0. -1.
         11    1    3    3    0    0 -0.35385322775E+02 -0.89101922515E+02 -0.15454549904E+03  0.18186694295E+03  0.00000000000E+00 0. -1.
        -12    1    3    3    0    0  0.41622865396E+02 -0.10557064538E+03 -0.14171443543E+03  0.18155055852E+03  0.00000000000E+00 0.  1.
          5    1    4    4  501    0 -0.51683559944E+02  0.47405579618E+02 -0.26736772099E+02  0.75171847986E+02  0.41800000000E+01 0. -1.
         -5    1    4    4    0  501  0.42230618701E+02  0.16445658789E+03 -0.16620492279E+03  0.23763615721E+03  0.41800000000E+01 0. -1.
</event>
<event>
11    1  0.7157190E-009  0.1751046E+03  0.7561462E-02  0.1073673E+00
         22   -1    0    0    0    0  0.00000000000E+00  0.00000000000E+00  0.62877596025E+03  0.62877596025E+03  0.00000000000E+00 0. -1.
         22   -1    0    0    0    0 -0.00000000000E+00 -0.00000000000E+00 -0.98060508163E+03  0.98060508163E+03  0.00000000000E+00 0. -1.
        -24    2    1    2    0    0  0.97083381094E+02  0.78473667369E+02 -0.90581476526E+03  0.91809558429E+03  0.82557940796E+02 0.  0.
         25    2    1    2    0    0 -0.55831604284E+02 -0.71177278394E+02  0.27281845974E+02  0.15675402659E+03  0.12507658748E+03 0.  0.
         24    2    1    2    0    0 -0.41251776810E+02 -0.72963889757E+01  0.52670379790E+03  0.53453143100E+03  0.80944509559E+02 0.  0.
        -11    1    5    5    0    0 -0.25699830974E+02 -0.37992812810E+02  0.41804680078E+03  0.42055565955E+03  0.00000000000E+00 0.  1.
         12    1    5    5    0    0 -0.15551945835E+02  0.30696423835E+02  0.10865699711E+03  0.11397577145E+03  0.00000000000E+00 0. -1.
         13    1    3    3    0    0  0.73188379633E+02  0.95184774262E+02 -0.75500504535E+03  0.76449283755E+03  0.00000000000E+00 0. -1.
        -14    1    3    3    0    0  0.23895001461E+02 -0.16711106892E+02 -0.15080971991E+03  0.15360274674E+03  0.00000000000E+00 0.  1.
          5    1    4    4  501    0  0.14655088087E+02 -0.14375887887E+02 -0.39141851481E+02  0.44395886034E+02  0.41800000000E+01 0. -1.
         -5    1    4    4    0  501 -0.70486692371E+02 -0.56801390507E+02  0.66423697455E+02  0.11235814055E+03  0.41800000000E+01 0. -1.
</event>
<event>
11    1  0.7157190E-009  0.2322921E+03  0.7561462E-02  0.1033779E+00
         22   -1    0    0    0    0  0.00000000000E+00  0.00000000000E+00  0.87977510796E+03  0.87977510796E+03  0.00000000000E+00 0. -1.
         22   -1    0    0    0    0 -0.00000000000E+00 -0.00000000000E+00 -0.33816080042E+04  0.33816080042E+04  0.00000000000E+00 0. -1.
        -24    2    1    2    0    0  0.10193299669E+03 -0.16776829299E+03 -0.32362816109E+04  0.32432123882E+04  0.79821012558E+02 0.  0.
         25    2    1    2    0    0 -0.14218379273E+03  0.12440152667E+03 -0.46156673613E+02  0.23123574861E+03  0.12509021612E+03 0.  0.
         24    2    1    2    0    0  0.40250796034E+02  0.43366766323E+02  0.78060538829E+03  0.78693497531E+03  0.80131642602E+02 0.  0.
        -11    1    5    5    0    0 -0.17059203791E+02  0.55282703829E+01  0.50174272438E+02  0.53282603372E+02  0.00000000000E+00 0.  1.
         12    1    5    5    0    0  0.57309999825E+02  0.37838495940E+02  0.73043111585E+03  0.73365237194E+03  0.00000000000E+00 0. -1.
         11    1    3    3    0    0  0.19096535838E+02 -0.99924612771E+02 -0.18546197837E+04  0.18574079110E+04  0.00000000000E+00 0. -1.
        -12    1    3    3    0    0  0.82836460855E+02 -0.67843680217E+02 -0.13816618272E+04  0.13858044772E+04  0.00000000000E+00 0.  1.
          5    1    4    4  501    0 -0.10249189368E+03  0.13777389978E+03 -0.42198389884E+01  0.17181826204E+03  0.41800000000E+01 0. -1.
         -5    1    4    4    0  501 -0.39691899047E+02 -0.13372373111E+02 -0.41936834624E+02  0.59417486575E+02  0.41800000000E+01 0. -1.
</event>
<event>
11    1  0.7157190E-009  0.1272175E+03  0.7561462E-02  0.1122736E+00
         22   -1    0    0    0    0  0.00000000000E+00  0.00000000000E+00  0.45955749819E+03  0.45955749819E+03  0.00000000000E+00 0.  1.
         22   -1    0    0    0    0 -0.00000000000E+00 -0.00000000000E+00 -0.52715677831E+03  0.52715677831E+03  0.00000000000E+00 0.  1.
         24    2    1    2    0    0 -0.13490345339E+02  0.20542342200E+02 -0.28896113995E+03  0.30057426037E+03  0.79008660004E+02 0.  0.
         25    2    1    2    0    0  0.36304918532E+02 -0.18112331386E+02 -0.20942561364E+03  0.24729324320E+03  0.12509499122E+03 0.  0.
        -24    2    1    2    0    0 -0.22814573193E+02 -0.24300108138E+01  0.43078747346E+03  0.43884677292E+03  0.80512316520E+02 0.  0.
        -11    1    3    3    0    0 -0.19687809359E+02  0.48442686249E+02 -0.21539740944E+03  0.22165366607E+03  0.00000000000E+00 0.  1.
         12    1    3    3    0    0  0.61974640205E+01 -0.27900344049E+02 -0.73563730512E+02  0.78920594304E+02  0.00000000000E+00 0. -1.
         11    1    5    5    0    0 -0.54451291801E+01 -0.91258509361E+00 -0.18767863387E+01  0.58313437819E+01  0.00000000000E+00 0. -1.
        -12    1    5    5    0    0 -0.17369444013E+02 -0.15174257202E+01  0.43266425980E+03  0.43301542914E+03  0.00000000000E+00 0.  1.
          5    1    4    4  501    0  0.24160386040E+02 -0.68989427215E+02 -0.15641880697E+03  0.17270663246E+03  0.41800000000E+01 0. -1.
         -5    1    4    4    0  501  0.12144532491E+02  0.50877095829E+02 -0.53006806664E+02  0.74586610743E+02  0.41800000000E+01 0. -1.
</event>
<event>
11    1  0.7157190E-009  0.2010183E+03  0.7561462E-02  0.1053806E+00
         22   -1    0    0    0    0  0.00000000000E+00  0.00000000000E+00  0.29760668442E+03  0.29760668442E+03  0.00000000000E+00 0.  1.
         22   -1    0    0    0    0 -0.00000000000E+00 -0.00000000000E+00 -0.16251569324E+04  0.16251569324E+04  0.00000000000E+00 0.  1.
         24    2    1    2    0    0 -0.22566555215E+02  0.15538992409E+03 -0.13525125213E+04  0.13640711972E+04  0.82126930765E+02 0.  0.
         25    2    1    2    0    0  0.17785512174E+02 -0.15873482011E+03 -0.22089078549E+03  0.29992201775E+03  0.12508960813E+03 0.  0.
        -24    2    1    2    0    0  0.47810430413E+01  0.33448960172E+01  0.24585305884E+03  0.25877040186E+03  0.80525447120E+02 0.  0.
        -11    1    3    3    0    0 -0.30593357889E+02  0.15605651387E+03 -0.13384591733E+04  0.13478733426E+04  0.00000000000E+00 0.  1.
         12    1    3    3    0    0  0.80268026744E+01 -0.66658978282E+00 -0.14053348005E+02  0.16197854588E+02  0.00000000000E+00 0. -1.
         11    1    5    5    0    0 -0.34432418738E+02  0.60200024052E+01  0.16753848577E+03  0.17114606657E+03  0.00000000000E+00 0. -1.
        -12    1    5    5    0    0  0.39213461779E+02 -0.26751063880E+01  0.78314573078E+02  0.87624335292E+02  0.00000000000E+00 0.  1.
          5    1    4    4  501    0  0.88874913488E+01 -0.54091513630E+02  0.35828285725E+00  0.54977087190E+02  0.41800000000E+01 0. -1.
         -5    1    4    4    0  501  0.88980208249E+01 -0.10464330648E+03 -0.22124906834E+03  0.24494493056E+03  0.41800000000E+01 0. -1.
</event>
<event>
11    1  0.7157190E-009  0.1327262E+03  0.7561462E-02  0.1115964E+00
         22   -1    0    0    0    0  0.00000000000E+00  0.00000000000E+00  0.10150956056E+03  0.10150956056E+03  0.00000000000E+00 0. -1.
         22   -1    0    0    0    0 -0.00000000000E+00 -0.00000000000E+00 -0.51444691284E+03  0.51444691284E+03  0.00000000000E+00 0. -1.
         24    2    1    2    0    0 -0.16667199100E+00  0.31465533008E+02 -0.32750711478E+03  0.33850890279E+03  0.79606906031E+02 0.  0.
         25    2    1    2    0    0  0.34148163800E+02  0.24300412114E+01 -0.12069835567E+03  0.17720286426E+03  0.12514295765E+03 0.  0.
        -24    2    1    2    0    0 -0.33981491809E+02 -0.33895574219E+02  0.35268118174E+02  0.10024470634E+03  0.80631936926E+02 0.  0.
        -13    1    3    3    0    0 -0.17483274304E+01  0.57627668148E+02 -0.19114418307E+03  0.19964995243E+03  0.00000000000E+00 0.  1.
         14    1    3    3    0    0  0.15816554394E+01 -0.26162135140E+02 -0.13636293171E+03  0.13885895036E+03  0.00000000000E+00 0. -1.
         13    1    5    5    0    0 -0.44662800393E+02 -0.35984565294E+02  0.53873804537E+02  0.78689525946E+02  0.00000000000E+00 0. -1.
        -14    1    5    5    0    0  0.10681308584E+02  0.20889910748E+01 -0.18605686363E+02  0.21555180394E+02  0.00000000000E+00 0.  1.
          5    1    4    4  501    0  0.71597664309E+01  0.62786714830E+02 -0.63414082369E+02  0.89622832232E+02  0.41800000000E+01 0. -1.
         -5    1    4    4    0  501  0.26988397369E+02 -0.60356673619E+02 -0.57284273304E+02  0.87580032033E+02  0.41800000000E+01 0. -1.
</event>
<event>
11    1  0.7157190E-009  0.1684029E+03  0.7561462E-02  0.1079430E+00
         22   -1    0    0    0    0  0.00000000000E+00  0.00000000000E+00  0.10185760365E+03  0.10185760365E+03  0.00000000000E+00 0.  1.
         22   -1    0    0    0    0 -0.00000000000E+00 -0.00000000000E+00 -0.19122324702E+04  0.19122324702E+04  0.00000000000E+00 0.  1.
         24    2    1    2    0    0 -0.11351054476E+03  0.63733575157E+01 -0.16914334478E+04  0.16972740629E+04  0.82866596638E+02 0.  0.
         25    2    1    2    0    0  0.10245480256E+03  0.13601068878E+02 -0.15696419790E+03  0.22575907502E+03  0.12508966741E+03 0.  0.
        -24    2    1    2    0    0  0.11055742204E+02 -0.19974426393E+02  0.38022779141E+02  0.91056935918E+02  0.79526264213E+02 0.  0.
        -13    1    3    3    0    0 -0.12502143685E+03  0.42238983135E+01 -0.16257079479E+04  0.16305135795E+04  0.00000000000E+00 0.  1.
         14    1    3    3    0    0  0.11510892091E+02  0.21494592022E+01 -0.65725499946E+02  0.66760483482E+02  0.00000000000E+00 0. -1.
         13    1    5    5    0    0 -0.47698510904E+01  0.28715802449E+02  0.24644011817E+02  0.38140216415E+02  0.00000000000E+00 0. -1.
        -14    1    5    5    0    0  0.15825593294E+02 -0.48690228843E+02  0.13378767324E+02  0.52916719503E+02  0.00000000000E+00 0.  1.
          5    1    4    4  501    0  0.60280177374E+02  0.40777125611E+02 -0.15947979663E+03  0.17535036837E+03  0.41800000000E+01 0.  1.
         -5    1    4    4    0  501  0.42174625184E+02 -0.27176056733E+02  0.25155987299E+01  0.50408706648E+02  0.41800000000E+01 0.  1.
</event>
<event>
11    1  0.7157190E-009  0.2015295E+03  0.7561462E-02  0.1053447E+00
         22   -1    0    0    0    0  0.00000000000E+00  0.00000000000E+00  0.25286166364E+03  0.25286166364E+03  0.00000000000E+00 0. -1.
         22   -1    0    0    0    0 -0.00000000000E+00 -0.00000000000E+00 -0.29163975245E+03  0.29163975245E+03  0.00000000000E+00 0. -1.
        -24    2    1    2    0    0  0.14968404766E+03  0.59502477567E+02 -0.10619629022E+03  0.21002234419E+03  0.82981166781E+02 0.  0.
         25    2    1    2    0    0 -0.12940626429E+03 -0.85145112144E+02 -0.27079627332E+02  0.20093937268E+03  0.12509058284E+03 0.  0.
         24    2    1    2    0    0 -0.20277783368E+02  0.25642634577E+02  0.94497828745E+02  0.13353969922E+03  0.88511459284E+02 0.  0.
        -11    1    5    5    0    0 -0.77691960266E+01  0.19269303656E+02 -0.13406140665E+02  0.24726323580E+02  0.00000000000E+00 0.  1.
         12    1    5    5    0    0 -0.12508587341E+02  0.63733309218E+01  0.10790396941E+03  0.10881337564E+03  0.00000000000E+00 0. -1.
         11    1    3    3    0    0  0.13455141565E+03  0.70767401684E+02 -0.11357376657E+03  0.18976593226E+03  0.00000000000E+00 0. -1.
        -12    1    3    3    0    0  0.15132632006E+02 -0.11264924117E+02  0.73774763455E+01  0.20256411923E+02  0.00000000000E+00 0.  1.
          5    1    4    4  501    0 -0.15016236394E+03 -0.68545130027E+02 -0.34886260908E+01  0.16515693539E+03  0.41800000000E+01 0. -1.
         -5    1    4    4    0  501  0.20756099648E+02 -0.16599982118E+02 -0.23591001242E+02  0.35782437291E+02  0.41800000000E+01 0. -1.
</event>
<event>
11    1  0.7157190E-009  0.1819967E+03  0.7561462E-02  0.1068039E+00
         22   -1    0    0    0    0  0.00000000000E+00  0.00000000000E+00  0.20818297361E+03  0.20818297361E+03  0.00000000000E+00 0.  1.
         22   -1    0    0    0    0 -0.00000000000E+00 -0.00000000000E+00 -0.25191769999E+03  0.25191769999E+03  0.00000000000E+00 0. -1.
        -24    2    1    2    0    0 -0.66919275597E+02  0.36791316199E+02 -0.79287880133E+01  0.11106721172E+03  0.80257519566E+02 0.  0.
         25    2    1    2    0    0  0.32327031067E+02  0.11446692046E+03 -0.23266958553E+02  0.17417528485E+03  0.12509182898E+03 0.  0.
         24    2    1    2    0    0  0.34592244530E+02 -0.15125823666E+03 -0.12538979809E+02  0.17485817702E+03  0.79639679287E+02 0.  0.
        -11    1    5    5    0    0  0.31438575563E+02 -0.12882871091E+03  0.21127302837E+02  0.13428173262E+03  0.00000000000E+00 0.  1.
         12    1    5    5    0    0  0.31536689669E+01 -0.22429525741E+02 -0.33666282646E+02  0.40576444400E+02  0.00000000000E+00 0. -1.
         13    1    3    3    0    0 -0.51411038816E+02 -0.65645438694E+01 -0.30128301736E+02  0.59949167750E+02  0.00000000000E+00 0. -1.
        -14    1    3    3    0    0 -0.15508236780E+02  0.43355860069E+02  0.22199513722E+02  0.51118043975E+02  0.00000000000E+00 0.  1.
          5    1    4    4  501    0  0.47666482061E+02 -0.85140538519E+01 -0.57576928713E+01  0.48940842374E+02  0.41800000000E+01 0.  1.
         -5    1    4    4    0  501 -0.15339450994E+02  0.12298097431E+03 -0.17509265682E+02  0.12523444248E+03  0.41800000000E+01 0.  1.
</event>
<event>
11    1  0.7157190E-009  0.1825318E+03  0.7561462E-02  0.1067613E+00
         22   -1    0    0    0    0  0.00000000000E+00  0.00000000000E+00  0.55148930482E+03  0.55148930482E+03  0.00000000000E+00 0. -1.
         22   -1    0    0    0    0 -0.00000000000E+00 -0.00000000000E+00 -0.17283433080E+03  0.17283433080E+03  0.00000000000E+00 0. -1.
        -24    2    1    2    0    0  0.41110395252E+02  0.13198635649E+03 -0.88381739158E+02  0.18190662053E+03  0.78538040958E+02 0.  0.
         25    2    1    2    0    0 -0.55385284508E+02 -0.94560483928E+02  0.19662013841E+03  0.25751890803E+03  0.12508914542E+03 0.  0.
         24    2    1    2    0    0  0.14274889255E+02 -0.37425872562E+02  0.27041657476E+03  0.28489810707E+03  0.80233030021E+02 0.  0.
        -11    1    5    5    0    0 -0.13712448069E+02 -0.48746159016E+02  0.10292404881E+03  0.11470649099E+03  0.00000000000E+00 0.  1.
         12    1    5    5    0    0  0.27987337324E+02  0.11320286454E+02  0.16749252595E+03  0.17019161609E+03  0.00000000000E+00 0. -1.
         13    1    3    3    0    0  0.12391953106E+02  0.55386829520E+02 -0.82169024523E+02  0.99864958705E+02  0.00000000000E+00 0. -1.
        -14    1    3    3    0    0  0.28718442147E+02  0.76599526970E+02 -0.62127146349E+01  0.82041661822E+02  0.00000000000E+00 0.  1.
          5    1    4    4  501    0 -0.15058683501E+02 -0.58080872120E+01 -0.16293464259E+02  0.23311954088E+02  0.41800000000E+01 0.  1.
         -5    1    4    4    0  501 -0.40326601006E+02 -0.88752396716E+02  0.21291360267E+03  0.23420695394E+03  0.41800000000E+01 0.  1.
</event>
<event>
11    1  0.7157190E-009  0.1334594E+03  0.7561462E-02  0.1115090E+00
         22   -1    0    0    0    0  0.00000000000E+00  0.00000000000E+00  0.42336683627E+03  0.42336683627E+03  0.00000000000E+00 0.  1.
         22   -1    0    0    0    0 -0.00000000000E+00 -0.00000000000E+00 -0.81622019526E+03  0.81622019526E+03  0.00000000000E+00 0.  1.
        -24    2    1    2    0    0  0.44137008891E+02 -0.48152917234E+01 -0.67818315288E+03  0.68429386341E+03  0.79714741812E+02 0.  0.
         25    2    1    2    0    0 -0.72587913554E+02  0.29666801853E+02 -0.87792848700E+02  0.17176642837E+03  0.12508795827E+03 0.  0.
         24    2    1    2    0    0  0.28450904662E+02 -0.24851510130E+02  0.37312264259E+03  0.38352673975E+03  0.80282016397E+02 0.  0.
        -13    1    5    5    0    0  0.55569222359E+02 -0.26481684500E+02  0.26000339693E+03  0.26719091396E+03  0.00000000000E+00 0.  1.
         14    1    5    5    0    0 -0.27118317697E+02  0.16301743702E+01  0.11311924566E+03  0.11633582579E+03  0.00000000000E+00 0. -1.
         11    1    3    3    0    0  0.26686141332E+02 -0.38616825930E+02 -0.24590208203E+03  0.25034225239E+03  0.00000000000E+00 0. -1.
        -12    1    3    3    0    0  0.17450867560E+02  0.33801534207E+02 -0.43228107085E+03  0.43395161102E+03  0.00000000000E+00 0.  1.
          5    1    4    4  501    0 -0.60702858084E+02 -0.28578407582E+02 -0.19317062467E+01  0.67251514842E+02  0.41800000000E+01 0.  1.
         -5    1    4    4    0  501 -0.11885055469E+02  0.58245209435E+02 -0.85861142453E+02  0.10451491352E+03  0.41800000000E+01 0.  1.
</event>
<event>
11    1  0.7157190E-009  0.1523613E+03  0.7561462E-02  0.1094490E+00
         22   -1    0    0    0    0  0.00000000000E+00  0.00000000000E+00  0.54044247687E+03  0.54044247687E+03  0.00000000000E+00 0.  1.
         22   -1    0    0    0    0 -0.00000000000E+00 -0.00000000000E+00 -0.49755250689E+03  0.49755250689E+03  0.00000000000E+00 0. -1.
         24    2    1    2    0    0  0.19396513813E+01  0.61913962703E+02 -0.28637256104E+03  0.30369257187E+03  0.79892637125E+02 0.  0.
         25    2    1    2    0    0  0.47230551548E+02 -0.13156882459E+03 -0.15048900188E+03  0.24048913463E+03  0.12508798338E+03 0.  0.
        -24    2    1    2    0    0 -0.49170202930E+02  0.69654861886E+02  0.47975153290E+03  0.49381327726E+03  0.80128090249E+02 0.  0.
        -11    1    3    3    0    0  0.71289808367E+01 -0.17776510459E+02 -0.34460163718E+02  0.39424986688E+02  0.00000000000E+00 0.  1.
         12    1    3    3    0    0 -0.51893294554E+01  0.79690473162E+02 -0.25191239732E+03  0.26426758518E+03  0.00000000000E+00 0. -1.
         11    1    5    5    0    0  0.12070356385E+02  0.49162315486E+02  0.16882692351E+03  0.17625310457E+03  0.00000000000E+00 0. -1.
        -12    1    5    5    0    0 -0.61240559315E+02  0.20492546400E+02  0.31092460938E+03  0.31756017270E+03  0.00000000000E+00 0.  1.
          5    1    4    4  501    0 -0.27621800652E+02  0.16124515166E+01 -0.50864850686E+02  0.58054020588E+02  0.41800000000E+01 0. -1.
         -5    1    4    4    0  501  0.74852352200E+02 -0.13318127611E+03 -0.99624151193E+02  0.18243511404E+03  0.41800000000E+01 0. -1.
</event>
<event>
11    1  0.7157190E-009  0.1326281E+03  0.7561462E-02  0.1116081E+00
         22   -1    0    0    0    0  0.00000000000E+00  0.00000000000E+00  0.24044414470E+04  0.24044414470E+04  0.00000000000E+00 0.  1.
         22   -1    0    0    0    0 -0.00000000000E+00 -0.00000000000E+00 -0.17581156848E+03  0.17581156848E+03  0.00000000000E+00 0.  1.
        -24    2    1    2    0    0 -0.57726925045E+01 -0.45432927114E+02 -0.10706994126E+03  0.13897596055E+03  0.75847679227E+02 0.  0.
         25    2    1    2    0    0  0.42744936519E+02  0.20813898318E+02  0.34464793701E+02  0.13818992932E+03  0.12509311171E+03 0.  0.
         24    2    1    2    0    0 -0.36972244015E+02  0.24619028796E+02  0.23012350260E+04  0.23030871256E+04  0.80960604958E+02 0.  0.
        -11    1    5    5    0    0 -0.51273415177E+02  0.15148544623E+02  0.21788598034E+04  0.21795156536E+04  0.00000000000E+00 0.  1.
         12    1    5    5    0    0  0.14301171163E+02  0.94704841731E+01  0.12237522266E+03  0.12357147198E+03  0.00000000000E+00 0. -1.
         13    1    3    3    0    0 -0.58881851545E+01 -0.18475976877E+02  0.78621761656E+01  0.20924776224E+02  0.00000000000E+00 0. -1.
        -14    1    3    3    0    0  0.11549264997E+00 -0.26956950237E+02 -0.11493211742E+03  0.11805118432E+03  0.00000000000E+00 0.  1.
          5    1    4    4  501    0 -0.22071923667E+02 -0.16700711951E+02  0.53874265956E+02  0.60712375396E+02  0.41800000000E+01 0. -1.
         -5    1    4    4    0  501  0.64816860186E+02  0.37514610269E+02 -0.19409472255E+02  0.77477553919E+02  0.41800000000E+01 0. -1.
</event>
<event>
11    1  0.7157190E-009  0.1813737E+03  0.7561462E-02  0.1068537E+00
         22   -1    0    0    0    0  0.00000000000E+00  0.00000000000E+00  0.11510259264E+04  0.11510259264E+04  0.00000000000E+00 0. -1.
         22   -1    0    0    0    0 -0.00000000000E+00 -0.00000000000E+00 -0.60283209888E+03  0.60283209888E+03  0.00000000000E+00 0. -1.
        -24    2    1    2    0    0 -0.26934700720E+02 -0.42248054959E+02 -0.55149618119E+03  0.55964735097E+03  0.80911948020E+02 0.  0.
         25    2    1    2    0    0 -0.17963244731E+02  0.16125312910E+03  0.21558029927E+03  0.29740045079E+03  0.12508762085E+03 0.  0.
         24    2    1    2    0    0  0.44897945450E+02 -0.11900507414E+03  0.88410970944E+03  0.89681022352E+03  0.80253134026E+02 0.  0.
        -11    1    5    5    0    0  0.19681813249E+02  0.24814878224E+01  0.24273752990E+03  0.24354679217E+03  0.00000000000E+00 0.  1.
         12    1    5    5    0    0  0.25216132201E+02 -0.12148656196E+03  0.64137217953E+03  0.65326343135E+03  0.00000000000E+00 0. -1.
         13    1    3    3    0    0 -0.77860936008E+01 -0.14842045183E+02 -0.48433398375E+03  0.48462389270E+03  0.00000000000E+00 0. -1.
        -14    1    3    3    0    0 -0.19148607119E+02 -0.27406009776E+02 -0.67162197439E+02  0.75023458274E+02  0.00000000000E+00 0.  1.
          5    1    4    4  501    0 -0.44693018037E+02  0.16086369968E+03  0.14273975752E+03  0.21969685139E+03  0.41800000000E+01 0.  1.
         -5    1    4    4    0  501  0.26729773306E+02  0.38942942318E+00  0.72840541754E+02  0.77703599397E+02  0.41800000000E+01 0.  1.
</event>
<event>
11    1  0.7157190E-009  0.1337183E+03  0.7561462E-02  0.1114783E+00
         22   -1    0    0    0    0  0.00000000000E+00  0.00000000000E+00  0.14295832214E+04  0.14295832214E+04  0.00000000000E+00 0.  1.
         22   -1    0    0    0    0 -0.00000000000E+00 -0.00000000000E+00 -0.35213077470E+03  0.35213077470E+03  0.00000000000E+00 0. -1.
         24    2    1    2    0    0 -0.28537547613E+02  0.26217552517E+02 -0.32979740176E+03  0.34174645566E+03  0.80762380244E+02 0.  0.
         25    2    1    2    0    0  0.49411840265E+02  0.17485760704E+02  0.30614559318E+03  0.33484292982E+03  0.12508949454E+03 0.  0.
        -24    2    1    2    0    0 -0.20874292652E+02 -0.43703313220E+02  0.11011042552E+04  0.11051246106E+04  0.80771952579E+02 0.  0.
        -11    1    3    3    0    0 -0.25243702208E+02 -0.22305668503E+02 -0.20603934651E+03  0.20877499768E+03  0.00000000000E+00 0.  1.
         12    1    3    3    0    0 -0.32938454048E+01  0.48523221019E+02 -0.12375805525E+03  0.13297145797E+03  0.00000000000E+00 0. -1.
         13    1    5    5    0    0 -0.26242847271E+02 -0.45623189517E+02  0.34436810921E+03  0.34836698623E+03  0.00000000000E+00 0. -1.
        -14    1    5    5    0    0  0.53685546198E+01  0.19198762965E+01  0.75673614602E+03  0.75675762434E+03  0.00000000000E+00 0.  1.
          5    1    4    4  501    0 -0.24219278871E+02  0.43798007956E+02  0.70734015683E+02  0.86750287288E+02  0.41800000000E+01 0. -1.
         -5    1    4    4    0  501  0.73631119135E+02 -0.26312247253E+02  0.23541157749E+03  0.24809264253E+03  0.41800000000E+01 0. -1.
</event>
<event>
11    1  0.7157190E-009  0.2182175E+03  0.7561462E-02  0.1042340E+00
         22   -1    0    0    0    0  0.00000000000E+00  0.00000000000E+00  0.23018431278E+04  0.23018431278E+04  0.00000000000E+00 0. -1.
         22   -1    0    0    0    0 -0.00000000000E+00 -0.00000000000E+00 -0.12313033943E+04  0.12313033943E+04  0.00000000000E+00 0. -1.
         24    2    1    2    0    0  0.16765760054E+03  0.61791504928E+02 -0.12046317167E+04  0.12204280001E+04  0.79872831728E+02 0.  0.
         25    2    1    2    0    0 -0.19013492999E+03 -0.35308986478E+02  0.73845727685E+03  0.77354027432E+03  0.12508952849E+03 0.  0.
        -24    2    1    2    0    0  0.22477329453E+02 -0.26482518450E+02  0.15367141734E+04  0.15391782477E+04  0.79829026074E+02 0.  0.
        -13    1    3    3    0    0  0.21440261241E+02  0.21867656661E+02 -0.80580811222E+02  0.86204097044E+02  0.00000000000E+00 0.  1.
         14    1    3    3    0    0  0.14621733930E+03  0.39923848267E+02 -0.11240509055E+04  0.11342239030E+04  0.00000000000E+00 0. -1.
         13    1    5    5    0    0  0.47311513073E+02 -0.25603126665E+02  0.13104284466E+04  0.13115321624E+04  0.00000000000E+00 0. -1.
        -14    1    5    5    0    0 -0.24834183621E+02 -0.87939178472E+00  0.22628572683E+03  0.22764608535E+03  0.00000000000E+00 0.  1.
          5    1    4    4  501    0 -0.45792597002E+02  0.12661956526E+02  0.52587609491E+02  0.70994479752E+02  0.41800000000E+01 0.  1.
         -5    1    4    4    0  501 -0.14434233299E+03 -0.47970943003E+02  0.68586966736E+03  0.70254579457E+03  0.41800000000E+01 0.  1.
</event>
<event>
11    1  0.7157190E-009  0.2371335E+03  0.7561462E-02  0.1030986E+00
         22   -1    0    0    0    0  0.00000000000E+00  0.00000000000E+00  0.13194353424E+04  0.13194353424E+04  0.00000000000E+00 0.  1.
         22   -1    0    0    0    0 -0.00000000000E+00 -0.00000000000E+00 -0.50730972399E+03  0.50730972399E+03  0.00000000000E+00 0. -1.
         24    2    1    2    0    0  0.98778961839E+01  0.19139993658E+02 -0.46027032503E+03  0.46771066507E+03  0.80253236237E+02 0.  0.
         25    2    1    2    0    0 -0.18885257527E+03 -0.98795484100E+02  0.49519328393E+03  0.55343417671E+03  0.12508859514E+03 0.  0.
        -24    2    1    2    0    0  0.17897467909E+03  0.79655490441E+02  0.77720265946E+03  0.80560022456E+03  0.81060563972E+02 0.  0.
        -11    1    3    3    0    0 -0.35060380214E+02  0.64553397590E+01 -0.23088029740E+03  0.23361638085E+03  0.00000000000E+00 0.  1.
         12    1    3    3    0    0  0.44938276398E+02  0.12684653899E+02 -0.22939002763E+03  0.23409428423E+03  0.00000000000E+00 0. -1.
         11    1    5    5    0    0 -0.17088817730E+01 -0.98220635483E+01  0.27236698583E+02  0.29003981778E+02  0.00000000000E+00 0. -1.
        -12    1    5    5    0    0  0.18068356086E+03  0.89477553990E+02  0.74996596088E+03  0.77659624278E+03  0.00000000000E+00 0.  1.
          5    1    4    4  501    0 -0.88222272735E+02 -0.98457950674E+02  0.36891581052E+03  0.39191004722E+03  0.41800000000E+01 0. -1.
         -5    1    4    4    0  501 -0.10063030254E+03 -0.33753342616E+00  0.12627747341E+03  0.16152412950E+03  0.41800000000E+01 0. -1.
</event>
<event>
11    1  0.7157190E-009  0.1366593E+03  0.7561462E-02  0.1111347E+00
         22   -1    0    0    0    0  0.00000000000E+00  0.00000000000E+00  0.59878728736E+03  0.59878728736E+03  0.00000000000E+00 0. -1.
         22   -1    0    0    0    0 -0.00000000000E+00 -0.00000000000E+00 -0.60057644895E+03  0.60057644895E+03  0.00000000000E+00 0. -1.
        -24    2    1    2    0    0 -0.25445431245E+01  0.40417392950E+02 -0.45576970227E+03  0.46461923140E+03  0.80653383880E+02 0.  0.
         25    2    1    2    0    0 -0.27488240875E+02 -0.85356606581E+02 -0.92681212413E+02  0.17966534220E+03  0.12509386228E+03 0.  0.
         24    2    1    2    0    0  0.30032783999E+02  0.44939213631E+02  0.54666175308E+03  0.55507916271E+03  0.79701339728E+02 0.  0.
        -13    1    5    5    0    0  0.67045122347E+00 -0.13531663363E+02  0.18774214196E+02  0.23152246908E+02  0.00000000000E+00 0.  1.
         14    1    5    5    0    0  0.29362332776E+02  0.58470876994E+02  0.52788753889E+03  0.53192691580E+03  0.00000000000E+00 0. -1.
         11    1    3    3    0    0 -0.31686867318E+02  0.37759899474E+02 -0.38341778827E+03  0.38657349616E+03  0.00000000000E+00 0. -1.
        -12    1    3    3    0    0  0.29142324193E+02  0.26574934761E+01 -0.72351913994E+02  0.78045735242E+02  0.00000000000E+00 0.  1.
          5    1    4    4  501    0  0.35307003133E+02 -0.52357338648E+02 -0.88074861943E+02  0.10845519391E+03  0.41800000000E+01 0.  1.
         -5    1    4    4    0  501 -0.62795244008E+02 -0.32999267934E+02 -0.46063504697E+01  0.71210148285E+02  0.41800000000E+01 0.  1.
</event>
<event>
11    1  0.7157190E-009  0.1393098E+03  0.7561462E-02  0.1108332E+00
         22   -1    0    0    0    0  0.00000000000E+00  0.00000000000E+00  0.23243973047E+04  0.23243973047E+04  0.00000000000E+00 0.  1.
         22   -1    0    0    0    0 -0.00000000000E+00 -0.00000000000E+00 -0.12025679441E+04  0.12025679441E+04  0.00000000000E+00 0.  1.
         24    2    1    2    0    0  0.29221891808E+01  0.17337301714E+02 -0.11103999702E+04  0.11128655366E+04  0.71920008848E+02 0.  0.
         25    2    1    2    0    0 -0.47999944033E+02  0.24403906336E+02 -0.38206753426E+02  0.14144464236E+03  0.12508911054E+03 0.  0.
        -24    2    1    2    0    0  0.45077754852E+02 -0.41741208050E+02  0.22704360842E+04  0.22726550698E+04  0.79414867902E+02 0.  0.
        -13    1    3    3    0    0  0.30688094081E+02 -0.10866048382E+02 -0.62875410180E+03  0.62959633945E+03  0.00000000000E+00 0.  1.
         14    1    3    3    0    0 -0.27765904900E+02  0.28203350097E+02 -0.48164586838E+03  0.48326919719E+03  0.00000000000E+00 0. -1.
         11    1    5    5    0    0 -0.22057402693E+02 -0.41697510205E+01  0.66136196132E+03  0.66174281992E+03  0.00000000000E+00 0. -1.
        -12    1    5    5    0    0  0.67135157544E+02 -0.37571457029E+02  0.16090741229E+04  0.16109122499E+04  0.00000000000E+00 0.  1.
          5    1    4    4  501    0 -0.30773821790E+02 -0.20205998526E+02 -0.73198834729E+02  0.82041771615E+02  0.41800000000E+01 0.  1.
         -5    1    4    4    0  501 -0.17226122243E+02  0.44609904861E+02  0.34992081303E+02  0.59402870749E+02  0.41800000000E+01 0.  1.
</event>
<event>
11    1  0.1670827E-008  0.1584947E+03  0.7561462E-02  0.1088502E+00
         22   -1    0    0    0    0  0.00000000000E+00  0.00000000000E+00  0.97661217894E+03  0.97661217894E+03  0.00000000000E+00 0. -1.
         22   -1    0    0    0    0 -0.00000000000E+00 -0.00000000000E+00 -0.15041720427E+04  0.15041720427E+04  0.00000000000E+00 0. -1.
        -24    2    1    2    0    0 -0.52207174745E+02 -0.82678170626E+02 -0.12351097890E+04  0.12411195315E+04  0.72939917081E+02 0.  0.
         25    2    1    2    0    0  0.12153756937E+03  0.13890503235E+02 -0.23257475029E+03  0.29103459122E+03  0.12508314021E+03 0.  0.
         24    2    1    2    0    0 -0.69330394625E+02  0.68787667391E+02  0.94012467552E+03  0.94863009898E+03  0.80784976073E+02 0.  0.
        -11    1    5    5    0    0 -0.14322764137E+02 -0.12986043304E+02  0.60800933148E+02  0.63800723858E+02  0.00000000000E+00 0.  1.
         12    1    5    5    0    0 -0.55007630488E+02  0.81773710695E+02  0.87932374237E+03  0.88482937512E+03  0.00000000000E+00 0. -1.
         11    1    3    3    0    0 -0.37725354404E+02 -0.74196340723E+02 -0.11913123123E+04  0.11942166155E+04  0.00000000000E+00 0. -1.
        -12    1    3    3    0    0 -0.14481820340E+02 -0.84818299030E+01 -0.43797476693E+02  0.46902915939E+02  0.00000000000E+00 0.  1.
          5    1    4    4  501    0  0.70495015134E+02 -0.42938140533E+02 -0.18041421549E+03  0.19844392816E+03  0.41800000000E+01 0. -1.
         -5    1    4    4    0  501  0.51042554236E+02  0.56828643768E+02 -0.52160534799E+02  0.92590663061E+02  0.41800000000E+01 0. -1.
</event>
<event>
11    1  0.7157190E-009  0.1318319E+03  0.7561462E-02  0.1117038E+00
         22   -1    0    0    0    0  0.00000000000E+00  0.00000000000E+00  0.22781771693E+04  0.22781771693E+04  0.00000000000E+00 0. -1.
         22   -1    0    0    0    0 -0.00000000000E+00 -0.00000000000E+00 -0.33444176993E+03  0.33444176993E+03  0.00000000000E+00 0.  1.
        -24    2    1    2    0    0 -0.10290881739E+01 -0.41892794335E+02 -0.28064185425E+03  0.29503420853E+03  0.80803889816E+02 0.  0.
         25    2    1    2    0    0  0.23241631688E+02  0.36839841449E+02  0.49989568672E+02  0.14157591886E+03  0.12508971366E+03 0.  0.
         24    2    1    2    0    0 -0.22212543515E+02  0.50529528860E+01  0.21743876850E+04  0.21760088119E+04  0.80830782155E+02 0.  0.
        -11    1    5    5    0    0 -0.41469888535E+01  0.18100515471E+02  0.11414503988E+03  0.11564564975E+03  0.00000000000E+00 0.  1.
         12    1    5    5    0    0 -0.18065554661E+02 -0.13047562585E+02  0.20602426451E+04  0.20603631621E+04  0.00000000000E+00 0. -1.
         13    1    3    3    0    0  0.80517999905E+00 -0.27615539715E+02 -0.20272356060E+02  0.34267109140E+02  0.00000000000E+00 0. -1.
        -14    1    3    3    0    0 -0.18342681730E+01 -0.14277254620E+02 -0.26036949819E+03  0.26076709939E+03  0.00000000000E+00 0.  1.
          5    1    4    4  501    0 -0.42219222854E+02  0.37955395446E+02  0.50310214452E+02  0.75971474252E+02  0.41800000000E+01 0.  1.
         -5    1    4    4    0  501  0.65460854543E+02 -0.11155539968E+01 -0.32064577946E+00  0.65604444605E+02  0.41800000000E+01 0.  1.
</event>
<event>
11    1  0.8753466E-009  0.1612931E+03  0.7561462E-02  0.1085867E+00
         22   -1    0    0    0    0  0.00000000000E+00  0.00000000000E+00  0.52442700784E+03  0.52442700784E+03  0.00000000000E+00 0.  1.
         22   -1    0    0    0    0 -0.00000000000E+00 -0.00000000000E+00 -0.53048815594E+03  0.53048815594E+03  0.00000000000E+00 0. -1.
         24    2    1    2    0    0  0.81915161490E+02 -0.30622699110E+02 -0.31602437338E+03  0.33701014107E+03  0.77824078748E+02 0.  0.
         25    2    1    2    0    0  0.74556461216E+01  0.85133375206E+02 -0.16315667640E+03  0.22264589311E+03  0.12509122445E+03 0.  0.
        -24    2    1    2    0    0 -0.89370807611E+02 -0.54510676096E+02  0.47311990167E+03  0.49525912960E+03  0.10237484574E+03 0.  0.
        -13    1    3    3    0    0 -0.15246482706E+02 -0.64276971686E+01 -0.55207088308E+02  0.57633264052E+02  0.00000000000E+00 0.  1.
         14    1    3    3    0    0  0.97161644196E+02 -0.24195001941E+02 -0.26081728507E+03  0.27937687702E+03  0.00000000000E+00 0. -1.
         13    1    5    5    0    0 -0.28628361351E+02  0.28809707846E+02  0.94681826008E+02  0.10302538773E+03  0.00000000000E+00 0. -1.
        -14    1    5    5    0    0 -0.60742446260E+02 -0.83320383942E+02  0.37843807566E+03  0.39223374188E+03  0.00000000000E+00 0.  1.
          5    1    4    4  501    0 -0.57111201115E+02  0.37991509922E+02 -0.96530962355E+02  0.11849364207E+03  0.41800000000E+01 0.  1.
         -5    1    4    4    0  501  0.64566847236E+02  0.47141865284E+02 -0.66625714040E+02  0.10415225104E+03  0.41800000000E+01 0.  1.
</event>
<event>
11    1  0.7157190E-009  0.1307923E+03  0.7561462E-02  0.1118299E+00
         22   -1    0    0    0    0  0.00000000000E+00  0.00000000000E+00  0.18318300487E+03  0.18318300487E+03  0.00000000000E+00 0.  1.
         22   -1    0    0    0    0 -0.00000000000E+00 -0.00000000000E+00 -0.12954582010E+04  0.12954582010E+04  0.00000000000E+00 0. -1.
         24    2    1    2    0    0  0.22803890777E+02 -0.31228273826E+02 -0.11357671821E+04  0.11389093077E+04  0.75180427391E+02 0.  0.
         25    2    1    2    0    0 -0.11073879342E+02  0.28906122591E+02 -0.12155508499E+03  0.17714739132E+03  0.12508942736E+03 0.  0.
        -24    2    1    2    0    0 -0.11730011434E+02  0.23221512350E+01  0.14504707101E+03  0.16258450682E+03  0.72471259791E+02 0.  0.
        -11    1    3    3    0    0  0.13353338724E+02 -0.30050065101E+02 -0.17313951079E+03  0.17623452631E+03  0.00000000000E+00 0.  1.
         12    1    3    3    0    0  0.94505520528E+01 -0.11782087255E+01 -0.96262767134E+03  0.96267478139E+03  0.00000000000E+00 0. -1.
         11    1    5    5    0    0 -0.26372028379E+01  0.34634234769E+02  0.43697120514E+02  0.55820456806E+02  0.00000000000E+00 0. -1.
        -12    1    5    5    0    0 -0.90928085965E+01 -0.32312083534E+02  0.10134995049E+03  0.10676405001E+03  0.00000000000E+00 0.  1.
          5    1    4    4  501    0 -0.54514037677E+02  0.55115312834E+02 -0.67221405260E+02  0.10269210163E+03  0.41800000000E+01 0. -1.
         -5    1    4    4    0  501  0.43440158335E+02 -0.26209190242E+02 -0.54333679735E+02  0.74455289690E+02  0.41800000000E+01 0. -1.
</event>
<event>
11    1  0.7157190E-009  0.1575404E+03  0.7561462E-02  0.1089414E+00
         22   -1    0    0    0    0  0.00000000000E+00  0.00000000000E+00  0.75425760575E+02  0.75425760575E+02  0.00000000000E+00 0.  1.
         22   -1    0    0    0    0 -0.00000000000E+00 -0.00000000000E+00 -0.56716406804E+03  0.56716406804E+03  0.00000000000E+00 0. -1.
         24    2    1    2    0    0  0.32571235639E+02 -0.79611832187E+02 -0.13485049485E+03  0.17918479659E+03  0.80768843933E+02 0.  0.
         25    2    1    2    0    0  0.60251285399E+02  0.99685795462E+02 -0.21151200385E+03  0.27194302040E+03  0.12509277901E+03 0.  0.
        -24    2    1    2    0    0 -0.92822521038E+02 -0.20073963275E+02 -0.14537580876E+03  0.19146201163E+03  0.80651049040E+02 0.  0.
        -11    1    3    3    0    0  0.30342729638E+02  0.60998968297E+01 -0.24701045343E+02  0.39598379061E+02  0.00000000000E+00 0.  1.
         12    1    3    3    0    0  0.22285060005E+01 -0.85711729017E+02 -0.11014944951E+03  0.13958641752E+03  0.00000000000E+00 0. -1.
         11    1    5    5    0    0 -0.24237371085E+02  0.23467811566E+02 -0.81209554101E+02  0.87938501318E+02  0.00000000000E+00 0. -1.
        -12    1    5    5    0    0 -0.68585149952E+02 -0.43541774841E+02 -0.64166254661E+02  0.10352351031E+03  0.00000000000E+00 0.  1.
          5    1    4    4  501    0  0.42091845808E+02  0.50893171149E+02 -0.13998878094E+02  0.67640811209E+02  0.41800000000E+01 0. -1.
         -5    1    4    4    0  501  0.18159439591E+02  0.48792624313E+02 -0.19751312575E+03  0.20430220919E+03  0.41800000000E+01 0. -1.
</event>
<event>
11    1  0.7157190E-009  0.1359445E+03  0.7561462E-02  0.1112173E+00
         22   -1    0    0    0    0  0.00000000000E+00  0.00000000000E+00  0.27420623104E+03  0.27420623104E+03  0.00000000000E+00 0. -1.
         22   -1    0    0    0    0 -0.00000000000E+00 -0.00000000000E+00 -0.24171732053E+04  0.24171732053E+04  0.00000000000E+00 0.  1.
        -24    2    1    2    0    0 -0.58493048340E+02  0.28236600757E+01 -0.22927258162E+04  0.22946289213E+04  0.72806652610E+02 0.  0.
         25    2    1    2    0    0  0.33025949672E+02 -0.51584254595E+02 -0.71036419203E+02  0.15635078840E+03  0.12509095694E+03 0.  0.
         24    2    1    2    0    0  0.25467098668E+02  0.48760594519E+02  0.22079526106E+03  0.24039972666E+03  0.77558446212E+02 0.  0.
        -13    1    5    5    0    0  0.11640863302E+02 -0.78474809976E+01  0.22487810406E+01  0.14217934892E+02  0.00000000000E+00 0.  1.
         14    1    5    5    0    0  0.13826235366E+02  0.56608075517E+02  0.21854648002E+03  0.22618179177E+03  0.00000000000E+00 0. -1.
         13    1    3    3    0    0 -0.57782823040E+02 -0.20416435583E+01 -0.88133065379E+03  0.88322519453E+03  0.00000000000E+00 0. -1.
        -14    1    3    3    0    0 -0.71022529951E+00  0.48653036340E+01 -0.14113951624E+04  0.14114037268E+04  0.00000000000E+00 0.  1.
          5    1    4    4  501    0  0.72619230290E+02 -0.52853935701E+02 -0.73939761820E+02  0.11641156259E+03  0.41800000000E+01 0.  1.
         -5    1    4    4    0  501 -0.39593280618E+02  0.12696811059E+01  0.29033426167E+01  0.39939225813E+02  0.41800000000E+01 0.  1.
</event>
<event>
11    1  0.7157190E-009  0.1460971E+03  0.7561462E-02  0.1100935E+00
         22   -1    0    0    0    0  0.00000000000E+00  0.00000000000E+00  0.12215740102E+04  0.12215740102E+04  0.00000000000E+00 0. -1.
         22   -1    0    0    0    0 -0.00000000000E+00 -0.00000000000E+00 -0.13196156741E+03  0.13196156741E+03  0.00000000000E+00 0.  1.
         24    2    1    2    0    0 -0.34665206526E+02  0.11278486880E+02 -0.41130863611E+02  0.98320205757E+02  0.81524438722E+02 0.  0.
         25    2    1    2    0    0  0.17127493367E+02  0.62996259434E+02  0.24269649278E+02  0.14317023401E+03  0.12508725074E+03 0.  0.
        -24    2    1    2    0    0  0.17537713158E+02 -0.74274746314E+02  0.11064736571E+04  0.11120451379E+04  0.80846307038E+02 0.  0.
        -13    1    3    3    0    0  0.22776900386E+02 -0.13676475995E+02 -0.14475450902E+02  0.30255113050E+02  0.00000000000E+00 0.  1.
         14    1    3    3    0    0 -0.57442106912E+02  0.24954962875E+02 -0.26655412709E+02  0.68065092707E+02  0.00000000000E+00 0. -1.
         13    1    5    5    0    0  0.57788056517E+01 -0.88337252853E+02  0.10079978506E+04  0.10118777257E+04  0.00000000000E+00 0. -1.
        -14    1    5    5    0    0  0.11758907507E+02  0.14062506539E+02  0.98475806520E+02  0.10016741219E+03  0.00000000000E+00 0.  1.
          5    1    4    4  501    0 -0.23490910393E+02 -0.28204496549E+02 -0.86879839408E+01  0.37950888812E+02  0.41800000000E+01 0.  1.
         -5    1    4    4    0  501  0.40618403760E+02  0.91200755983E+02  0.32957633218E+02  0.10521934520E+03  0.41800000000E+01 0.  1.
</event>
<event>
11    1  0.7157190E-009  0.1733951E+03  0.7561462E-02  0.1075114E+00
         22   -1    0    0    0    0  0.00000000000E+00  0.00000000000E+00  0.84421219383E+03  0.84421219383E+03  0.00000000000E+00 0. -1.
         22   -1    0    0    0    0 -0.00000000000E+00 -0.00000000000E+00 -0.23017822793E+03  0.23017822793E+03  0.00000000000E+00 0.  1.
        -24    2    1    2    0    0  0.79800414510E+02 -0.82744662540E+02 -0.14339261091E+03  0.20053257609E+03  0.80231464363E+02 0.  0.
         25    2    1    2    0    0 -0.16450530420E+03 -0.93229155067E+00  0.16575027293E+03  0.26492159093E+03  0.12508969616E+03 0.  0.
         24    2    1    2    0    0  0.84704889691E+02  0.83676954091E+02  0.59167630387E+03  0.60893625474E+03  0.80905888450E+02 0.  0.
        -11    1    5    5    0    0  0.19509664492E+02  0.50823160703E+02  0.12166821112E+03  0.13329206379E+03  0.00000000000E+00 0.  1.
         12    1    5    5    0    0  0.65195225199E+02  0.32853793388E+02  0.47000809275E+03  0.47564419094E+03  0.00000000000E+00 0. -1.
         13    1    3    3    0    0  0.27673553591E+02 -0.81033009629E+02 -0.10646963204E+03  0.13663073141E+03  0.00000000000E+00 0. -1.
        -14    1    3    3    0    0  0.52126860920E+02 -0.17116529111E+01 -0.36922978869E+02  0.63901844681E+02  0.00000000000E+00 0.  1.
          5    1    4    4  501    0  0.34369689531E+01 -0.29746962053E+02  0.51519249114E+02  0.59736085712E+02  0.41800000000E+01 0. -1.
         -5    1    4    4    0  501 -0.16794227315E+03  0.28814670502E+02  0.11423102382E+03  0.20518550522E+03  0.41800000000E+01 0. -1.
</event>
<event>
11    1  0.7157190E-009  0.1821904E+03  0.7561462E-02  0.1067885E+00
         22   -1    0    0    0    0  0.00000000000E+00  0.00000000000E+00  0.59076593956E+03  0.59076593956E+03  0.00000000000E+00 0.  1.
         22   -1    0    0    0    0 -0.00000000000E+00 -0.00000000000E+00 -0.52210541773E+03  0.52210541773E+03  0.00000000000E+00 0.  1.
         24    2    1    2    0    0 -0.37671290983E+02 -0.13136497849E+03 -0.46829909570E+03  0.49419657017E+03  0.79058985551E+02 0.  0.
         25    2    1    2    0    0  0.50189805258E+02  0.61463433351E+02  0.15317180073E+03  0.21308300532E+03  0.12508395750E+03 0.  0.
        -24    2    1    2    0    0 -0.12518514274E+02  0.69901545138E+02  0.38378781680E+03  0.40559178181E+03  0.11031167633E+03 0.  0.
        -13    1    3    3    0    0  0.58366359005E+01 -0.96509601608E+02 -0.35491141811E+03  0.36784546242E+03  0.00000000000E+00 0.  1.
         14    1    3    3    0    0 -0.43507926884E+02 -0.34855376882E+02 -0.11338767759E+03  0.12635110774E+03  0.00000000000E+00 0. -1.
         13    1    5    5    0    0 -0.13828772125E+02  0.64395176457E+02  0.88850268473E+02  0.11059992720E+03  0.00000000000E+00 0. -1.
        -14    1    5    5    0    0  0.13102578505E+01  0.55063686812E+01  0.29493754832E+03  0.29499185460E+03  0.00000000000E+00 0.  1.
          5    1    4    4  501    0  0.56130601072E+01  0.81692024235E+02  0.43289824062E+02  0.92717714245E+02  0.41800000000E+01 0. -1.
         -5    1    4    4    0  501  0.44576745151E+02 -0.20228590884E+02  0.10988197667E+03  0.12036529107E+03  0.41800000000E+01 0. -1.
</event>
<event>
11    1  0.7157190E-009  0.2362348E+03  0.7561462E-02  0.1031499E+00
         22   -1    0    0    0    0  0.00000000000E+00  0.00000000000E+00  0.23618845817E+04  0.23618845817E+04  0.00000000000E+00 0.  1.
         22   -1    0    0    0    0 -0.00000000000E+00 -0.00000000000E+00 -0.14462216039E+03  0.14462216039E+03  0.00000000000E+00 0.  1.
         24    2    1    2    0    0 -0.85939531420E+02  0.67823732861E+01 -0.69934081236E+02  0.13609781128E+03  0.78741570149E+02 0.  0.
         25    2    1    2    0    0  0.15329892103E+03  0.17791792963E+03  0.46405883883E+03  0.53493242044E+03  0.12508692845E+03 0.  0.
        -24    2    1    2    0    0 -0.67359389614E+02 -0.18470030291E+03  0.18231376637E+04  0.18354765104E+04  0.80570403978E+02 0.  0.
        -13    1    3    3    0    0 -0.35624113046E+02  0.40205824333E+02 -0.18663457806E+02  0.56867481023E+02  0.00000000000E+00 0.  1.
         14    1    3    3    0    0 -0.50315418373E+02 -0.33423451047E+02 -0.51270623431E+02  0.79230330259E+02  0.00000000000E+00 0. -1.
         11    1    5    5    0    0 -0.53529963920E+02 -0.40148430996E+02  0.62471597356E+03  0.62828926552E+03  0.00000000000E+00 0. -1.
        -12    1    5    5    0    0 -0.13829425694E+02 -0.14455187192E+03  0.11984216902E+04  0.12071872448E+04  0.00000000000E+00 0.  1.
          5    1    4    4  501    0  0.12140359976E+03  0.11876247542E+03  0.42355092228E+03  0.45635097871E+03  0.41800000000E+01 0. -1.
         -5    1    4    4    0  501  0.31895321271E+02  0.59155454201E+02  0.40507916541E+02  0.78581441723E+02  0.41800000000E+01 0. -1.
</event>
<event>
11    1  0.7157190E-009  0.1305265E+03  0.7561462E-02  0.1118624E+00
         22   -1    0    0    0    0  0.00000000000E+00  0.00000000000E+00  0.59763431240E+03  0.59763431240E+03  0.00000000000E+00 0. -1.
         22   -1    0    0    0    0 -0.00000000000E+00 -0.00000000000E+00 -0.61032732578E+03  0.61032732578E+03  0.00000000000E+00 0. -1.
         24    2    1    2    0    0 -0.28747328549E+02 -0.75068941709E+01 -0.55416931664E+03  0.55939457159E+03  0.70255909848E+02 0.  0.
         25    2    1    2    0    0  0.47076346688E+02  0.38070870715E+02  0.48037924171E+02  0.14704074844E+03  0.12509103057E+03 0.  0.
        -24    2    1    2    0    0 -0.18329018139E+02 -0.30563976544E+02  0.49343837909E+03  0.50152631814E+03  0.82323169637E+02 0.  0.
        -11    1    3    3    0    0  0.52354175659E+01  0.28648747885E+01 -0.23206903582E+01  0.64033357230E+01  0.00000000000E+00 0.  1.
         12    1    3    3    0    0 -0.33982746115E+02 -0.10371768959E+02 -0.55184862628E+03  0.55299123587E+03  0.00000000000E+00 0. -1.
         13    1    5    5    0    0  0.25089511123E+02 -0.32713626648E+01  0.31068681540E+03  0.31171538725E+03  0.00000000000E+00 0. -1.
        -14    1    5    5    0    0 -0.43418529262E+02 -0.27292613879E+02  0.18275156369E+03  0.18981093089E+03  0.00000000000E+00 0.  1.
          5    1    4    4  501    0 -0.35780313590E+02  0.30107114268E+02  0.42805816131E+02  0.63533294144E+02  0.41800000000E+01 0. -1.
         -5    1    4    4    0  501  0.82856660278E+02  0.79637564472E+01  0.52321080397E+01  0.83507454300E+02  0.41800000000E+01 0. -1.
</event>
<event>
11    1  0.7157190E-009  0.1351293E+03  0.7561462E-02  0.1113123E+00
         22   -1    0    0    0    0  0.00000000000E+00  0.00000000000E+00  0.47000990691E+03  0.47000990691E+03  0.00000000000E+00 0.  1.
         22   -1    0    0    0    0 -0.00000000000E+00 -0.00000000000E+00 -0.49679438422E+03  0.49679438422E+03  0.00000000000E+00 0. -1.
        -24    2    1    2    0    0 -0.10609830953E+02  0.50253108785E+02 -0.38333465707E+03  0.39510249876E+03  0.80762502191E+02 0.  0.
         25    2    1    2    0    0  0.48565978183E+02 -0.38172864583E+02 -0.55455090477E+02  0.15012948629E+03  0.12509106190E+03 0.  0.
         24    2    1    2    0    0 -0.37956147230E+02 -0.12080244202E+02  0.41200527024E+03  0.42157230608E+03  0.79926623422E+02 0.  0.
        -13    1    5    5    0    0 -0.87378322877E+01 -0.13414561775E+02  0.37022794358E+03  0.37057392027E+03  0.00000000000E+00 0.  1.
         14    1    5    5    0    0 -0.29218314942E+02  0.13343175724E+01  0.41777326664E+02  0.50998385804E+02  0.00000000000E+00 0. -1.
         13    1    3    3    0    0 -0.30305637641E+02 -0.10254070945E+02 -0.13622725299E+03  0.13993370609E+03  0.00000000000E+00 0. -1.
        -14    1    3    3    0    0  0.19695806687E+02  0.60507179730E+02 -0.24710740408E+03  0.25516879267E+03  0.00000000000E+00 0.  1.
          5    1    4    4  501    0  0.68920674680E+02  0.24593222740E+02 -0.26325667194E+02  0.77880672546E+02  0.41800000000E+01 0. -1.
         -5    1    4    4    0  501 -0.20354696496E+02 -0.62766087323E+02 -0.29129423283E+02  0.72248813748E+02  0.41800000000E+01 0. -1.
</event>
<event>
11    1  0.7157190E-009  0.2083106E+03  0.7561462E-02  0.1048798E+00
         22   -1    0    0    0    0  0.00000000000E+00  0.00000000000E+00  0.23880293316E+04  0.23880293316E+04  0.00000000000E+00 0.  1.
         22   -1    0    0    0    0 -0.00000000000E+00 -0.00000000000E+00 -0.20039593570E+03  0.20039593570E+03  0.00000000000E+00 0. -1.
         24    2    1    2    0    0  0.15282008234E+03 -0.65526248067E+02 -0.13188766441E+03  0.22768979891E+03  0.82465882362E+02 0.  0.
         25    2    1    2    0    0 -0.17437242166E+03  0.24441711673E+02  0.59671630498E+03  0.63460306260E+03  0.12509020633E+03 0.  0.
        -24    2    1    2    0    0  0.21552339317E+02  0.41084536394E+02  0.17228047553E+04  0.17261324058E+04  0.96563009899E+02 0.  0.
        -13    1    3    3    0    0  0.85975180882E+02  0.60167534972E+01 -0.47368793864E+02  0.98344983006E+02  0.00000000000E+00 0.  1.
         14    1    3    3    0    0  0.66844901456E+02 -0.71543001564E+02 -0.84518870543E+02  0.12934481590E+03  0.00000000000E+00 0. -1.
         11    1    5    5    0    0  0.17528779342E+01 -0.18698220751E+02  0.82145450178E+02  0.84264886075E+02  0.00000000000E+00 0. -1.
        -12    1    5    5    0    0  0.19799461383E+02  0.59782757145E+02  0.16406593051E+04  0.16418675197E+04  0.00000000000E+00 0.  1.
          5    1    4    4  501    0 -0.51295480420E+02 -0.93195054806E+01  0.47218173054E+02  0.70463520778E+02  0.41800000000E+01 0. -1.
         -5    1    4    4    0  501 -0.12307694124E+03  0.33761217154E+02  0.54949813193E+03  0.56413954182E+03  0.41800000000E+01 0. -1.
</event>
<event>
11    1  0.7157190E-009  0.1727713E+03  0.7561462E-02  0.1075645E+00
         22   -1    0    0    0    0  0.00000000000E+00  0.00000000000E+00  0.76977723587E+03  0.76977723587E+03  0.00000000000E+00 0.  1.
         22   -1    0    0    0    0 -0.00000000000E+00 -0.00000000000E+00 -0.62652943437E+03  0.62652943437E+03  0.00000000000E+00 0. -1.
         24    2    1    2    0    0  0.19303838642E+02 -0.37868662400E+02 -0.58127827183E+03  0.58870795364E+03  0.82981634096E+02 0.  0.
         25    2    1    2    0    0 -0.11390213390E+03 -0.37241524748E+02  0.20677468388E+03  0.26974604666E+03  0.12508610043E+03 0.  0.
        -24    2    1    2    0    0  0.94598295257E+02  0.75110187148E+02  0.51775138945E+03  0.53785266994E+03  0.81416310435E+02 0.  0.
        -13    1    3    3    0    0 -0.24230778516E+02  0.21855263116E+01 -0.71870497845E+02  0.75876713247E+02  0.00000000000E+00 0.  1.
         14    1    3    3    0    0  0.43534617159E+02 -0.40054188712E+02 -0.50940777399E+03  0.51283124039E+03  0.00000000000E+00 0. -1.
         13    1    5    5    0    0  0.31279273020E+02  0.39601170653E+02  0.83422373780E+02  0.97498400422E+02  0.00000000000E+00 0. -1.
        -14    1    5    5    0    0  0.63319022236E+02  0.35509016495E+02  0.43432901567E+03  0.44035426952E+03  0.00000000000E+00 0.  1.
          5    1    4    4  501    0 -0.10876182418E+03  0.17277202129E+02  0.96208953924E+02  0.14629173363E+03  0.41800000000E+01 0. -1.
         -5    1    4    4    0  501 -0.51403097150E+01 -0.54518726877E+02  0.11056572996E+03  0.12345431303E+03  0.41800000000E+01 0. -1.
</event>
<event>
11    1  0.7157190E-009  0.1551694E+03  0.7561462E-02  0.1091711E+00
         22   -1    0    0    0    0  0.00000000000E+00  0.00000000000E+00  0.48006863399E+03  0.48006863399E+03  0.00000000000E+00 0.  1.
         22   -1    0    0    0    0 -0.00000000000E+00 -0.00000000000E+00 -0.16042045005E+03  0.16042045005E+03  0.00000000000E+00 0. -1.
        -24    2    1    2    0    0  0.79342947498E+02  0.69411754437E+01 -0.52995893117E+02  0.12520584650E+03  0.80774105231E+02 0.  0.
         25    2    1    2    0    0 -0.13718178085E+03 -0.16342844096E+02  0.74110917934E+02  0.20056380871E+03  0.12508990230E+03 0.  0.
         24    2    1    2    0    0  0.57838833349E+02  0.94016686524E+01  0.29853315912E+03  0.31471942883E+03  0.80576359884E+02 0.  0.
        -13    1    5    5    0    0  0.69154557841E+02  0.15384742828E+02  0.15279430942E+03  0.16841954807E+03  0.00000000000E+00 0.  1.
         14    1    5    5    0    0 -0.11315724492E+02 -0.59830741756E+01  0.14573884971E+03  0.14629988076E+03  0.00000000000E+00 0. -1.
         11    1    3    3    0    0  0.65112934927E+02  0.28639574355E+01 -0.74572208730E+02  0.99039945789E+02  0.00000000000E+00 0. -1.
        -12    1    3    3    0    0  0.14230012571E+02  0.40772180082E+01  0.21576315614E+02  0.26165900709E+02  0.00000000000E+00 0.  1.
          5    1    4    4  501    0 -0.15595240620E+03 -0.10080308824E+02  0.40760221559E+02  0.16156000027E+03  0.41800000000E+01 0.  1.
         -5    1    4    4    0  501  0.18770625351E+02 -0.62625352720E+01  0.33350696374E+02  0.39003808439E+02  0.41800000000E+01 0.  1.
</event>
<event>
11    1  0.7157190E-009  0.1694119E+03  0.7561462E-02  0.1078545E+00
         22   -1    0    0    0    0  0.00000000000E+00  0.00000000000E+00  0.56100938805E+03  0.56100938805E+03  0.00000000000E+00 0.  1.
         22   -1    0    0    0    0 -0.00000000000E+00 -0.00000000000E+00 -0.14508198089E+03  0.14508198089E+03  0.00000000000E+00 0. -1.
         24    2    1    2    0    0 -0.30178407610E+02 -0.41721801413E+02 -0.77380249594E+02  0.12159508700E+03  0.78397813470E+02 0.  0.
         25    2    1    2    0    0  0.10806165845E+03  0.98888106667E+02  0.28708946249E+03  0.34572228082E+03  0.12508939329E+03 0.  0.
        -24    2    1    2    0    0 -0.77883250844E+02 -0.57166305254E+02  0.20621819427E+03  0.23877400113E+03  0.71786438472E+02 0.  0.
        -11    1    3    3    0    0 -0.19675556850E+01  0.20985567123E+02 -0.48038720610E+01  0.21618105597E+02  0.00000000000E+00 0.  1.
         12    1    3    3    0    0 -0.28210851925E+02 -0.62707368536E+02 -0.72576377533E+02  0.99976981405E+02  0.00000000000E+00 0. -1.
         13    1    5    5    0    0 -0.11449106635E+02  0.81897461689E+01  0.18980263798E+01  0.14204101139E+02  0.00000000000E+00 0. -1.
        -14    1    5    5    0    0 -0.66434144209E+02 -0.65356051423E+02  0.20432016789E+03  0.22456989999E+03  0.00000000000E+00 0.  1.
          5    1    4    4  501    0  0.60182054035E+02  0.39447423538E+02  0.25108657404E+03  0.26122771468E+03  0.41800000000E+01 0. -1.
         -5    1    4    4    0  501  0.47879604419E+02  0.59440683129E+02  0.36002888445E+02  0.84494566136E+02  0.41800000000E+01 0. -1.
</event>
<event>
11    1  0.7157190E-009  0.1648966E+03  0.7561462E-02  0.1082560E+00
         22   -1    0    0    0    0  0.00000000000E+00  0.00000000000E+00  0.82961763515E+02  0.82961763515E+02  0.00000000000E+00 0. -1.
         22   -1    0    0    0    0 -0.00000000000E+00 -0.00000000000E+00 -0.25658196759E+04  0.25658196759E+04  0.00000000000E+00 0. -1.
        -24    2    1    2    0    0 -0.21485232408E+02  0.81261899220E+01 -0.21363071313E+04  0.21379760460E+04  0.81275848696E+02 0.  0.
         25    2    1    2    0    0 -0.74252488475E+02  0.48717989937E+02 -0.33787827354E+03  0.37107773705E+03  0.12510029823E+03 0.  0.
         24    2    1    2    0    0  0.95737720883E+02 -0.56844179859E+02 -0.86725075176E+01  0.13972765640E+03  0.83974005458E+02 0.  0.
        -11    1    5    5    0    0  0.23889438910E+02 -0.32811090029E+02 -0.40696786978E+02  0.57476094079E+02  0.00000000000E+00 0.  1.
         12    1    5    5    0    0  0.71848281973E+02 -0.24033089831E+02  0.32024279460E+02  0.82251562321E+02  0.00000000000E+00 0. -1.
         11    1    3    3    0    0  0.20180111874E+01 -0.11654602011E+02 -0.18478376133E+04  0.18478754685E+04  0.00000000000E+00 0. -1.
        -12    1    3    3    0    0 -0.23503243595E+02  0.19780791933E+02 -0.28846951804E+03  0.29010057743E+03  0.00000000000E+00 0.  1.
          5    1    4    4  501    0 -0.57468850565E+02  0.18319715718E+02 -0.32964906252E+03  0.33514811291E+03  0.41800000000E+01 0.  1.
         -5    1    4    4    0  501 -0.16783637910E+02  0.30398274219E+02 -0.82292110266E+01  0.35929624144E+02  0.41800000000E+01 0.  1.
</event>
<event>
11    1  0.7157190E-009  0.1693688E+03  0.7561462E-02  0.1078582E+00
         22   -1    0    0    0    0  0.00000000000E+00  0.00000000000E+00  0.21317357135E+03  0.21317357135E+03  0.00000000000E+00 0.  1.
         22   -1    0    0    0    0 -0.00000000000E+00 -0.00000000000E+00 -0.27219205752E+04  0.27219205752E+04  0.00000000000E+00 0. -1.
        -24    2    1    2    0    0 -0.10931946584E+03 -0.35077263678E+02 -0.26483148042E+04  0.26521787677E+04  0.85438597010E+02 0.  0.
         25    2    1    2    0    0  0.70748622027E+02 -0.25517112859E+01  0.11115163228E+03  0.18169999106E+03  0.12509325579E+03 0.  0.
         24    2    1    2    0    0  0.38570843816E+02  0.37628974964E+02  0.28416168035E+02  0.10121538778E+03  0.80829613185E+02 0.  0.
        -13    1    5    5    0    0  0.37429414975E+02 -0.35646133031E+01  0.43349814155E+02  0.57383568734E+02  0.00000000000E+00 0.  1.
         14    1    5    5    0    0  0.11414288407E+01  0.41193588267E+02 -0.14933646121E+02  0.43831819043E+02  0.00000000000E+00 0. -1.
         13    1    3    3    0    0 -0.12210591529E+03 -0.20908377449E+02 -0.23332197943E+04  0.23365062857E+04  0.00000000000E+00 0. -1.
        -14    1    3    3    0    0  0.12786449444E+02 -0.14168886229E+02 -0.31509500988E+03  0.31567248197E+03  0.00000000000E+00 0.  1.
          5    1    4    4  501    0  0.43118504047E+02  0.50296292723E+02  0.10130071657E+03  0.12111246852E+03  0.41800000000E+01 0. -1.
         -5    1    4    4    0  501  0.27630117980E+02 -0.52848004009E+02  0.98509157109E+01  0.60587522541E+02  0.41800000000E+01 0. -1.
</event>
<event>
11    1  0.7157190E-009  0.1346209E+03  0.7561462E-02  0.1113718E+00
         22   -1    0    0    0    0  0.00000000000E+00  0.00000000000E+00  0.16518789243E+03  0.16518789243E+03  0.00000000000E+00 0. -1.
         22   -1    0    0    0    0 -0.00000000000E+00 -0.00000000000E+00 -0.26977102898E+04  0.26977102898E+04  0.00000000000E+00 0.  1.
        -24    2    1    2    0    0  0.17812278059E+02 -0.87300221468E+01 -0.19502487846E+04  0.19519531409E+04  0.79102793640E+02 0.  0.
         25    2    1    2    0    0 -0.56856682632E+02  0.38942679304E+02 -0.72532284272E+03  0.73925031088E+03  0.12509428972E+03 0.  0.
         24    2    1    2    0    0  0.39044404573E+02 -0.30212657157E+02  0.14304922997E+03  0.17169473043E+03  0.81109358782E+02 0.  0.
        -13    1    5    5    0    0  0.19606806592E+02  0.63722981068E+01 -0.21245499705E+01  0.20725509896E+02  0.00000000000E+00 0.  1.
         14    1    5    5    0    0  0.19437597981E+02 -0.36584955264E+02  0.14517377994E+03  0.15096922053E+03  0.00000000000E+00 0. -1.
         11    1    3    3    0    0  0.21870295925E+02  0.22986121125E+02 -0.36345498741E+03  0.36483722327E+03  0.00000000000E+00 0. -1.
        -12    1    3    3    0    0 -0.40580178652E+01 -0.31716143272E+02 -0.15867937972E+04  0.15871159177E+04  0.00000000000E+00 0.  1.
          5    1    4    4  501    0  0.94020515027E+01 -0.24185014432E+02 -0.40199051545E+02  0.48028633550E+02  0.41800000000E+01 0. -1.
         -5    1    4    4    0  501 -0.66258734135E+02  0.63127693736E+02 -0.68512379118E+03  0.69122167733E+03  0.41800000000E+01 0. -1.
</event>
<event>
11    1  0.7157190E-009  0.1824333E+03  0.7561462E-02  0.1067691E+00
         22   -1    0    0    0    0  0.00000000000E+00  0.00000000000E+00  0.97328030680E+03  0.97328030680E+03  0.00000000000E+00 0. -1.
         22   -1    0    0    0    0 -0.00000000000E+00 -0.00000000000E+00 -0.76457194434E+03  0.76457194434E+03  0.00000000000E+00 0. -1.
         24    2    1    2    0    0 -0.12723482318E+03  0.49207817553E+02 -0.72665215026E+03  0.74426342309E+03  0.85408348135E+02 0.  0.
         25    2    1    2    0    0  0.19573369291E+02 -0.65438209699E+02  0.19675427537E+03  0.24295116782E+03  0.12509096289E+03 0.  0.
        -24    2    1    2    0    0  0.10766145389E+03  0.16230392146E+02  0.73860623735E+03  0.75063766023E+03  0.77867251222E+02 0.  0.
        -13    1    3    3    0    0 -0.10478070663E+03  0.39438575869E-01 -0.41925829058E+03  0.43215334345E+03  0.00000000000E+00 0.  1.
         14    1    3    3    0    0 -0.22454116554E+02  0.49168378977E+02 -0.30739385968E+03  0.31211007964E+03  0.00000000000E+00 0. -1.
         11    1    5    5    0    0  0.10095971757E+03  0.32169038665E+02  0.70424103757E+03  0.71216792305E+03  0.00000000000E+00 0. -1.
        -12    1    5    5    0    0  0.67017363256E+01 -0.15938646519E+02  0.34365199780E+02  0.38469737178E+02  0.00000000000E+00 0.  1.
          5    1    4    4  501    0 -0.21654175318E+02 -0.81254915006E+02  0.17354696057E+03  0.19289189834E+03  0.41800000000E+01 0.  1.
         -5    1    4    4    0  501  0.41227544609E+02  0.15816705307E+02  0.23207314800E+02  0.50059269486E+02  0.41800000000E+01 0.  1.
</event>
<event>
11    1  0.7157190E-009  0.1382694E+03  0.7561462E-02  0.1109506E+00
         22   -1    0    0    0    0  0.00000000000E+00  0.00000000000E+00  0.11197728575E+04  0.11197728575E+04  0.00000000000E+00 0. -1.
         22   -1    0    0    0    0 -0.00000000000E+00 -0.00000000000E+00 -0.94776543223E+03  0.94776543223E+03  0.00000000000E+00 0. -1.
        -24    2    1    2    0    0  0.52347677272E+02  0.26396254401E+02 -0.91335294886E+03  0.91875622000E+03  0.80388687266E+02 0.  0.
         25    2    1    2    0    0 -0.63644229012E+02 -0.48676520425E+02  0.15534438061E+03  0.21493997133E+03  0.12508926079E+03 0.  0.
         24    2    1    2    0    0  0.11296551740E+02  0.22280266025E+02  0.93001599349E+03  0.93384209836E+03  0.80667801474E+02 0.  0.
        -13    1    5    5    0    0  0.34447285161E+01  0.20156730301E+02  0.53295710841E+02  0.57084084691E+02  0.00000000000E+00 0.  1.
         14    1    5    5    0    0  0.78518232235E+01  0.21235357236E+01  0.87672028265E+03  0.87675801367E+03  0.00000000000E+00 0. -1.
         11    1    3    3    0    0  0.10052303677E+02 -0.20203464878E+02 -0.51220932347E+03  0.51270617302E+03  0.00000000000E+00 0. -1.
        -12    1    3    3    0    0  0.42295373595E+02  0.46599719278E+02 -0.40114362539E+03  0.40605004698E+03  0.00000000000E+00 0.  1.
          5    1    4    4  501    0  0.11716704899E+02 -0.24307108468E+02  0.12825278633E+03  0.13112729044E+03  0.41800000000E+01 0.  1.
         -5    1    4    4    0  501 -0.75360933910E+02 -0.24369411957E+02  0.27091594275E+02  0.83812680898E+02  0.41800000000E+01 0.  1.
</event>
<event>
11    1  0.7157190E-009  0.1276234E+03  0.7561462E-02  0.1122224E+00
         22   -1    0    0    0    0  0.00000000000E+00  0.00000000000E+00  0.14541279917E+03  0.14541279917E+03  0.00000000000E+00 0. -1.
         22   -1    0    0    0    0 -0.00000000000E+00 -0.00000000000E+00 -0.80361291366E+03  0.80361291366E+03  0.00000000000E+00 0. -1.
        -24    2    1    2    0    0 -0.14170475999E+00  0.58247656508E+00 -0.71172394037E+03  0.71620891240E+03  0.80024243493E+02 0.  0.
         25    2    1    2    0    0  0.25209948003E+02  0.25956708840E+01 -0.87143059019E+01  0.12793198107E+03  0.12509345973E+03 0.  0.
         24    2    1    2    0    0 -0.25068243243E+02 -0.31781474491E+01  0.62238131783E+02  0.10488481937E+03  0.80552609176E+02 0.  0.
        -11    1    5    5    0    0  0.18322587785E+02  0.14190866076E+02 -0.43011162290E+01  0.23571115882E+02  0.00000000000E+00 0.  1.
         12    1    5    5    0    0 -0.43390831029E+02 -0.17369013525E+02  0.66539248012E+02  0.81313703484E+02  0.00000000000E+00 0. -1.
         13    1    3    3    0    0 -0.69221460105E+01  0.13957638003E+01 -0.70870861377E+03  0.70874379256E+03  0.00000000000E+00 0. -1.
        -14    1    3    3    0    0  0.67804412505E+01 -0.81328723517E+00 -0.30153265965E+01  0.74651198357E+01  0.00000000000E+00 0.  1.
          5    1    4    4  501    0  0.19020734151E+02 -0.60733721214E+02 -0.19972671060E+01  0.63810929284E+02  0.41800000000E+01 0.  1.
         -5    1    4    4    0  501  0.61892138525E+01  0.63329392098E+02 -0.67170387959E+01  0.64121051784E+02  0.41800000000E+01 0.  1.
</event>
<event>
11    1  0.7157190E-009  0.1462543E+03  0.7561462E-02  0.1100769E+00
         22   -1    0    0    0    0  0.00000000000E+00  0.00000000000E+00  0.50838331708E+03  0.50838331708E+03  0.00000000000E+00 0.  1.
         22   -1    0    0    0    0 -0.00000000000E+00 -0.00000000000E+00 -0.10488054676E+04  0.10488054676E+04  0.00000000000E+00 0. -1.
         24    2    1    2    0    0 -0.35278015120E+02  0.72375923028E+02 -0.89782114836E+03  0.90498797725E+03  0.80234730313E+02 0.  0.
         25    2    1    2    0    0 -0.37446367539E+02 -0.49531866500E+02 -0.10623478848E+03  0.17546899879E+03  0.12509157849E+03 0.  0.
        -24    2    1    2    0    0  0.72724382659E+02 -0.22844056528E+02  0.46363378632E+03  0.47673180864E+03  0.80661284391E+02 0.  0.
        -13    1    3    3    0    0 -0.48591238356E+02  0.60247204243E+02 -0.43607722499E+03  0.44289296700E+03  0.00000000000E+00 0.  1.
         14    1    3    3    0    0  0.13313223236E+02  0.12128718785E+02 -0.46174392336E+03  0.46209501025E+03  0.00000000000E+00 0. -1.
         13    1    5    5    0    0  0.12446700642E+02 -0.45038280825E+02  0.19063947285E+03  0.19628238766E+03  0.00000000000E+00 0. -1.
        -14    1    5    5    0    0  0.60277682017E+02  0.22194224297E+02  0.27299431347E+03  0.28044942098E+03  0.00000000000E+00 0.  1.
          5    1    4    4  501    0 -0.60755698756E+02  0.18051918225E+02 -0.72251183216E+02  0.96202040306E+02  0.41800000000E+01 0. -1.
         -5    1    4    4    0  501  0.23309331217E+02 -0.67583784725E+02 -0.33983605268E+02  0.79266958479E+02  0.41800000000E+01 0. -1.
</event>
<event>
11    1  0.7157190E-009  0.5465001E+03  0.7561462E-02  0.9295225E-01
         22   -1    0    0    0    0  0.00000000000E+00  0.00000000000E+00  0.11774656003E+04  0.11774656003E+04  0.00000000000E+00 0.  1.
         22   -1    0    0    0    0 -0.00000000000E+00 -0.00000000000E+00 -0.14499866079E+04  0.14499866079E+04  0.00000000000E+00 0.  1.
         24    2    1    2    0    0 -0.13101635839E+02  0.31692053733E+02 -0.74719430654E+03  0.75245593814E+03  0.81942467533E+02 0.  0.
         25    2    1    2    0    0  0.46927229480E+02  0.50225224530E+03 -0.52443733793E+03  0.73833705917E+03  0.12509040238E+03 0.  0.
        -24    2    1    2    0    0 -0.33825593641E+02 -0.53394429903E+03  0.99911063685E+03  0.11366592109E+04  0.86783707669E+02 0.  0.
        -13    1    3    3    0    0 -0.34879627206E+02  0.18492780482E+02 -0.67015465834E+03  0.67131649572E+03  0.00000000000E+00 0.  1.
         14    1    3    3    0    0  0.21777991367E+02  0.13199273251E+02 -0.77039648196E+02  0.81139442421E+02  0.00000000000E+00 0. -1.
         11    1    5    5    0    0 -0.43345116681E+02 -0.11570259059E+03  0.23716381782E+03  0.26741833350E+03  0.00000000000E+00 0. -1.
        -12    1    5    5    0    0  0.95195230399E+01 -0.41824170843E+03  0.76194681902E+03  0.86924087744E+03  0.00000000000E+00 0.  1.
          5    1    4    4  501    0  0.44438665691E+02  0.12116547250E+03 -0.19876756643E+03  0.23702718114E+03  0.41800000000E+01 0. -1.
         -5    1    4    4    0  501  0.24885637891E+01  0.38108677280E+03 -0.32566977150E+03  0.50130987804E+03  0.41800000000E+01 0. -1.
</event>
<event>
11    1  0.7157190E-009  0.1559041E+03  0.7561462E-02  0.1090994E+00
         22   -1    0    0    0    0  0.00000000000E+00  0.00000000000E+00  0.35455410342E+02  0.35455410342E+02  0.00000000000E+00 0.  1.
         22   -1    0    0    0    0 -0.00000000000E+00 -0.00000000000E+00 -0.21615157836E+04  0.21615157836E+04  0.00000000000E+00 0.  1.
        -24    2    1    2    0    0 -0.57624041808E+02 -0.38868767842E+02 -0.13085251524E+04  0.13129025278E+04  0.81508660118E+02 0.  0.
         25    2    1    2    0    0 -0.16296150311E+02  0.10000841773E+03 -0.67885750521E+03  0.69768314056E+03  0.12508798552E+03 0.  0.
         24    2    1    2    0    0  0.73920192119E+02 -0.61139649890E+02 -0.13867771560E+03  0.18638552554E+03  0.79409091024E+02 0.  0.
        -11    1    5    5    0    0  0.50308876199E+02 -0.52824471208E+02 -0.37238206942E+02  0.81902941577E+02  0.00000000000E+00 0.  1.
         12    1    5    5    0    0  0.23611315920E+02 -0.83151786821E+01 -0.10143950865E+03  0.10448258397E+03  0.00000000000E+00 0. -1.
         13    1    3    3    0    0  0.16623889514E+02 -0.62664661566E+01 -0.93399326322E+02  0.95073952574E+02  0.00000000000E+00 0. -1.
        -14    1    3    3    0    0 -0.74247931322E+02 -0.32602301685E+02 -0.12151258261E+04  0.12178285752E+04  0.00000000000E+00 0.  1.
          5    1    4    4  501    0 -0.57810676551E+02  0.83311280752E+01 -0.20271018156E+03  0.21099851215E+03  0.41800000000E+01 0. -1.
         -5    1    4    4    0  501  0.41514526240E+02  0.91677289656E+02 -0.47614732364E+03  0.48668462842E+03  0.41800000000E+01 0. -1.
</event>
<event>
11    1  0.7157190E-009  0.1408402E+03  0.7561462E-02  0.1106624E+00
         22   -1    0    0    0    0  0.00000000000E+00  0.00000000000E+00  0.32025697296E+03  0.32025697296E+03  0.00000000000E+00 0. -1.
         22   -1    0    0    0    0 -0.00000000000E+00 -0.00000000000E+00 -0.85586344063E+03  0.85586344063E+03  0.00000000000E+00 0.  1.
         24    2    1    2    0    0  0.50304855101E+02  0.37899699144E+02 -0.76356381710E+03  0.77221872396E+03  0.96566501539E+02 0.  0.
         25    2    1    2    0    0 -0.74076524318E+02 -0.60771293953E+02 -0.27455767747E+01  0.15759309735E+03  0.12509022550E+03 0.  0.
        -24    2    1    2    0    0  0.23771669217E+02  0.22871594809E+02  0.23070292619E+03  0.24630859228E+03  0.79723775430E+02 0.  0.
        -13    1    3    3    0    0  0.22036388832E+02 -0.17697857488E+02 -0.52094278203E+03  0.52170892147E+03  0.00000000000E+00 0.  1.
         14    1    3    3    0    0  0.28268466269E+02  0.55597556633E+02 -0.24262103507E+03  0.25050980250E+03  0.00000000000E+00 0. -1.
         11    1    5    5    0    0  0.33762781007E+01 -0.29054260669E+02  0.10019080893E+03  0.10437311680E+03  0.00000000000E+00 0. -1.
        -12    1    5    5    0    0  0.20395391116E+02  0.51925855478E+02  0.13051211726E+03  0.14193547547E+03  0.00000000000E+00 0.  1.
          5    1    4    4  501    0  0.22492733065E+02  0.20928283291E+02 -0.76490964266E+00  0.31015698750E+02  0.41800000000E+01 0. -1.
         -5    1    4    4    0  501 -0.96569257383E+02 -0.81699577244E+02 -0.19806671320E+01  0.12657739860E+03  0.41800000000E+01 0. -1.
</event>
<event>
11    1  0.7157190E-009  0.1429893E+03  0.7561462E-02  0.1104266E+00
         22   -1    0    0    0    0  0.00000000000E+00  0.00000000000E+00  0.40538840275E+03  0.40538840275E+03  0.00000000000E+00 0.  1.
         22   -1    0    0    0    0 -0.00000000000E+00 -0.00000000000E+00 -0.11780532762E+04  0.11780532762E+04  0.00000000000E+00 0. -1.
        -24    2    1    2    0    0  0.21800512617E+02 -0.66140710615E+02 -0.11233127722E+04  0.11276255589E+04  0.69699074016E+02 0.  0.
         25    2    1    2    0    0 -0.12862967688E+02  0.51417944367E+02  0.50517155521E+02  0.14494011190E+03  0.12508553911E+03 0.  0.
         24    2    1    2    0    0 -0.89375449286E+01  0.14722766249E+02  0.30013074329E+03  0.31087600809E+03  0.79175689358E+02 0.  0.
        -13    1    5    5    0    0  0.34184927535E+00  0.34632646696E+02  0.27631419995E+03  0.27847634401E+03  0.00000000000E+00 0.  1.
         14    1    5    5    0    0 -0.92793942040E+01 -0.19909880448E+02  0.23816543341E+02  0.32399664087E+02  0.00000000000E+00 0. -1.
         11    1    3    3    0    0  0.18350488683E+02 -0.58063987942E+02 -0.43342098057E+03  0.43767786502E+03  0.00000000000E+00 0. -1.
        -12    1    3    3    0    0  0.34500239336E+01 -0.80767226729E+01 -0.68989179167E+03  0.68994769391E+03  0.00000000000E+00 0.  1.
          5    1    4    4  501    0 -0.52849643373E+02  0.42444130399E+01 -0.14486927432E+02  0.55122076458E+02  0.41800000000E+01 0. -1.
         -5    1    4    4    0  501  0.39986675685E+02  0.47173531327E+02  0.65004082953E+02  0.89818035442E+02  0.41800000000E+01 0. -1.
</event>
<event>
11    1  0.7157190E-009  0.1310882E+03  0.7561462E-02  0.1117939E+00
         22   -1    0    0    0    0  0.00000000000E+00  0.00000000000E+00  0.26007375812E+03  0.26007375812E+03  0.00000000000E+00 0.  1.
         22   -1    0    0    0    0 -0.00000000000E+00 -0.00000000000E+00 -0.10343322106E+04  0.10343322106E+04  0.00000000000E+00 0.  1.
        -24    2    1    2    0    0 -0.51593918878E+01  0.58918018428E+01 -0.53991791017E+03  0.54586900962E+03  0.80001833076E+02 0.  0.
         25    2    1    2    0    0  0.32654289365E+02 -0.33679133717E+02 -0.47548248851E+03  0.49389452402E+03  0.12509043655E+03 0.  0.
         24    2    1    2    0    0 -0.27494897477E+02  0.27787331874E+02  0.24114194618E+03  0.25464243508E+03  0.71869509090E+02 0.  0.
        -11    1    5    5    0    0 -0.50020524626E+02  0.31312327984E+02  0.17370101361E+03  0.18345178358E+03  0.00000000000E+00 0.  1.
         12    1    5    5    0    0  0.22525627149E+02 -0.35249961100E+01  0.67440932569E+02  0.71190651505E+02  0.00000000000E+00 0. -1.
         13    1    3    3    0    0  0.22703655061E+02  0.30581508235E+02 -0.17728851204E+03  0.18133367338E+03  0.00000000000E+00 0. -1.
        -14    1    3    3    0    0 -0.27863046949E+02 -0.24689706392E+02 -0.36262939813E+03  0.36453533625E+03  0.00000000000E+00 0.  1.
          5    1    4    4  501    0  0.34091468436E+02 -0.68247745750E+02 -0.42925938217E+03  0.43600581717E+03  0.41800000000E+01 0. -1.
         -5    1    4    4    0  501 -0.14371790714E+01  0.34568612033E+02 -0.46223106334E+02  0.57888706850E+02  0.41800000000E+01 0. -1.
</event>
<event>
11    1  0.7157190E-009  0.1707945E+03  0.7561462E-02  0.1077342E+00
         22   -1    0    0    0    0  0.00000000000E+00  0.00000000000E+00  0.69572680495E+02  0.69572680495E+02  0.00000000000E+00 0.  1.
         22   -1    0    0    0    0 -0.00000000000E+00 -0.00000000000E+00 -0.15304654521E+04  0.15304654521E+04  0.00000000000E+00 0. -1.
         24    2    1    2    0    0 -0.79596346367E+02  0.11047672362E+03 -0.94502245531E+03  0.95843169613E+03  0.83565485057E+02 0.  0.
         25    2    1    2    0    0  0.84489780993E+02 -0.35735380471E+02 -0.50838158792E+03  0.53152168760E+03  0.12509166618E+03 0.  0.
        -24    2    1    2    0    0 -0.48934346253E+01 -0.74741343152E+02 -0.74887283521E+01  0.11008474884E+03  0.80326563448E+02 0.  0.
        -11    1    3    3    0    0 -0.54381543067E+02  0.79443772498E+02 -0.38034801351E+03  0.39234331470E+03  0.00000000000E+00 0.  1.
         12    1    3    3    0    0 -0.25214803300E+02  0.31032951125E+02 -0.56467444180E+03  0.56608838143E+03  0.00000000000E+00 0. -1.
         13    1    5    5    0    0 -0.13813734933E+02 -0.27623600950E+02 -0.41182160555E+02  0.51476722411E+02  0.00000000000E+00 0. -1.
        -14    1    5    5    0    0  0.89203003074E+01 -0.47117742202E+02  0.33693432203E+02  0.58608026425E+02  0.00000000000E+00 0.  1.
          5    1    4    4  501    0  0.62275294262E+02 -0.17160831568E+02 -0.49523355254E+03  0.49944614362E+03  0.41800000000E+01 0.  1.
         -5    1    4    4    0  501  0.22214486731E+02 -0.18574548904E+02 -0.13148035383E+02  0.32075543988E+02  0.41800000000E+01 0.  1.
</event>
<event>
11    1  0.1098264E-008  0.1730139E+03  0.7561462E-02  0.1075438E+00
         22   -1    0    0    0    0  0.00000000000E+00  0.00000000000E+00  0.25256268992E+04  0.25256268992E+04  0.00000000000E+00 0. -1.
         22   -1    0    0    0    0 -0.00000000000E+00 -0.00000000000E+00 -0.50931498998E+03  0.50931498998E+03  0.00000000000E+00 0.  1.
         24    2    1    2    0    0  0.90989441522E+02 -0.39654323718E+02 -0.32361440178E+03  0.34813070654E+03  0.81345952181E+02 0.  0.
         25    2    1    2    0    0 -0.99339469260E+02  0.15832329545E+03 -0.97518098422E+02  0.24513531792E+03  0.12508776335E+03 0.  0.
        -24    2    1    2    0    0  0.83500277378E+01 -0.11866897173E+03  0.24374444094E+04  0.24416758647E+04  0.80583692305E+02 0.  0.
        -13    1    3    3    0    0  0.76566297874E+02 -0.75336592479E+01 -0.28780330810E+03  0.29790921125E+03  0.00000000000E+00 0.  1.
         14    1    3    3    0    0  0.14423143648E+02 -0.32120664470E+02 -0.35811093679E+02  0.50221495290E+02  0.00000000000E+00 0. -1.
         11    1    5    5    0    0 -0.15544063428E+02 -0.11221198956E+03  0.22071340156E+04  0.22100393008E+04  0.00000000000E+00 0. -1.
        -12    1    5    5    0    0  0.23894091166E+02 -0.64569821731E+01  0.23031039386E+03  0.23163656389E+03  0.00000000000E+00 0.  1.
          5    1    4    4  501    0 -0.83655018612E+02  0.56776788409E+02 -0.10000696245E+03  0.14226957082E+03  0.41800000000E+01 0.  1.
         -5    1    4    4    0  501 -0.15684450648E+02  0.10154650704E+03  0.24888640317E+01  0.10286574711E+03  0.41800000000E+01 0.  1.
</event>
<event>
11    1  0.7157190E-009  0.1332590E+03  0.7561462E-02  0.1115328E+00
         22   -1    0    0    0    0  0.00000000000E+00  0.00000000000E+00  0.97916225883E+03  0.97916225883E+03  0.00000000000E+00 0. -1.
         22   -1    0    0    0    0 -0.00000000000E+00 -0.00000000000E+00 -0.46734294068E+03  0.46734294068E+03  0.00000000000E+00 0. -1.
         24    2    1    2    0    0  0.38515470732E+02 -0.24789607788E+02 -0.44109667706E+03  0.45116926385E+03  0.83002770974E+02 0.  0.
         25    2    1    2    0    0 -0.40809056812E+02  0.33419267489E+02  0.22331236271E+03  0.26133943336E+03  0.12509061330E+03 0.  0.
        -24    2    1    2    0    0  0.22935860802E+01 -0.86296597012E+01  0.72960363250E+03  0.73399650230E+03  0.79684837128E+02 0.  0.
        -11    1    3    3    0    0  0.57433747834E+02 -0.34537531408E+01 -0.19172443593E+03  0.20017198388E+03  0.00000000000E+00 0.  1.
         12    1    3    3    0    0 -0.18918277101E+02 -0.21335854647E+02 -0.24937224113E+03  0.25099727996E+03  0.00000000000E+00 0. -1.
         13    1    5    5    0    0 -0.14126770952E+01  0.34561147374E+02  0.41176541843E+03  0.41321571652E+03  0.00000000000E+00 0. -1.
        -14    1    5    5    0    0  0.37062631754E+01 -0.43190807075E+02  0.31783821407E+03  0.32078078578E+03  0.00000000000E+00 0.  1.
          5    1    4    4  501    0 -0.62385797478E+02 -0.29316350179E+02  0.12130425001E+03  0.13958377265E+03  0.41800000000E+01 0. -1.
         -5    1    4    4    0  501  0.21576740666E+02  0.62735617668E+02  0.10200811269E+03  0.12175566072E+03  0.41800000000E+01 0. -1.
</event>
<event>
11    1  0.7157190E-009  0.1506595E+03  0.7561462E-02  0.1096207E+00
         22   -1    0    0    0    0  0.00000000000E+00  0.00000000000E+00  0.44946198813E+03  0.44946198813E+03  0.00000000000E+00 0. -1.
         22   -1    0    0    0    0 -0.00000000000E+00 -0.00000000000E+00 -0.23086830267E+04  0.23086830267E+04  0.00000000000E+00 0.  1.
        -24    2    1    2    0    0  0.64369646251E+01  0.25064705474E+02 -0.18395624623E+04  0.18416444813E+04  0.83634137233E+02 0.  0.
         25    2    1    2    0    0  0.60850463762E+01 -0.10768969820E+03 -0.44544192899E+03  0.47507948629E+03  0.12509159568E+03 0.  0.
         24    2    1    2    0    0 -0.12522011001E+02  0.82624992725E+02  0.42578335271E+03  0.44142104721E+03  0.81101093087E+02 0.  0.
        -13    1    5    5    0    0  0.64908674273E+01 -0.28510197533E+01  0.38064176511E+00  0.70996170140E+01  0.00000000000E+00 0.  1.
         14    1    5    5    0    0 -0.19012878429E+02  0.85476012478E+02  0.42540271094E+03  0.43432143020E+03  0.00000000000E+00 0. -1.
         11    1    3    3    0    0  0.35592222387E+02 -0.97345305577E+01 -0.52329108298E+03  0.52459043540E+03  0.00000000000E+00 0. -1.
        -12    1    3    3    0    0 -0.29155257762E+02  0.34799236032E+02 -0.13162713793E+04  0.13170540460E+04  0.00000000000E+00 0.  1.
          5    1    4    4  501    0 -0.54061311092E+02 -0.33833665066E+02 -0.24373538390E+03  0.25197569727E+03  0.41800000000E+01 0. -1.
         -5    1    4    4    0  501  0.60146357468E+02 -0.73856033133E+02 -0.20170654509E+03  0.22310378902E+03  0.41800000000E+01 0. -1.
</event>
<event>
11    1  0.7157190E-009  0.1370792E+03  0.7561462E-02  0.1110864E+00
         22   -1    0    0    0    0  0.00000000000E+00  0.00000000000E+00  0.99236887049E+03  0.99236887049E+03  0.00000000000E+00 0.  1.
         22   -1    0    0    0    0 -0.00000000000E+00 -0.00000000000E+00 -0.10062644903E+03  0.10062644903E+03  0.00000000000E+00 0. -1.
        -24    2    1    2    0    0 -0.18119035062E+01  0.20225345355E+02 -0.59698904725E+02  0.10305495424E+03  0.81510838414E+02 0.  0.
         25    2    1    2    0    0  0.43191944925E+02  0.20951633185E+02  0.27003136924E+03  0.30144531988E+03  0.12509126854E+03 0.  0.
         24    2    1    2    0    0 -0.41380041418E+02 -0.41176978541E+02  0.68140995694E+03  0.68849504540E+03  0.79360233984E+02 0.  0.
        -11    1    5    5    0    0 -0.61908680990E+01  0.93281206461E+01  0.41160943256E+03  0.41176166123E+03  0.00000000000E+00 0.  1.
         12    1    5    5    0    0 -0.35189173319E+02 -0.50505099187E+02  0.26980052438E+03  0.27673338418E+03  0.00000000000E+00 0. -1.
         11    1    3    3    0    0 -0.79310005802E+01  0.43059329238E+02 -0.57570688646E+01  0.44160507770E+02  0.00000000000E+00 0. -1.
        -12    1    3    3    0    0  0.61190970740E+01 -0.22833983882E+02 -0.53941835861E+02  0.58894446470E+02  0.00000000000E+00 0.  1.
          5    1    4    4  501    0  0.12946461733E+02  0.69465021782E+02  0.10405069564E+03  0.12584522154E+03  0.41800000000E+01 0.  1.
         -5    1    4    4    0  501  0.30245483192E+02 -0.48513388596E+02  0.16598067360E+03  0.17560009834E+03  0.41800000000E+01 0.  1.
</event>
<event>
11    1  0.7157190E-009  0.1831287E+03  0.7561462E-02  0.1067140E+00
         22   -1    0    0    0    0  0.00000000000E+00  0.00000000000E+00  0.94467623899E+02  0.94467623899E+02  0.00000000000E+00 0.  1.
         22   -1    0    0    0    0 -0.00000000000E+00 -0.00000000000E+00 -0.19463098136E+04  0.19463098136E+04  0.00000000000E+00 0. -1.
         24    2    1    2    0    0  0.19020054490E+02 -0.55774498056E+02 -0.12099643006E+04  0.12140230113E+04  0.79785375541E+02 0.  0.
         25    2    1    2    0    0  0.11539340151E+03  0.31621536797E+02 -0.64770329769E+03  0.67043603356E+03  0.12509738029E+03 0.  0.
        -24    2    1    2    0    0 -0.13441345600E+03  0.24152961259E+02  0.58254085427E+01  0.15631839268E+03  0.75836414812E+02 0.  0.
        -13    1    3    3    0    0  0.17902804463E+02  0.16218396553E+02 -0.19165715513E+03  0.19317352797E+03  0.00000000000E+00 0.  1.
         14    1    3    3    0    0  0.11172500272E+01 -0.71992894609E+02 -0.10183071455E+04  0.10208494833E+04  0.00000000000E+00 0. -1.
         13    1    5    5    0    0 -0.33730400062E+02  0.15338781232E+02  0.35158399642E+02  0.51079655083E+02  0.00000000000E+00 0. -1.
        -14    1    5    5    0    0 -0.10068305594E+03  0.88141800271E+01 -0.29332991099E+02  0.10523873759E+03  0.00000000000E+00 0.  1.
          5    1    4    4  501    0  0.68579508885E+02 -0.22190872630E+02 -0.51206961918E+03  0.51713475145E+03  0.41800000000E+01 0. -1.
         -5    1    4    4    0  501  0.46813892629E+02  0.53812409427E+02 -0.13563367851E+03  0.15330128211E+03  0.41800000000E+01 0. -1.
</event>
<event>
11    1  0.7157190E-009  0.2597979E+03  0.7561462E-02  0.1018805E+00
         22   -1    0    0    0    0  0.00000000000E+00  0.00000000000E+00  0.14011299459E+04  0.14011299459E+04  0.00000000000E+00 0.  1.
         22   -1    0    0    0    0 -0.00000000000E+00 -0.00000000000E+00 -0.37880929310E+03  0.37880929310E+03  0.00000000000E+00 0.  1.
        -24    2    1    2    0    0 -0.97547165260E+01  0.57625519155E+02 -0.32534181797E+03  0.34032415990E+03  0.80977653335E+02 0.  0.
         25    2    1    2    0    0 -0.19289353703E+03  0.80020705878E+02  0.55681120439E+03  0.60770110330E+03  0.12510269227E+03 0.  0.
         24    2    1    2    0    0  0.20264825356E+03 -0.13764622503E+03  0.79085126637E+03  0.83191397579E+03  0.81377758992E+02 0.  0.
        -11    1    5    5    0    0  0.19168570454E+03 -0.13090380450E+03  0.78335142892E+03  0.81701816170E+03  0.00000000000E+00 0.  1.
         12    1    5    5    0    0  0.10962549021E+02 -0.67424205299E+01  0.74998374535E+01  0.14895814092E+02  0.00000000000E+00 0. -1.
         13    1    3    3    0    0  0.22401189833E+02 -0.87539202493E+01 -0.11317390860E+03  0.11570124465E+03  0.00000000000E+00 0. -1.
        -14    1    3    3    0    0 -0.32155906359E+02  0.66379439404E+02 -0.21216790937E+03  0.22462291525E+03  0.00000000000E+00 0.  1.
          5    1    4    4  501    0 -0.49548724326E+02  0.28636889964E+02  0.42781665618E+02  0.71574372943E+02  0.41800000000E+01 0.  1.
         -5    1    4    4    0  501 -0.14334481270E+03  0.51383815914E+02  0.51402953878E+03  0.53612673036E+03  0.41800000000E+01 0.  1.
</event>
<event>
11    1  0.7157190E-009  0.1748032E+03  0.7561462E-02  0.1073926E+00
         22   -1    0    0    0    0  0.00000000000E+00  0.00000000000E+00  0.55561180297E+03  0.55561180297E+03  0.00000000000E+00 0. -1.
         22   -1    0    0    0    0 -0.00000000000E+00 -0.00000000000E+00 -0.59356771557E+03  0.59356771557E+03  0.00000000000E+00 0. -1.
         24    2    1    2    0    0 -0.10051094710E+03 -0.65645687691E+02 -0.52099740886E+03  0.54050857198E+03  0.79368819725E+02 0.  0.
         25    2    1    2    0    0  0.15173557371E+03  0.63432237688E+02  0.13274067878E+03  0.24559052360E+03  0.12508910574E+03 0.  0.
        -24    2    1    2    0    0 -0.51224626602E+02  0.22134500029E+01  0.35030081748E+03  0.36308042296E+03  0.80547309583E+02 0.  0.
        -13    1    3    3    0    0 -0.34720024251E+02  0.14143011216E+02 -0.94796788449E+02  0.10194084535E+03  0.00000000000E+00 0.  1.
         14    1    3    3    0    0 -0.65790922852E+02 -0.79788698907E+02 -0.42620062041E+03  0.43856772663E+03  0.00000000000E+00 0. -1.
         13    1    5    5    0    0 -0.43027210818E+02  0.35210825384E+02  0.15121483611E+03  0.16111197893E+03  0.00000000000E+00 0. -1.
        -14    1    5    5    0    0 -0.81974157844E+01 -0.32997375381E+02  0.19908598136E+03  0.20196844403E+03  0.00000000000E+00 0.  1.
          5    1    4    4  501    0  0.72283204431E+02 -0.17725224548E+02  0.51467320256E+01  0.74719518725E+02  0.41800000000E+01 0. -1.
         -5    1    4    4    0  501  0.79452369274E+02  0.81157462236E+02  0.12759394675E+03  0.17087100488E+03  0.41800000000E+01 0. -1.
</event>
<event>
11    1  0.7157190E-009  0.1267493E+03  0.7561462E-02  0.1123329E+00
         22   -1    0    0    0    0  0.00000000000E+00  0.00000000000E+00  0.34587148231E+04  0.34587148231E+04  0.00000000000E+00 0. -1.
         22   -1    0    0    0    0 -0.00000000000E+00 -0.00000000000E+00 -0.10233879252E+04  0.10233879252E+04  0.00000000000E+00 0.  1.
        -24    2    1    2    0    0 -0.18930167538E+02 -0.78522808377E+01 -0.10086683272E+04  0.10121832926E+04  0.81750926243E+02 0.  0.
         25    2    1    2    0    0  0.42213472688E+01  0.13916062560E+02  0.30663725627E+03  0.33149023614E+03  0.12509153908E+03 0.  0.
         24    2    1    2    0    0  0.14708820270E+02 -0.60637817226E+01  0.31373579689E+04  0.31384292196E+04  0.80435204804E+02 0.  0.
        -13    1    5    5    0    0 -0.33446597403E+01 -0.26574320954E+02  0.38285990253E+03  0.38379563083E+03  0.00000000000E+00 0.  1.
         14    1    5    5    0    0  0.18053480010E+02  0.20510539231E+02  0.27544980664E+04  0.27546335887E+04  0.00000000000E+00 0. -1.
         11    1    3    3    0    0 -0.83267481213E+01 -0.44440964037E+02 -0.62282236638E+03  0.62446139519E+03  0.00000000000E+00 0. -1.
        -12    1    3    3    0    0 -0.10603419417E+02  0.36588683200E+02 -0.38584596084E+03  0.38772189742E+03  0.00000000000E+00 0.  1.
          5    1    4    4  501    0  0.18023085652E+02 -0.20937099343E+02  0.61041593373E+01  0.28599421437E+02  0.41800000000E+01 0. -1.
         -5    1    4    4    0  501 -0.13801738383E+02  0.34853161903E+02  0.30053309693E+03  0.30289081470E+03  0.41800000000E+01 0. -1.
</event>
<event>
11    1  0.7157190E-009  0.1698870E+03  0.7561462E-02  0.1078130E+00
         22   -1    0    0    0    0  0.00000000000E+00  0.00000000000E+00  0.57668797297E+03  0.57668797297E+03  0.00000000000E+00 0.  1.
         22   -1    0    0    0    0 -0.00000000000E+00 -0.00000000000E+00 -0.15699248320E+04  0.15699248320E+04  0.00000000000E+00 0.  1.
        -24    2    1    2    0    0  0.81013741076E+02 -0.78064844613E+02 -0.13979678318E+04  0.14047375798E+04  0.79474921162E+02 0.  0.
         25    2    1    2    0    0 -0.11076141376E+03  0.11637537240E+03 -0.10131044296E+03  0.22742690654E+03  0.12509146208E+03 0.  0.
         24    2    1    2    0    0  0.29747672687E+02 -0.38310527790E+02  0.50604141574E+03  0.51444831865E+03  0.78908412390E+02 0.  0.
        -11    1    5    5    0    0  0.30738461486E+02 -0.36858781076E+01  0.42735710313E+03  0.42847699158E+03  0.00000000000E+00 0.  1.
         12    1    5    5    0    0 -0.99078879857E+00 -0.34624649682E+02  0.78684312604E+02  0.85971327069E+02  0.00000000000E+00 0. -1.
         11    1    3    3    0    0  0.89148707188E+01 -0.36960577771E+02 -0.18136994852E+03  0.18531221615E+03  0.00000000000E+00 0. -1.
        -12    1    3    3    0    0  0.72098870358E+02 -0.41104266842E+02 -0.12165978833E+04  0.12194253637E+04  0.00000000000E+00 0.  1.
          5    1    4    4  501    0 -0.10483522006E+03  0.28492354942E+02 -0.84410709445E+02  0.13764039351E+03  0.41800000000E+01 0. -1.
         -5    1    4    4    0  501 -0.59261936996E+01  0.87883017461E+02 -0.16899733514E+02  0.89786513033E+02  0.41800000000E+01 0. -1.
</event>
<event>
11    1  0.7157190E-009  0.1489344E+03  0.7561462E-02  0.1097973E+00
         22   -1    0    0    0    0  0.00000000000E+00  0.00000000000E+00  0.23299067913E+04  0.23299067913E+04  0.00000000000E+00 0. -1.
         22   -1    0    0    0    0 -0.00000000000E+00 -0.00000000000E+00 -0.67948722368E+02  0.67948722368E+02  0.00000000000E+00 0. -1.
        -24    2    1    2    0    0  0.55345737318E+02 -0.62542496554E+02  0.69744870361E+02  0.13484658604E+03  0.79652622747E+02 0.  0.
         25    2    1    2    0    0 -0.75772561575E+01  0.86815391543E+02  0.13527385056E+03  0.20381542737E+03  0.12508951503E+03 0.  0.
         24    2    1    2    0    0 -0.47768481160E+02 -0.24272894989E+02  0.20569393480E+04  0.20591935003E+04  0.80046167046E+02 0.  0.
        -13    1    5    5    0    0 -0.43907859582E+02  0.15213087623E+02  0.63378341636E+03  0.63548466309E+03  0.00000000000E+00 0.  1.
         14    1    5    5    0    0 -0.38606215787E+01 -0.39485982613E+02  0.14231559317E+04  0.14237088372E+04  0.00000000000E+00 0. -1.
         11    1    3    3    0    0  0.25005823871E+01  0.13906750287E+02  0.31169723840E+02  0.34222833023E+02  0.00000000000E+00 0. -1.
        -12    1    3    3    0    0  0.52845154931E+02 -0.76449246841E+02  0.38575146521E+02  0.10062375302E+03  0.00000000000E+00 0.  1.
          5    1    4    4  501    0  0.54921525693E+02  0.24163383415E+02  0.33367511433E+02  0.68783037892E+02  0.41800000000E+01 0. -1.
         -5    1    4    4    0  501 -0.62498781850E+02  0.62652008129E+02  0.10190633912E+03  0.13503238948E+03  0.41800000000E+01 0. -1.
</event>
<event>
11    1  0.7157190E-009  0.1373824E+03  0.7561462E-02  0.1110517E+00
         22   -1    0    0    0    0  0.00000000000E+00  0.00000000000E+00  0.33060340511E+03  0.33060340511E+03  0.00000000000E+00 0. -1.
         22   -1    0    0    0    0 -0.00000000000E+00 -0.00000000000E+00 -0.10274319950E+03  0.10274319950E+03  0.00000000000E+00 0.  1.
         24    2    1    2    0    0  0.20751878537E+02  0.18435210628E+02  0.83782198825E+02  0.12881680900E+03  0.93828652274E+02 0.  0.
         25    2    1    2    0    0 -0.71111649482E-01  0.50275230328E+02  0.13260541508E+02  0.13546769589E+03  0.12509216933E+03 0.  0.
        -24    2    1    2    0    0 -0.20680766888E+02 -0.68710440956E+02  0.13081746528E+03  0.16906209972E+03  0.79498210820E+02 0.  0.
        -13    1    3    3    0    0 -0.33256953306E+02  0.65596038957E+00  0.82434037650E+01  0.34269650317E+02  0.00000000000E+00 0.  1.
         14    1    3    3    0    0  0.54008831843E+02  0.17779250238E+02  0.75538795060E+02  0.94547158684E+02  0.00000000000E+00 0. -1.
         13    1    5    5    0    0  0.23694027494E+00  0.83870039700E+01  0.65047047017E+02  0.65585945918E+02  0.00000000000E+00 0. -1.
        -14    1    5    5    0    0 -0.20917707163E+02 -0.77097444926E+02  0.65770418265E+02  0.10347615380E+03  0.00000000000E+00 0.  1.
          5    1    4    4  501    0 -0.10071511670E+02  0.79901104306E+02 -0.26343130343E+02  0.84835456814E+02  0.41800000000E+01 0.  1.
         -5    1    4    4    0  501  0.10000400021E+02 -0.29625873978E+02  0.39603671852E+02  0.50632239074E+02  0.41800000000E+01 0.  1.
</event>
<event>
11    1  0.7157190E-009  0.1920061E+03  0.7561462E-02  0.1060325E+00
         22   -1    0    0    0    0  0.00000000000E+00  0.00000000000E+00  0.55358188638E+02  0.55358188638E+02  0.00000000000E+00 0. -1.
         22   -1    0    0    0    0 -0.00000000000E+00 -0.00000000000E+00 -0.28788822982E+04  0.28788822982E+04  0.00000000000E+00 0.  1.
        -24    2    1    2    0    0 -0.56444421916E+01  0.52435968441E+02 -0.21078122733E+04  0.21100117758E+04  0.80596055371E+02 0.  0.
         25    2    1    2    0    0 -0.88308075381E+02 -0.15209896089E+03 -0.56191472176E+03  0.60193658936E+03  0.12508834078E+03 0.  0.
         24    2    1    2    0    0  0.93952517572E+02  0.99662992445E+02 -0.15379711448E+03  0.22229212163E+03  0.83668675711E+02 0.  0.
        -13    1    5    5    0    0  0.47391580969E+02 -0.45938105740E+00 -0.65832808310E+02  0.81118010502E+02  0.00000000000E+00 0.  1.
         14    1    5    5    0    0  0.46560936603E+02  0.10012237350E+03 -0.87964306170E+02  0.14117411113E+03  0.00000000000E+00 0. -1.
         13    1    3    3    0    0 -0.23877639655E+02  0.39096078599E+02 -0.51349495529E+03  0.51553439667E+03  0.00000000000E+00 0. -1.
        -14    1    3    3    0    0  0.18233197464E+02  0.13339889842E+02 -0.15943173180E+04  0.15944773792E+04  0.00000000000E+00 0.  1.
          5    1    4    4  501    0 -0.76670352883E+01 -0.58152821347E+02 -0.56455964745E+02  0.81518601657E+02  0.41800000000E+01 0. -1.
         -5    1    4    4    0  501 -0.80641040092E+02 -0.93946139539E+02 -0.50545875702E+03  0.52041798771E+03  0.41800000000E+01 0. -1.
</event>
<event>
11    1  0.7157190E-009  0.1317345E+03  0.7561462E-02  0.1117156E+00
         22   -1    0    0    0    0  0.00000000000E+00  0.00000000000E+00  0.45684532512E+03  0.45684532512E+03  0.00000000000E+00 0.  1.
         22   -1    0    0    0    0 -0.00000000000E+00 -0.00000000000E+00 -0.79849816995E+03  0.79849816995E+03  0.00000000000E+00 0. -1.
        -24    2    1    2    0    0  0.14392733456E+02 -0.14805718181E+02 -0.71975814544E+03  0.72406339478E+03  0.76089760598E+02 0.  0.
         25    2    1    2    0    0 -0.34728991387E+02 -0.21591451166E+02 -0.10637667248E+02  0.13203361032E+03  0.12508965059E+03 0.  0.
         24    2    1    2    0    0  0.20336257931E+02  0.36397169347E+02  0.38874296785E+03  0.39924648997E+03  0.80860048102E+02 0.  0.
        -13    1    5    5    0    0 -0.41378308358E+01  0.54707255406E+02  0.30926635314E+03  0.31409502164E+03  0.00000000000E+00 0.  1.
         14    1    5    5    0    0  0.24474088767E+02 -0.18310086058E+02  0.79476614717E+02  0.85151468333E+02  0.00000000000E+00 0. -1.
         13    1    3    3    0    0  0.41007610853E+02 -0.17145008849E+02 -0.28109586717E+03  0.28458823240E+03  0.00000000000E+00 0. -1.
        -14    1    3    3    0    0 -0.26614877396E+02  0.23392906678E+01 -0.43866227826E+03  0.43947516238E+03  0.00000000000E+00 0.  1.
          5    1    4    4  501    0 -0.61040874613E+02 -0.26038140642E+02 -0.50768680522E+02  0.83659455315E+02  0.41800000000E+01 0. -1.
         -5    1    4    4    0  501  0.26311883226E+02  0.44466894754E+01  0.40131013274E+02  0.48374155006E+02  0.41800000000E+01 0. -1.
</event>
<event>
11    1  0.7157190E-009  0.2572710E+03  0.7561462E-02  0.1020096E+00
         22   -1    0    0    0    0  0.00000000000E+00  0.00000000000E+00  0.13577821598E+04  0.13577821598E+04  0.00000000000E+00 0.  1.
         22   -1    0    0    0    0 -0.00000000000E+00 -0.00000000000E+00 -0.99524249362E+02  0.99524249362E+02  0.00000000000E+00 0. -1.
        -24    2    1    2    0    0  0.26184050582E+02  0.96415266810E+02  0.41815799844E+02  0.13511942877E+03  0.80791031288E+02 0.  0.
         25    2    1    2    0    0 -0.26119055781E+02  0.16358926298E+03  0.28851491091E+03  0.35543517864E+03  0.12509860256E+03 0.  0.
         24    2    1    2    0    0 -0.64994801394E-01 -0.26000452979E+03  0.92792719966E+03  0.96675180172E+03  0.77186776864E+02 0.  0.
        -13    1    5    5    0    0  0.11419440215E+02 -0.25938020810E+03  0.88335245330E+03  0.92071714045E+03  0.00000000000E+00 0.  1.
         14    1    5    5    0    0 -0.11484435016E+02 -0.62432169767E+00  0.44574746358E+02  0.46034661268E+02  0.00000000000E+00 0. -1.
         11    1    3    3    0    0 -0.10245584346E+02  0.83021276656E+02  0.47016599205E+02  0.95958662856E+02  0.00000000000E+00 0. -1.
        -12    1    3    3    0    0  0.36429634928E+02  0.13393990154E+02 -0.52007993616E+01  0.39160765918E+02  0.00000000000E+00 0.  1.
          5    1    4    4  501    0  0.50630271982E+02  0.68237283593E+02  0.12183768034E+03  0.14859893695E+03  0.41800000000E+01 0.  1.
         -5    1    4    4    0  501 -0.76749327763E+02  0.95351979391E+02  0.16667723057E+03  0.20683624169E+03  0.41800000000E+01 0.  1.
</event>
<event>
11    1  0.7157190E-009  0.1702256E+03  0.7561462E-02  0.1077836E+00
         22   -1    0    0    0    0  0.00000000000E+00  0.00000000000E+00  0.29063324511E+03  0.29063324511E+03  0.00000000000E+00 0.  1.
         22   -1    0    0    0    0 -0.00000000000E+00 -0.00000000000E+00 -0.17081546802E+04  0.17081546802E+04  0.00000000000E+00 0. -1.
         24    2    1    2    0    0 -0.14295685758E+02  0.18532427244E+02 -0.15733651783E+04  0.15756501740E+04  0.81533238097E+02 0.  0.
         25    2    1    2    0    0 -0.82572536991E+02  0.51170851768E+02 -0.53683460153E+02  0.16722958744E+03  0.12508853299E+03 0.  0.
        -24    2    1    2    0    0  0.96868222749E+02 -0.69703279013E+02  0.20952720339E+03  0.25590816388E+03  0.85704957240E+02 0.  0.
        -13    1    3    3    0    0 -0.18540926087E+02  0.26457271527E+02 -0.23031306365E+03  0.23256796952E+03  0.00000000000E+00 0.  1.
         14    1    3    3    0    0  0.42452403286E+01 -0.79248442833E+01 -0.13430521146E+04  0.13430822044E+04  0.00000000000E+00 0. -1.
         13    1    5    5    0    0  0.11403000712E+02 -0.16659130689E+02 -0.33484858980E+01  0.20463807524E+02  0.00000000000E+00 0. -1.
        -14    1    5    5    0    0  0.85465222037E+02 -0.53044148323E+02  0.21287568929E+03  0.23544435636E+03  0.00000000000E+00 0.  1.
          5    1    4    4  501    0 -0.13756424493E+02  0.76463127346E+02 -0.52361293720E+02  0.93781802810E+02  0.41800000000E+01 0.  1.
         -5    1    4    4    0  501 -0.68816112498E+02 -0.25292275577E+02 -0.13221664332E+01  0.73447784632E+02  0.41800000000E+01 0.  1.
</event>
<event>
11    1  0.7157190E-009  0.1440072E+03  0.7561462E-02  0.1103164E+00
         22   -1    0    0    0    0  0.00000000000E+00  0.00000000000E+00  0.65585289688E+03  0.65585289688E+03  0.00000000000E+00 0. -1.
         22   -1    0    0    0    0 -0.00000000000E+00 -0.00000000000E+00 -0.98272970446E+02  0.98272970446E+02  0.00000000000E+00 0. -1.
         24    2    1    2    0    0  0.43844124638E+02 -0.42859205675E+02 -0.28278412342E+02  0.10507241487E+03  0.80506676649E+02 0.  0.
         25    2    1    2    0    0  0.19565153171E+02  0.80498458096E+02  0.21306908065E+03  0.26059436635E+03  0.12509274028E+03 0.  0.
        -24    2    1    2    0    0 -0.63409277810E+02 -0.37639252421E+02  0.37278925812E+03  0.38845908610E+03  0.80567864379E+02 0.  0.
        -11    1    3    3    0    0  0.15286589249E+02 -0.27853317620E+02  0.26584759039E+02  0.41427485157E+02  0.00000000000E+00 0.  1.
         12    1    3    3    0    0  0.28557535389E+02 -0.15005888055E+02 -0.54863171381E+02  0.63644929710E+02  0.00000000000E+00 0. -1.
         11    1    5    5    0    0  0.70865080785E+01 -0.37447300949E+02  0.11185364980E+03  0.11816834567E+03  0.00000000000E+00 0. -1.
        -12    1    5    5    0    0 -0.70495785888E+02 -0.19195147166E+00  0.26093560832E+03  0.27029074043E+03  0.00000000000E+00 0.  1.
          5    1    4    4  501    0  0.91815941331E+01  0.22764581860E+02  0.19843616009E+03  0.19999227458E+03  0.41800000000E+01 0. -1.
         -5    1    4    4    0  501  0.10383559038E+02  0.57733876236E+02  0.14632920560E+02  0.60602091776E+02  0.41800000000E+01 0. -1.
</event>
<event>
11    1  0.7157190E-009  0.1883375E+03  0.7561462E-02  0.1063091E+00
         22   -1    0    0    0    0  0.00000000000E+00  0.00000000000E+00  0.37673423614E+03  0.37673423614E+03  0.00000000000E+00 0.  1.
         22   -1    0    0    0    0 -0.00000000000E+00 -0.00000000000E+00 -0.68588795182E+03  0.68588795182E+03  0.00000000000E+00 0.  1.
         24    2    1    2    0    0  0.37951810216E+02 -0.13260749310E+03 -0.57250289948E+03  0.59440587223E+03  0.80831206285E+02 0.  0.
         25    2    1    2    0    0 -0.83469093197E+02  0.15480488796E+03  0.23873682354E+02  0.21714391756E+03  0.12509950187E+03 0.  0.
        -24    2    1    2    0    0  0.45517282981E+02 -0.22197394859E+02  0.23947550144E+03  0.25107239817E+03  0.55895312338E+02 0.  0.
        -11    1    3    3    0    0  0.39719928605E+02 -0.14277655114E+03 -0.51152024056E+03  0.53255588701E+03  0.00000000000E+00 0.  1.
         12    1    3    3    0    0 -0.17681183888E+01  0.10169058033E+02 -0.60982658914E+02  0.61849985223E+02  0.00000000000E+00 0. -1.
         11    1    5    5    0    0  0.50045570233E+02 -0.25371365873E+02  0.13168961332E+03  0.14314475039E+03  0.00000000000E+00 0. -1.
        -12    1    5    5    0    0 -0.45282872525E+01  0.31739710139E+01  0.10778588812E+03  0.10792764778E+03  0.00000000000E+00 0.  1.
          5    1    4    4  501    0 -0.51859413393E+02  0.17191877550E+03  0.21007492373E+02  0.18084316758E+03  0.41800000000E+01 0.  1.
         -5    1    4    4    0  501 -0.31609679804E+02 -0.17113887535E+02  0.28661899811E+01  0.36300749977E+02  0.41800000000E+01 0.  1.
</event>
<event>
11    1  0.7157190E-009  0.1290272E+03  0.7561462E-02  0.1120470E+00
         22   -1    0    0    0    0  0.00000000000E+00  0.00000000000E+00  0.26295443038E+03  0.26295443038E+03  0.00000000000E+00 0.  1.
         22   -1    0    0    0    0 -0.00000000000E+00 -0.00000000000E+00 -0.86191767037E+03  0.86191767037E+03  0.00000000000E+00 0. -1.
         24    2    1    2    0    0  0.15038674855E+02  0.12559307910E+02 -0.81343202511E+03  0.81637023741E+03  0.66368720846E+02 0.  0.
         25    2    1    2    0    0 -0.28703526047E+02  0.17213945556E+02  0.16041165032E+03  0.20615211539E+03  0.12508630938E+03 0.  0.
        -24    2    1    2    0    0  0.13664851192E+02 -0.29773253466E+02  0.54057134793E+02  0.10234974794E+03  0.80499206833E+02 0.  0.
        -11    1    3    3    0    0 -0.76194256550E+01 -0.96319804703E+00 -0.10521924535E+02  0.13026676234E+02  0.00000000000E+00 0.  1.
         12    1    3    3    0    0  0.22658100510E+02  0.13522505957E+02 -0.80291010057E+03  0.80334356118E+03  0.00000000000E+00 0. -1.
         11    1    5    5    0    0  0.14583263427E+02 -0.52397303378E+02  0.13721000788E+02  0.56092912530E+02  0.00000000000E+00 0. -1.
        -12    1    5    5    0    0 -0.91841223492E+00  0.22624049912E+02  0.40336134004E+02  0.46256835407E+02  0.00000000000E+00 0.  1.
          5    1    4    4  501    0 -0.86821717732E+01 -0.21313682734E+02  0.16083806330E+03  0.16253002241E+03  0.41800000000E+01 0.  1.
         -5    1    4    4    0  501 -0.20021354273E+02  0.38527628290E+02 -0.42641297721E+00  0.43622092988E+02  0.41800000000E+01 0.  1.
</event>
<event>
11    1  0.7157190E-009  0.1755982E+03  0.7561462E-02  0.1073260E+00
         22   -1    0    0    0    0  0.00000000000E+00  0.00000000000E+00  0.18798345521E+03  0.18798345521E+03  0.00000000000E+00 0. -1.
         22   -1    0    0    0    0 -0.00000000000E+00 -0.00000000000E+00 -0.12775950496E+04  0.12775950496E+04  0.00000000000E+00 0.  1.
         24    2    1    2    0    0 -0.14033172709E+02  0.24448631522E+02 -0.10695860826E+04  0.10740224111E+04  0.93354625004E+02 0.  0.
         25    2    1    2    0    0  0.64877991831E+02 -0.13090448804E+03 -0.11192777443E+03  0.22252845060E+03  0.12508375525E+03 0.  0.
        -24    2    1    2    0    0 -0.50844819122E+02  0.10645585652E+03  0.91902262645E+02  0.16902764306E+03  0.78779903659E+02 0.  0.
        -11    1    3    3    0    0 -0.18342693434E+02 -0.16303746034E+02 -0.86627229452E+03  0.86661984445E+03  0.00000000000E+00 0.  1.
         12    1    3    3    0    0  0.43095207248E+01  0.40752377556E+02 -0.20331378809E+03  0.20740256670E+03  0.00000000000E+00 0. -1.
         11    1    5    5    0    0 -0.48690602862E+02  0.99811789671E+02  0.10585618921E+03  0.15342327385E+03  0.00000000000E+00 0. -1.
        -12    1    5    5    0    0 -0.21542162597E+01  0.66440668487E+01 -0.13953926564E+02  0.15604369213E+02  0.00000000000E+00 0.  1.
          5    1    4    4  501    0  0.59249373280E+02 -0.28139607318E+02 -0.98838369231E+02  0.11869634100E+03  0.41800000000E+01 0. -1.
         -5    1    4    4    0  501  0.56286185513E+01 -0.10276488072E+03 -0.13089405194E+02  0.10383210961E+03  0.41800000000E+01 0. -1.
</event>
<event>
11    1  0.7157190E-009  0.1473840E+03  0.7561462E-02  0.1099582E+00
         22   -1    0    0    0    0  0.00000000000E+00  0.00000000000E+00  0.13827465163E+03  0.13827465163E+03  0.00000000000E+00 0.  1.
         22   -1    0    0    0    0 -0.00000000000E+00 -0.00000000000E+00 -0.46200843911E+03  0.46200843911E+03  0.00000000000E+00 0. -1.
         24    2    1    2    0    0 -0.48746141557E+02  0.68888118483E+02 -0.23932772544E+03  0.26638915177E+03  0.81016423220E+02 0.  0.
         25    2    1    2    0    0  0.11722050336E+02 -0.68979459645E+02 -0.16293217586E+03  0.21700233210E+03  0.12509015105E+03 0.  0.
        -24    2    1    2    0    0  0.37024091221E+02  0.91341161663E-01  0.78526113820E+02  0.11689160687E+03  0.78271997108E+02 0.  0.
        -11    1    3    3    0    0 -0.30856519031E+02 -0.10137546305E+02 -0.10082265861E+03  0.10592498809E+03  0.00000000000E+00 0.  1.
         12    1    3    3    0    0 -0.17889622526E+02  0.79025664788E+02 -0.13850506683E+03  0.16046416369E+03  0.00000000000E+00 0. -1.
         13    1    5    5    0    0  0.97701530782E+01 -0.31778001638E+02  0.64692159564E+02  0.72734948878E+02  0.00000000000E+00 0. -1.
        -14    1    5    5    0    0  0.27253938143E+02  0.31869342799E+02  0.13833954256E+02  0.44156657993E+02  0.00000000000E+00 0.  1.
          5    1    4    4  501    0  0.32023606362E+02  0.59983880248E+00 -0.13565285819E+03  0.13944547862E+03  0.41800000000E+01 0. -1.
         -5    1    4    4    0  501 -0.20301556026E+02 -0.69579298447E+02 -0.27279317662E+02  0.77556853479E+02  0.41800000000E+01 0. -1.
</event>
<event>
11    1  0.7157190E-009  0.1466225E+03  0.7561462E-02  0.1100381E+00
         22   -1    0    0    0    0  0.00000000000E+00  0.00000000000E+00  0.22259495360E+04  0.22259495360E+04  0.00000000000E+00 0. -1.
         22   -1    0    0    0    0 -0.00000000000E+00 -0.00000000000E+00 -0.75996115161E+02  0.75996115161E+02  0.00000000000E+00 0. -1.
         24    2    1    2    0    0  0.32267161441E+02  0.58149997985E+02 -0.15633981711E+02  0.10306983013E+03  0.77177564908E+02 0.  0.
         25    2    1    2    0    0 -0.49392308787E+02  0.21511040661E+02  0.29543698210E+03  0.32531961033E+03  0.12509002135E+03 0.  0.
        -24    2    1    2    0    0  0.17125147346E+02 -0.79661038647E+02  0.18701504205E+04  0.18735562107E+04  0.78173702603E+02 0.  0.
        -11    1    3    3    0    0  0.42663979895E+01 -0.18569501392E+02  0.30352448457E+01  0.19293554495E+02  0.00000000000E+00 0.  1.
         12    1    3    3    0    0  0.28000763452E+02  0.76719499378E+02 -0.18669226556E+02  0.83776275632E+02  0.00000000000E+00 0. -1.
         13    1    5    5    0    0  0.50019121026E+01 -0.75876232714E+02  0.18268447081E+04  0.18284265940E+04  0.00000000000E+00 0. -1.
        -14    1    5    5    0    0  0.12123235243E+02 -0.37848059328E+01  0.43305712315E+02  0.45129616748E+02  0.00000000000E+00 0.  1.
          5    1    4    4  501    0  0.93246129281E+00 -0.52775327029E+01 -0.11362505855E+02  0.13240119894E+02  0.41800000000E+01 0. -1.
         -5    1    4    4    0  501 -0.50324770080E+02  0.26788573364E+02  0.30679948795E+03  0.31207949044E+03  0.41800000000E+01 0. -1.
</event>
<event>
11    1  0.7157190E-009  0.1417718E+03  0.7561462E-02  0.1105596E+00
         22   -1    0    0    0    0  0.00000000000E+00  0.00000000000E+00  0.12943549743E+04  0.12943549743E+04  0.00000000000E+00 0. -1.
         22   -1    0    0    0    0 -0.00000000000E+00 -0.00000000000E+00 -0.11600967902E+04  0.11600967902E+04  0.00000000000E+00 0.  1.
        -24    2    1    2    0    0  0.62601567903E+02  0.30603474037E+01 -0.93517077770E+03  0.94063218476E+03  0.79474533708E+02 0.  0.
         25    2    1    2    0    0 -0.11664292153E+03  0.10474557296E+02 -0.18704389105E+03  0.25366800195E+03  0.12508697190E+03 0.  0.
         24    2    1    2    0    0  0.54041353627E+02 -0.13534904699E+02  0.12564728529E+04  0.12601515778E+04  0.78449394008E+02 0.  0.
        -11    1    5    5    0    0 -0.12655513379E+02  0.16198771223E+02  0.17223238769E+03  0.17345477099E+03  0.00000000000E+00 0.  1.
         12    1    5    5    0    0  0.66696867006E+02 -0.29733675922E+02  0.10842404652E+04  0.10866968068E+04  0.00000000000E+00 0. -1.
         11    1    3    3    0    0  0.26608604047E+02 -0.35510018444E+02 -0.29859040205E+03  0.30186952052E+03  0.00000000000E+00 0. -1.
        -12    1    3    3    0    0  0.35992963857E+02  0.38570365847E+02 -0.63658037565E+03  0.63876266424E+03  0.00000000000E+00 0.  1.
          5    1    4    4  501    0 -0.14066654201E+03  0.15120741617E+02 -0.17761831580E+03  0.22711550228E+03  0.41800000000E+01 0.  1.
         -5    1    4    4    0  501  0.24023620483E+02 -0.46461843212E+01 -0.94255752545E+01  0.26552499671E+02  0.41800000000E+01 0.  1.
</event>
<event>
11    1  0.7157190E-009  0.2065247E+03  0.7561462E-02  0.1050003E+00
         22   -1    0    0    0    0  0.00000000000E+00  0.00000000000E+00  0.15298337048E+04  0.15298337048E+04  0.00000000000E+00 0. -1.
         22   -1    0    0    0    0 -0.00000000000E+00 -0.00000000000E+00 -0.46752280259E+03  0.46752280259E+03  0.00000000000E+00 0. -1.
        -24    2    1    2    0    0  0.21801000751E+02 -0.40751616589E+01 -0.41509440232E+03  0.42354844313E+03  0.81228260246E+02 0.  0.
         25    2    1    2    0    0 -0.13311597180E+03  0.12158272213E+03  0.24779145970E+03  0.33098439765E+03  0.12509134150E+03 0.  0.
         24    2    1    2    0    0  0.11131497105E+03 -0.11750756047E+03  0.12296138448E+04  0.12428236666E+04  0.80382892198E+02 0.  0.
        -13    1    5    5    0    0  0.45618566683E+02 -0.10706390153E+02  0.52955122815E+03  0.53162033788E+03  0.00000000000E+00 0.  1.
         14    1    5    5    0    0  0.65696404367E+02 -0.10680117032E+03  0.70006261665E+03  0.71120332871E+03  0.00000000000E+00 0. -1.
         13    1    3    3    0    0  0.28046108526E+02  0.27374956377E+02 -0.33483952068E+03  0.33712531357E+03  0.00000000000E+00 0. -1.
        -14    1    3    3    0    0 -0.62451077756E+01 -0.31450118036E+02 -0.80254881637E+02  0.86423129556E+02  0.00000000000E+00 0.  1.
          5    1    4    4  501    0 -0.96873053223E+02  0.15721524614E+02  0.69062710721E+02  0.12007782971E+03  0.41800000000E+01 0.  1.
         -5    1    4    4    0  501 -0.36242918579E+02  0.10586119752E+03  0.17872874898E+03  0.21090656794E+03  0.41800000000E+01 0.  1.
</event>
<event>
11    1  0.7157190E-009  0.1405855E+03  0.7561462E-02  0.1106906E+00
         22   -1    0    0    0    0  0.00000000000E+00  0.00000000000E+00  0.83277016676E+03  0.83277016676E+03  0.00000000000E+00 0. -1.
         22   -1    0    0    0    0 -0.00000000000E+00 -0.00000000000E+00 -0.11716316585E+04  0.11716316585E+04  0.00000000000E+00 0.  1.
         24    2    1    2    0    0  0.32451861523E+01  0.63844134765E+02 -0.11460570496E+04  0.11509444361E+04  0.84496918100E+02 0.  0.
         25    2    1    2    0    0 -0.88430039626E+01 -0.10340053702E+03  0.37563926162E+03  0.40929311515E+03  0.12508448932E+03 0.  0.
        -24    2    1    2    0    0  0.55978178103E+01  0.39556402259E+02  0.43155629631E+03  0.44416427398E+03  0.97185497216E+02 0.  0.
        -11    1    3    3    0    0 -0.96984251028E+00  0.81091256226E+02 -0.72657861450E+03  0.73109042907E+03  0.00000000000E+00 0.  1.
         12    1    3    3    0    0  0.42150286625E+01 -0.17247121461E+02 -0.41947843514E+03  0.41985400702E+03  0.00000000000E+00 0. -1.
         13    1    5    5    0    0 -0.33337056489E+02 -0.78550644616E+01  0.76095422939E+02  0.83448036318E+02  0.00000000000E+00 0. -1.
        -14    1    5    5    0    0  0.38934874300E+02  0.47411466721E+02  0.35546087337E+03  0.36071623766E+03  0.00000000000E+00 0.  1.
          5    1    4    4  501    0  0.10520153833E+02 -0.32468704003E+02  0.30603144289E+03  0.30795715093E+03  0.41800000000E+01 0.  1.
         -5    1    4    4    0  501 -0.19363157796E+02 -0.70931833021E+02  0.69607818729E+02  0.10133596422E+03  0.41800000000E+01 0.  1.
</event>
<event>
11    1  0.7157190E-009  0.1293361E+03  0.7561462E-02  0.1120087E+00
         22   -1    0    0    0    0  0.00000000000E+00  0.00000000000E+00  0.10750522193E+03  0.10750522193E+03  0.00000000000E+00 0. -1.
         22   -1    0    0    0    0 -0.00000000000E+00 -0.00000000000E+00 -0.82524469392E+03  0.82524469392E+03  0.00000000000E+00 0.  1.
        -24    2    1    2    0    0  0.21567988513E+02  0.25122360431E+02 -0.56826084085E+03  0.57474857757E+03  0.79493603804E+02 0.  0.
         25    2    1    2    0    0  0.98997592939E+01 -0.46504874398E+02 -0.21357716109E+03  0.25202800952E+03  0.12506880214E+03 0.  0.
         24    2    1    2    0    0 -0.31467747807E+02  0.21382513967E+02  0.64098529951E+02  0.10597332876E+03  0.75327908587E+02 0.  0.
        -13    1    5    5    0    0 -0.51044440867E+01  0.11450474845E+02 -0.16425628061E+02  0.20663251942E+02  0.00000000000E+00 0.  1.
         14    1    5    5    0    0 -0.26363303720E+02  0.99320391212E+01  0.80524158011E+02  0.85310076823E+02  0.00000000000E+00 0. -1.
         13    1    3    3    0    0 -0.18797466563E+02  0.18098621790E+02 -0.68351724969E+02  0.73163263775E+02  0.00000000000E+00 0. -1.
        -14    1    3    3    0    0  0.40365455077E+02  0.70237386408E+01 -0.49990911588E+03  0.50158531379E+03  0.00000000000E+00 0.  1.
          5    1    4    4  501    0  0.33012899485E+02  0.35382897259E+02 -0.80522935671E+02  0.94038377910E+02  0.41800000000E+01 0.  1.
         -5    1    4    4    0  501 -0.23113140191E+02 -0.81887771657E+02 -0.13305422542E+03  0.15798963161E+03  0.41800000000E+01 0.  1.
</event>
<event>
11    1  0.7157190E-009  0.1301992E+03  0.7561462E-02  0.1119024E+00
         22   -1    0    0    0    0  0.00000000000E+00  0.00000000000E+00  0.90831152246E+03  0.90831152246E+03  0.00000000000E+00 0. -1.
         22   -1    0    0    0    0 -0.00000000000E+00 -0.00000000000E+00 -0.21184434557E+03  0.21184434557E+03  0.00000000000E+00 0.  1.
         24    2    1    2    0    0 -0.17709026669E+02 -0.64941478888E+01 -0.16285644824E+03  0.18332755395E+03  0.82042584796E+02 0.  0.
         25    2    1    2    0    0  0.18951048680E+02  0.42096178569E+02  0.86659821952E+02  0.15902449370E+03  0.12509050468E+03 0.  0.
        -24    2    1    2    0    0 -0.12420220110E+01 -0.35602030681E+02  0.77266380318E+03  0.77780382038E+03  0.81855867467E+02 0.  0.
        -13    1    3    3    0    0  0.66218031982E+00  0.15368888750E+02 -0.15200036738E+03  0.15277680749E+03  0.00000000000E+00 0.  1.
         14    1    3    3    0    0 -0.18371206989E+02 -0.21863036639E+02 -0.10856080864E+02  0.30550746456E+02  0.00000000000E+00 0. -1.
         11    1    5    5    0    0 -0.24494267400E+02 -0.22689364147E+02  0.69326777801E+03  0.69407131364E+03  0.00000000000E+00 0. -1.
        -12    1    5    5    0    0  0.23252245389E+02 -0.12912666534E+02  0.79396025170E+02  0.83732506742E+02  0.00000000000E+00 0.  1.
          5    1    4    4  501    0 -0.21914290140E+02 -0.39975728554E+01  0.94140976642E+02  0.96830845211E+02  0.41800000000E+01 0.  1.
         -5    1    4    4    0  501  0.40865338820E+02  0.46093751425E+02 -0.74811546899E+01  0.62193648492E+02  0.41800000000E+01 0.  1.
</event>
<event>
11    1  0.7157190E-009  0.2640851E+03  0.7561462E-02  0.1016652E+00
         22   -1    0    0    0    0  0.00000000000E+00  0.00000000000E+00  0.13656840039E+04  0.13656840039E+04  0.00000000000E+00 0. -1.
         22   -1    0    0    0    0 -0.00000000000E+00 -0.00000000000E+00 -0.29672136290E+03  0.29672136290E+03  0.00000000000E+00 0. -1.
        -24    2    1    2    0    0  0.75588167732E+02  0.85662964074E+01 -0.13757079085E+03  0.17679345266E+03  0.80890357105E+02 0.  0.
         25    2    1    2    0    0 -0.11213859993E+03  0.22070644783E+03  0.24699336414E+02  0.27846537489E+03  0.12508599477E+03 0.  0.
         24    2    1    2    0    0  0.36550432202E+02 -0.22927274423E+03  0.11818340954E+04  0.12071465393E+04  0.81049446356E+02 0.  0.
        -11    1    5    5    0    0  0.18208017319E+01  0.60054299958E+01  0.63161856020E+02  0.63472833277E+02  0.00000000000E+00 0.  1.
         12    1    5    5    0    0  0.34729630470E+02 -0.23527817423E+03  0.11186722394E+04  0.11436737060E+04  0.00000000000E+00 0. -1.
         13    1    3    3    0    0  0.70372217203E+02 -0.21510807197E+02 -0.12212673492E+03  0.14258296940E+03  0.00000000000E+00 0. -1.
        -14    1    3    3    0    0  0.52159505291E+01  0.30077103605E+02 -0.15444055924E+02  0.34210483255E+02  0.00000000000E+00 0.  1.
          5    1    4    4  501    0 -0.13481263478E+03  0.14413562290E+03  0.17819292750E+02  0.19820323882E+03  0.41800000000E+01 0.  1.
         -5    1    4    4    0  501  0.22674034846E+02  0.76570824925E+02  0.68800436640E+01  0.80262136071E+02  0.41800000000E+01 0.  1.
</event>
<event>
11    1  0.7157190E-009  0.1698603E+03  0.7561462E-02  0.1078153E+00
         22   -1    0    0    0    0  0.00000000000E+00  0.00000000000E+00  0.18522146318E+04  0.18522146318E+04  0.00000000000E+00 0.  1.
         22   -1    0    0    0    0 -0.00000000000E+00 -0.00000000000E+00 -0.37913402339E+02  0.37913402339E+02  0.00000000000E+00 0. -1.
        -24    2    1    2    0    0  0.28766404452E+01  0.14031157068E+03  0.67821020108E+03  0.69688358983E+03  0.77343706889E+02 0.  0.
         25    2    1    2    0    0  0.11381726318E+03 -0.52535010244E+02  0.38900238646E+03  0.42742663258E+03  0.12512542854E+03 0.  0.
         24    2    1    2    0    0 -0.11669390363E+03 -0.87776560439E+02  0.74708864195E+03  0.76581781176E+03  0.83745388968E+02 0.  0.
        -13    1    5    5    0    0 -0.41663642202E+02 -0.17638030789E+01  0.35538855553E+03  0.35782676743E+03  0.00000000000E+00 0.  1.
         14    1    5    5    0    0 -0.75030261424E+02 -0.86012757360E+02  0.39170008641E+03  0.40799104433E+03  0.00000000000E+00 0. -1.
         13    1    3    3    0    0 -0.34237844473E+02  0.63382422724E+02  0.24678342934E+03  0.25708290978E+03  0.00000000000E+00 0. -1.
        -14    1    3    3    0    0  0.37114484918E+02  0.76929147959E+02  0.43142677174E+03  0.43980068005E+03  0.00000000000E+00 0.  1.
          5    1    4    4  501    0  0.54079841218E+02  0.14052316188E+02  0.44726831333E+02  0.71694202398E+02  0.41800000000E+01 0. -1.
         -5    1    4    4    0  501  0.59737421963E+02 -0.66587326432E+02  0.34427555513E+03  0.35573243018E+03  0.41800000000E+01 0. -1.
</event>
<event>
11    1  0.7157190E-009  0.1266626E+03  0.7561462E-02  0.1123439E+00
         22   -1    0    0    0    0  0.00000000000E+00  0.00000000000E+00  0.80341587675E+03  0.80341587675E+03  0.00000000000E+00 0. -1.
         22   -1    0    0    0    0 -0.00000000000E+00 -0.00000000000E+00 -0.16567611062E+03  0.16567611062E+03  0.00000000000E+00 0. -1.
        -24    2    1    2    0    0 -0.30486311113E+01 -0.50002403445E+01 -0.85908409076E+02  0.11765999574E+03  0.80183061128E+02 0.  0.
         25    2    1    2    0    0  0.13904609968E+02  0.21390180917E+02  0.52216806606E+01  0.12777166011E+03  0.12508978040E+03 0.  0.
         24    2    1    2    0    0 -0.10855978857E+02 -0.16389940573E+02  0.71842649455E+03  0.72366033152E+03  0.84623666407E+02 0.  0.
        -13    1    5    5    0    0 -0.98245499819E+01  0.11146926998E+02  0.21194575456E+02  0.25884083770E+02  0.00000000000E+00 0.  1.
         14    1    5    5    0    0 -0.10314288749E+01 -0.27536867571E+02  0.69723191909E+03  0.69777624775E+03  0.00000000000E+00 0. -1.
         13    1    3    3    0    0 -0.19218715707E+02 -0.16140936350E+02 -0.93346900533E+02  0.96661950626E+02  0.00000000000E+00 0. -1.
        -14    1    3    3    0    0  0.16170084596E+02  0.11140696005E+02  0.74384914575E+01  0.20998045111E+02  0.00000000000E+00 0.  1.
          5    1    4    4  501    0 -0.10909658546E+02  0.35637842047E+02  0.57136920912E+02  0.68346006224E+02  0.41800000000E+01 0.  1.
         -5    1    4    4    0  501  0.24814268514E+02 -0.14247661130E+02 -0.51915240252E+02  0.59425653887E+02  0.41800000000E+01 0.  1.
</event>
<event>
11    1  0.7157190E-009  0.1639599E+03  0.7561462E-02  0.1083411E+00
         22   -1    0    0    0    0  0.00000000000E+00  0.00000000000E+00  0.61270534559E+03  0.61270534559E+03  0.00000000000E+00 0. -1.
         22   -1    0    0    0    0 -0.00000000000E+00 -0.00000000000E+00 -0.36096672820E+03  0.36096672820E+03  0.00000000000E+00 0. -1.
        -24    2    1    2    0    0  0.85840778001E+00  0.66639956929E+01 -0.19549830229E+03  0.21039407254E+03  0.77465694731E+02 0.  0.
         25    2    1    2    0    0 -0.10617798585E+03  0.57864778135E+01 -0.10539491081E+03  0.19506436270E+03  0.12503907536E+03 0.  0.
         24    2    1    2    0    0  0.10531957807E+03 -0.12450473506E+02  0.55263183050E+03  0.56821363855E+03  0.78851576636E+02 0.  0.
        -13    1    5    5    0    0  0.19878340884E+02  0.18649854408E+02  0.26868244438E+03  0.27006151415E+03  0.00000000000E+00 0.  1.
         14    1    5    5    0    0  0.85441237183E+02 -0.31100327915E+02  0.28394938612E+03  0.29815212440E+03  0.00000000000E+00 0. -1.
         13    1    3    3    0    0  0.28478899969E+02  0.12322191058E+02 -0.16858412116E+03  0.17141613122E+03  0.00000000000E+00 0. -1.
        -14    1    3    3    0    0 -0.27620492189E+02 -0.56581953646E+01 -0.26914181125E+02  0.38977941315E+02  0.00000000000E+00 0.  1.
          5    1    4    4  501    0 -0.77731963929E+02  0.60953160885E+02 -0.82525085855E+02  0.12878434778E+03  0.41800000000E+01 0. -1.
         -5    1    4    4    0  501 -0.28446021918E+02 -0.55166683072E+02 -0.22869824959E+02  0.66280014920E+02  0.41800000000E+01 0. -1.
</event>
<event>
11    1  0.7157190E-009  0.1603026E+03  0.7561462E-02  0.1086793E+00
         22   -1    0    0    0    0  0.00000000000E+00  0.00000000000E+00  0.15833712913E+04  0.15833712913E+04  0.00000000000E+00 0.  1.
         22   -1    0    0    0    0 -0.00000000000E+00 -0.00000000000E+00 -0.87107221089E+03  0.87107221089E+03  0.00000000000E+00 0.  1.
        -24    2    1    2    0    0  0.10047708349E+03  0.71213111469E+01 -0.84965300401E+03  0.85952568478E+03  0.82023278408E+02 0.  0.
         25    2    1    2    0    0 -0.58498981003E+02  0.74975738111E+02  0.45880909682E+03  0.48497252961E+03  0.12509626320E+03 0.  0.
         24    2    1    2    0    0 -0.41978102487E+02 -0.82097049257E+02  0.11031429876E+04  0.11099452878E+04  0.80944451456E+02 0.  0.
        -11    1    5    5    0    0 -0.20923364553E+02 -0.78318441865E+02  0.10423711090E+04  0.10455185768E+04  0.00000000000E+00 0.  1.
         12    1    5    5    0    0 -0.21054737934E+02 -0.37786073926E+01  0.60771878611E+02  0.64426711023E+02  0.00000000000E+00 0. -1.
         11    1    3    3    0    0 -0.54326183956E+01 -0.18044507638E+02 -0.19217836904E+03  0.19310008577E+03  0.00000000000E+00 0. -1.
        -12    1    3    3    0    0  0.10590970189E+03  0.25165818784E+02 -0.65747463497E+03  0.66642559901E+03  0.00000000000E+00 0.  1.
          5    1    4    4  501    0 -0.83479424243E+02  0.12690325475E+02  0.19140166850E+03  0.20924131938E+03  0.41800000000E+01 0. -1.
         -5    1    4    4    0  501  0.24980443240E+02  0.62285412636E+02  0.26740742832E+03  0.27573121022E+03  0.41800000000E+01 0. -1.
</event>
<event>
11    1  0.7157190E-009  0.2881868E+03  0.7561462E-02  0.1005319E+00
         22   -1    0    0    0    0  0.00000000000E+00  0.00000000000E+00  0.61114166237E+03  0.61114166237E+03  0.00000000000E+00 0.  1.
         22   -1    0    0    0    0 -0.00000000000E+00 -0.00000000000E+00 -0.96925682279E+03  0.96925682279E+03  0.00000000000E+00 0. -1.
        -24    2    1    2    0    0 -0.57179405279E+02 -0.25592015702E+03 -0.80032497051E+03  0.84601883759E+03  0.80394054352E+02 0.  0.
         25    2    1    2    0    0  0.59428612278E+02  0.23704459530E+03 -0.60824413871E+01  0.27460129529E+03  0.12508786976E+03 0.  0.
         24    2    1    2    0    0 -0.22492069989E+01  0.18875561713E+02  0.44829225148E+03  0.45977835229E+03  0.10034363323E+03 0.  0.
        -13    1    5    5    0    0 -0.26246467534E+02 -0.30461790036E+02  0.27729711441E+03  0.28019722941E+03  0.00000000000E+00 0.  1.
         14    1    5    5    0    0  0.23997260535E+02  0.49337351748E+02  0.17099513708E+03  0.17958112288E+03  0.00000000000E+00 0. -1.
         11    1    3    3    0    0 -0.55511901967E+02 -0.17964309171E+03 -0.66040179105E+03  0.68664673398E+03  0.00000000000E+00 0. -1.
        -12    1    3    3    0    0 -0.16675033113E+01 -0.76277065303E+02 -0.13992317946E+03  0.15937210361E+03  0.00000000000E+00 0.  1.
          5    1    4    4  501    0 -0.32002760663E+02  0.11884194917E+03 -0.18766595822E+02  0.12456822665E+03  0.41800000000E+01 0.  1.
         -5    1    4    4    0  501  0.91431372940E+02  0.11820264614E+03  0.12684154434E+02  0.15003306864E+03  0.41800000000E+01 0.  1.
</event>
<event>
11    1  0.7157190E-009  0.1332711E+03  0.7561462E-02  0.1115314E+00
         22   -1    0    0    0    0  0.00000000000E+00  0.00000000000E+00  0.56858443557E+03  0.56858443557E+03  0.00000000000E+00 0.  1.
         22   -1    0    0    0    0 -0.00000000000E+00 -0.00000000000E+00 -0.71408946761E+02  0.71408946761E+02  0.00000000000E+00 0.  1.
         24    2    1    2    0    0 -0.22503792168E+02 -0.51975657441E+02  0.49961896808E+02  0.12850191948E+03  0.10396471781E+03 0.  0.
         25    2    1    2    0    0  0.32501749370E+02  0.12265231366E+02  0.13625694000E+03  0.18820209678E+03  0.12508907196E+03 0.  0.
        -24    2    1    2    0    0 -0.99979572016E+01  0.39710426075E+02  0.31095665200E+03  0.32328936606E+03  0.78390673537E+02 0.  0.
        -11    1    3    3    0    0 -0.25007509233E+02 -0.30668667908E+02 -0.27457574082E+02  0.48164936248E+02  0.00000000000E+00 0.  1.
         12    1    3    3    0    0  0.25037170647E+01 -0.21306989533E+02  0.77419470890E+02  0.80336983233E+02  0.00000000000E+00 0. -1.
         13    1    5    5    0    0  0.26286062746E+02  0.78375689856E+01  0.42918527396E+02  0.50935101611E+02  0.00000000000E+00 0. -1.
        -14    1    5    5    0    0 -0.36284019948E+02  0.31872857089E+02  0.26803812460E+03  0.27235426445E+03  0.00000000000E+00 0.  1.
          5    1    4    4  501    0  0.68967992493E+02  0.38753682429E+02  0.11099136122E+03  0.13636343556E+03  0.41800000000E+01 0.  1.
         -5    1    4    4    0  501 -0.36466243123E+02 -0.26488451063E+02  0.25265578771E+02  0.51838661228E+02  0.41800000000E+01 0.  1.
</event>
<event>
11    1  0.7157190E-009  0.1364412E+03  0.7561462E-02  0.1111599E+00
         22   -1    0    0    0    0  0.00000000000E+00  0.00000000000E+00  0.28617161764E+03  0.28617161764E+03  0.00000000000E+00 0. -1.
         22   -1    0    0    0    0 -0.00000000000E+00 -0.00000000000E+00 -0.58613375316E+03  0.58613375316E+03  0.00000000000E+00 0. -1.
        -24    2    1    2    0    0 -0.32769562573E+02  0.45866537346E+02 -0.52972289317E+03  0.53863951414E+03  0.79678097208E+02 0.  0.
         25    2    1    2    0    0  0.20264539557E+02 -0.45082037080E+00  0.58736742766E+02  0.13967750053E+03  0.12509574094E+03 0.  0.
         24    2    1    2    0    0  0.12505023017E+02 -0.45415716975E+02  0.17102401488E+03  0.19398835613E+03  0.78506723913E+02 0.  0.
        -11    1    5    5    0    0 -0.16094021103E+02  0.16486150794E+02  0.36374366982E+02  0.43057000088E+02  0.00000000000E+00 0.  1.
         12    1    5    5    0    0  0.28599044119E+02 -0.61901867769E+02  0.13464964789E+03  0.15093135604E+03  0.00000000000E+00 0. -1.
         11    1    3    3    0    0 -0.36698328029E+02  0.65472936208E+02 -0.46086935947E+03  0.46694115170E+03  0.00000000000E+00 0. -1.
        -12    1    3    3    0    0  0.39287654560E+01 -0.19606398862E+02 -0.68853533697E+02  0.71698362443E+02  0.00000000000E+00 0.  1.
          5    1    4    4  501    0 -0.57187634076E+01 -0.80049971390E+00 -0.38390810775E+02  0.39047046068E+02  0.41800000000E+01 0. -1.
         -5    1    4    4    0  501  0.25983302964E+02  0.34967934310E+00  0.97127553541E+02  0.10063045446E+03  0.41800000000E+01 0. -1.
</event>
<event>
11    1  0.7157190E-009  0.2818501E+03  0.7561462E-02  0.1008179E+00
         22   -1    0    0    0    0  0.00000000000E+00  0.00000000000E+00  0.26681391983E+04  0.26681391983E+04  0.00000000000E+00 0. -1.
         22   -1    0    0    0    0 -0.00000000000E+00 -0.00000000000E+00 -0.22374498237E+03  0.22374498237E+03  0.00000000000E+00 0.  1.
         24    2    1    2    0    0  0.35623906074E+02 -0.25201988489E+03 -0.12728621974E+03  0.29525169083E+03  0.78668253701E+02 0.  0.
         25    2    1    2    0    0 -0.81550130961E+02  0.20331445550E+03  0.16921499978E+04  0.17108495185E+04  0.12508904018E+03 0.  0.
        -24    2    1    2    0    0  0.45926224886E+02  0.48705429396E+02  0.87953043779E+03  0.88578297134E+03  0.80970638644E+02 0.  0.
        -11    1    3    3    0    0  0.58420178828E+02 -0.18055946291E+03 -0.76216261121E+02  0.20450808150E+03  0.00000000000E+00 0.  1.
         12    1    3    3    0    0 -0.22796272754E+02 -0.71460421980E+02 -0.51069958617E+02  0.90743609329E+02  0.00000000000E+00 0. -1.
         13    1    5    5    0    0  0.34636930858E+02 -0.86886577833E+01  0.54565769663E+03  0.54682495521E+03  0.00000000000E+00 0. -1.
        -14    1    5    5    0    0  0.11289294029E+02  0.57394087179E+02  0.33387274117E+03  0.33895801613E+03  0.00000000000E+00 0.  1.
          5    1    4    4  501    0 -0.70566394219E+02  0.41401779287E+02  0.38236091580E+03  0.39103844524E+03  0.41800000000E+01 0.  1.
         -5    1    4    4    0  501 -0.10983736742E+02  0.16191267621E+03  0.13097890820E+04  0.13198110732E+04  0.41800000000E+01 0.  1.
</event>
<event>
11    1  0.7157190E-009  0.1948868E+03  0.7561462E-02  0.1058199E+00
         22   -1    0    0    0    0  0.00000000000E+00  0.00000000000E+00  0.16913999969E+04  0.16913999969E+04  0.00000000000E+00 0. -1.
         22   -1    0    0    0    0 -0.00000000000E+00 -0.00000000000E+00 -0.25761352024E+04  0.25761352024E+04  0.00000000000E+00 0. -1.
         24    2    1    2    0    0 -0.95532767178E+02 -0.50213593370E+02 -0.25387983822E+04  0.25422684396E+04  0.77354242811E+02 0.  0.
         25    2    1    2    0    0 -0.57908245954E+02 -0.13814742136E+02  0.12974347934E+03  0.18980182099E+03  0.12508856371E+03 0.  0.
        -24    2    1    2    0    0  0.15344101313E+03  0.64028335505E+02  0.15243196973E+04  0.15354649387E+04  0.80363337545E+02 0.  0.
        -13    1    3    3    0    0 -0.52338650459E+02  0.10847711399E+02 -0.74712134528E+03  0.74903091508E+03  0.00000000000E+00 0.  1.
         14    1    3    3    0    0 -0.43194116719E+02 -0.61061304769E+02 -0.17916770369E+04  0.17932375245E+04  0.00000000000E+00 0. -1.
         11    1    5    5    0    0  0.99279276468E+02  0.27975474724E+02  0.12153387896E+04  0.12197079058E+04  0.00000000000E+00 0. -1.
        -12    1    5    5    0    0  0.54161736664E+02  0.36052860781E+02  0.30898090770E+03  0.31575703288E+03  0.00000000000E+00 0.  1.
          5    1    4    4  501    0  0.36468505840E+02 -0.22765271989E+02  0.47807757885E+02  0.64430300643E+02  0.41800000000E+01 0. -1.
         -5    1    4    4    0  501 -0.94376751794E+02  0.89505298533E+01  0.81935721456E+02  0.12537152035E+03  0.41800000000E+01 0. -1.
</event>
<event>
11    1  0.7157190E-009  0.1424370E+03  0.7561462E-02  0.1104867E+00
         22   -1    0    0    0    0  0.00000000000E+00  0.00000000000E+00  0.23033843067E+03  0.23033843067E+03  0.00000000000E+00 0. -1.
         22   -1    0    0    0    0 -0.00000000000E+00 -0.00000000000E+00 -0.55489573510E+03  0.55489573510E+03  0.00000000000E+00 0.  1.
         24    2    1    2    0    0  0.10852628538E+02  0.67770544558E+02 -0.42318681685E+03  0.43588016945E+03  0.78700787225E+02 0.  0.
         25    2    1    2    0    0 -0.33487850972E+01 -0.64858105282E+02 -0.73389056663E+02  0.15891001354E+03  0.12509456656E+03 0.  0.
        -24    2    1    2    0    0 -0.75038434405E+01 -0.29124392757E+01  0.17201856909E+03  0.19044398277E+03  0.81324857789E+02 0.  0.
        -11    1    3    3    0    0  0.30381597145E+02  0.75143421118E+02 -0.29189919526E+03  0.30294341943E+03  0.00000000000E+00 0.  1.
         12    1    3    3    0    0 -0.19528968607E+02 -0.73728765606E+01 -0.13128762159E+03  0.13293675002E+03  0.00000000000E+00 0. -1.
         11    1    5    5    0    0 -0.33958270359E+02  0.11829120548E+02  0.35223514435E+02  0.50336747888E+02  0.00000000000E+00 0. -1.
        -12    1    5    5    0    0  0.26454426919E+02 -0.14741559824E+02  0.13679505465E+03  0.14010723489E+03  0.00000000000E+00 0.  1.
          5    1    4    4  501    0  0.49515926860E+02 -0.69740384351E+02 -0.31823973318E+02  0.91355272974E+02  0.41800000000E+01 0. -1.
         -5    1    4    4    0  501 -0.52864711958E+02  0.48822790694E+01 -0.41565083345E+02  0.67554740565E+02  0.41800000000E+01 0. -1.
</event>
<event>
11    1  0.7157190E-009  0.3106795E+03  0.7561462E-02  0.9957701E-01
         22   -1    0    0    0    0  0.00000000000E+00  0.00000000000E+00  0.19263211438E+04  0.19263211438E+04  0.00000000000E+00 0.  1.
         22   -1    0    0    0    0 -0.00000000000E+00 -0.00000000000E+00 -0.14372106048E+04  0.14372106048E+04  0.00000000000E+00 0.  1.
        -24    2    1    2    0    0 -0.96794273681E+02 -0.26656856445E+03 -0.12199286467E+04  0.12551074260E+04  0.81491206735E+02 0.  0.
         25    2    1    2    0    0  0.51880387262E+02  0.28925803540E+03 -0.69917518934E+02  0.32695230417E+03  0.12509022392E+03 0.  0.
         24    2    1    2    0    0  0.44913886419E+02 -0.22689470951E+02  0.17789567047E+04  0.17814720185E+04  0.80146904259E+02 0.  0.
        -13    1    5    5    0    0  0.30109120028E+02  0.11946808345E+02  0.14506337703E+04  0.14509953897E+04  0.00000000000E+00 0.  1.
         14    1    5    5    0    0  0.14804766391E+02 -0.34636279297E+02  0.32832293434E+03  0.33047662877E+03  0.00000000000E+00 0. -1.
         11    1    3    3    0    0 -0.74245751898E+01 -0.48744189069E+02 -0.11097818944E+03  0.12143837456E+03  0.00000000000E+00 0. -1.
        -12    1    3    3    0    0 -0.89369698491E+02 -0.21782437538E+03 -0.11089504572E+04  0.11336690514E+04  0.00000000000E+00 0.  1.
          5    1    4    4  501    0  0.60170016676E+02  0.26546617181E+03 -0.97683570341E+02  0.28922702432E+03  0.41800000000E+01 0.  1.
         -5    1    4    4    0  501 -0.82896294142E+01  0.23791863593E+02  0.27766051407E+02  0.37725279850E+02  0.41800000000E+01 0.  1.
</event>
<event>
11    1  0.7157190E-009  0.1356796E+03  0.7561462E-02  0.1112481E+00
         22   -1    0    0    0    0  0.00000000000E+00  0.00000000000E+00  0.25756323269E+03  0.25756323269E+03  0.00000000000E+00 0.  1.
         22   -1    0    0    0    0 -0.00000000000E+00 -0.00000000000E+00 -0.21566303314E+04  0.21566303314E+04  0.00000000000E+00 0. -1.
         24    2    1    2    0    0  0.24736065802E+02  0.43984920210E+02 -0.20237539720E+04  0.20260129488E+04  0.81251360905E+02 0.  0.
         25    2    1    2    0    0 -0.54801028137E+01  0.93363911128E+01 -0.88162072853E+02  0.15341613472E+03  0.12508700803E+03 0.  0.
        -24    2    1    2    0    0 -0.19255962988E+02 -0.53321311323E+02  0.21284894614E+03  0.23476448050E+03  0.81214118722E+02 0.  0.
        -11    1    3    3    0    0  0.45215104073E+02  0.45161840408E+02 -0.99266923973E+03  0.99472419141E+03  0.00000000000E+00 0.  1.
         12    1    3    3    0    0 -0.20479038271E+02 -0.11769201979E+01 -0.10310847322E+04  0.10312887574E+04  0.00000000000E+00 0. -1.
         13    1    5    5    0    0  0.17951618032E+02  0.20551878165E+01  0.88235554829E+01  0.20108195302E+02  0.00000000000E+00 0. -1.
        -14    1    5    5    0    0 -0.37207581020E+02 -0.55376499139E+02  0.20402539066E+03  0.21465628520E+03  0.00000000000E+00 0.  1.
          5    1    4    4  501    0  0.53899019285E+02 -0.19984441417E+01 -0.10830084854E+02  0.55171198980E+02  0.41800000000E+01 0.  1.
         -5    1    4    4    0  501 -0.59379122099E+02  0.11334835254E+02 -0.77331987999E+02  0.98244935744E+02  0.41800000000E+01 0.  1.
</event>
<event>
11    1  0.7157190E-009  0.1342370E+03  0.7561462E-02  0.1114170E+00
         22   -1    0    0    0    0  0.00000000000E+00  0.00000000000E+00  0.38772125766E+03  0.38772125766E+03  0.00000000000E+00 0. -1.
         22   -1    0    0    0    0 -0.00000000000E+00 -0.00000000000E+00 -0.11003144306E+03  0.11003144306E+03  0.00000000000E+00 0. -1.
        -24    2    1    2    0    0  0.89300138397E+01 -0.46085390459E+02  0.79306880918E+01  0.11110319310E+03  0.10038633045E+03 0.  0.
         25    2    1    2    0    0  0.31823546563E+01  0.52270744274E+02  0.36225673206E+02  0.14035016391E+03  0.12507402217E+03 0.  0.
         24    2    1    2    0    0 -0.12112368496E+02 -0.61853538145E+01  0.23353345331E+03  0.24629934372E+03  0.77074800217E+02 0.  0.
        -11    1    5    5    0    0  0.15069726558E+01  0.31348624276E+02  0.54714662712E+02  0.63076949247E+02  0.00000000000E+00 0.  1.
         12    1    5    5    0    0 -0.13619341152E+02 -0.37533978091E+02  0.17881879060E+03  0.18322239447E+03  0.00000000000E+00 0. -1.
         11    1    3    3    0    0 -0.10708736998E+02 -0.15629941038E+02 -0.43926750716E+02  0.47838598782E+02  0.00000000000E+00 0. -1.
        -12    1    3    3    0    0  0.19638750838E+02 -0.30455449422E+02  0.51857438808E+02  0.63264594314E+02  0.00000000000E+00 0.  1.
          5    1    4    4  501    0 -0.44749170171E+01  0.27601734103E+02 -0.46037410625E+02  0.54025884396E+02  0.41800000000E+01 0.  1.
         -5    1    4    4    0  501  0.76572716734E+01  0.24669010171E+02  0.82263083831E+02  0.86324279514E+02  0.41800000000E+01 0.  1.
</event>
<event>
11    1  0.7157190E-009  0.1277709E+03  0.7561462E-02  0.1122038E+00
         22   -1    0    0    0    0  0.00000000000E+00  0.00000000000E+00  0.10694171611E+03  0.10694171611E+03  0.00000000000E+00 0.  1.
         22   -1    0    0    0    0 -0.00000000000E+00 -0.00000000000E+00 -0.38400436682E+03  0.38400436682E+03  0.00000000000E+00 0.  1.
        -24    2    1    2    0    0 -0.18250324362E+02  0.10193481988E+02 -0.17545228878E+03  0.19155190611E+03  0.73970573081E+02 0.  0.
         25    2    1    2    0    0  0.33954933218E+02 -0.28054684786E+02 -0.15301884668E+03  0.20249087879E+03  0.12509110970E+03 0.  0.
         24    2    1    2    0    0 -0.15704608856E+02  0.17861202798E+02  0.51408484757E+02  0.96903298030E+02  0.78624166511E+02 0.  0.
        -11    1    5    5    0    0  0.19112785415E+02  0.37089944572E+02  0.32361043483E+02  0.52803406045E+02  0.00000000000E+00 0.  1.
         12    1    5    5    0    0 -0.34817394271E+02 -0.19228741774E+02  0.19047441274E+02  0.44099891985E+02  0.00000000000E+00 0. -1.
         13    1    3    3    0    0  0.15911296148E+02 -0.19469753042E+02 -0.10387284364E+03  0.10687286032E+03  0.00000000000E+00 0. -1.
        -14    1    3    3    0    0 -0.34161620510E+02  0.29663235030E+02 -0.71579445147E+02  0.84679045789E+02  0.00000000000E+00 0.  1.
          5    1    4    4  501    0  0.55333023503E+02 -0.23607956440E+02 -0.14266121985E+02  0.61968328473E+02  0.41800000000E+01 0.  1.
         -5    1    4    4    0  501 -0.21378090285E+02 -0.44467283459E+01 -0.13875272469E+03  0.14052255031E+03  0.41800000000E+01 0.  1.
</event>
<event>
11    1  0.7157190E-009  0.1631971E+03  0.7561462E-02  0.1084108E+00
         22   -1    0    0    0    0  0.00000000000E+00  0.00000000000E+00  0.11677965104E+04  0.11677965104E+04  0.00000000000E+00 0.  1.
         22   -1    0    0    0    0 -0.00000000000E+00 -0.00000000000E+00 -0.28043168761E+03  0.28043168761E+03  0.00000000000E+00 0. -1.
         24    2    1    2    0    0 -0.75198232564E+02 -0.69436609515E+02 -0.23154888957E+03  0.26592729403E+03  0.81401600291E+02 0.  0.
         25    2    1    2    0    0  0.85602847473E+02  0.14726653210E+03  0.38107805280E+03  0.43575573417E+03  0.12508916249E+03 0.  0.
        -24    2    1    2    0    0 -0.10404614909E+02 -0.77829922581E+02  0.73783565960E+03  0.74654516984E+03  0.82234282197E+02 0.  0.
        -13    1    3    3    0    0  0.12708120787E+02 -0.50888659690E+01 -0.50497877472E+01  0.14590861766E+02  0.00000000000E+00 0.  1.
         14    1    3    3    0    0 -0.87906353351E+02 -0.64347743546E+02 -0.22649910182E+03  0.25133643227E+03  0.00000000000E+00 0. -1.
         13    1    5    5    0    0  0.25857672765E+02 -0.64267203909E+02  0.35055488329E+03  0.35733404391E+03  0.00000000000E+00 0. -1.
        -14    1    5    5    0    0 -0.36262287674E+02 -0.13562718672E+02  0.38728077631E+03  0.38921112593E+03  0.00000000000E+00 0.  1.
          5    1    4    4  501    0  0.40889623713E+02 -0.44612974369E+01  0.31315367894E+02  0.51865105500E+02  0.41800000000E+01 0. -1.
         -5    1    4    4    0  501  0.44713223760E+02  0.15172782953E+03  0.34976268490E+03  0.38389062867E+03  0.41800000000E+01 0. -1.
</event>
<event>
11    1  0.7157190E-009  0.1547051E+03  0.7561462E-02  0.1092166E+00
         22   -1    0    0    0    0  0.00000000000E+00  0.00000000000E+00  0.19978165875E+03  0.19978165875E+03  0.00000000000E+00 0. -1.
         22   -1    0    0    0    0 -0.00000000000E+00 -0.00000000000E+00 -0.89045981296E+03  0.89045981296E+03  0.00000000000E+00 0. -1.
        -24    2    1    2    0    0  0.35412105615E+02 -0.85116555811E+02 -0.72909879657E+03  0.73876836474E+03  0.75463874000E+02 0.  0.
         25    2    1    2    0    0 -0.27170942535E+02  0.77293741351E+02 -0.10780991488E+03  0.18434639196E+03  0.12509209372E+03 0.  0.
         24    2    1    2    0    0 -0.82411630797E+01  0.78228144595E+01  0.14623055724E+03  0.16712671502E+03  0.80117724671E+02 0.  0.
        -11    1    5    5    0    0 -0.25853705809E+02  0.69608555819E+01  0.82394683546E+01  0.28013504837E+02  0.00000000000E+00 0.  1.
         12    1    5    5    0    0  0.17612542729E+02  0.86195887766E+00  0.13799108889E+03  0.13911321018E+03  0.00000000000E+00 0. -1.
         11    1    3    3    0    0  0.29770798879E+02  0.31962410097E+01 -0.22132573407E+03  0.22334188363E+03  0.00000000000E+00 0. -1.
        -12    1    3    3    0    0  0.56413067358E+01 -0.88312796821E+02 -0.50777306250E+03  0.51542648110E+03  0.00000000000E+00 0.  1.
          5    1    4    4  501    0  0.27130597268E+02  0.58559409271E+01  0.15284117132E+02  0.31959943504E+02  0.41800000000E+01 0.  1.
         -5    1    4    4    0  501 -0.54301539803E+02  0.71437800424E+02 -0.12309403202E+03  0.15238644845E+03  0.41800000000E+01 0.  1.
</event>
<event>
11    1  0.7157190E-009  0.1507923E+03  0.7561462E-02  0.1096072E+00
         22   -1    0    0    0    0  0.00000000000E+00  0.00000000000E+00  0.23617047778E+03  0.23617047778E+03  0.00000000000E+00 0. -1.
         22   -1    0    0    0    0 -0.00000000000E+00 -0.00000000000E+00 -0.59935664845E+03  0.59935664845E+03  0.00000000000E+00 0. -1.
        -24    2    1    2    0    0 -0.54697036129E+02  0.62060153941E+02 -0.45048598726E+03  0.46503804583E+03  0.80495533333E+02 0.  0.
         25    2    1    2    0    0  0.75994969712E+02 -0.57907519152E+02 -0.85071244990E+02  0.17890959631E+03  0.12507202217E+03 0.  0.
         24    2    1    2    0    0 -0.21297933583E+02 -0.41526347893E+01  0.17237106158E+03  0.19157948409E+03  0.80746947334E+02 0.  0.
        -11    1    5    5    0    0  0.16856804555E+01 -0.21579421803E+02  0.56344522895E+01  0.22366493166E+02  0.00000000000E+00 0.  1.
         12    1    5    5    0    0 -0.22983614039E+02  0.17426787014E+02  0.16673660929E+03  0.16921299093E+03  0.00000000000E+00 0. -1.
         13    1    3    3    0    0 -0.62954942561E+02  0.17239589595E+02 -0.19828300605E+03  0.20875027840E+03  0.00000000000E+00 0. -1.
        -14    1    3    3    0    0  0.82579064316E+01  0.44820564347E+02 -0.25220298121E+03  0.25628776743E+03  0.00000000000E+00 0.  1.
          5    1    4    4  501    0  0.91633228816E+01  0.24024447212E+02 -0.66575213328E+02  0.71490362845E+02  0.41800000000E+01 0.  1.
         -5    1    4    4    0  501  0.66831646831E+02 -0.81931966364E+02 -0.18496031662E+02  0.10741923346E+03  0.41800000000E+01 0.  1.
</event>
<event>
11    1  0.7157190E-009  0.2870631E+03  0.7561462E-02  0.1005820E+00
         22   -1    0    0    0    0  0.00000000000E+00  0.00000000000E+00  0.23921552036E+04  0.23921552036E+04  0.00000000000E+00 0. -1.
         22   -1    0    0    0    0 -0.00000000000E+00 -0.00000000000E+00 -0.74622733820E+02  0.74622733820E+02  0.00000000000E+00 0. -1.
        -24    2    1    2    0    0  0.25718840406E+03 -0.23788381231E+02  0.31112299861E+03  0.41217445339E+03  0.79865496345E+02 0.  0.
         25    2    1    2    0    0 -0.26059441604E+03 -0.21503230674E+02  0.92677359083E+03  0.97104514337E+03  0.12509014034E+03 0.  0.
         24    2    1    2    0    0  0.34060119827E+01  0.45291611905E+02  0.10796358803E+04  0.10835583406E+04  0.80138083616E+02 0.  0.
        -11    1    5    5    0    0  0.30966932739E+02  0.12027298331E+02  0.19059019623E+03  0.19346376852E+03  0.00000000000E+00 0.  1.
         12    1    5    5    0    0 -0.27560920757E+02  0.33264313575E+02  0.88904568411E+03  0.89009457213E+03  0.00000000000E+00 0. -1.
         11    1    3    3    0    0  0.17774436651E+03 -0.15993283613E+02  0.15310478019E+03  0.23513808425E+03  0.00000000000E+00 0. -1.
        -12    1    3    3    0    0  0.79444037542E+02 -0.77950976184E+01  0.15801821842E+03  0.17703636914E+03  0.00000000000E+00 0.  1.
          5    1    4    4  501    0 -0.35564837553E+02 -0.51525903291E+02  0.20829017914E+03  0.21753631307E+03  0.41800000000E+01 0.  1.
         -5    1    4    4    0  501 -0.22502957849E+03  0.30022672617E+02  0.71848341169E+03  0.75350883030E+03  0.41800000000E+01 0.  1.
</event>
<event>
11    1  0.7157190E-009  0.2194353E+03  0.7561462E-02  0.1041572E+00
         22   -1    0    0    0    0  0.00000000000E+00  0.00000000000E+00  0.14193670088E+04  0.14193670088E+04  0.00000000000E+00 0. -1.
         22   -1    0    0    0    0 -0.00000000000E+00 -0.00000000000E+00 -0.60535391044E+02  0.60535391044E+02  0.00000000000E+00 0.  1.
         24    2    1    2    0    0 -0.58824300773E+02 -0.23055365728E+02  0.97511431414E+02  0.14428891097E+03  0.85550934085E+02 0.  0.
         25    2    1    2    0    0 -0.12274332479E+03  0.11559395555E+03  0.76005635239E+03  0.78851847285E+03  0.12509131417E+03 0.  0.
        -24    2    1    2    0    0  0.18156762556E+03 -0.92538589820E+02  0.50126383397E+03  0.54709501604E+03  0.80729994854E+02 0.  0.
        -11    1    3    3    0    0  0.88755564479E+01 -0.11231085961E+02 -0.94493863379E+01  0.17152367075E+02  0.00000000000E+00 0.  1.
         12    1    3    3    0    0 -0.67699857221E+02 -0.11824279767E+02  0.10696081775E+03  0.12713654390E+03  0.00000000000E+00 0. -1.
         13    1    5    5    0    0  0.13243325940E+03 -0.23688343164E+02  0.31482053169E+03  0.34236190351E+03  0.00000000000E+00 0. -1.
        -14    1    5    5    0    0  0.49134366159E+02 -0.68850246655E+02  0.18644330228E+03  0.20473311253E+03  0.00000000000E+00 0.  1.
          5    1    4    4  501    0 -0.31803556561E+01 -0.75175016816E+01 -0.14889425702E+00  0.91718080623E+01  0.41800000000E+01 0. -1.
         -5    1    4    4    0  501 -0.11956296913E+03  0.12311145723E+03  0.76020524665E+03  0.77934666479E+03  0.41800000000E+01 0. -1.
</event>
<event>
11    1  0.7157190E-009  0.2927564E+03  0.7561462E-02  0.1003304E+00
         22   -1    0    0    0    0  0.00000000000E+00  0.00000000000E+00  0.31292496745E+03  0.31292496745E+03  0.00000000000E+00 0. -1.
         22   -1    0    0    0    0 -0.00000000000E+00 -0.00000000000E+00 -0.49993706657E+03  0.49993706657E+03  0.00000000000E+00 0.  1.
         24    2    1    2    0    0  0.85715130905E+01 -0.10859976279E+03 -0.19007652933E+03  0.23336299751E+03  0.80385460683E+02 0.  0.
         25    2    1    2    0    0 -0.70384468959E+02 -0.19999553544E+03 -0.48221899040E+02  0.25084998580E+03  0.12509267029E+03 0.  0.
        -24    2    1    2    0    0  0.61812955868E+02  0.30859529823E+03  0.51286329252E+02  0.32864905071E+03  0.79548798617E+02 0.  0.
        -13    1    3    3    0    0 -0.22867049755E+02 -0.81003636209E+02 -0.16324128640E+03  0.18366330235E+03  0.00000000000E+00 0.  1.
         14    1    3    3    0    0  0.31438562845E+02 -0.27596126585E+02 -0.26835242933E+02  0.49699695165E+02  0.00000000000E+00 0. -1.
         13    1    5    5    0    0 -0.10659574635E+02  0.12398429549E+03  0.27616235767E+01  0.12447232072E+03  0.00000000000E+00 0. -1.
        -14    1    5    5    0    0  0.72472530503E+02  0.18461100274E+03  0.48524705676E+02  0.20417672999E+03  0.00000000000E+00 0.  1.
          5    1    4    4  501    0 -0.29487094692E+02  0.57447621087E+00  0.19030517444E+02  0.35347585073E+02  0.41800000000E+01 0. -1.
         -5    1    4    4    0  501 -0.40897374267E+02 -0.20057001165E+03 -0.67252416484E+02  0.21550240072E+03  0.41800000000E+01 0. -1.
</event>
<event>
11    1  0.7157190E-009  0.2384109E+03  0.7561462E-02  0.1030261E+00
         22   -1    0    0    0    0  0.00000000000E+00  0.00000000000E+00  0.67896128076E+03  0.67896128076E+03  0.00000000000E+00 0. -1.
         22   -1    0    0    0    0 -0.00000000000E+00 -0.00000000000E+00 -0.28007024073E+03  0.28007024073E+03  0.00000000000E+00 0. -1.
         24    2    1    2    0    0 -0.48281807958E+02 -0.23128394173E+03 -0.11017940392E+03  0.27171673544E+03  0.76596922854E+02 0.  0.
         25    2    1    2    0    0 -0.75285976965E+01  0.15540922295E+03  0.42611333802E+02  0.20413357962E+03  0.12508431635E+03 0.  0.
        -24    2    1    2    0    0  0.55810405655E+02  0.75874718774E+02  0.46645911015E+03  0.48318120643E+03  0.83715007485E+02 0.  0.
        -13    1    3    3    0    0 -0.12384633322E+02 -0.24066566814E+02 -0.43247586107E+02  0.51018942412E+02  0.00000000000E+00 0.  1.
         14    1    3    3    0    0 -0.35897174636E+02 -0.20721737491E+03 -0.66931817810E+02  0.22069779303E+03  0.00000000000E+00 0. -1.
         11    1    5    5    0    0  0.58141365845E+02  0.38059628436E+02  0.40547450471E+03  0.41138610539E+03  0.00000000000E+00 0. -1.
        -12    1    5    5    0    0 -0.23309601905E+01  0.37815090339E+02  0.60984605440E+02  0.71795101041E+02  0.00000000000E+00 0.  1.
          5    1    4    4  501    0  0.29659561510E+02  0.14539664422E+03  0.61924273717E+02  0.16084763541E+03  0.41800000000E+01 0. -1.
         -5    1    4    4    0  501 -0.37188159206E+02  0.10012578729E+02 -0.19312939915E+02  0.43285944210E+02  0.41800000000E+01 0. -1.
</event>
<event>
11    1  0.7157190E-009  0.1430916E+03  0.7561462E-02  0.1104154E+00
         22   -1    0    0    0    0  0.00000000000E+00  0.00000000000E+00  0.15090551237E+04  0.15090551237E+04  0.00000000000E+00 0.  1.
         22   -1    0    0    0    0 -0.00000000000E+00 -0.00000000000E+00 -0.83148522749E+02  0.83148522749E+02  0.00000000000E+00 0. -1.
         24    2    1    2    0    0  0.56619498470E+02 -0.47540232907E+02 -0.31156625170E+02  0.10452051805E+03  0.66992253660E+02 0.  0.
         25    2    1    2    0    0 -0.11544762542E+02  0.34054093327E+02  0.30165917366E+03  0.32854598904E+03  0.12510494413E+03 0.  0.
        -24    2    1    2    0    0 -0.45074735929E+02  0.13486139580E+02  0.11554040525E+04  0.11591371394E+04  0.80167172939E+02 0.  0.
        -13    1    3    3    0    0  0.76841999483E+01  0.11316823964E+02 -0.24024734457E+02  0.27646072039E+02  0.00000000000E+00 0.  1.
         14    1    3    3    0    0  0.48935298522E+02 -0.58857056871E+02 -0.71318907127E+01  0.76874446015E+02  0.00000000000E+00 0. -1.
         11    1    5    5    0    0 -0.12737861395E+02  0.43785567339E+02  0.43846869546E+03  0.44083355807E+03  0.00000000000E+00 0. -1.
        -12    1    5    5    0    0 -0.32336874534E+02 -0.30299427759E+02  0.71693535704E+03  0.71830358133E+03  0.00000000000E+00 0.  1.
          5    1    4    4  501    0  0.95321436386E+01  0.23124993763E+01  0.28747877609E+03  0.28767643025E+03  0.41800000000E+01 0. -1.
         -5    1    4    4    0  501 -0.21076906180E+02  0.31741593950E+02  0.14180397569E+02  0.40869558792E+02  0.41800000000E+01 0. -1.
</event>
<event>
11    1  0.7157190E-009  0.1610091E+03  0.7561462E-02  0.1086132E+00
         22   -1    0    0    0    0  0.00000000000E+00  0.00000000000E+00  0.90615713449E+03  0.90615713449E+03  0.00000000000E+00 0.  1.
         22   -1    0    0    0    0 -0.00000000000E+00 -0.00000000000E+00 -0.81676724355E+03  0.81676724355E+03  0.00000000000E+00 0. -1.
         24    2    1    2    0    0  0.13328994147E+02 -0.31517562893E+02 -0.74835903351E+03  0.75333238502E+03  0.79356287848E+02 0.  0.
         25    2    1    2    0    0  0.19242023642E+02 -0.67620727739E+02  0.25398149998E+02  0.14572362799E+03  0.12508993339E+03 0.  0.
        -24    2    1    2    0    0 -0.32571017789E+02  0.99138290632E+02  0.81235077445E+03  0.82386836503E+03  0.89196582190E+02 0.  0.
        -13    1    3    3    0    0  0.24572112411E+02 -0.52240284440E+02 -0.39606185139E+03  0.40024720630E+03  0.00000000000E+00 0.  1.
         14    1    3    3    0    0 -0.11243118264E+02  0.20722721548E+02 -0.35229718212E+03  0.35308517872E+03  0.00000000000E+00 0. -1.
         13    1    5    5    0    0 -0.14974497763E+02  0.83189538118E+02  0.32094873732E+03  0.33189279418E+03  0.00000000000E+00 0. -1.
        -14    1    5    5    0    0 -0.17596520026E+02  0.15948752514E+02  0.49140203713E+03  0.49197557086E+03  0.00000000000E+00 0.  1.
          5    1    4    4  501    0  0.39045734815E+02  0.12759860153E+02 -0.25428313977E+02  0.48491803329E+02  0.41800000000E+01 0. -1.
         -5    1    4    4    0  501 -0.19803711173E+02 -0.80380587892E+02  0.50826463976E+02  0.97231824658E+02  0.41800000000E+01 0. -1.
</event>
<event>
11    1  0.7157190E-009  0.1946311E+03  0.7561462E-02  0.1058387E+00
         22   -1    0    0    0    0  0.00000000000E+00  0.00000000000E+00  0.22201994492E+04  0.22201994492E+04  0.00000000000E+00 0.  1.
         22   -1    0    0    0    0 -0.00000000000E+00 -0.00000000000E+00 -0.77620518403E+03  0.77620518403E+03  0.00000000000E+00 0.  1.
        -24    2    1    2    0    0  0.13004971810E+03  0.75467794787E+02 -0.66373199127E+03  0.68529960935E+03  0.80542418093E+02 0.  0.
         25    2    1    2    0    0 -0.11380418701E+03 -0.80727211652E+02 -0.13883151257E+02  0.18790645293E+03  0.12509123662E+03 0.  0.
         24    2    1    2    0    0 -0.16245531085E+02  0.52594168647E+01  0.21216094076E+04  0.21231985709E+04  0.80337501477E+02 0.  0.
        -13    1    5    5    0    0 -0.15788150501E+02 -0.23863478544E+02  0.18111170519E+04  0.18113430671E+04  0.00000000000E+00 0.  1.
         14    1    5    5    0    0 -0.45738058419E+00  0.29122895409E+02  0.31049235578E+03  0.31185550377E+03  0.00000000000E+00 0. -1.
         13    1    3    3    0    0  0.19708855065E+02  0.18953842299E+02 -0.34757633007E+02  0.44224203307E+02  0.00000000000E+00 0. -1.
        -14    1    3    3    0    0  0.11034086303E+03  0.56513952488E+02 -0.62897435826E+03  0.64107540604E+03  0.00000000000E+00 0.  1.
          5    1    4    4  501    0 -0.33606847171E+02 -0.98327550415E+02  0.27319383839E+01  0.10403202985E+03  0.41800000000E+01 0.  1.
         -5    1    4    4    0  501 -0.80197339843E+02  0.17600338764E+02 -0.16615089641E+02  0.83874423075E+02  0.41800000000E+01 0.  1.
</event>
<event>
11    1  0.7157190E-009  0.1324300E+03  0.7561462E-02  0.1116319E+00
         22   -1    0    0    0    0  0.00000000000E+00  0.00000000000E+00  0.28944816234E+03  0.28944816234E+03  0.00000000000E+00 0. -1.
         22   -1    0    0    0    0 -0.00000000000E+00 -0.00000000000E+00 -0.17210322356E+04  0.17210322356E+04  0.00000000000E+00 0.  1.
        -24    2    1    2    0    0 -0.42803436431E+02  0.76478009456E+01 -0.14845659340E+04  0.14873823457E+04  0.80496005289E+02 0.  0.
         25    2    1    2    0    0  0.40561862954E+02 -0.19522951570E+02 -0.20969999837E+03  0.24828937588E+03  0.12508842670E+03 0.  0.
         24    2    1    2    0    0  0.22415734763E+01  0.11875150625E+02  0.26268185917E+03  0.27480867631E+03  0.79824843177E+02 0.  0.
        -13    1    5    5    0    0  0.98879546309E+01 -0.33347451071E+02  0.10699970786E+03  0.11251116221E+03  0.00000000000E+00 0.  1.
         14    1    5    5    0    0 -0.76463811546E+01  0.45222601696E+02  0.15568215130E+03  0.16229751410E+03  0.00000000000E+00 0. -1.
         13    1    3    3    0    0 -0.27665463478E+02 -0.33687258310E+02 -0.52473588380E+03  0.52654340466E+03  0.00000000000E+00 0. -1.
        -14    1    3    3    0    0 -0.15137972952E+02  0.41335059255E+02 -0.95983005023E+03  0.96083894106E+03  0.00000000000E+00 0.  1.
          5    1    4    4  501    0  0.63067914959E+02 -0.20807723001E+02 -0.21474097754E+03  0.22481477502E+03  0.41800000000E+01 0. -1.
         -5    1    4    4    0  501 -0.22506052004E+02  0.12847714305E+01  0.50409791700E+01  0.23474600858E+02  0.41800000000E+01 0. -1.
</event>
<event>
11    1  0.7157190E-009  0.1327120E+03  0.7561462E-02  0.1115981E+00
         22   -1    0    0    0    0  0.00000000000E+00  0.00000000000E+00  0.11256638392E+04  0.11256638392E+04  0.00000000000E+00 0. -1.
         22   -1    0    0    0    0 -0.00000000000E+00 -0.00000000000E+00 -0.15765554792E+03  0.15765554792E+03  0.00000000000E+00 0. -1.
        -24    2    1    2    0    0  0.28810621783E+01  0.17330514998E+02 -0.52025573447E+02  0.10081001226E+03  0.84542007373E+02 0.  0.
         25    2    1    2    0    0 -0.23479044001E+02 -0.56093214692E+02 -0.18074530756E+02  0.14025892663E+03  0.12509262007E+03 0.  0.
         24    2    1    2    0    0  0.20597981822E+02  0.38762699694E+02  0.10381083954E+04  0.10422504482E+04  0.81793229144E+02 0.  0.
        -11    1    5    5    0    0  0.43746908545E+02 -0.23657100823E+01  0.60315153731E+03  0.60474057707E+03  0.00000000000E+00 0.  1.
         12    1    5    5    0    0 -0.23148926722E+02  0.41128409777E+02  0.43495685812E+03  0.43750987112E+03  0.00000000000E+00 0. -1.
         11    1    3    3    0    0  0.37940804226E+02 -0.10485257378E+02 -0.35793196288E+02  0.53203365947E+02  0.00000000000E+00 0. -1.
        -12    1    3    3    0    0 -0.35059742047E+02  0.27815772375E+02 -0.16232377159E+02  0.47606646316E+02  0.00000000000E+00 0.  1.
          5    1    4    4  501    0  0.41109158780E+02 -0.38736468623E+01 -0.36283291560E+02  0.55126379548E+02  0.41800000000E+01 0. -1.
         -5    1    4    4    0  501 -0.64588202780E+02 -0.52219567830E+02  0.18208760804E+02  0.85132547082E+02  0.41800000000E+01 0. -1.
</event>
<event>
11    1  0.7157190E-009  0.2034023E+03  0.7561462E-02  0.1052143E+00
         22   -1    0    0    0    0  0.00000000000E+00  0.00000000000E+00  0.18058103667E+04  0.18058103667E+04  0.00000000000E+00 0. -1.
         22   -1    0    0    0    0 -0.00000000000E+00 -0.00000000000E+00 -0.81376813361E+03  0.81376813361E+03  0.00000000000E+00 0.  1.
        -24    2    1    2    0    0  0.26628901743E+02  0.32329091166E+02 -0.66478407677E+03  0.67124964970E+03  0.82969602562E+02 0.  0.
         25    2    1    2    0    0 -0.16224171201E+03 -0.11557341280E+03 -0.43041192737E+02  0.23912016137E+03  0.12508525268E+03 0.  0.
         24    2    1    2    0    0  0.13561281026E+03  0.83244321637E+02  0.16998675026E+04  0.17092086893E+04  0.80773545107E+02 0.  0.
        -11    1    5    5    0    0  0.80123193740E+01 -0.15256987892E+02  0.15650040286E+03  0.15744633701E+03  0.00000000000E+00 0.  1.
         12    1    5    5    0    0  0.12760049089E+03  0.98501309529E+02  0.15433670998E+04  0.15517623523E+04  0.00000000000E+00 0. -1.
         11    1    3    3    0    0 -0.10834265000E+02  0.24148021150E+02 -0.64186778805E+02  0.69429466345E+02  0.00000000000E+00 0. -1.
        -12    1    3    3    0    0  0.37463166742E+02  0.81810700163E+01 -0.60059729797E+03  0.60182018336E+03  0.00000000000E+00 0.  1.
          5    1    4    4  501    0 -0.87229401405E+01  0.76592422120E+01 -0.40352229748E+02  0.42196309336E+02  0.41800000000E+01 0.  1.
         -5    1    4    4    0  501 -0.15351877187E+03 -0.12323265502E+03 -0.26889629891E+01  0.19692385203E+03  0.41800000000E+01 0.  1.
</event>
<event>
11    1  0.7157190E-009  0.1853519E+03  0.7561462E-02  0.1065394E+00
         22   -1    0    0    0    0  0.00000000000E+00  0.00000000000E+00  0.23916678475E+04  0.23916678475E+04  0.00000000000E+00 0. -1.
         22   -1    0    0    0    0 -0.00000000000E+00 -0.00000000000E+00 -0.18784926795E+03  0.18784926795E+03  0.00000000000E+00 0.  1.
         24    2    1    2    0    0 -0.58943707559E+02 -0.44491894554E+02 -0.15725322218E+03  0.19185869107E+03  0.81408182102E+02 0.  0.
         25    2    1    2    0    0  0.13679550804E+03 -0.63544361918E+02  0.13415425833E+04  0.13557785367E+04  0.12509212931E+03 0.  0.
        -24    2    1    2    0    0 -0.77851800481E+02  0.10803625647E+03  0.10195292184E+04  0.10318798877E+04  0.87198278763E+02 0.  0.
        -13    1    3    3    0    0 -0.65103928482E+02 -0.45001591012E+02 -0.16437063975E+03  0.18243182812E+03  0.00000000000E+00 0.  1.
         14    1    3    3    0    0  0.61602209228E+01  0.50969645824E+00  0.71174175737E+01  0.94268629573E+01  0.00000000000E+00 0. -1.
         11    1    5    5    0    0 -0.61675077973E+02  0.13497910622E+02  0.42500023435E+03  0.42966406416E+03  0.00000000000E+00 0. -1.
        -12    1    5    5    0    0 -0.16176722507E+02  0.94538345850E+02  0.59452898406E+03  0.60221582350E+03  0.00000000000E+00 0.  1.
          5    1    4    4  501    0  0.10752014586E+03  0.15663181260E+02  0.64170254094E+03  0.65084986015E+03  0.41800000000E+01 0. -1.
         -5    1    4    4    0  501  0.29275362185E+02 -0.79207543179E+02  0.69984004241E+03  0.70492867659E+03  0.41800000000E+01 0. -1.
</event>
<event>
11    1  0.7157190E-009  0.2202308E+03  0.7561462E-02  0.1041073E+00
         22   -1    0    0    0    0  0.00000000000E+00  0.00000000000E+00  0.23124594390E+04  0.23124594390E+04  0.00000000000E+00 0.  1.
         22   -1    0    0    0    0 -0.00000000000E+00 -0.00000000000E+00 -0.14186591665E+03  0.14186591665E+03  0.00000000000E+00 0.  1.
        -24    2    1    2    0    0 -0.40401745963E+02 -0.35558854635E+02 -0.75342266307E+02  0.12250241504E+03  0.80210045369E+02 0.  0.
         25    2    1    2    0    0 -0.13473639464E+03 -0.30364674074E+02  0.19104294058E+03  0.26687413721E+03  0.12509392670E+03 0.  0.
         24    2    1    2    0    0  0.17513814060E+03  0.65923528709E+02  0.20548928481E+04  0.20649488034E+04  0.80060375193E+02 0.  0.
        -11    1    5    5    0    0  0.12830898808E+03  0.83078717876E+02  0.16246675849E+04  0.16318425265E+04  0.00000000000E+00 0.  1.
         12    1    5    5    0    0  0.46829152518E+02 -0.17155189166E+02  0.43022526321E+03  0.43310627696E+03  0.00000000000E+00 0. -1.
         13    1    3    3    0    0  0.15532517630E+02 -0.13638121541E+02  0.58672998963E+01  0.21486802255E+02  0.00000000000E+00 0. -1.
        -14    1    3    3    0    0 -0.55934263593E+02 -0.21920733094E+02 -0.81209566203E+02  0.10101561278E+03  0.00000000000E+00 0.  1.
          5    1    4    4  501    0 -0.74488777556E+02 -0.69467310623E+02  0.15721463757E+03  0.18737182257E+03  0.41800000000E+01 0. -1.
         -5    1    4    4    0  501 -0.60247617082E+02  0.39102636549E+02  0.33828303010E+02  0.79502314644E+02  0.41800000000E+01 0. -1.
</event>
<event>
11    1  0.7157190E-009  0.1317409E+03  0.7561462E-02  0.1117148E+00
         22   -1    0    0    0    0  0.00000000000E+00  0.00000000000E+00  0.72340785188E+02  0.72340785188E+02  0.00000000000E+00 0. -1.
         22   -1    0    0    0    0 -0.00000000000E+00 -0.00000000000E+00 -0.22703484367E+04  0.22703484367E+04  0.00000000000E+00 0.  1.
        -24    2    1    2    0    0 -0.26086329143E+01 -0.27343403947E+02 -0.18540060583E+04  0.18559066737E+04  0.79351435462E+02 0.  0.
         25    2    1    2    0    0 -0.27902722255E+02 -0.30200991690E+01 -0.37061777172E+03  0.39216309917E+03  0.12508669284E+03 0.  0.
         24    2    1    2    0    0  0.30511355169E+02  0.30363503116E+02  0.26616178566E+02  0.94619449033E+02  0.79947070354E+02 0.  0.
        -13    1    5    5    0    0  0.34733632894E+02 -0.81715917432E+00 -0.18695653712E+02  0.39454029843E+02  0.00000000000E+00 0.  1.
         14    1    5    5    0    0 -0.42222777253E+01  0.31180662290E+02  0.45311832278E+02  0.55165419190E+02  0.00000000000E+00 0. -1.
         13    1    3    3    0    0 -0.25330325349E+02 -0.14715553568E+02 -0.25311584782E+03  0.25480542639E+03  0.00000000000E+00 0. -1.
        -14    1    3    3    0    0  0.22721692435E+02 -0.12627850379E+02 -0.16008902105E+04  0.16011012473E+04  0.00000000000E+00 0.  1.
          5    1    4    4  501    0 -0.52826025816E+02  0.44574320048E+02 -0.15246042344E+03  0.16744883435E+03  0.41800000000E+01 0. -1.
         -5    1    4    4    0  501  0.24923303561E+02 -0.47594419217E+02 -0.21815734828E+03  0.22471426482E+03  0.41800000000E+01 0. -1.
</event>
<event>
11    1  0.7157190E-009  0.1342019E+03  0.7561462E-02  0.1114211E+00
         22   -1    0    0    0    0  0.00000000000E+00  0.00000000000E+00  0.52726855535E+03  0.52726855535E+03  0.00000000000E+00 0. -1.
         22   -1    0    0    0    0 -0.00000000000E+00 -0.00000000000E+00 -0.25011455526E+03  0.25011455526E+03  0.00000000000E+00 0. -1.
        -24    2    1    2    0    0 -0.31175783185E+02  0.29349395164E+02 -0.10706970087E+03  0.14061154837E+03  0.80463471444E+02 0.  0.
         25    2    1    2    0    0  0.47902315381E+02 -0.40012419116E+02 -0.82773075102E+02  0.16246531150E+03  0.12509184617E+03 0.  0.
         24    2    1    2    0    0 -0.16726532196E+02  0.10663023951E+02  0.46699677606E+03  0.47430625073E+03  0.80541626938E+02 0.  0.
        -11    1    5    5    0    0  0.24138915777E+02  0.11915719573E+02  0.66707063609E+02  0.71934025073E+02  0.00000000000E+00 0.  1.
         12    1    5    5    0    0 -0.40865447973E+02 -0.12526956222E+01  0.40028971245E+03  0.40237222566E+03  0.00000000000E+00 0. -1.
         11    1    3    3    0    0  0.27161160257E+02  0.98795572621E+01 -0.42917416633E+02  0.51742042177E+02  0.00000000000E+00 0. -1.
        -12    1    3    3    0    0 -0.58336943442E+02  0.19469837902E+02 -0.64152284236E+02  0.88869506192E+02  0.00000000000E+00 0.  1.
          5    1    4    4  501    0 -0.21185687604E+02  0.30031812982E+02 -0.41779515040E+02  0.55800926759E+02  0.41800000000E+01 0. -1.
         -5    1    4    4    0  501  0.69088002985E+02 -0.70044232098E+02 -0.40993560063E+02  0.10666438475E+03  0.41800000000E+01 0. -1.
</event>
<event>
11    1  0.7157190E-009  0.1600831E+03  0.7561462E-02  0.1086999E+00
         22   -1    0    0    0    0  0.00000000000E+00  0.00000000000E+00  0.68100662521E+03  0.68100662521E+03  0.00000000000E+00 0. -1.
         22   -1    0    0    0    0 -0.00000000000E+00 -0.00000000000E+00 -0.27449948848E+03  0.27449948848E+03  0.00000000000E+00 0.  1.
        -24    2    1    2    0    0  0.22765300769E+02  0.72320277517E+02 -0.13993244843E+03  0.17982181774E+03  0.83703730821E+02 0.  0.
         25    2    1    2    0    0  0.61395281771E+01  0.28173682720E+02 -0.69257523285E+02  0.14586005159E+03  0.12508836842E+03 0.  0.
         24    2    1    2    0    0 -0.28904828946E+02 -0.10049396024E+03  0.61569710844E+03  0.62982424435E+03  0.81615710847E+02 0.  0.
        -13    1    5    5    0    0 -0.13580898080E+02 -0.16899299067E+02  0.25200024412E+02  0.33242568071E+02  0.00000000000E+00 0.  1.
         14    1    5    5    0    0 -0.15323930866E+02 -0.83594661170E+02  0.59049708403E+03  0.59658167628E+03  0.00000000000E+00 0. -1.
         11    1    3    3    0    0  0.15272391057E+02  0.48937410171E+02 -0.16328692866E+02  0.53802808975E+02  0.00000000000E+00 0. -1.
        -12    1    3    3    0    0  0.74929097121E+01  0.23382867346E+02 -0.12360375556E+03  0.12601900877E+03  0.00000000000E+00 0.  1.
          5    1    4    4  501    0 -0.77969996594E+01  0.65664429316E+02 -0.56328904612E+00  0.66260094896E+02  0.41800000000E+01 0.  1.
         -5    1    4    4    0  501  0.13936527836E+02 -0.37490746596E+02 -0.68694234239E+02  0.79599956697E+02  0.41800000000E+01 0.  1.
</event>
<event>
11    1  0.7157190E-009  0.1428245E+03  0.7561462E-02  0.1104445E+00
         22   -1    0    0    0    0  0.00000000000E+00  0.00000000000E+00  0.83626535151E+03  0.83626535151E+03  0.00000000000E+00 0.  1.
         22   -1    0    0    0    0 -0.00000000000E+00 -0.00000000000E+00 -0.41129510257E+03  0.41129510257E+03  0.00000000000E+00 0. -1.
         24    2    1    2    0    0 -0.45747498878E+02 -0.48761796911E+02 -0.36044619428E+03  0.37641389179E+03  0.85413186736E+02 0.  0.
         25    2    1    2    0    0  0.63629049187E+02  0.10368346359E+03  0.15569060532E+03  0.23385096601E+03  0.12509113956E+03 0.  0.
        -24    2    1    2    0    0 -0.17881550309E+02 -0.54921666681E+02  0.62972583791E+03  0.63729559628E+03  0.79087968710E+02 0.  0.
        -13    1    3    3    0    0 -0.40443135001E+02 -0.45081641221E+01 -0.58892579154E+02  0.71584262181E+02  0.00000000000E+00 0.  1.
         14    1    3    3    0    0 -0.53043638771E+01 -0.44253632789E+02 -0.30155361513E+03  0.30482962961E+03  0.00000000000E+00 0. -1.
         13    1    5    5    0    0  0.17016522144E+01 -0.54066740956E+02  0.20189741342E+03  0.20901835720E+03  0.00000000000E+00 0. -1.
        -14    1    5    5    0    0 -0.19583202523E+02 -0.85492572485E+00  0.42782842449E+03  0.42827723909E+03  0.00000000000E+00 0.  1.
          5    1    4    4  501    0  0.37841067585E+02  0.13046025150E+03  0.11029106239E+03  0.17502403966E+03  0.41800000000E+01 0. -1.
         -5    1    4    4    0  501  0.25787981602E+02 -0.26776787902E+02  0.45399542924E+02  0.58826926345E+02  0.41800000000E+01 0. -1.
</event>
<event>
11    1  0.7157190E-009  0.1324851E+03  0.7561462E-02  0.1116253E+00
         22   -1    0    0    0    0  0.00000000000E+00  0.00000000000E+00  0.46755185090E+03  0.46755185090E+03  0.00000000000E+00 0. -1.
         22   -1    0    0    0    0 -0.00000000000E+00 -0.00000000000E+00 -0.80723834379E+03  0.80723834379E+03  0.00000000000E+00 0.  1.
         24    2    1    2    0    0  0.23404410294E+02  0.34586041861E+02 -0.66737211546E+03  0.67348646607E+03  0.80340019733E+02 0.  0.
         25    2    1    2    0    0 -0.37836317731E+02 -0.55723658264E+02 -0.94823266381E+02  0.17080301676E+03  0.12508199574E+03 0.  0.
        -24    2    1    2    0    0  0.14431907437E+02  0.21137616403E+02  0.42250888896E+03  0.43050071186E+03  0.78498553380E+02 0.  0.
        -13    1    3    3    0    0  0.54513802413E+01  0.97114375675E+01 -0.59208101761E+03  0.59218574872E+03  0.00000000000E+00 0.  1.
         14    1    3    3    0    0  0.17953030053E+02  0.24874604293E+02 -0.75291097852E+02  0.81300717356E+02  0.00000000000E+00 0. -1.
         11    1    5    5    0    0  0.33233568990E+02  0.16060197608E+02  0.39541298341E+03  0.39713200262E+03  0.00000000000E+00 0. -1.
        -12    1    5    5    0    0 -0.18801661553E+02  0.50774187955E+01  0.27095905542E+02  0.33368709234E+02  0.00000000000E+00 0.  1.
          5    1    4    4  501    0  0.18524771853E+02 -0.78271408620E+02 -0.62183020670E+02  0.10175353084E+03  0.41800000000E+01 0.  1.
         -5    1    4    4    0  501 -0.56361089584E+02  0.22547750356E+02 -0.32640245711E+02  0.69049485916E+02  0.41800000000E+01 0.  1.
</event>
<event>
11    1  0.7157190E-009  0.1312127E+03  0.7561462E-02  0.1117788E+00
         22   -1    0    0    0    0  0.00000000000E+00  0.00000000000E+00  0.92934988796E+03  0.92934988796E+03  0.00000000000E+00 0. -1.
         22   -1    0    0    0    0 -0.00000000000E+00 -0.00000000000E+00 -0.87729779626E+02  0.87729779626E+02  0.00000000000E+00 0. -1.
        -24    2    1    2    0    0 -0.11783887393E+02  0.36146412734E+02 -0.24753575829E+02  0.92512977199E+02  0.80625605599E+02 0.  0.
         25    2    1    2    0    0  0.32610007280E+02 -0.38698175426E+02  0.14398181555E+03  0.19733001491E+03  0.12508960876E+03 0.  0.
         24    2    1    2    0    0 -0.20826119887E+02  0.25517626925E+01  0.72239186861E+03  0.72723667548E+03  0.81135267036E+02 0.  0.
        -13    1    5    5    0    0  0.78210891531E+01  0.25550609956E+02  0.92706381722E+02  0.96480445256E+02  0.00000000000E+00 0.  1.
         14    1    5    5    0    0 -0.28647209040E+02 -0.22998847264E+02  0.62968548689E+03  0.63075623022E+03  0.00000000000E+00 0. -1.
         11    1    3    3    0    0 -0.23694399961E+02  0.58789108674E+02 -0.20210326692E+02  0.66528499105E+02  0.00000000000E+00 0. -1.
        -12    1    3    3    0    0  0.11910512568E+02 -0.22642695940E+02 -0.45432491368E+01  0.25984478094E+02  0.00000000000E+00 0.  1.
          5    1    4    4  501    0  0.38195907414E+02 -0.23959255158E+02 -0.66943655358E+01  0.45774012068E+02  0.41800000000E+01 0.  1.
         -5    1    4    4    0  501 -0.55859001341E+01 -0.14738920268E+02  0.15067618108E+03  0.15155600284E+03  0.41800000000E+01 0.  1.
</event>
<event>
11    1  0.7157190E-009  0.1251870E+03  0.7561462E-02  0.1125328E+00
         22   -1    0    0    0    0  0.00000000000E+00  0.00000000000E+00  0.14108375866E+04  0.14108375866E+04  0.00000000000E+00 0.  1.
         22   -1    0    0    0    0 -0.00000000000E+00 -0.00000000000E+00 -0.12860040202E+03  0.12860040202E+03  0.00000000000E+00 0.  1.
         24    2    1    2    0    0 -0.62365959279E+00  0.39777620694E+01 -0.20541288663E+02  0.86056214093E+02  0.83471647293E+02 0.  0.
         25    2    1    2    0    0 -0.13634632207E+02  0.43033731216E+01 -0.20470904125E+02  0.12756037540E+03  0.12509264264E+03 0.  0.
        -24    2    1    2    0    0  0.14258291800E+02 -0.82811351910E+01  0.13232493774E+04  0.13258213991E+04  0.80880106302E+02 0.  0.
        -13    1    3    3    0    0  0.37881160434E+02 -0.77957679440E+01  0.40332897154E+01  0.38884749448E+02  0.00000000000E+00 0.  1.
         14    1    3    3    0    0 -0.38504820027E+02  0.11773530013E+02 -0.24574578379E+02  0.47171464645E+02  0.00000000000E+00 0. -1.
         11    1    5    5    0    0  0.39034582887E+02 -0.65162165829E+01  0.34591575043E+03  0.34817217886E+03  0.00000000000E+00 0. -1.
        -12    1    5    5    0    0 -0.24776291087E+02 -0.17649186081E+01  0.97733362694E+03  0.97764922026E+03  0.00000000000E+00 0.  1.
          5    1    4    4  501    0 -0.21585938636E+02  0.54500805057E+02  0.20399456322E+02  0.62208526079E+02  0.41800000000E+01 0. -1.
         -5    1    4    4    0  501  0.79513064285E+01 -0.50197431936E+02 -0.40870360447E+02  0.65351849323E+02  0.41800000000E+01 0. -1.
</event>
<event>
11    1  0.7157190E-009  0.4002473E+03  0.7561462E-02  0.9649029E-01
         22   -1    0    0    0    0  0.00000000000E+00  0.00000000000E+00  0.29000872685E+03  0.29000872685E+03  0.00000000000E+00 0.  1.
         22   -1    0    0    0    0 -0.00000000000E+00 -0.00000000000E+00 -0.81247669294E+03  0.81247669294E+03  0.00000000000E+00 0. -1.
        -24    2    1    2    0    0 -0.27530747206E+03  0.18730679925E+03 -0.60352344330E+03  0.69411318549E+03  0.81697774960E+02 0.  0.
         25    2    1    2    0    0  0.10633766267E+03 -0.65469682503E+02  0.25922448403E+02  0.17864374893E+03  0.12509051872E+03 0.  0.
         24    2    1    2    0    0  0.16896980939E+03 -0.12183711675E+03  0.55133028809E+02  0.22972848538E+03  0.79626921478E+02 0.  0.
        -11    1    5    5    0    0  0.16627504575E+03 -0.12506482373E+03  0.65837870750E+02  0.21822746436E+03  0.00000000000E+00 0.  1.
         12    1    5    5    0    0  0.26947636402E+01  0.32277069855E+01 -0.10704841941E+02  0.11501021018E+02  0.00000000000E+00 0. -1.
         11    1    3    3    0    0 -0.70484277073E+02  0.22557370625E+02 -0.19238003216E+03  0.20612361597E+03  0.00000000000E+00 0. -1.
        -12    1    3    3    0    0 -0.20482319499E+03  0.16474942863E+03 -0.41114341114E+03  0.48798956952E+03  0.00000000000E+00 0.  1.
          5    1    4    4  501    0  0.11903122670E+03 -0.17749119825E+02  0.40399364835E+02  0.12701592524E+03  0.41800000000E+01 0.  1.
         -5    1    4    4    0  501 -0.12693564035E+02 -0.47720562678E+02 -0.14476916432E+02  0.51627823696E+02  0.41800000000E+01 0.  1.
</event>
<event>
11    1  0.7157190E-009  0.1409776E+03  0.7561462E-02  0.1106472E+00
         22   -1    0    0    0    0  0.00000000000E+00  0.00000000000E+00  0.12437699263E+03  0.12437699263E+03  0.00000000000E+00 0. -1.
         22   -1    0    0    0    0 -0.00000000000E+00 -0.00000000000E+00 -0.95811116998E+03  0.95811116998E+03  0.00000000000E+00 0. -1.
        -24    2    1    2    0    0 -0.36432862659E+02 -0.38231570410E+02 -0.70684495435E+03  0.71333589856E+03  0.80182967167E+02 0.  0.
         25    2    1    2    0    0 -0.26713992007E+02  0.61219576292E+02 -0.19703848034E+03  0.24275689559E+03  0.12508106864E+03 0.  0.
         24    2    1    2    0    0  0.63146854666E+02 -0.22988005881E+02  0.70149257346E+02  0.12639536845E+03  0.80863447805E+02 0.  0.
        -11    1    5    5    0    0  0.33913213345E+02 -0.18785253756E+02 -0.10785079951E+02  0.40240647952E+02  0.00000000000E+00 0.  1.
         12    1    5    5    0    0  0.29233641321E+02 -0.42027521256E+01  0.80934337298E+02  0.86154720498E+02  0.00000000000E+00 0. -1.
         13    1    3    3    0    0 -0.34794104393E+02 -0.28255976123E+02 -0.69926607055E+03  0.70070112552E+03  0.00000000000E+00 0. -1.
        -14    1    3    3    0    0 -0.16387582661E+01 -0.99755942871E+01 -0.75788838056E+01  0.12634773040E+02  0.00000000000E+00 0.  1.
          5    1    4    4  501    0 -0.25257931150E+02 -0.15104567414E+02 -0.15016591405E+03  0.15307966941E+03  0.41800000000E+01 0.  1.
         -5    1    4    4    0  501 -0.14560608571E+01  0.76324143706E+02 -0.46872566293E+02  0.89677226187E+02  0.41800000000E+01 0.  1.
</event>
<event>
11    1  0.7157190E-009  0.2233102E+03  0.7561462E-02  0.1039163E+00
         22   -1    0    0    0    0  0.00000000000E+00  0.00000000000E+00  0.79012061672E+03  0.79012061672E+03  0.00000000000E+00 0.  1.
         22   -1    0    0    0    0 -0.00000000000E+00 -0.00000000000E+00 -0.94601864681E+02  0.94601864681E+02  0.00000000000E+00 0.  1.
        -24    2    1    2    0    0 -0.52772096942E+02 -0.23642944872E+01  0.53181352057E+02  0.10962927569E+03  0.79998986107E+02 0.  0.
         25    2    1    2    0    0 -0.15114361763E+03 -0.22523399417E+02  0.19951754626E+03  0.28072603348E+03  0.12509259747E+03 0.  0.
         24    2    1    2    0    0  0.20391571457E+03  0.24887693904E+02  0.44281985373E+03  0.49436717222E+03  0.78156651430E+02 0.  0.
        -11    1    5    5    0    0  0.17042393454E+03  0.49839789010E+02  0.37057954883E+03  0.41092277138E+03  0.00000000000E+00 0.  1.
         12    1    5    5    0    0  0.33491780031E+02 -0.24952095106E+02  0.72240304897E+02  0.83444400839E+02  0.00000000000E+00 0. -1.
         11    1    3    3    0    0 -0.59504665155E+02  0.24112678218E+02  0.21303817392E+02  0.67646722475E+02  0.00000000000E+00 0. -1.
        -12    1    3    3    0    0  0.67325682131E+01 -0.26476972705E+02  0.31877534665E+02  0.41982553218E+02  0.00000000000E+00 0.  1.
          5    1    4    4  501    0 -0.89047804281E+02 -0.59929405422E+01  0.22179841178E+02  0.92058918842E+02  0.41800000000E+01 0.  1.
         -5    1    4    4    0  501 -0.62095813345E+02 -0.16530458874E+02  0.17733770508E+03  0.18866711464E+03  0.41800000000E+01 0.  1.
</event>
<event>
11    1  0.7157190E-009  0.2307834E+03  0.7561462E-02  0.1034665E+00
         22   -1    0    0    0    0  0.00000000000E+00  0.00000000000E+00  0.13531873333E+04  0.13531873333E+04  0.00000000000E+00 0.  1.
         22   -1    0    0    0    0 -0.00000000000E+00 -0.00000000000E+00 -0.16243179669E+03  0.16243179669E+03  0.00000000000E+00 0. -1.
         24    2    1    2    0    0  0.16789116992E+03 -0.10013474311E+03 -0.45933320730E+02  0.21652885571E+03  0.80996689359E+02 0.  0.
         25    2    1    2    0    0 -0.18458902402E+03  0.50795228895E+02  0.43268105224E+03  0.48940158230E+03  0.12509097780E+03 0.  0.
        -24    2    1    2    0    0  0.16697854091E+02  0.49339514212E+02  0.80400780509E+03  0.80968869196E+03  0.80336923311E+02 0.  0.
        -13    1    3    3    0    0  0.82446787576E+01 -0.26849301293E+02  0.13394428493E+02  0.31117043921E+02  0.00000000000E+00 0.  1.
         14    1    3    3    0    0  0.15964649117E+03 -0.73285441814E+02 -0.59327749223E+02  0.18541181179E+03  0.00000000000E+00 0. -1.
         13    1    5    5    0    0  0.41822553822E+02  0.13098902046E+02  0.24068977578E+03  0.24464724688E+03  0.00000000000E+00 0. -1.
        -14    1    5    5    0    0 -0.25124699731E+02  0.36240612166E+02  0.56331802931E+03  0.56504144508E+03  0.00000000000E+00 0.  1.
          5    1    4    4  501    0 -0.19783373608E+03  0.38956372303E+02  0.34312568205E+03  0.39800564338E+03  0.41800000000E+01 0. -1.
         -5    1    4    4    0  501  0.13244712065E+02  0.11838856592E+02  0.89555370187E+02  0.91395938928E+02  0.41800000000E+01 0. -1.
</event>
<event>
11    1  0.7157190E-009  0.1471242E+03  0.7561462E-02  0.1099854E+00
         22   -1    0    0    0    0  0.00000000000E+00  0.00000000000E+00  0.43749686365E+03  0.43749686365E+03  0.00000000000E+00 0.  1.
         22   -1    0    0    0    0 -0.00000000000E+00 -0.00000000000E+00 -0.53772278106E+03  0.53772278106E+03  0.00000000000E+00 0.  1.
        -24    2    1    2    0    0 -0.73923523895E+02 -0.15279032469E+02 -0.33125314905E+03  0.34924472341E+03  0.80901741995E+02 0.  0.
         25    2    1    2    0    0  0.80501911242E+02  0.24581566057E+02 -0.16406462447E+03  0.22281748071E+03  0.12508244323E+03 0.  0.
         24    2    1    2    0    0 -0.65783873464E+01 -0.93025335882E+01  0.39509185610E+03  0.40315744059E+03  0.79426285537E+02 0.  0.
        -11    1    5    5    0    0  0.26344574928E+02 -0.29432731821E+02  0.15339337524E+03  0.15839775851E+03  0.00000000000E+00 0.  1.
         12    1    5    5    0    0 -0.32922962274E+02  0.20130198232E+02  0.24169848086E+03  0.24475968208E+03  0.00000000000E+00 0. -1.
         13    1    3    3    0    0 -0.21061379299E+02 -0.27222660608E+02 -0.39028782121E+02  0.52037494006E+02  0.00000000000E+00 0. -1.
        -14    1    3    3    0    0 -0.52862144596E+02  0.11943628140E+02 -0.29222436693E+03  0.29720722941E+03  0.00000000000E+00 0.  1.
          5    1    4    4  501    0  0.88704099377E+02 -0.15207976785E+02 -0.15750635965E+03  0.18145364569E+03  0.41800000000E+01 0.  1.
         -5    1    4    4    0  501 -0.82021881350E+01  0.39789542842E+02 -0.65582648111E+01  0.41363835015E+02  0.41800000000E+01 0.  1.
</event>
<event>
11    1  0.7157190E-009  0.1630222E+03  0.7561462E-02  0.1084269E+00
         22   -1    0    0    0    0  0.00000000000E+00  0.00000000000E+00  0.25771006064E+04  0.25771006064E+04  0.00000000000E+00 0. -1.
         22   -1    0    0    0    0 -0.00000000000E+00 -0.00000000000E+00 -0.27856588710E+03  0.27856588710E+03  0.00000000000E+00 0. -1.
         24    2    1    2    0    0 -0.10129149551E+02 -0.21725438037E+02 -0.23397320999E+03  0.24818547079E+03  0.79233645580E+02 0.  0.
         25    2    1    2    0    0 -0.78900678017E+02  0.76256283936E+02  0.15850816663E+03  0.22980952301E+03  0.12508892896E+03 0.  0.
        -24    2    1    2    0    0  0.89029827568E+02 -0.54530845899E+02  0.23739997627E+04  0.23776714997E+04  0.80913311781E+02 0.  0.
        -13    1    3    3    0    0 -0.16765352393E+02  0.26030077808E+02 -0.58245547812E+02  0.65963518944E+02  0.00000000000E+00 0.  1.
         14    1    3    3    0    0  0.66362028414E+01 -0.47755515844E+02 -0.17572766218E+03  0.18222195185E+03  0.00000000000E+00 0. -1.
         11    1    5    5    0    0  0.35564400118E+02 -0.25580220336E+02  0.17858894633E+04  0.17864266985E+04  0.00000000000E+00 0. -1.
        -12    1    5    5    0    0  0.53465427451E+02 -0.28950625564E+02  0.58811029939E+03  0.59124480116E+03  0.00000000000E+00 0.  1.
          5    1    4    4  501    0  0.38820128721E+01 -0.26085294853E+01 -0.18225499680E+02  0.19274742245E+02  0.41800000000E+01 0. -1.
         -5    1    4    4    0  501 -0.82782690889E+02  0.78864813421E+02  0.17673366631E+03  0.21053478077E+03  0.41800000000E+01 0. -1.
</event>
<event>
11    1  0.7157190E-009  0.1447408E+03  0.7561462E-02  0.1102377E+00
         22   -1    0    0    0    0  0.00000000000E+00  0.00000000000E+00  0.10916812655E+04  0.10916812655E+04  0.00000000000E+00 0.  1.
         22   -1    0    0    0    0 -0.00000000000E+00 -0.00000000000E+00 -0.35451750204E+03  0.35451750204E+03  0.00000000000E+00 0. -1.
         24    2    1    2    0    0  0.44906269577E+02  0.67706439703E+02 -0.22759466414E+03  0.25486749657E+03  0.80977618117E+02 0.  0.
         25    2    1    2    0    0  0.16137517850E+02 -0.60983027595E+02 -0.66629797568E+02  0.15512821503E+03  0.12508350826E+03 0.  0.
        -24    2    1    2    0    0 -0.61043787427E+02 -0.67234121079E+01  0.10313882252E+04  0.10362030560E+04  0.78635576216E+02 0.  0.
        -13    1    3    3    0    0 -0.10424616798E+02  0.22655832517E+02 -0.11813788929E+02  0.27595742267E+02  0.00000000000E+00 0.  1.
         14    1    3    3    0    0  0.55330886375E+02  0.45050607186E+02 -0.21578087522E+03  0.22727175430E+03  0.00000000000E+00 0. -1.
         13    1    5    5    0    0 -0.28245845920E+02 -0.42535657224E+02  0.55734011399E+03  0.55967411286E+03  0.00000000000E+00 0. -1.
        -14    1    5    5    0    0 -0.32797941507E+02  0.35812245116E+02  0.47404811121E+03  0.47652894310E+03  0.00000000000E+00 0.  1.
          5    1    4    4  501    0 -0.24433961987E+02 -0.42071107049E+02  0.23662806720E+02  0.54262301541E+02  0.41800000000E+01 0.  1.
         -5    1    4    4    0  501  0.40571479837E+02 -0.18911920546E+02 -0.90292604289E+02  0.10086591349E+03  0.41800000000E+01 0.  1.
</event>
<event>
11    1  0.7157190E-009  0.1801811E+03  0.7561462E-02  0.1069496E+00
         22   -1    0    0    0    0  0.00000000000E+00  0.00000000000E+00  0.91900031234E+03  0.91900031234E+03  0.00000000000E+00 0.  1.
         22   -1    0    0    0    0 -0.00000000000E+00 -0.00000000000E+00 -0.47977632903E+03  0.47977632903E+03  0.00000000000E+00 0. -1.
        -24    2    1    2    0    0 -0.33425774448E+02  0.12470066376E+03 -0.44103306676E+03  0.46625626076E+03  0.78849202794E+02 0.  0.
         25    2    1    2    0    0  0.39625536552E+02 -0.14401432085E+03  0.40388370767E+03  0.44841871152E+03  0.12508790414E+03 0.  0.
         24    2    1    2    0    0 -0.61997621040E+01  0.19313657094E+02  0.47637334240E+03  0.48410166909E+03  0.83734164255E+02 0.  0.
        -13    1    5    5    0    0 -0.16927804166E+02  0.34983965495E+02  0.44960189604E+03  0.45127850971E+03  0.00000000000E+00 0.  1.
         14    1    5    5    0    0  0.10728042062E+02 -0.15670308401E+02  0.26771446359E+02  0.32823159385E+02  0.00000000000E+00 0. -1.
         11    1    3    3    0    0 -0.40024584538E+02  0.11159094224E+03 -0.43415063534E+03  0.45004586425E+03  0.00000000000E+00 0. -1.
        -12    1    3    3    0    0  0.65988100901E+01  0.13109721518E+02 -0.68824314207E+01  0.16210396514E+02  0.00000000000E+00 0.  1.
          5    1    4    4  501    0  0.58956056004E+02 -0.26868413571E+02  0.77592980716E+02  0.10117248264E+03  0.41800000000E+01 0. -1.
         -5    1    4    4    0  501 -0.19330519453E+02 -0.11714590728E+03  0.32629072695E+03  0.34724622887E+03  0.41800000000E+01 0. -1.
</event>
<event>
11    1  0.7157190E-009  0.2195001E+03  0.7561462E-02  0.1041531E+00
         22   -1    0    0    0    0  0.00000000000E+00  0.00000000000E+00  0.17930417995E+04  0.17930417995E+04  0.00000000000E+00 0.  1.
         22   -1    0    0    0    0 -0.00000000000E+00 -0.00000000000E+00 -0.11602849309E+04  0.11602849309E+04  0.00000000000E+00 0.  1.
        -24    2    1    2    0    0  0.25036550050E+01  0.17383651376E+03 -0.89905534805E+03  0.91976776423E+03  0.86294956180E+02 0.  0.
         25    2    1    2    0    0 -0.89303384350E+02 -0.22300317164E+03 -0.17470076058E+03  0.32229315153E+03  0.12508801206E+03 0.  0.
         24    2    1    2    0    0  0.86799729345E+02  0.49166657871E+02  0.17065129773E+04  0.17112658147E+04  0.79325869222E+02 0.  0.
        -13    1    5    5    0    0  0.93032169373E+02  0.36555766583E+02  0.16501264345E+04  0.16531510997E+04  0.00000000000E+00 0.  1.
         14    1    5    5    0    0 -0.62324400289E+01  0.12610891289E+02  0.56386542825E+02  0.58114715000E+02  0.00000000000E+00 0. -1.
         11    1    3    3    0    0  0.41646140966E+02  0.11225054716E+03 -0.50364073303E+03  0.51767612883E+03  0.00000000000E+00 0. -1.
        -12    1    3    3    0    0 -0.39142485961E+02  0.61585966604E+02 -0.39541461502E+03  0.40209163540E+03  0.00000000000E+00 0.  1.
          5    1    4    4  501    0 -0.11168856353E+03 -0.20885229721E+03 -0.13009862931E+03  0.27025310918E+03  0.41800000000E+01 0.  1.
         -5    1    4    4    0  501  0.22385179178E+02 -0.14150874425E+02 -0.44602131276E+02  0.52040042354E+02  0.41800000000E+01 0.  1.
</event>
<event>
11    1  0.7157190E-009  0.1347307E+03  0.7561462E-02  0.1113589E+00
         22   -1    0    0    0    0  0.00000000000E+00  0.00000000000E+00  0.95023153158E+03  0.95023153158E+03  0.00000000000E+00 0. -1.
         22   -1    0    0    0    0 -0.00000000000E+00 -0.00000000000E+00 -0.33577561594E+03  0.33577561594E+03  0.00000000000E+00 0.  1.
        -24    2    1    2    0    0  0.35481351299E+02  0.58671027460E+01 -0.30490959572E+03  0.31757917628E+03  0.81199276233E+02 0.  0.
         25    2    1    2    0    0  0.11939226120E+02 -0.31056541163E+02  0.17482731132E+03  0.21752518806E+03  0.12508223210E+03 0.  0.
         24    2    1    2    0    0 -0.47420577419E+02  0.25189438417E+02  0.74453820004E+03  0.75090278317E+03  0.81453296332E+02 0.  0.
        -13    1    5    5    0    0 -0.53357270790E+01  0.13842363486E+02  0.19236149631E+02  0.24292189341E+02  0.00000000000E+00 0.  1.
         14    1    5    5    0    0 -0.42084850340E+02  0.11347074931E+02  0.72530205041E+03  0.72661059383E+03  0.00000000000E+00 0. -1.
         11    1    3    3    0    0  0.11470971591E+02 -0.32304761674E+02 -0.20654072885E+03  0.20936631412E+03  0.00000000000E+00 0. -1.
        -12    1    3    3    0    0  0.24010379708E+02  0.38171864420E+02 -0.98368866874E+02  0.10821286216E+03  0.00000000000E+00 0.  1.
          5    1    4    4  501    0 -0.22744120350E+02 -0.19000199074E+02  0.17793868977E+03  0.18043822293E+03  0.41800000000E+01 0. -1.
         -5    1    4    4    0  501  0.34683346470E+02 -0.12056342089E+02 -0.31113784473E+01  0.37086965132E+02  0.41800000000E+01 0. -1.
</event>
<event>
11    1  0.7157190E-009  0.1908527E+03  0.7561462E-02  0.1061187E+00
         22   -1    0    0    0    0  0.00000000000E+00  0.00000000000E+00  0.49830634546E+03  0.49830634546E+03  0.00000000000E+00 0.  1.
         22   -1    0    0    0    0 -0.00000000000E+00 -0.00000000000E+00 -0.23158455353E+04  0.23158455353E+04  0.00000000000E+00 0.  1.
        -24    2    1    2    0    0  0.11469489412E+03 -0.48136438867E+02 -0.90645511122E+03  0.91921814762E+03  0.88482194660E+02 0.  0.
         25    2    1    2    0    0 -0.14235672003E+03  0.93250364199E+02 -0.13906797845E+04  0.14066268149E+04  0.12509063620E+03 0.  0.
         24    2    1    2    0    0  0.27661825915E+02 -0.45113925332E+02  0.47959570581E+03  0.48830691828E+03  0.75041072335E+02 0.  0.
        -13    1    5    5    0    0  0.34346836061E+02 -0.49212992400E+02  0.47584482377E+03  0.47961434516E+03  0.00000000000E+00 0.  1.
         14    1    5    5    0    0 -0.66850101453E+01  0.40990670685E+01  0.37508820390E+01  0.86925731256E+01  0.00000000000E+00 0. -1.
         11    1    3    3    0    0  0.45595801613E+02  0.19252954563E+02 -0.44717103902E+03  0.44990175763E+03  0.00000000000E+00 0. -1.
        -12    1    3    3    0    0  0.69099092504E+02 -0.67389393430E+02 -0.45928407220E+03  0.46931638999E+03  0.00000000000E+00 0.  1.
          5    1    4    4  501    0 -0.16323134036E+03  0.95198164682E+02 -0.12827454170E+04  0.12965957112E+04  0.41800000000E+01 0.  1.
         -5    1    4    4    0  501  0.20874620326E+02 -0.19478004825E+01 -0.10793436748E+03  0.11003110371E+03  0.41800000000E+01 0.  1.
</event>
<event>
11    1  0.7157190E-009  0.2620530E+03  0.7561462E-02  0.1017667E+00
         22   -1    0    0    0    0  0.00000000000E+00  0.00000000000E+00  0.80869254982E+02  0.80869254982E+02  0.00000000000E+00 0.  1.
         22   -1    0    0    0    0 -0.00000000000E+00 -0.00000000000E+00 -0.27722325053E+04  0.27722325053E+04  0.00000000000E+00 0.  1.
        -24    2    1    2    0    0  0.23155536756E+03  0.79227430154E+02 -0.19716342824E+04  0.19884441597E+04  0.81691852478E+02 0.  0.
         25    2    1    2    0    0 -0.20005683984E+03 -0.22127413836E+02 -0.72368868763E+03  0.76150202633E+03  0.12509059871E+03 0.  0.
         24    2    1    2    0    0 -0.31498527715E+02 -0.57100016318E+02  0.39597197097E+01  0.10315557426E+03  0.79829969370E+02 0.  0.
        -13    1    5    5    0    0 -0.53071327807E+02 -0.14979519423E+02  0.77211151893E+01  0.55682739311E+02  0.00000000000E+00 0.  1.
         14    1    5    5    0    0  0.21572800092E+02 -0.42120496895E+02 -0.37613954795E+01  0.47472834952E+02  0.00000000000E+00 0. -1.
         11    1    3    3    0    0  0.19034629209E+02  0.13138586697E+02 -0.45279729472E+03  0.45338761527E+03  0.00000000000E+00 0. -1.
        -12    1    3    3    0    0  0.21252073835E+03  0.66088843457E+02 -0.15188369877E+04  0.15350565445E+04  0.00000000000E+00 0.  1.
          5    1    4    4  501    0 -0.76631509184E+02 -0.68927902343E+02 -0.36399494530E+03  0.37832953431E+03  0.41800000000E+01 0.  1.
         -5    1    4    4    0  501 -0.12342533066E+03  0.46800488507E+02 -0.35969374232E+03  0.38317249202E+03  0.41800000000E+01 0.  1.
</event>
<event>
11    1  0.7157190E-009  0.1433624E+03  0.7561462E-02  0.1103861E+00
         22   -1    0    0    0    0  0.00000000000E+00  0.00000000000E+00  0.26973493977E+03  0.26973493977E+03  0.00000000000E+00 0.  1.
         22   -1    0    0    0    0 -0.00000000000E+00 -0.00000000000E+00 -0.13223342202E+04  0.13223342202E+04  0.00000000000E+00 0.  1.
        -24    2    1    2    0    0 -0.44829600370E+02  0.53253582745E+02 -0.11299719995E+04  0.11347521436E+04  0.77330916909E+02 0.  0.
         25    2    1    2    0    0  0.51807089064E+02 -0.54737972098E+02 -0.15362237199E+03  0.21196121968E+03  0.12508998923E+03 0.  0.
         24    2    1    2    0    0 -0.69774886940E+01  0.14843893522E+01  0.23099509106E+03  0.24535579665E+03  0.82400522445E+02 0.  0.
        -13    1    5    5    0    0  0.15448103819E+02  0.92702016852E+01  0.21710648239E+03  0.21785271457E+03  0.00000000000E+00 0.  1.
         14    1    5    5    0    0 -0.22425592513E+02 -0.77858123330E+01  0.13888608666E+02  0.27503082081E+02  0.00000000000E+00 0. -1.
         13    1    3    3    0    0  0.14656182307E+02  0.20394905889E+02 -0.58800711527E+03  0.58854322141E+03  0.00000000000E+00 0. -1.
        -14    1    3    3    0    0 -0.59485782677E+02  0.32858676857E+02 -0.54196488422E+03  0.54620892222E+03  0.00000000000E+00 0.  1.
          5    1    4    4  501    0 -0.15708341713E+02  0.90147624160E+01 -0.10581449384E+03  0.10743461941E+03  0.41800000000E+01 0. -1.
         -5    1    4    4    0  501  0.67515430777E+02 -0.63752734514E+02 -0.47807878148E+02  0.10452660027E+03  0.41800000000E+01 0. -1.
</event>
<event>
11    1  0.7157190E-009  0.2042010E+03  0.7561462E-02  0.1051592E+00
         22   -1    0    0    0    0  0.00000000000E+00  0.00000000000E+00  0.32291846045E+03  0.32291846045E+03  0.00000000000E+00 0.  1.
         22   -1    0    0    0    0 -0.00000000000E+00 -0.00000000000E+00 -0.11448822478E+04  0.11448822478E+04  0.00000000000E+00 0.  1.
        -24    2    1    2    0    0  0.11340404766E+03  0.28080967202E+02 -0.96158411857E+03  0.97200779000E+03  0.80660448713E+02 0.  0.
         25    2    1    2    0    0 -0.41991528632E+02 -0.17635205861E+03 -0.56679654765E+02  0.22742786108E+03  0.12509001430E+03 0.  0.
         24    2    1    2    0    0 -0.71412519024E+02  0.14827109141E+03  0.19629998596E+03  0.26836505720E+03  0.80012842838E+02 0.  0.
        -11    1    5    5    0    0 -0.88916285538E+02  0.13143319448E+03  0.17156640720E+03  0.23370028354E+03  0.00000000000E+00 0.  1.
         12    1    5    5    0    0  0.17503766514E+02  0.16837896926E+02  0.24733578756E+02  0.34664773663E+02  0.00000000000E+00 0. -1.
         11    1    3    3    0    0  0.82341585770E+01  0.35495972300E+02 -0.23142345343E+03  0.23427458294E+03  0.00000000000E+00 0. -1.
        -12    1    3    3    0    0  0.10516988908E+03 -0.74150050978E+01 -0.73016066515E+03  0.73773320706E+03  0.00000000000E+00 0.  1.
          5    1    4    4  501    0  0.42242582000E+01 -0.16401524681E+03 -0.16744565666E+02  0.16497484178E+03  0.41800000000E+01 0.  1.
         -5    1    4    4    0  501 -0.46215786832E+02 -0.12336811805E+02 -0.39935089099E+02  0.62453019297E+02  0.41800000000E+01 0.  1.
</event>
<event>
11    1  0.7157190E-009  0.1290886E+03  0.7561462E-02  0.1120394E+00
         22   -1    0    0    0    0  0.00000000000E+00  0.00000000000E+00  0.98143983635E+03  0.98143983635E+03  0.00000000000E+00 0. -1.
         22   -1    0    0    0    0 -0.00000000000E+00 -0.00000000000E+00 -0.45154777613E+03  0.45154777613E+03  0.00000000000E+00 0.  1.
        -24    2    1    2    0    0 -0.25430050831E+02  0.20669333906E+02 -0.41564013323E+03  0.42460640001E+03  0.80373911954E+02 0.  0.
         25    2    1    2    0    0  0.15659311780E+02  0.12077050281E+02  0.10803662813E+03  0.16646414259E+03  0.12508928235E+03 0.  0.
         24    2    1    2    0    0  0.97707390510E+01 -0.32746384187E+02  0.83749556533E+03  0.84191706989E+03  0.79105863289E+02 0.  0.
        -11    1    5    5    0    0  0.22420097637E+02  0.97758709019E+00  0.68580397281E+02  0.72158764858E+02  0.00000000000E+00 0.  1.
         12    1    5    5    0    0 -0.12649358586E+02 -0.33723971277E+02  0.76891516805E+03  0.76975830503E+03  0.00000000000E+00 0. -1.
         13    1    3    3    0    0  0.29303791111E+02  0.58947378621E+01 -0.12962826403E+03  0.13302987237E+03  0.00000000000E+00 0. -1.
        -14    1    3    3    0    0 -0.54733841942E+02  0.14774596044E+02 -0.28601186920E+03  0.29157652763E+03  0.00000000000E+00 0.  1.
          5    1    4    4  501    0 -0.34212320879E+02 -0.20378073313E+02 -0.32788864586E+01  0.40174273712E+02  0.41800000000E+01 0. -1.
         -5    1    4    4    0  501  0.49871632659E+02  0.32455123594E+02  0.11131551459E+03  0.12628986887E+03  0.41800000000E+01 0. -1.
</event>
<event>
11    1  0.7157190E-009  0.1571896E+03  0.7561462E-02  0.1089751E+00
         22   -1    0    0    0    0  0.00000000000E+00  0.00000000000E+00  0.25071807119E+03  0.25071807119E+03  0.00000000000E+00 0. -1.
         22   -1    0    0    0    0 -0.00000000000E+00 -0.00000000000E+00 -0.14221878343E+04  0.14221878343E+04  0.00000000000E+00 0. -1.
        -24    2    1    2    0    0  0.39005738745E+02  0.83575469811E+02 -0.12144036491E+04  0.12206241656E+04  0.81491251112E+02 0.  0.
         25    2    1    2    0    0 -0.22203718414E+02 -0.14434596697E+03 -0.14542235869E+03  0.24108865405E+03  0.12508922180E+03 0.  0.
         24    2    1    2    0    0 -0.16802020331E+02  0.60770497161E+02  0.18835624461E+03  0.21119308586E+03  0.71757114068E+02 0.  0.
        -13    1    5    5    0    0 -0.43286507048E+02  0.39689440276E+02  0.92834589473E+02  0.10985096433E+03  0.00000000000E+00 0.  1.
         14    1    5    5    0    0  0.26484486717E+02  0.21081056886E+02  0.95521655135E+02  0.10134212153E+03  0.00000000000E+00 0. -1.
         11    1    3    3    0    0  0.43858464568E+02  0.32343259989E+02 -0.93048509656E+03  0.93207948497E+03  0.00000000000E+00 0. -1.
        -12    1    3    3    0    0 -0.48527258232E+01  0.51232209823E+02 -0.28391855249E+03  0.28854468063E+03  0.00000000000E+00 0.  1.
          5    1    4    4  501    0  0.37137210364E+02 -0.92534521876E+01 -0.57743992206E+02  0.69402015871E+02  0.41800000000E+01 0. -1.
         -5    1    4    4    0  501 -0.59340928777E+02 -0.13509251479E+03 -0.87678366482E+02  0.17168663818E+03  0.41800000000E+01 0. -1.
</event>
<event>
11    1  0.7157190E-009  0.1536732E+03  0.7561462E-02  0.1093184E+00
         22   -1    0    0    0    0  0.00000000000E+00  0.00000000000E+00  0.10192343217E+04  0.10192343217E+04  0.00000000000E+00 0. -1.
         22   -1    0    0    0    0 -0.00000000000E+00 -0.00000000000E+00 -0.74076912535E+03  0.74076912535E+03  0.00000000000E+00 0. -1.
        -24    2    1    2    0    0 -0.47885090122E+02 -0.70089246521E+02 -0.59869713441E+03  0.60929123772E+03  0.74780139563E+02 0.  0.
         25    2    1    2    0    0  0.76455571151E+02  0.12605406091E+03 -0.64261817582E+02  0.20373500133E+03  0.12507313435E+03 0.  0.
         24    2    1    2    0    0 -0.28570481029E+02 -0.55964814385E+02  0.94142414838E+03  0.94697720804E+03  0.80858348743E+02 0.  0.
        -11    1    5    5    0    0 -0.21437915809E+02 -0.65680066171E+02  0.43857594261E+03  0.44398458618E+03  0.00000000000E+00 0.  1.
         12    1    5    5    0    0 -0.71325652197E+01  0.97152517869E+01  0.50284820577E+03  0.50299262186E+03  0.00000000000E+00 0. -1.
         13    1    3    3    0    0 -0.58288361144E+02 -0.23832350325E+02 -0.40555410044E+03  0.41041398898E+03  0.00000000000E+00 0. -1.
        -14    1    3    3    0    0  0.10403271023E+02 -0.46256896196E+02 -0.19314303397E+03  0.19887724874E+03  0.00000000000E+00 0.  1.
          5    1    4    4  501    0  0.60670413110E+02  0.10604900069E+02  0.14009358456E+02  0.63301638658E+02  0.41800000000E+01 0.  1.
         -5    1    4    4    0  501  0.15785158041E+02  0.11544916084E+03 -0.78271176038E+02  0.14043336267E+03  0.41800000000E+01 0.  1.
</event>
<event>
11    1  0.7157190E-009  0.1470486E+03  0.7561462E-02  0.1099933E+00
         22   -1    0    0    0    0  0.00000000000E+00  0.00000000000E+00  0.40889111313E+03  0.40889111313E+03  0.00000000000E+00 0.  1.
         22   -1    0    0    0    0 -0.00000000000E+00 -0.00000000000E+00 -0.29198590167E+03  0.29198590167E+03  0.00000000000E+00 0. -1.
        -24    2    1    2    0    0 -0.23587720304E+02 -0.76958971261E+02 -0.16881305461E+03  0.20371233777E+03  0.80757695280E+02 0.  0.
         25    2    1    2    0    0 -0.35285460431E+02  0.75759502438E+02 -0.41912132449E+02  0.15616855084E+03  0.12508966183E+03 0.  0.
         24    2    1    2    0    0  0.58873180735E+02  0.11994688231E+01  0.32763039852E+03  0.34099612619E+03  0.73953971526E+02 0.  0.
        -13    1    5    5    0    0  0.67576057320E+02 -0.11789337660E+02  0.18147643882E+03  0.19400827264E+03  0.00000000000E+00 0.  1.
         14    1    5    5    0    0 -0.87028765853E+01  0.12988806483E+02  0.14615395970E+03  0.14698785355E+03  0.00000000000E+00 0. -1.
         13    1    3    3    0    0  0.12063021686E+02 -0.51140265590E+02 -0.14376632157E+03  0.15306730047E+03  0.00000000000E+00 0. -1.
        -14    1    3    3    0    0 -0.35650741990E+02 -0.25818705671E+02 -0.25046733043E+02  0.50645037300E+02  0.00000000000E+00 0.  1.
          5    1    4    4  501    0 -0.18496487936E+02 -0.33945854173E+02 -0.16486285802E+02  0.42234004085E+02  0.41800000000E+01 0. -1.
         -5    1    4    4    0  501 -0.16788972495E+02  0.10970535661E+03 -0.25425846647E+02  0.11393454676E+03  0.41800000000E+01 0. -1.
</event>
<event>
11    1  0.7157190E-009  0.1357805E+03  0.7561462E-02  0.1112364E+00
         22   -1    0    0    0    0  0.00000000000E+00  0.00000000000E+00  0.45468339565E+03  0.45468339565E+03  0.00000000000E+00 0. -1.
         22   -1    0    0    0    0 -0.00000000000E+00 -0.00000000000E+00 -0.26236478027E+03  0.26236478027E+03  0.00000000000E+00 0.  1.
         24    2    1    2    0    0 -0.21146958435E+01 -0.19835865735E+02 -0.21543592334E+03  0.23117127072E+03  0.81422268672E+02 0.  0.
         25    2    1    2    0    0 -0.49745188386E+02  0.39590568364E+01  0.11357682192E+03  0.17617549847E+03  0.12509138214E+03 0.  0.
        -24    2    1    2    0    0  0.51859884229E+02  0.15876808899E+02  0.29417771680E+03  0.30970140672E+03  0.80205433777E+02 0.  0.
        -11    1    3    3    0    0  0.33485690735E+02  0.29570096833E+01 -0.14649580071E+03  0.15030321027E+03  0.00000000000E+00 0.  1.
         12    1    3    3    0    0 -0.35600386579E+02 -0.22792875418E+02 -0.68940122623E+02  0.80868060455E+02  0.00000000000E+00 0. -1.
         11    1    5    5    0    0  0.31601931556E+02  0.90046799948E+01  0.28420647869E+03  0.28609978831E+03  0.00000000000E+00 0. -1.
        -12    1    5    5    0    0  0.20257952673E+02  0.68721289040E+01  0.99712381131E+01  0.23601618413E+02  0.00000000000E+00 0.  1.
          5    1    4    4  501    0 -0.76204646309E+02  0.74906069384E+01  0.20674702713E+02  0.79424007980E+02  0.41800000000E+01 0. -1.
         -5    1    4    4    0  501  0.26459457923E+02 -0.35315501020E+01  0.92902119203E+02  0.96751490491E+02  0.41800000000E+01 0. -1.
</event>
<event>
11    1  0.7157190E-009  0.3642651E+03  0.7561462E-02  0.9761509E-01
         22   -1    0    0    0    0  0.00000000000E+00  0.00000000000E+00  0.28478281929E+04  0.28478281929E+04  0.00000000000E+00 0.  1.
         22   -1    0    0    0    0 -0.00000000000E+00 -0.00000000000E+00 -0.14102878698E+04  0.14102878698E+04  0.00000000000E+00 0.  1.
         24    2    1    2    0    0 -0.26053070327E+03  0.21778729726E+03 -0.12850498165E+04  0.13316892645E+04  0.82071384070E+02 0.  0.
         25    2    1    2    0    0  0.27869129395E+03 -0.26977298741E+03  0.31036898351E+03  0.51227469454E+03  0.12510057825E+03 0.  0.
        -24    2    1    2    0    0 -0.18160590676E+02  0.51985690149E+02  0.24122211561E+04  0.24141521037E+04  0.79291581096E+02 0.  0.
        -11    1    3    3    0    0 -0.21802925833E+03  0.14769523855E+03 -0.10584582442E+04  0.10907265907E+04  0.00000000000E+00 0.  1.
         12    1    3    3    0    0 -0.42501444941E+02  0.70092058714E+02 -0.22659157231E+03  0.24096267379E+03  0.00000000000E+00 0. -1.
         11    1    5    5    0    0  0.17351821123E+02  0.40842560160E+02  0.63836771127E+03  0.63990822406E+03  0.00000000000E+00 0. -1.
        -12    1    5    5    0    0 -0.35512411799E+02  0.11143129989E+02  0.17738534448E+04  0.17742438796E+04  0.00000000000E+00 0.  1.
          5    1    4    4  501    0  0.17321290266E+03 -0.85791500833E+02  0.17398460530E+03  0.26009807101E+03  0.41800000000E+01 0. -1.
         -5    1    4    4    0  501  0.10547839129E+03 -0.18398148658E+03  0.13638437821E+03  0.25217662352E+03  0.41800000000E+01 0. -1.
</event>
<event>
11    1  0.7157190E-009  0.1733152E+03  0.7561462E-02  0.1075182E+00
         22   -1    0    0    0    0  0.00000000000E+00  0.00000000000E+00  0.32367759883E+03  0.32367759883E+03  0.00000000000E+00 0. -1.
         22   -1    0    0    0    0 -0.00000000000E+00 -0.00000000000E+00 -0.58971496169E+03  0.58971496169E+03  0.00000000000E+00 0. -1.
         24    2    1    2    0    0 -0.46698930048E+02  0.11976224357E+03 -0.40599878222E+03  0.43316132977E+03  0.79182961483E+02 0.  0.
         25    2    1    2    0    0  0.12620453262E+02 -0.96962080113E+02 -0.12429885346E+03  0.20163997438E+03  0.12509018138E+03 0.  0.
        -24    2    1    2    0    0  0.34078476786E+02 -0.22800163453E+02  0.26426027282E+03  0.27859125638E+03  0.78092293487E+02 0.  0.
        -13    1    3    3    0    0  0.50782407319E+01 -0.86105135853E+01 -0.12374483655E+02  0.15907775421E+02  0.00000000000E+00 0.  1.
         14    1    3    3    0    0 -0.51777170779E+02  0.12837275715E+03 -0.39362429857E+03  0.41725355435E+03  0.00000000000E+00 0. -1.
         13    1    5    5    0    0 -0.36880571481E+01  0.24766506341E+02  0.50455926697E+02  0.56327454591E+02  0.00000000000E+00 0. -1.
        -14    1    5    5    0    0  0.37766533934E+02 -0.47566669794E+02  0.21380434613E+03  0.22226380178E+03  0.00000000000E+00 0.  1.
          5    1    4    4  501    0 -0.13728387349E+02  0.19680761206E+02  0.56391235587E+01  0.25001461864E+02  0.41800000000E+01 0.  1.
         -5    1    4    4    0  501  0.26348840611E+02 -0.11664284132E+03 -0.12993797702E+03  0.17663851252E+03  0.41800000000E+01 0.  1.
</event>
<event>
11    1  0.7157190E-009  0.1832904E+03  0.7561462E-02  0.1067012E+00
         22   -1    0    0    0    0  0.00000000000E+00  0.00000000000E+00  0.18789460243E+03  0.18789460243E+03  0.00000000000E+00 0. -1.
         22   -1    0    0    0    0 -0.00000000000E+00 -0.00000000000E+00 -0.11985453616E+04  0.11985453616E+04  0.00000000000E+00 0. -1.
        -24    2    1    2    0    0  0.12952243635E+03 -0.10153611173E+02 -0.84275683844E+03  0.85610050814E+03  0.76090958469E+02 0.  0.
         25    2    1    2    0    0 -0.14757448441E+03  0.49922500582E+02 -0.30563757707E+03  0.36514738145E+03  0.12509115537E+03 0.  0.
         24    2    1    2    0    0  0.18052048066E+02 -0.39768889409E+02  0.13774365635E+03  0.16519207443E+03  0.80047895576E+02 0.  0.
        -11    1    5    5    0    0  0.80648227511E+01 -0.51360353458E+02  0.38289631546E+02  0.64567973154E+02  0.00000000000E+00 0.  1.
         12    1    5    5    0    0  0.99872253145E+01  0.11591464048E+02  0.99454024801E+02  0.10062410128E+03  0.00000000000E+00 0. -1.
         13    1    3    3    0    0  0.12439598881E+03 -0.28301988967E+02 -0.64842476556E+03  0.66085553732E+03  0.00000000000E+00 0. -1.
        -14    1    3    3    0    0  0.51264475341E+01  0.18148377795E+02 -0.19433207288E+03  0.19524497082E+03  0.00000000000E+00 0.  1.
          5    1    4    4  501    0 -0.15567974180E+03  0.53426402271E+02 -0.19996949844E+03  0.25902863775E+03  0.41800000000E+01 0. -1.
         -5    1    4    4    0  501  0.81052573890E+01 -0.35039016888E+01 -0.10566807863E+03  0.10611874370E+03  0.41800000000E+01 0. -1.
</event>
<event>
11    1  0.7157190E-009  0.3147532E+03  0.7561462E-02  0.9941337E-01
         22   -1    0    0    0    0  0.00000000000E+00  0.00000000000E+00  0.95169912281E+03  0.95169912281E+03  0.00000000000E+00 0.  1.
         22   -1    0    0    0    0 -0.00000000000E+00 -0.00000000000E+00 -0.35516454934E+03  0.35516454934E+03  0.00000000000E+00 0. -1.
         24    2    1    2    0    0  0.28707436989E+03 -0.10333896678E+03 -0.21151817454E+03  0.37999458589E+03  0.81026608222E+02 0.  0.
         25    2    1    2    0    0 -0.23313442565E+03 -0.32258170316E+02  0.35260706705E+03  0.44200830808E+03  0.12508937086E+03 0.  0.
        -24    2    1    2    0    0 -0.53939944234E+02  0.13559713710E+03  0.45544568096E+03  0.48486077818E+03  0.79769071322E+02 0.  0.
        -11    1    3    3    0    0  0.17445013147E+03 -0.96705611353E+02 -0.16122490198E+03  0.25647279126E+03  0.00000000000E+00 0.  1.
         12    1    3    3    0    0  0.11262423841E+03 -0.66333554288E+01 -0.50293272557E+02  0.12352179462E+03  0.00000000000E+00 0. -1.
         11    1    5    5    0    0 -0.28668185189E+02  0.90806909700E+01  0.41324826320E+02  0.51108365860E+02  0.00000000000E+00 0. -1.
        -12    1    5    5    0    0 -0.25271759045E+02  0.12651644613E+03  0.41412085464E+03  0.43375241232E+03  0.00000000000E+00 0.  1.
          5    1    4    4  501    0 -0.87929740886E+02 -0.55177097912E+02  0.22288380732E+03  0.24590814430E+03  0.41800000000E+01 0. -1.
         -5    1    4    4    0  501 -0.14520468477E+03  0.22918927596E+02  0.12972325972E+03  0.19610016378E+03  0.41800000000E+01 0. -1.
</event>
<event>
11    1  0.7157190E-009  0.1313708E+03  0.7561462E-02  0.1117596E+00
         22   -1    0    0    0    0  0.00000000000E+00  0.00000000000E+00  0.10481781599E+04  0.10481781599E+04  0.00000000000E+00 0.  1.
         22   -1    0    0    0    0 -0.00000000000E+00 -0.00000000000E+00 -0.38849490024E+03  0.38849490024E+03  0.00000000000E+00 0.  1.
         24    2    1    2    0    0 -0.18107073853E+02 -0.32425434553E+02 -0.29892242750E+03  0.31361630734E+03  0.87300032271E+02 0.  0.
         25    2    1    2    0    0  0.16066573840E+02  0.65868706540E+02 -0.17781219082E+02  0.14338860572E+03  0.12508916501E+03 0.  0.
        -24    2    1    2    0    0  0.20405000131E+01 -0.33443271988E+02  0.97638690621E+03  0.97966814705E+03  0.72771365519E+02 0.  0.
        -11    1    3    3    0    0 -0.50723928527E+02 -0.31866141834E+01 -0.14929177924E+03  0.15770576015E+03  0.00000000000E+00 0.  1.
         12    1    3    3    0    0  0.32616854674E+02 -0.29238820369E+02 -0.14963064826E+03  0.15591054719E+03  0.00000000000E+00 0. -1.
         11    1    5    5    0    0 -0.12609456042E+02 -0.53312432237E+02  0.72759836355E+03  0.72965785985E+03  0.00000000000E+00 0. -1.
        -12    1    5    5    0    0  0.14649956055E+02  0.19869160249E+02  0.24878854267E+03  0.25001028720E+03  0.00000000000E+00 0.  1.
          5    1    4    4  501    0  0.92651075411E+00  0.74497787555E+02 -0.61141848888E+02  0.96470601005E+02  0.41800000000E+01 0. -1.
         -5    1    4    4    0  501  0.15140063086E+02 -0.86290810152E+01  0.43360629806E+02  0.46918004716E+02  0.41800000000E+01 0. -1.
</event>
<event>
11    1  0.7157190E-009  0.1320364E+03  0.7561462E-02  0.1116792E+00
         22   -1    0    0    0    0  0.00000000000E+00  0.00000000000E+00  0.40334876916E+03  0.40334876916E+03  0.00000000000E+00 0. -1.
         22   -1    0    0    0    0 -0.00000000000E+00 -0.00000000000E+00 -0.11773897275E+04  0.11773897275E+04  0.00000000000E+00 0. -1.
         24    2    1    2    0    0  0.22519252818E+02 -0.13180083490E+02 -0.10783459076E+04  0.10815601558E+04  0.79130542776E+02 0.  0.
         25    2    1    2    0    0 -0.36546436486E+01  0.50859769698E+02 -0.42476318476E+02  0.14160595738E+03  0.12509171411E+03 0.  0.
        -24    2    1    2    0    0 -0.18864609170E+02 -0.37679686208E+02  0.34678126771E+03  0.35757238352E+03  0.76322536563E+02 0.  0.
        -11    1    3    3    0    0  0.27561376932E+02 -0.41728222531E+02 -0.50176673514E+03  0.50425264556E+03  0.00000000000E+00 0.  1.
         12    1    3    3    0    0 -0.50421241138E+01  0.28548139041E+02 -0.57657917243E+03  0.57730751020E+03  0.00000000000E+00 0. -1.
         11    1    5    5    0    0 -0.29868948154E+02 -0.46763340081E+02  0.33348084754E+03  0.33806573284E+03  0.00000000000E+00 0. -1.
        -12    1    5    5    0    0  0.11004338984E+02  0.90836538737E+01  0.13300420165E+02  0.19506650680E+02  0.00000000000E+00 0.  1.
          5    1    4    4  501    0 -0.99684555555E+01  0.14505657347E+02  0.43956624587E+02  0.47533582301E+02  0.41800000000E+01 0.  1.
         -5    1    4    4    0  501  0.63138119069E+01  0.36354112350E+02 -0.86432943063E+02  0.94072375074E+02  0.41800000000E+01 0.  1.
</event>
<event>
11    1  0.7157190E-009  0.1576782E+03  0.7561462E-02  0.1089282E+00
         22   -1    0    0    0    0  0.00000000000E+00  0.00000000000E+00  0.15689432399E+03  0.15689432399E+03  0.00000000000E+00 0.  1.
         22   -1    0    0    0    0 -0.00000000000E+00 -0.00000000000E+00 -0.11369834064E+04  0.11369834064E+04  0.00000000000E+00 0. -1.
        -24    2    1    2    0    0 -0.82320754077E+02  0.49685635997E+02 -0.96891433823E+03  0.97697058848E+03  0.80194556833E+02 0.  0.
         25    2    1    2    0    0  0.68426482059E+02 -0.67769641753E+02 -0.10552006888E+03  0.18990848735E+03  0.12512330255E+03 0.  0.
         24    2    1    2    0    0  0.13894272018E+02  0.18084005757E+02  0.94345324742E+02  0.12699865452E+03  0.81899547558E+02 0.  0.
        -13    1    5    5    0    0  0.43662293521E+02  0.74134633359E+01  0.81719584824E+02  0.92948619451E+02  0.00000000000E+00 0.  1.
         14    1    5    5    0    0 -0.29768021503E+02  0.10670542421E+02  0.12625739919E+02  0.34050035070E+02  0.00000000000E+00 0. -1.
         13    1    3    3    0    0 -0.50234694787E+02  0.49782575097E+02 -0.87240951136E+03  0.87527149209E+03  0.00000000000E+00 0. -1.
        -14    1    3    3    0    0 -0.32086059290E+02 -0.96939100179E-01 -0.96504826868E+02  0.10169909639E+03  0.00000000000E+00 0.  1.
          5    1    4    4  501    0  0.42837375827E+01 -0.89709275893E+02 -0.62825632071E+02  0.10968426065E+03  0.41800000000E+01 0.  1.
         -5    1    4    4    0  501  0.64142744476E+02  0.21939634140E+02 -0.42694436807E+02  0.80224226699E+02  0.41800000000E+01 0.  1.
</event>
<event>
11    1  0.7157190E-009  0.1548818E+03  0.7561462E-02  0.1091992E+00
         22   -1    0    0    0    0  0.00000000000E+00  0.00000000000E+00  0.78619344312E+03  0.78619344312E+03  0.00000000000E+00 0. -1.
         22   -1    0    0    0    0 -0.00000000000E+00 -0.00000000000E+00 -0.12985310585E+04  0.12985310585E+04  0.00000000000E+00 0. -1.
         24    2    1    2    0    0  0.29538059767E+02  0.86146894420E+02 -0.12526053056E+04  0.12584367667E+04  0.79682242498E+02 0.  0.
         25    2    1    2    0    0 -0.30842471566E+02 -0.10178947705E+03  0.12621355216E+03  0.20709675121E+03  0.12508736117E+03 0.  0.
        -24    2    1    2    0    0  0.13044117991E+01  0.15642582626E+02  0.61405413805E+03  0.61919098371E+03  0.78029468633E+02 0.  0.
        -11    1    3    3    0    0  0.11239586418E+01  0.33087194075E+01 -0.81683749854E+00  0.35886112418E+01  0.00000000000E+00 0.  1.
         12    1    3    3    0    0  0.28414101125E+02  0.82838175012E+02 -0.12517884681E+04  0.12548481555E+04  0.00000000000E+00 0. -1.
         13    1    5    5    0    0 -0.27686605705E+02  0.15750584957E+02  0.51492925377E+03  0.51591352517E+03  0.00000000000E+00 0. -1.
        -14    1    5    5    0    0  0.28991017504E+02 -0.10800233061E+00  0.99124884276E+02  0.10327745854E+03  0.00000000000E+00 0.  1.
          5    1    4    4  501    0  0.11976601372E+01 -0.31103398573E+02 -0.22951193652E+02  0.38898399487E+02  0.41800000000E+01 0.  1.
         -5    1    4    4    0  501 -0.32040131704E+02 -0.70686078473E+02  0.14916474581E+03  0.16819835173E+03  0.41800000000E+01 0.  1.
</event>
<event>
11    1  0.7157190E-009  0.1466697E+03  0.7561462E-02  0.1100331E+00
         22   -1    0    0    0    0  0.00000000000E+00  0.00000000000E+00  0.54101011606E+03  0.54101011606E+03  0.00000000000E+00 0.  1.
         22   -1    0    0    0    0 -0.00000000000E+00 -0.00000000000E+00 -0.16633819160E+03  0.16633819160E+03  0.00000000000E+00 0. -1.
         24    2    1    2    0    0  0.57635526171E+02 -0.46739756195E+02 -0.11183073744E+03  0.15702052404E+03  0.81503818608E+02 0.  0.
         25    2    1    2    0    0 -0.76122519108E+02  0.76278302806E+02  0.26851013110E+03  0.31521175451E+03  0.12509093605E+03 0.  0.
        -24    2    1    2    0    0  0.18486992937E+02 -0.29538546612E+02  0.21799253079E+03  0.23511602911E+03  0.80898139763E+02 0.  0.
        -13    1    3    3    0    0 -0.12725464351E+02  0.97337834081E+01 -0.41716729706E+01  0.16555568180E+02  0.00000000000E+00 0.  1.
         14    1    3    3    0    0  0.70360990523E+02 -0.56473539603E+02 -0.10765906447E+03  0.14046495586E+03  0.00000000000E+00 0. -1.
         11    1    5    5    0    0  0.15159682393E+02  0.22624553885E+02  0.32511556174E+02  0.42410938372E+02  0.00000000000E+00 0. -1.
        -12    1    5    5    0    0  0.33273105436E+01 -0.52163100497E+02  0.18548097462E+03  0.19270509073E+03  0.00000000000E+00 0.  1.
          5    1    4    4  501    0  0.18070342054E+02  0.66487134208E+02  0.13288908290E+03  0.14974664280E+03  0.41800000000E+01 0. -1.
         -5    1    4    4    0  501 -0.94192861162E+02  0.97911685985E+01  0.13562104820E+03  0.16546511171E+03  0.41800000000E+01 0. -1.
</event>
<event>
11    1  0.7157190E-009  0.1671270E+03  0.7561462E-02  0.1080559E+00
         22   -1    0    0    0    0  0.00000000000E+00  0.00000000000E+00  0.43899385546E+03  0.43899385546E+03  0.00000000000E+00 0.  1.
         22   -1    0    0    0    0 -0.00000000000E+00 -0.00000000000E+00 -0.52291729929E+03  0.52291729929E+03  0.00000000000E+00 0.  1.
        -24    2    1    2    0    0 -0.30133020945E+02 -0.23335438827E+02 -0.36893709623E+03  0.38090410281E+03  0.86722620491E+02 0.  0.
         25    2    1    2    0    0 -0.61005828253E+02  0.87943204574E+02 -0.85636928809E+02  0.18557376218E+03  0.12509284281E+03 0.  0.
         24    2    1    2    0    0  0.91138849199E+02 -0.64607765747E+02  0.37065058121E+03  0.39543328977E+03  0.80654696564E+02 0.  0.
        -11    1    5    5    0    0  0.61624891709E+02 -0.60454571810E+02  0.34644207963E+03  0.35703570839E+03  0.00000000000E+00 0.  1.
         12    1    5    5    0    0  0.29513957490E+02 -0.41531939370E+01  0.24208501580E+02  0.38397581374E+02  0.00000000000E+00 0. -1.
         11    1    3    3    0    0  0.24466634007E+02 -0.26226947549E+02 -0.94595157900E+02  0.10116675766E+03  0.00000000000E+00 0. -1.
        -12    1    3    3    0    0 -0.54599654953E+02  0.28915087217E+01 -0.27434193833E+03  0.27973734515E+03  0.00000000000E+00 0.  1.
          5    1    4    4  501    0  0.20881628345E+02 -0.16387327790E+02  0.13560331522E+01  0.26905355235E+02  0.41800000000E+01 0.  1.
         -5    1    4    4    0  501 -0.81887456598E+02  0.10433053236E+03 -0.86992961962E+02  0.15866840694E+03  0.41800000000E+01 0.  1.
</event>
<event>
11    1  0.7157190E-009  0.1366930E+03  0.7561462E-02  0.1111308E+00
         22   -1    0    0    0    0  0.00000000000E+00  0.00000000000E+00  0.16104305528E+03  0.16104305528E+03  0.00000000000E+00 0.  1.
         22   -1    0    0    0    0 -0.00000000000E+00 -0.00000000000E+00 -0.10383378053E+04  0.10383378053E+04  0.00000000000E+00 0.  1.
         24    2    1    2    0    0  0.20864296480E+02  0.52461876496E+02 -0.93624838219E+03  0.94112209369E+03  0.77215249278E+02 0.  0.
         25    2    1    2    0    0  0.39383052006E+02 -0.44705433603E+02 -0.84050507925E+01  0.13880695974E+03  0.12508847515E+03 0.  0.
        -24    2    1    2    0    0 -0.60247348486E+02 -0.77564428937E+01  0.67358682966E+02  0.11945180716E+03  0.77727965725E+02 0.  0.
        -11    1    3    3    0    0  0.46864732880E+02  0.13651787440E+02 -0.50263481709E+03  0.50499943944E+03  0.00000000000E+00 0.  1.
         12    1    3    3    0    0 -0.26000436401E+02  0.38810089056E+02 -0.43361356510E+03  0.43612265424E+03  0.00000000000E+00 0. -1.
         11    1    5    5    0    0  0.10197202464E+02 -0.24097576651E+02  0.14878388350E+02  0.30100541165E+02  0.00000000000E+00 0. -1.
        -12    1    5    5    0    0 -0.70444550950E+02  0.16341133757E+02  0.52480294615E+02  0.89351265990E+02  0.00000000000E+00 0.  1.
          5    1    4    4  501    0  0.96158277580E+01  0.25295475767E+02  0.40053585819E+02  0.48518938310E+02  0.41800000000E+01 0. -1.
         -5    1    4    4    0  501  0.29767224248E+02 -0.70000909370E+02 -0.48458636611E+02  0.90288021433E+02  0.41800000000E+01 0. -1.
</event>
<event>
11    1  0.7157190E-009  0.1395746E+03  0.7561462E-02  0.1108034E+00
         22   -1    0    0    0    0  0.00000000000E+00  0.00000000000E+00  0.89049138712E+03  0.89049138712E+03  0.00000000000E+00 0.  1.
         22   -1    0    0    0    0 -0.00000000000E+00 -0.00000000000E+00 -0.19796595765E+03  0.19796595765E+03  0.00000000000E+00 0. -1.
        -24    2    1    2    0    0 -0.32482481313E+02 -0.36040852264E+02 -0.82026033814E+02  0.12913608522E+03  0.87142433170E+02 0.  0.
         25    2    1    2    0    0 -0.30283948865E+02  0.41756005518E+02 -0.37276126784E+02  0.14034679833E+03  0.12508809942E+03 0.  0.
         24    2    1    2    0    0  0.62766430178E+02 -0.57151532539E+01  0.81182759006E+03  0.81897446122E+03  0.87651836336E+02 0.  0.
        -11    1    5    5    0    0  0.40514245600E+02 -0.44198235750E+02  0.56533026811E+03  0.56850083569E+03  0.00000000000E+00 0.  1.
         12    1    5    5    0    0  0.22252184577E+02  0.38483082496E+02  0.24649732195E+03  0.25047362553E+03  0.00000000000E+00 0. -1.
         13    1    3    3    0    0  0.22160316110E+02  0.93334172506E+01 -0.39818527829E+02  0.46515668824E+02  0.00000000000E+00 0. -1.
        -14    1    3    3    0    0 -0.54642797423E+02 -0.45374269515E+02 -0.42207505985E+02  0.82620416397E+02  0.00000000000E+00 0.  1.
          5    1    4    4  501    0 -0.34497453858E+02 -0.37291504934E+02 -0.33482808134E+02  0.60986076309E+02  0.41800000000E+01 0.  1.
         -5    1    4    4    0  501  0.42135049932E+01  0.79047510453E+02 -0.37933186501E+01  0.79360722020E+02  0.41800000000E+01 0.  1.
</event>
<event>
11    1  0.7157190E-009  0.1444980E+03  0.7561462E-02  0.1102637E+00
         22   -1    0    0    0    0  0.00000000000E+00  0.00000000000E+00  0.42187230762E+03  0.42187230762E+03  0.00000000000E+00 0.  1.
         22   -1    0    0    0    0 -0.00000000000E+00 -0.00000000000E+00 -0.13848050159E+04  0.13848050159E+04  0.00000000000E+00 0.  1.
         24    2    1    2    0    0 -0.13659744027E+02  0.70915731519E+02 -0.12936740927E+04  0.12980554869E+04  0.78356618231E+02 0.  0.
         25    2    1    2    0    0 -0.31506643832E+02 -0.83378031002E+02 -0.11346986198E+02  0.15401138747E+03  0.12508472615E+03 0.  0.
        -24    2    1    2    0    0  0.45166387859E+02  0.12462299484E+02  0.34208837057E+03  0.35461044909E+03  0.80801026143E+02 0.  0.
        -13    1    3    3    0    0  0.24803352442E+02  0.62380458478E+02 -0.79970431657E+03  0.80251699161E+03  0.00000000000E+00 0.  1.
         14    1    3    3    0    0 -0.38463096469E+02  0.85352730403E+01 -0.49396977609E+03  0.49553849534E+03  0.00000000000E+00 0. -1.
         11    1    5    5    0    0  0.30597794011E+02  0.43523272854E+02  0.14276321068E+03  0.15235430614E+03  0.00000000000E+00 0. -1.
        -12    1    5    5    0    0  0.14568593848E+02 -0.31060973370E+02  0.19932515990E+03  0.20225614295E+03  0.00000000000E+00 0.  1.
          5    1    4    4  501    0 -0.34867807847E+02 -0.22092342629E+02  0.51454985290E+02  0.66097833082E+02  0.41800000000E+01 0. -1.
         -5    1    4    4    0  501  0.33611640154E+01 -0.61285688373E+02 -0.62801971488E+02  0.87913554392E+02  0.41800000000E+01 0. -1.
</event>
<event>
11    1  0.7157190E-009  0.2313918E+03  0.7561462E-02  0.1034307E+00
         22   -1    0    0    0    0  0.00000000000E+00  0.00000000000E+00  0.30754628602E+03  0.30754628602E+03  0.00000000000E+00 0.  1.
         22   -1    0    0    0    0 -0.00000000000E+00 -0.00000000000E+00 -0.90982220398E+03  0.90982220398E+03  0.00000000000E+00 0.  1.
        -24    2    1    2    0    0  0.15376592414E+03 -0.12521479854E+03 -0.77068494436E+03  0.79977853395E+03  0.79797961789E+02 0.  0.
         25    2    1    2    0    0 -0.12308790797E+03  0.11853677931E+03 -0.17995662826E+02  0.21253977508E+03  0.12509081090E+03 0.  0.
         24    2    1    2    0    0 -0.30678016162E+02  0.66780192286E+01  0.18640468923E+03  0.20505018098E+03  0.79455219699E+02 0.  0.
        -13    1    5    5    0    0 -0.25666748764E+02  0.31303654743E+02  0.17065915148E+03  0.17539454603E+03  0.00000000000E+00 0.  1.
         14    1    5    5    0    0 -0.50112673981E+01 -0.24625635514E+02  0.15745537746E+02  0.29655634951E+02  0.00000000000E+00 0. -1.
         11    1    3    3    0    0  0.67438012284E+01 -0.28621949602E+02 -0.50661190534E+02  0.58576881791E+02  0.00000000000E+00 0. -1.
        -12    1    3    3    0    0  0.14702212291E+03 -0.96592848940E+02 -0.72002375382E+03  0.74120165216E+03  0.00000000000E+00 0.  1.
          5    1    4    4  501    0 -0.14205949316E+03  0.92790720563E+02  0.97279406786E+01  0.17000918401E+03  0.41800000000E+01 0. -1.
         -5    1    4    4    0  501  0.18971585182E+02  0.25746058750E+02 -0.27723603504E+02  0.42530591070E+02  0.41800000000E+01 0. -1.
</event>
<event>
11    1  0.7157190E-009  0.1271132E+03  0.7561462E-02  0.1122868E+00
         22   -1    0    0    0    0  0.00000000000E+00  0.00000000000E+00  0.89185481775E+03  0.89185481775E+03  0.00000000000E+00 0.  1.
         22   -1    0    0    0    0 -0.00000000000E+00 -0.00000000000E+00 -0.29823676261E+03  0.29823676261E+03  0.00000000000E+00 0. -1.
         24    2    1    2    0    0 -0.68974918699E+01  0.24009045895E+02 -0.22527842433E+03  0.24046819476E+03  0.80315468899E+02 0.  0.
         25    2    1    2    0    0 -0.11959255388E+01 -0.32136082383E+01 -0.13227047173E+01  0.12515044079E+03  0.12509646584E+03 0.  0.
        -24    2    1    2    0    0  0.80934174087E+01 -0.20795437656E+02  0.82021918418E+03  0.82447294482E+03  0.80611246149E+02 0.  0.
        -11    1    3    3    0    0  0.42678957189E+01  0.44107598897E+02 -0.65735081232E+02  0.79276706030E+02  0.00000000000E+00 0.  1.
         12    1    3    3    0    0 -0.11165387589E+02 -0.20098553003E+02 -0.15954334310E+03  0.16119148873E+03  0.00000000000E+00 0. -1.
         13    1    5    5    0    0 -0.26887500949E+02 -0.11345669282E+02  0.12710269121E+03  0.13040995373E+03  0.00000000000E+00 0. -1.
        -14    1    5    5    0    0  0.34980918357E+02 -0.94497683740E+01  0.69311649297E+03  0.69406299108E+03  0.00000000000E+00 0.  1.
          5    1    4    4  501    0 -0.13980534802E+02 -0.62394692337E+02 -0.55169094418E+01  0.64315330016E+02  0.41800000000E+01 0. -1.
         -5    1    4    4    0  501  0.12784609263E+02  0.59181084099E+02  0.41942047245E+01  0.60835110770E+02  0.41800000000E+01 0. -1.
</event>
<event>
11    1  0.7157190E-009  0.1344284E+03  0.7561462E-02  0.1113945E+00
         22   -1    0    0    0    0  0.00000000000E+00  0.00000000000E+00  0.62465657031E+03  0.62465657031E+03  0.00000000000E+00 0. -1.
         22   -1    0    0    0    0 -0.00000000000E+00 -0.00000000000E+00 -0.25499148836E+04  0.25499148836E+04  0.00000000000E+00 0. -1.
         24    2    1    2    0    0 -0.30529160882E+02  0.37752006038E+02 -0.24220264524E+04  0.24238912230E+04  0.81726869238E+02 0.  0.
         25    2    1    2    0    0  0.30332160244E+02 -0.83618811785E+02 -0.75421184932E+02  0.17101887317E+03  0.12508778603E+03 0.  0.
        -24    2    1    2    0    0  0.19700063742E+00  0.45866805747E+02  0.57218932404E+03  0.57966135776E+03  0.80640340173E+02 0.  0.
        -13    1    3    3    0    0 -0.15650982308E+02 -0.15526295783E+01 -0.82412667146E+02  0.83900009606E+02  0.00000000000E+00 0.  1.
         14    1    3    3    0    0 -0.14878178573E+02  0.39304635617E+02 -0.23396137852E+04  0.23399912134E+04  0.00000000000E+00 0. -1.
         11    1    5    5    0    0  0.30743309676E+02  0.22036213841E+02  0.44740533679E+03  0.44900142672E+03  0.00000000000E+00 0. -1.
        -12    1    5    5    0    0 -0.30546309038E+02  0.23830591906E+02  0.12478398725E+03  0.13065993104E+03  0.00000000000E+00 0.  1.
          5    1    4    4  501    0  0.48041412647E+02  0.76933222955E+01 -0.58810123957E+02  0.76441269069E+02  0.41800000000E+01 0.  1.
         -5    1    4    4    0  501 -0.17709252402E+02 -0.91312134081E+02 -0.16611060975E+02  0.94577604103E+02  0.41800000000E+01 0.  1.
</event>
<event>
11    1  0.7157190E-009  0.1576051E+03  0.7561462E-02  0.1089352E+00
         22   -1    0    0    0    0  0.00000000000E+00  0.00000000000E+00  0.28761115878E+04  0.28761115878E+04  0.00000000000E+00 0. -1.
         22   -1    0    0    0    0 -0.00000000000E+00 -0.00000000000E+00 -0.21888915323E+03  0.21888915323E+03  0.00000000000E+00 0.  1.
         24    2    1    2    0    0  0.53619300540E+02 -0.44451205349E+02 -0.18810839819E+03  0.21684733845E+03  0.82383612896E+02 0.  0.
         25    2    1    2    0    0 -0.35019877894E+02  0.13477578260E+03  0.58184799715E+03  0.61121494750E+03  0.12508283991E+03 0.  0.
        -24    2    1    2    0    0 -0.18599422646E+02 -0.90324577247E+02  0.22634828356E+04  0.22669384550E+04  0.84563255783E+02 0.  0.
        -11    1    3    3    0    0 -0.86599171226E+01 -0.40758828982E+02 -0.10470279606E+03  0.11268962599E+03  0.00000000000E+00 0.  1.
         12    1    3    3    0    0  0.62279217663E+02 -0.36923763673E+01 -0.83405602137E+02  0.10415771245E+03  0.00000000000E+00 0. -1.
         13    1    5    5    0    0  0.89062749909E+01 -0.96378412124E+02  0.17024549080E+04  0.17052040447E+04  0.00000000000E+00 0. -1.
        -14    1    5    5    0    0 -0.27505697637E+02  0.60538348767E+01  0.56102792753E+03  0.56173441036E+03  0.00000000000E+00 0.  1.
          5    1    4    4  501    0 -0.35897779893E+01  0.14069329755E+03  0.54178284519E+03  0.55977996947E+03  0.41800000000E+01 0. -1.
         -5    1    4    4    0  501 -0.31430099905E+02 -0.59175149520E+01  0.40065151958E+02  0.51434978028E+02  0.41800000000E+01 0. -1.
</event>
<event>
11    1  0.7157190E-009  0.1583304E+03  0.7561462E-02  0.1088658E+00
         22   -1    0    0    0    0  0.00000000000E+00  0.00000000000E+00  0.11956083053E+04  0.11956083053E+04  0.00000000000E+00 0.  1.
         22   -1    0    0    0    0 -0.00000000000E+00 -0.00000000000E+00 -0.26219409593E+03  0.26219409593E+03  0.00000000000E+00 0. -1.
         24    2    1    2    0    0  0.22979908819E+01 -0.29436705636E+02 -0.21203393140E+03  0.22815635849E+03  0.78899527599E+02 0.  0.
         25    2    1    2    0    0  0.94580521478E+02  0.35514805925E+02  0.13107879453E+03  0.20744911683E+03  0.12508680672E+03 0.  0.
        -24    2    1    2    0    0 -0.96878512360E+02 -0.60781002888E+01  0.10143693462E+04  0.10221969259E+04  0.80740295364E+02 0.  0.
        -13    1    3    3    0    0 -0.31090124869E+02  0.92832247573E+01 -0.68698001439E+02  0.75974926969E+02  0.00000000000E+00 0.  1.
         14    1    3    3    0    0  0.33388115751E+02 -0.38719930393E+02 -0.14333592996E+03  0.15218143153E+03  0.00000000000E+00 0. -1.
         13    1    5    5    0    0 -0.58017629023E+02  0.22345193863E+02  0.30935969022E+03  0.31554519629E+03  0.00000000000E+00 0. -1.
        -14    1    5    5    0    0 -0.38860883337E+02 -0.28423294152E+02  0.70500965600E+03  0.70665172961E+03  0.00000000000E+00 0.  1.
          5    1    4    4  501    0 -0.10174997735E+02 -0.33430925203E+02  0.32055251226E+02  0.47604294659E+02  0.41800000000E+01 0.  1.
         -5    1    4    4    0  501  0.10475551921E+03  0.68945731128E+02  0.99023543303E+02  0.15984482217E+03  0.41800000000E+01 0.  1.
</event>
<event>
11    1  0.7157190E-009  0.1427738E+03  0.7561462E-02  0.1104500E+00
         22   -1    0    0    0    0  0.00000000000E+00  0.00000000000E+00  0.14281806484E+03  0.14281806484E+03  0.00000000000E+00 0. -1.
         22   -1    0    0    0    0 -0.00000000000E+00 -0.00000000000E+00 -0.17559691398E+04  0.17559691398E+04  0.00000000000E+00 0.  1.
         24    2    1    2    0    0  0.14708840026E+02  0.18500412520E+02 -0.16428040161E+04  0.16451552743E+04  0.84688994484E+02 0.  0.
         25    2    1    2    0    0  0.14773467643E+01  0.58944287830E+02  0.28526921757E+02  0.14120108334E+03  0.12508936426E+03 0.  0.
        -24    2    1    2    0    0 -0.16186186790E+02 -0.77444700350E+02  0.11260194279E+01  0.11243084702E+03  0.79873357184E+02 0.  0.
        -13    1    3    3    0    0  0.50204067148E+02  0.77647617384E+01 -0.97430314125E+03  0.97562664525E+03  0.00000000000E+00 0.  1.
         14    1    3    3    0    0 -0.35495227123E+02  0.10735650782E+02 -0.66850087487E+03  0.66952862900E+03  0.00000000000E+00 0. -1.
         11    1    5    5    0    0 -0.16945432236E+02 -0.47172176236E+02 -0.38039778132E+02  0.62923656957E+02  0.00000000000E+00 0. -1.
        -12    1    5    5    0    0  0.75924544664E+00 -0.30272524114E+02  0.39165797560E+02  0.49507190068E+02  0.00000000000E+00 0.  1.
          5    1    4    4  501    0 -0.14115211972E+02  0.74012713955E+02  0.64312829572E+02  0.99150055389E+02  0.41800000000E+01 0.  1.
         -5    1    4    4    0  501  0.15592558736E+02 -0.15068426125E+02 -0.35785907816E+02  0.42051027954E+02  0.41800000000E+01 0.  1.
</event>
<event>
11    1  0.7157190E-009  0.2120873E+03  0.7561462E-02  0.1046291E+00
         22   -1    0    0    0    0  0.00000000000E+00  0.00000000000E+00  0.43881424814E+03  0.43881424814E+03  0.00000000000E+00 0. -1.
         22   -1    0    0    0    0 -0.00000000000E+00 -0.00000000000E+00 -0.37331222316E+04  0.37331222316E+04  0.00000000000E+00 0. -1.
        -24    2    1    2    0    0  0.13315287502E+03  0.16142736062E+02 -0.17661152687E+04  0.17730457602E+04  0.80856968134E+02 0.  0.
         25    2    1    2    0    0 -0.18577851900E+03  0.14656455002E+03 -0.19333854433E+04  0.19518238975E+04  0.12506969572E+03 0.  0.
         24    2    1    2    0    0  0.52625643985E+02 -0.16270728608E+03  0.40519272861E+03  0.44706682206E+03  0.80277498227E+02 0.  0.
        -11    1    5    5    0    0  0.18459850165E+02  0.24627766940E+01  0.60821942506E+02  0.63609276268E+02  0.00000000000E+00 0.  1.
         12    1    5    5    0    0  0.34165793820E+02 -0.16517006277E+03  0.34437078610E+03  0.38345754579E+03  0.00000000000E+00 0. -1.
         11    1    3    3    0    0  0.84698157341E+02  0.92618141631E+01 -0.15032931054E+04  0.15057057215E+04  0.00000000000E+00 0. -1.
        -12    1    3    3    0    0  0.48454717674E+02  0.68809218987E+01 -0.26282216336E+03  0.26734003873E+03  0.00000000000E+00 0.  1.
          5    1    4    4  501    0 -0.87604370820E+02  0.13703875712E+03 -0.13956003923E+04  0.14050523386E+04  0.41800000000E+01 0. -1.
         -5    1    4    4    0  501 -0.98174148180E+02  0.95257928928E+01 -0.53778505105E+03  0.54677155891E+03  0.41800000000E+01 0. -1.
</event>
<event>
11    1  0.7157190E-009  0.1742100E+03  0.7561462E-02  0.1074425E+00
         22   -1    0    0    0    0  0.00000000000E+00  0.00000000000E+00  0.26444711505E+03  0.26444711505E+03  0.00000000000E+00 0.  1.
         22   -1    0    0    0    0 -0.00000000000E+00 -0.00000000000E+00 -0.22885776471E+04  0.22885776471E+04  0.00000000000E+00 0.  1.
        -24    2    1    2    0    0  0.98784730284E+02 -0.69665296761E+02 -0.15073431417E+04  0.15149879662E+04  0.92160264412E+02 0.  0.
         25    2    1    2    0    0 -0.10702965811E+03  0.59987410562E+02 -0.76078793741E+03  0.78070437798E+03  0.12508878026E+03 0.  0.
         24    2    1    2    0    0  0.82449278274E+01  0.96778861990E+01  0.24400054710E+03  0.25733241794E+03  0.80759309197E+02 0.  0.
        -11    1    5    5    0    0  0.43237871701E+02  0.11127823743E+02  0.16466192212E+03  0.17060741663E+03  0.00000000000E+00 0.  1.
         12    1    5    5    0    0 -0.34992943874E+02 -0.14499375440E+01  0.79338624977E+02  0.86725001315E+02  0.00000000000E+00 0. -1.
         11    1    3    3    0    0  0.19319007099E+02 -0.10932640847E+01 -0.46317595261E+02  0.50197000831E+02  0.00000000000E+00 0. -1.
        -12    1    3    3    0    0  0.79465723185E+02 -0.68572032676E+02 -0.14610255465E+04  0.14647909654E+04  0.00000000000E+00 0.  1.
          5    1    4    4  501    0 -0.35540225040E+02  0.37330070917E+02 -0.76692147152E+02  0.92497565510E+02  0.41800000000E+01 0.  1.
         -5    1    4    4    0  501 -0.71489433072E+02  0.22657339645E+02 -0.68409579026E+03  0.68820681247E+03  0.41800000000E+01 0.  1.
</event>
<event>
11    1  0.7157190E-009  0.4377828E+03  0.7561462E-02  0.9544418E-01
         22   -1    0    0    0    0  0.00000000000E+00  0.00000000000E+00  0.13464672672E+04  0.13464672672E+04  0.00000000000E+00 0. -1.
         22   -1    0    0    0    0 -0.00000000000E+00 -0.00000000000E+00 -0.21866450200E+03  0.21866450200E+03  0.00000000000E+00 0. -1.
         24    2    1    2    0    0  0.16911967583E+03 -0.85040663028E+02 -0.34868882461E+02  0.20831348370E+03  0.79657324876E+02 0.  0.
         25    2    1    2    0    0  0.16990314222E+03 -0.17215524731E+02  0.10059942355E+03  0.23437634753E+03  0.12509426939E+03 0.  0.
        -24    2    1    2    0    0 -0.33902281805E+03  0.10225618776E+03  0.10620722241E+04  0.11224419380E+04  0.80533817766E+02 0.  0.
        -11    1    3    3    0    0  0.47887530097E+02 -0.43430339060E+02 -0.46467348443E+02  0.79615478150E+02  0.00000000000E+00 0.  1.
         12    1    3    3    0    0  0.12123214573E+03 -0.41610323968E+02  0.11598465982E+02  0.12869800555E+03  0.00000000000E+00 0. -1.
         11    1    5    5    0    0 -0.32713793234E+03  0.11109264981E+03  0.98175524233E+03  0.10407709448E+04  0.00000000000E+00 0. -1.
        -12    1    5    5    0    0 -0.11884885710E+02 -0.88364620495E+01  0.80316981818E+02  0.81670993248E+02  0.00000000000E+00 0.  1.
          5    1    4    4  501    0  0.57246540275E+02  0.51687191089E+02  0.54127169237E+02  0.94318370139E+02  0.41800000000E+01 0.  1.
         -5    1    4    4    0  501  0.11265660195E+03 -0.68902715820E+02  0.46472254310E+02  0.14005797739E+03  0.41800000000E+01 0.  1.
</event>
<event>
11    1  0.7157190E-009  0.1641085E+03  0.7561462E-02  0.1083275E+00
         22   -1    0    0    0    0  0.00000000000E+00  0.00000000000E+00  0.42715867874E+03  0.42715867874E+03  0.00000000000E+00 0. -1.
         22   -1    0    0    0    0 -0.00000000000E+00 -0.00000000000E+00 -0.67419871270E+03  0.67419871270E+03  0.00000000000E+00 0. -1.
         24    2    1    2    0    0  0.23604486052E+02  0.17904069888E+02 -0.35775875986E+03  0.36874155913E+03  0.84269090993E+02 0.  0.
         25    2    1    2    0    0  0.72163689190E+02 -0.64946026349E+02 -0.27878284206E+03  0.32061510734E+03  0.12509432302E+03 0.  0.
        -24    2    1    2    0    0 -0.95768175242E+02  0.47041956460E+02  0.38950156795E+03  0.41200072498E+03  0.81539173948E+02 0.  0.
        -13    1    3    3    0    0  0.19769528542E+02 -0.10322828967E+02 -0.20533652855E+02  0.30315440888E+02  0.00000000000E+00 0.  1.
         14    1    3    3    0    0  0.38349575109E+01  0.28226898855E+02 -0.33722510700E+03  0.33842611824E+03  0.00000000000E+00 0. -1.
         13    1    5    5    0    0 -0.83351298554E+02  0.34274425518E+02  0.38231813868E+03  0.39279681056E+03  0.00000000000E+00 0. -1.
        -14    1    5    5    0    0 -0.12416876688E+02  0.12767530942E+02  0.71834292650E+01  0.19203914420E+02  0.00000000000E+00 0.  1.
          5    1    4    4  501    0 -0.57077546843E+01 -0.57780654807E+02 -0.20469248719E+03  0.21280899710E+03  0.41800000000E+01 0. -1.
         -5    1    4    4    0  501  0.77871443874E+02 -0.71653715417E+01 -0.74090354863E+02  0.10780611024E+03  0.41800000000E+01 0. -1.
</event>
<event>
11    1  0.7157190E-009  0.1439975E+03  0.7561462E-02  0.1103175E+00
         22   -1    0    0    0    0  0.00000000000E+00  0.00000000000E+00  0.89599516202E+03  0.89599516202E+03  0.00000000000E+00 0.  1.
         22   -1    0    0    0    0 -0.00000000000E+00 -0.00000000000E+00 -0.34513890934E+03  0.34513890934E+03  0.00000000000E+00 0.  1.
        -24    2    1    2    0    0  0.46941355253E+01  0.14504029076E+02 -0.29542082077E+03  0.30769827519E+03  0.84689818994E+02 0.  0.
         25    2    1    2    0    0 -0.75379480043E+02 -0.73845183542E+01  0.94211426018E+02  0.17395397453E+03  0.12509034871E+03 0.  0.
         24    2    1    2    0    0  0.70685344518E+02 -0.71195107219E+01  0.75206564743E+03  0.75948182165E+03  0.78503464909E+02 0.  0.
        -13    1    5    5    0    0  0.21765740196E+02  0.10757971485E+02  0.55861554961E+03  0.55914292776E+03  0.00000000000E+00 0.  1.
         14    1    5    5    0    0  0.48919604322E+02 -0.17877482207E+02  0.19345009783E+03  0.20033889389E+03  0.00000000000E+00 0. -1.
         13    1    3    3    0    0  0.33548483145E+02  0.19241574022E+00 -0.50245941432E+02  0.60416821958E+02  0.00000000000E+00 0. -1.
        -14    1    3    3    0    0 -0.28854347619E+02  0.14311613336E+02 -0.24517487934E+03  0.24728145323E+03  0.00000000000E+00 0.  1.
          5    1    4    4  501    0  0.12961153714E+02 -0.34823636233E+02  0.68189822550E+02  0.77768897675E+02  0.41800000000E+01 0. -1.
         -5    1    4    4    0  501 -0.88340633757E+02  0.27439117879E+02  0.26021603468E+02  0.96185076855E+02  0.41800000000E+01 0. -1.
</event>
<event>
11    1  0.7157190E-009  0.1431964E+03  0.7561462E-02  0.1104041E+00
         22   -1    0    0    0    0  0.00000000000E+00  0.00000000000E+00  0.12281843284E+04  0.12281843284E+04  0.00000000000E+00 0. -1.
         22   -1    0    0    0    0 -0.00000000000E+00 -0.00000000000E+00 -0.46018718019E+03  0.46018718019E+03  0.00000000000E+00 0.  1.
        -24    2    1    2    0    0 -0.62770786508E+02 -0.31039095730E+02 -0.44066639680E+03  0.45356408048E+03  0.81424226914E+02 0.  0.
         25    2    1    2    0    0  0.14450243656E+02  0.65690095419E+02  0.52368777371E+03  0.54260554638E+03  0.12509155227E+03 0.  0.
         24    2    1    2    0    0  0.48320542853E+02 -0.34650999689E+02  0.68497577134E+03  0.69220188178E+03  0.80100381887E+02 0.  0.
        -11    1    5    5    0    0  0.32425567217E+02  0.20432003159E+02  0.18350360147E+03  0.18746321216E+03  0.00000000000E+00 0.  1.
         12    1    5    5    0    0  0.15894975636E+02 -0.55083002848E+02  0.50147216987E+03  0.50473866962E+03  0.00000000000E+00 0. -1.
         13    1    3    3    0    0  0.74241781653E+01 -0.35538726691E+02 -0.17635925571E+03  0.18005750912E+03  0.00000000000E+00 0. -1.
        -14    1    3    3    0    0 -0.70194964674E+02  0.44996309617E+01 -0.26430714109E+03  0.27350657136E+03  0.00000000000E+00 0.  1.
          5    1    4    4  501    0  0.34950051085E+02 -0.26937826844E+02  0.21986150862E+03  0.22428488125E+03  0.41800000000E+01 0. -1.
         -5    1    4    4    0  501 -0.20499807429E+02  0.92627922262E+02  0.30382626510E+03  0.31832066513E+03  0.41800000000E+01 0. -1.
</event>
<event>
11    1  0.7157190E-009  0.1318489E+03  0.7561462E-02  0.1117018E+00
         22   -1    0    0    0    0  0.00000000000E+00  0.00000000000E+00  0.60202803798E+03  0.60202803798E+03  0.00000000000E+00 0.  1.
         22   -1    0    0    0    0 -0.00000000000E+00 -0.00000000000E+00 -0.15265915209E+03  0.15265915209E+03  0.00000000000E+00 0.  1.
         24    2    1    2    0    0 -0.26168658726E+02 -0.33170157483E+02 -0.11522994133E+03  0.14668369899E+03  0.80331252474E+02 0.  0.
         25    2    1    2    0    0  0.21928192124E+02  0.24066857737E+02  0.23393635792E+03  0.26727095319E+03  0.12508990211E+03 0.  0.
        -24    2    1    2    0    0  0.42404666019E+01  0.91032997454E+01  0.33066246929E+03  0.34073253788E+03  0.81609693959E+02 0.  0.
        -11    1    3    3    0    0 -0.28080119182E+02 -0.13277223913E+02 -0.12175997350E+03  0.12565933676E+03  0.00000000000E+00 0.  1.
         12    1    3    3    0    0  0.19114604564E+01 -0.19892933570E+02  0.65300321709E+01  0.21024362232E+02  0.00000000000E+00 0. -1.
         11    1    5    5    0    0  0.81284323143E+01 -0.31034142058E+02  0.70405931007E+02  0.77370436901E+02  0.00000000000E+00 0. -1.
        -12    1    5    5    0    0 -0.38879657124E+01  0.40137441804E+02  0.26025653828E+03  0.26336210098E+03  0.00000000000E+00 0.  1.
          5    1    4    4  501    0 -0.49158812443E+02 -0.96448499434E+01  0.83936361666E+02  0.97838628266E+02  0.41800000000E+01 0.  1.
         -5    1    4    4    0  501  0.71087004566E+02  0.33711707681E+02  0.14999999626E+03  0.16943232493E+03  0.41800000000E+01 0.  1.
</event>
<event>
11    1  0.7157190E-009  0.1458997E+03  0.7561462E-02  0.1101144E+00
         22   -1    0    0    0    0  0.00000000000E+00  0.00000000000E+00  0.60557294429E+03  0.60557294429E+03  0.00000000000E+00 0.  1.
         22   -1    0    0    0    0 -0.00000000000E+00 -0.00000000000E+00 -0.88910501422E+03  0.88910501422E+03  0.00000000000E+00 0.  1.
         24    2    1    2    0    0 -0.53163025266E+02  0.47312280974E+02 -0.54009589406E+03  0.55064186181E+03  0.80237933699E+02 0.  0.
         25    2    1    2    0    0  0.66780090696E+02 -0.57157580093E+02 -0.32363450545E+03  0.35792816667E+03  0.12508680949E+03 0.  0.
        -24    2    1    2    0    0 -0.13617065430E+02  0.98452991190E+01  0.58019832958E+03  0.58610793003E+03  0.81302211611E+02 0.  0.
        -11    1    3    3    0    0 -0.23737278195E+02  0.42468529706E+02 -0.48949562440E+03  0.49190751235E+03  0.00000000000E+00 0.  1.
         12    1    3    3    0    0 -0.29425747071E+02  0.48437512683E+01 -0.50600269657E+02  0.58734349459E+02  0.00000000000E+00 0. -1.
         11    1    5    5    0    0 -0.13273753107E+02  0.29285864622E+02  0.90825321124E+02  0.96348810815E+02  0.00000000000E+00 0. -1.
        -12    1    5    5    0    0 -0.34331232281E+00 -0.19440565503E+02  0.48937300845E+03  0.48975911921E+03  0.00000000000E+00 0.  1.
          5    1    4    4  501    0  0.69366387306E+02 -0.35370580317E+01 -0.28030981554E+03  0.28881702089E+03  0.41800000000E+01 0.  1.
         -5    1    4    4    0  501 -0.25862966095E+01 -0.53620522061E+02 -0.43324689908E+02  0.69111145787E+02  0.41800000000E+01 0.  1.
</event>
<event>
11    1  0.7157190E-009  0.1706560E+03  0.7561462E-02  0.1077462E+00
         22   -1    0    0    0    0  0.00000000000E+00  0.00000000000E+00  0.37296439084E+03  0.37296439084E+03  0.00000000000E+00 0.  1.
         22   -1    0    0    0    0 -0.00000000000E+00 -0.00000000000E+00 -0.18593276923E+04  0.18593276923E+04  0.00000000000E+00 0. -1.
         24    2    1    2    0    0  0.16430963152E+01  0.41274597363E+02 -0.13617739148E+04  0.13650227666E+04  0.84573436708E+02 0.  0.
         25    2    1    2    0    0 -0.10642097384E+03 -0.90052151165E+02 -0.46451144392E+03  0.50085281842E+03  0.12509136894E+03 0.  0.
        -24    2    1    2    0    0  0.10477787753E+03  0.48777553803E+02  0.33992205725E+03  0.36641649811E+03  0.73187374003E+02 0.  0.
        -13    1    3    3    0    0  0.39457577409E+02  0.22583045818E+01 -0.52343098992E+03  0.52492094792E+03  0.00000000000E+00 0.  1.
         14    1    3    3    0    0 -0.37814481094E+02  0.39016292781E+02 -0.83834292486E+03  0.84010181868E+03  0.00000000000E+00 0. -1.
         13    1    5    5    0    0 -0.11205959068E+02  0.50160962975E+01  0.41300099336E+02  0.43086342916E+02  0.00000000000E+00 0. -1.
        -14    1    5    5    0    0  0.11598383659E+03  0.43761457505E+02  0.29862195791E+03  0.32333015520E+03  0.00000000000E+00 0.  1.
          5    1    4    4  501    0 -0.11936192266E+03 -0.45561997212E+02 -0.24367494349E+03  0.27516924729E+03  0.41800000000E+01 0. -1.
         -5    1    4    4    0  501  0.12940948815E+02 -0.44490153953E+02 -0.22083650043E+03  0.22568357113E+03  0.41800000000E+01 0. -1.
</event>
<event>
11    1  0.7157190E-009  0.1303732E+03  0.7561462E-02  0.1118811E+00
         22   -1    0    0    0    0  0.00000000000E+00  0.00000000000E+00  0.12403111065E+04  0.12403111065E+04  0.00000000000E+00 0. -1.
         22   -1    0    0    0    0 -0.00000000000E+00 -0.00000000000E+00 -0.12009896960E+04  0.12009896960E+04  0.00000000000E+00 0.  1.
        -24    2    1    2    0    0 -0.29517704678E+02  0.55337109722E+01 -0.11759552230E+04  0.11791037313E+04  0.80703195487E+02 0.  0.
         25    2    1    2    0    0  0.63694211589E+02 -0.21532660533E+01  0.20699893774E+03  0.25012345592E+03  0.12510633009E+03 0.  0.
         24    2    1    2    0    0 -0.34176506911E+02 -0.33804449190E+01  0.10082776958E+04  0.10120736153E+04  0.80558239868E+02 0.  0.
        -13    1    5    5    0    0  0.18831533015E+02 -0.11000443586E+02  0.10665799921E+03  0.10886489421E+03  0.00000000000E+00 0.  1.
         14    1    5    5    0    0 -0.53008039926E+02  0.76199986667E+01  0.90161969657E+03  0.90320872112E+03  0.00000000000E+00 0. -1.
         13    1    3    3    0    0 -0.27728451784E+02 -0.10876077874E+02 -0.14555240197E+03  0.14856869734E+03  0.00000000000E+00 0. -1.
        -14    1    3    3    0    0 -0.17892528936E+01  0.16409788846E+02 -0.10304028210E+04  0.10305350340E+04  0.00000000000E+00 0.  1.
          5    1    4    4  501    0  0.20605116286E+02  0.30709861399E+02  0.18935737844E+03  0.19298019477E+03  0.41800000000E+01 0. -1.
         -5    1    4    4    0  501  0.43089095303E+02 -0.32863127453E+02  0.17641559305E+02  0.57143261148E+02  0.41800000000E+01 0. -1.
</event>
<event>
11    1  0.7157190E-009  0.1330809E+03  0.7561462E-02  0.1115540E+00
         22   -1    0    0    0    0  0.00000000000E+00  0.00000000000E+00  0.65288652799E+03  0.65288652799E+03  0.00000000000E+00 0. -1.
         22   -1    0    0    0    0 -0.00000000000E+00 -0.00000000000E+00 -0.17978793217E+03  0.17978793217E+03  0.00000000000E+00 0.  1.
        -24    2    1    2    0    0  0.14942854738E+02  0.35959512850E+02 -0.14289563310E+03  0.16860442705E+03  0.80572423255E+02 0.  0.
         25    2    1    2    0    0  0.30513661455E+02 -0.10309579622E+02  0.20746063139E+03  0.24438680995E+03  0.12509048058E+03 0.  0.
         24    2    1    2    0    0 -0.45456516194E+02 -0.25649933228E+02  0.40853359753E+03  0.41968322316E+03  0.80685150729E+02 0.  0.
        -13    1    5    5    0    0  0.23464284478E+02 -0.48427924765E+01  0.92391322421E+02  0.95447272060E+02  0.00000000000E+00 0.  1.
         14    1    5    5    0    0 -0.68920800672E+02 -0.20807140752E+02  0.31614227511E+03  0.32423595110E+03  0.00000000000E+00 0. -1.
         11    1    3    3    0    0  0.17582209103E+02  0.54959722188E+02 -0.58935847782E+02  0.82481145080E+02  0.00000000000E+00 0. -1.
        -12    1    3    3    0    0 -0.26393543648E+01 -0.19000209337E+02 -0.83959785323E+02  0.86123281973E+02  0.00000000000E+00 0.  1.
          5    1    4    4  501    0 -0.19390238786E+02 -0.41979183477E+02  0.25392220686E+02  0.52919471624E+02  0.41800000000E+01 0. -1.
         -5    1    4    4    0  501  0.49903900241E+02  0.31669603855E+02  0.18206841071E+03  0.19146733832E+03  0.41800000000E+01 0. -1.
</event>
<event>
11    1  0.7157190E-009  0.1472514E+03  0.7561462E-02  0.1099721E+00
         22   -1    0    0    0    0  0.00000000000E+00  0.00000000000E+00  0.87997781039E+03  0.87997781039E+03  0.00000000000E+00 0.  1.
         22   -1    0    0    0    0 -0.00000000000E+00 -0.00000000000E+00 -0.78575454213E+03  0.78575454213E+03  0.00000000000E+00 0.  1.
         24    2    1    2    0    0  0.55825592401E+02  0.55229327862E+02 -0.71198189382E+03  0.72094245857E+03  0.81688652971E+02 0.  0.
         25    2    1    2    0    0 -0.56702922976E+02 -0.33210735843E+02  0.74998264992E+01  0.14149729791E+03  0.12508822275E+03 0.  0.
        -24    2    1    2    0    0  0.87733057510E+00 -0.22018592019E+02  0.79870533557E+03  0.80329259604E+03  0.82844394371E+02 0.  0.
        -13    1    3    3    0    0  0.76642255223E+01  0.44232727194E+02 -0.54394737695E+03  0.54579668687E+03  0.00000000000E+00 0.  1.
         14    1    3    3    0    0  0.48161366878E+02  0.10996600668E+02 -0.16803451686E+03  0.17514577170E+03  0.00000000000E+00 0. -1.
         11    1    5    5    0    0 -0.17985450113E+02 -0.47985684608E+02  0.39439009969E+03  0.39770548535E+03  0.00000000000E+00 0. -1.
        -12    1    5    5    0    0  0.18862780688E+02  0.25967092589E+02  0.40431523588E+03  0.40558711069E+03  0.00000000000E+00 0.  1.
          5    1    4    4  501    0 -0.21073009874E+02  0.37058001419E+02 -0.31805701304E+02  0.53352059471E+02  0.41800000000E+01 0. -1.
         -5    1    4    4    0  501 -0.35629913102E+02 -0.70268737262E+02  0.39305527803E+02  0.88145238442E+02  0.41800000000E+01 0. -1.
</event>
<event>
11    1  0.7157190E-009  0.1439425E+03  0.7561462E-02  0.1103234E+00
         22   -1    0    0    0    0  0.00000000000E+00  0.00000000000E+00  0.14930439179E+04  0.14930439179E+04  0.00000000000E+00 0.  1.
         22   -1    0    0    0    0 -0.00000000000E+00 -0.00000000000E+00 -0.22230390388E+04  0.22230390388E+04  0.00000000000E+00 0.  1.
         24    2    1    2    0    0 -0.25155688221E+02 -0.67983959841E+02 -0.20714799471E+04  0.20742108771E+04  0.77890718606E+02 0.  0.
         25    2    1    2    0    0  0.15587872051E+02  0.40972866328E+02 -0.11946836735E+03  0.17844190129E+03  0.12508822411E+03 0.  0.
        -24    2    1    2    0    0  0.95678161701E+01  0.27011093513E+02  0.14609531935E+04  0.14634301784E+04  0.80140571309E+02 0.  0.
        -13    1    3    3    0    0 -0.32131312085E+02 -0.78238695048E+02 -0.19895995807E+04  0.19913965467E+04  0.00000000000E+00 0.  1.
         14    1    3    3    0    0  0.69756238644E+01  0.10254735207E+02 -0.81880366353E+02  0.82814330381E+02  0.00000000000E+00 0. -1.
         11    1    5    5    0    0 -0.30803521308E+02  0.15384226831E+01  0.32108146947E+03  0.32255934912E+03  0.00000000000E+00 0. -1.
        -12    1    5    5    0    0  0.40371337478E+02  0.25472670830E+02  0.11398717240E+04  0.11408708293E+04  0.00000000000E+00 0.  1.
          5    1    4    4  501    0  0.63508695088E+02  0.22000241685E+02 -0.10501336233E+03  0.12475032526E+03  0.41800000000E+01 0.  1.
         -5    1    4    4    0  501 -0.47920823037E+02  0.18972624643E+02 -0.14455005019E+02  0.53691576029E+02  0.41800000000E+01 0.  1.
</event>
<event>
11    1  0.7157190E-009  0.1275189E+03  0.7561462E-02  0.1122356E+00
         22   -1    0    0    0    0  0.00000000000E+00  0.00000000000E+00  0.24846585748E+03  0.24846585748E+03  0.00000000000E+00 0. -1.
         22   -1    0    0    0    0 -0.00000000000E+00 -0.00000000000E+00 -0.19019098207E+04  0.19019098207E+04  0.00000000000E+00 0.  1.
        -24    2    1    2    0    0  0.15027184058E+02  0.27984199625E+02 -0.18168201897E+04  0.18189273131E+04  0.81560020731E+02 0.  0.
         25    2    1    2    0    0  0.11278761896E+02 -0.21288886885E+02 -0.19035883745E+02  0.12881249171E+03  0.12509942436E+03 0.  0.
         24    2    1    2    0    0 -0.26305945954E+02 -0.66953127404E+01  0.18241211028E+03  0.20263587330E+03  0.83966000072E+02 0.  0.
        -11    1    5    5    0    0 -0.54404221026E+02 -0.21170563525E+01  0.83289206542E+02  0.99505744153E+02  0.00000000000E+00 0.  1.
         12    1    5    5    0    0  0.28098275071E+02 -0.45782563879E+01  0.99122903737E+02  0.10313012915E+03  0.00000000000E+00 0. -1.
         11    1    3    3    0    0  0.26329835820E+01  0.10526206359E+02 -0.28757086409E+02  0.30736031650E+02  0.00000000000E+00 0. -1.
        -12    1    3    3    0    0  0.12394200476E+02  0.17457993267E+02 -0.17880631033E+04  0.17881912815E+04  0.00000000000E+00 0.  1.
          5    1    4    4  501    0 -0.55742860377E+02 -0.30449703390E+01 -0.19331139418E+02  0.59225870011E+02  0.41800000000E+01 0. -1.
         -5    1    4    4    0  501  0.67021622274E+02 -0.18243916546E+02  0.29525567301E+00  0.69586621696E+02  0.41800000000E+01 0. -1.
</event>
<event>
11    1  0.7157190E-009  0.1635552E+03  0.7561462E-02  0.1083780E+00
         22   -1    0    0    0    0  0.00000000000E+00  0.00000000000E+00  0.12236107637E+04  0.12236107637E+04  0.00000000000E+00 0. -1.
         22   -1    0    0    0    0 -0.00000000000E+00 -0.00000000000E+00 -0.14899961877E+03  0.14899961877E+03  0.00000000000E+00 0. -1.
        -24    2    1    2    0    0 -0.41192629862E+02 -0.15924224405E+02 -0.84559824822E+02  0.12522613737E+03  0.81122178405E+02 0.  0.
         25    2    1    2    0    0 -0.63823954232E+02 -0.15070279300E+02  0.84816940467E+02  0.16475159747E+03  0.12509422459E+03 0.  0.
         24    2    1    2    0    0  0.10501658409E+03  0.30994503705E+02  0.10743540293E+04  0.10826326477E+04  0.76601091845E+02 0.  0.
        -13    1    5    5    0    0  0.44446171047E+01  0.30635960299E+02  0.34332612015E+03  0.34471893110E+03  0.00000000000E+00 0.  1.
         14    1    5    5    0    0  0.10057196699E+03  0.35854340600E+00  0.73102790918E+03  0.73791371657E+03  0.00000000000E+00 0. -1.
         13    1    3    3    0    0 -0.55509825833E+02 -0.29095745058E+02 -0.85191562835E+02  0.10576155030E+03  0.00000000000E+00 0. -1.
        -14    1    3    3    0    0  0.14317195971E+02  0.13171520652E+02  0.63173801281E+00  0.19464587067E+02  0.00000000000E+00 0.  1.
          5    1    4    4  501    0 -0.23305544572E+02  0.65167172074E+00 -0.32131489491E+02  0.39918393013E+02  0.41800000000E+01 0. -1.
         -5    1    4    4    0  501 -0.40518409660E+02 -0.15721951020E+02  0.11694842996E+03  0.12483320446E+03  0.41800000000E+01 0. -1.
</event>
<event>
11    1  0.7157190E-009  0.2606705E+03  0.7561462E-02  0.1018364E+00
         22   -1    0    0    0    0  0.00000000000E+00  0.00000000000E+00  0.29354003104E+04  0.29354003104E+04  0.00000000000E+00 0. -1.
         22   -1    0    0    0    0 -0.00000000000E+00 -0.00000000000E+00 -0.14649114474E+04  0.14649114474E+04  0.00000000000E+00 0.  1.
        -24    2    1    2    0    0 -0.77104449599E+01 -0.55127767792E+02 -0.14011062269E+04  0.14045246900E+04  0.80575580715E+02 0.  0.
         25    2    1    2    0    0 -0.14504755101E+03  0.22103625110E+03  0.32143209396E+03  0.43458190483E+03  0.12508806746E+03 0.  0.
         24    2    1    2    0    0  0.15275799597E+03 -0.16590848331E+03  0.25501629959E+04  0.25612051629E+04  0.74699069345E+02 0.  0.
        -11    1    5    5    0    0  0.58525259607E+02 -0.34083259049E+02  0.10842742895E+04  0.10863874122E+04  0.00000000000E+00 0.  1.
         12    1    5    5    0    0  0.94232736364E+02 -0.13182522426E+03  0.14658887064E+04  0.14748177507E+04  0.00000000000E+00 0. -1.
         13    1    3    3    0    0 -0.89375035567E+01  0.14156556763E+02 -0.87211073408E+02  0.88803481881E+02  0.00000000000E+00 0. -1.
        -14    1    3    3    0    0  0.12270585968E+01 -0.69284324555E+02 -0.13138951535E+04  0.13157212081E+04  0.00000000000E+00 0.  1.
          5    1    4    4  501    0 -0.16485421397E+03  0.17768874169E+03  0.28675692697E+03  0.37549594985E+03  0.41800000000E+01 0.  1.
         -5    1    4    4    0  501  0.19806662963E+02  0.43347509412E+02  0.34675166989E+02  0.59085954978E+02  0.41800000000E+01 0.  1.
</event>
<event>
11    1  0.7157190E-009  0.1344604E+03  0.7561462E-02  0.1113907E+00
         22   -1    0    0    0    0  0.00000000000E+00  0.00000000000E+00  0.32319574799E+03  0.32319574799E+03  0.00000000000E+00 0.  1.
         22   -1    0    0    0    0 -0.00000000000E+00 -0.00000000000E+00 -0.27494191202E+03  0.27494191202E+03  0.00000000000E+00 0.  1.
         24    2    1    2    0    0  0.42384329583E+02  0.14100698104E+02 -0.17594385219E+03  0.19875140568E+03  0.80935907066E+02 0.  0.
         25    2    1    2    0    0 -0.75061410088E+02 -0.18905789953E+02 -0.10540934902E+02  0.14747885557E+03  0.12508899773E+03 0.  0.
        -24    2    1    2    0    0  0.32677080506E+02  0.48050918492E+01  0.23473862307E+03  0.25190739877E+03  0.85230486875E+02 0.  0.
        -13    1    3    3    0    0  0.23135413474E+02  0.10474124078E+01 -0.17386566073E+03  0.17540128965E+03  0.00000000000E+00 0.  1.
         14    1    3    3    0    0  0.19248916109E+02  0.13053285696E+02 -0.20781914652E+01  0.23350116029E+02  0.00000000000E+00 0. -1.
         13    1    5    5    0    0  0.18132075355E+02  0.23070569819E+02  0.19107937223E+02  0.35016233569E+02  0.00000000000E+00 0. -1.
        -14    1    5    5    0    0  0.14545005151E+02 -0.18265477970E+02  0.21563068585E+03  0.21689116520E+03  0.00000000000E+00 0.  1.
          5    1    4    4  501    0 -0.53131866574E+02 -0.14146799544E+02  0.55118037021E+02  0.77965361463E+02  0.41800000000E+01 0.  1.
         -5    1    4    4    0  501 -0.21929543514E+02 -0.47589904095E+01 -0.65658971923E+02  0.69513494104E+02  0.41800000000E+01 0.  1.
</event>
<event>
11    1  0.7157190E-009  0.1373678E+03  0.7561462E-02  0.1110534E+00
         22   -1    0    0    0    0  0.00000000000E+00  0.00000000000E+00  0.11971802980E+04  0.11971802980E+04  0.00000000000E+00 0. -1.
         22   -1    0    0    0    0 -0.00000000000E+00 -0.00000000000E+00 -0.35280835481E+03  0.35280835481E+03  0.00000000000E+00 0. -1.
         24    2    1    2    0    0 -0.36560623833E+02  0.42797658964E+02 -0.32488161221E+03  0.33836393114E+03  0.75985321718E+02 0.  0.
         25    2    1    2    0    0  0.31411303328E+02 -0.72528955047E+02  0.26602333919E+03  0.30441184215E+03  0.12510409006E+03 0.  0.
        -24    2    1    2    0    0  0.51493205048E+01  0.29731296083E+02  0.90323021624E+03  0.90721287955E+03  0.79372034246E+02 0.  0.
        -13    1    3    3    0    0 -0.22397347699E+02 -0.19034784696E+02 -0.74937372552E+02  0.80495801240E+02  0.00000000000E+00 0.  1.
         14    1    3    3    0    0 -0.14163276134E+02  0.61832443659E+02 -0.24994423966E+03  0.25786812990E+03  0.00000000000E+00 0. -1.
         13    1    5    5    0    0 -0.13436344822E+02  0.52143241292E+02  0.67262678119E+03  0.67477865982E+03  0.00000000000E+00 0. -1.
        -14    1    5    5    0    0  0.18585665327E+02 -0.22411945209E+02  0.23060343505E+03  0.23243421973E+03  0.00000000000E+00 0.  1.
          5    1    4    4  501    0 -0.44712827309E+02 -0.46478379387E+01  0.96255817612E+02  0.10631789195E+03  0.41800000000E+01 0. -1.
         -5    1    4    4    0  501  0.76124130637E+02 -0.67881117108E+02  0.16976752157E+03  0.19809395020E+03  0.41800000000E+01 0. -1.
</event>
<event>
11    1  0.7157190E-009  0.1545598E+03  0.7561462E-02  0.1092309E+00
         22   -1    0    0    0    0  0.00000000000E+00  0.00000000000E+00  0.91733615831E+03  0.91733615831E+03  0.00000000000E+00 0. -1.
         22   -1    0    0    0    0 -0.00000000000E+00 -0.00000000000E+00 -0.87699958398E+03  0.87699958398E+03  0.00000000000E+00 0. -1.
         24    2    1    2    0    0 -0.89070821961E+02 -0.38341487465E+02 -0.79921629489E+03  0.80909755890E+03  0.80551181276E+02 0.  0.
         25    2    1    2    0    0  0.80670417089E+01  0.23705635518E+02 -0.10013954234E+02  0.12796126538E+03  0.12508705705E+03 0.  0.
        -24    2    1    2    0    0  0.81003780252E+02  0.14635851947E+02  0.84956682346E+03  0.85727691802E+03  0.79900601216E+02 0.  0.
        -13    1    3    3    0    0 -0.52484506885E+01  0.17770549558E+02 -0.25068241829E+03  0.25136629350E+03  0.00000000000E+00 0.  1.
         14    1    3    3    0    0 -0.83822371273E+02 -0.56112037023E+02 -0.54853387660E+03  0.55773126540E+03  0.00000000000E+00 0. -1.
         13    1    5    5    0    0 -0.69318238142E+01  0.11103318034E+02  0.33372877546E+03  0.33398537307E+03  0.00000000000E+00 0. -1.
        -14    1    5    5    0    0  0.87935604067E+02  0.35325339130E+01  0.51583804799E+03  0.52329154495E+03  0.00000000000E+00 0.  1.
          5    1    4    4  501    0  0.55962641488E+02  0.20384092405E+02 -0.39383172767E+02  0.71525066674E+02  0.41800000000E+01 0. -1.
         -5    1    4    4    0  501 -0.47895599779E+02  0.33215431131E+01  0.29369218533E+02  0.56436198704E+02  0.41800000000E+01 0. -1.
</event>
<event>
11    1  0.7157190E-009  0.1315653E+03  0.7561462E-02  0.1117361E+00
         22   -1    0    0    0    0  0.00000000000E+00  0.00000000000E+00  0.22023582295E+03  0.22023582295E+03  0.00000000000E+00 0.  1.
         22   -1    0    0    0    0 -0.00000000000E+00 -0.00000000000E+00 -0.39045366723E+03  0.39045366723E+03  0.00000000000E+00 0. -1.
        -24    2    1    2    0    0 -0.14154717338E+02  0.13860724515E+02 -0.31176130679E+03  0.32255576680E+03  0.80340740466E+02 0.  0.
         25    2    1    2    0    0  0.38397732272E+01  0.28730515475E+02  0.91293056373E+01  0.12872614466E+03  0.12508752823E+03 0.  0.
         24    2    1    2    0    0  0.10314944111E+02 -0.42591239990E+02  0.13241415687E+03  0.15940757873E+03  0.77180667395E+02 0.  0.
        -11    1    5    5    0    0 -0.14080033720E+02 -0.41162948371E+02  0.12718212905E+03  0.13441699899E+03  0.00000000000E+00 0.  1.
         12    1    5    5    0    0  0.24394977831E+02 -0.14282916194E+01  0.52320278205E+01  0.24990579734E+02  0.00000000000E+00 0. -1.
         13    1    3    3    0    0 -0.20187396130E+02  0.43157088088E+02 -0.24211005489E+03  0.24675360968E+03  0.00000000000E+00 0. -1.
        -14    1    3    3    0    0  0.60326787915E+01 -0.29296363573E+02 -0.69651251899E+02  0.75802157114E+02  0.00000000000E+00 0.  1.
          5    1    4    4  501    0 -0.55206206594E+01 -0.47483741489E+02 -0.11008507095E+02  0.49232535856E+02  0.41800000000E+01 0. -1.
         -5    1    4    4    0  501  0.93603938866E+01  0.76214256964E+02  0.20137812733E+02  0.79493608800E+02  0.41800000000E+01 0. -1.
</event>
<event>
11    1  0.7157190E-009  0.1401833E+03  0.7561462E-02  0.1107354E+00
         22   -1    0    0    0    0  0.00000000000E+00  0.00000000000E+00  0.19883075292E+04  0.19883075292E+04  0.00000000000E+00 0. -1.
         22   -1    0    0    0    0 -0.00000000000E+00 -0.00000000000E+00 -0.93249116248E+03  0.93249116248E+03  0.00000000000E+00 0. -1.
         24    2    1    2    0    0 -0.11159797194E+02  0.67469232889E+02 -0.70799577023E+03  0.71607810651E+03  0.82663205296E+02 0.  0.
         25    2    1    2    0    0  0.11455300767E+02 -0.37094230193E+02 -0.19998726173E+03  0.23906292062E+03  0.12509584058E+03 0.  0.
        -24    2    1    2    0    0 -0.29550357285E+00 -0.30375002696E+02  0.19637993987E+04  0.19656576646E+04  0.79870193783E+02 0.  0.
        -11    1    3    3    0    0 -0.25639171956E+02  0.41478489703E+02 -0.15977316060E+03  0.16704878059E+03  0.00000000000E+00 0.  1.
         12    1    3    3    0    0  0.14479374762E+02  0.25990743186E+02 -0.54822260962E+03  0.54902932593E+03  0.00000000000E+00 0. -1.
         11    1    5    5    0    0  0.47219963812E+01  0.11707299370E+02  0.14668778827E+04  0.14669322005E+04  0.00000000000E+00 0. -1.
        -12    1    5    5    0    0 -0.50174999540E+01 -0.42082302066E+02  0.49692151601E+03  0.49872546408E+03  0.00000000000E+00 0.  1.
          5    1    4    4  501    0  0.56221194216E+02 -0.45947790850E+02 -0.68846353748E+02  0.10014646767E+03  0.41800000000E+01 0.  1.
         -5    1    4    4    0  501 -0.44765893449E+02  0.88535606568E+01 -0.13114090798E+03  0.13891645294E+03  0.41800000000E+01 0.  1.
</event>
<event>
11    1  0.7157190E-009  0.1271838E+03  0.7561462E-02  0.1122778E+00
         22   -1    0    0    0    0  0.00000000000E+00  0.00000000000E+00  0.56571350337E+03  0.56571350337E+03  0.00000000000E+00 0.  1.
         22   -1    0    0    0    0 -0.00000000000E+00 -0.00000000000E+00 -0.61942909387E+03  0.61942909387E+03  0.00000000000E+00 0.  1.
         24    2    1    2    0    0 -0.16158421973E+02  0.19207002236E+02 -0.59395255537E+03  0.60000442866E+03  0.81213747901E+02 0.  0.
         25    2    1    2    0    0 -0.93103515510E+01 -0.59533788104E+01  0.21848463945E+03  0.25200448314E+03  0.12509435031E+03 0.  0.
        -24    2    1    2    0    0  0.25468773524E+02 -0.13253623425E+02  0.32175232542E+03  0.33313368543E+03  0.81419754961E+02 0.  0.
        -11    1    3    3    0    0 -0.32182754105E+02  0.29788416769E+02 -0.55340344994E+03  0.55513823309E+03  0.00000000000E+00 0.  1.
         12    1    3    3    0    0  0.16024332132E+02 -0.10581414533E+02 -0.40549105436E+02  0.44866195575E+02  0.00000000000E+00 0. -1.
         11    1    5    5    0    0  0.49131844432E+02  0.14027496493E+01  0.12324995729E+03  0.13268932819E+03  0.00000000000E+00 0. -1.
        -12    1    5    5    0    0 -0.23663070908E+02 -0.14656373075E+02  0.19850236813E+03  0.20044435724E+03  0.00000000000E+00 0.  1.
          5    1    4    4  501    0  0.21760929910E+02 -0.53745010341E+02  0.15997439651E+03  0.17020970638E+03  0.41800000000E+01 0. -1.
         -5    1    4    4    0  501 -0.31071281461E+02  0.47791631530E+02  0.58510242941E+02  0.81794776759E+02  0.41800000000E+01 0. -1.
</event>
<event>
11    1  0.7157190E-009  0.1661147E+03  0.7561462E-02  0.1081463E+00
         22   -1    0    0    0    0  0.00000000000E+00  0.00000000000E+00  0.70576598515E+03  0.70576598515E+03  0.00000000000E+00 0.  1.
         22   -1    0    0    0    0 -0.00000000000E+00 -0.00000000000E+00 -0.11808668831E+03  0.11808668831E+03  0.00000000000E+00 0. -1.
         24    2    1    2    0    0  0.40194304634E+01  0.10810959943E+02 -0.52846129670E+02  0.98365576538E+02  0.82158630407E+02 0.  0.
         25    2    1    2    0    0  0.62275320089E+02  0.80315837245E+02  0.19046676133E+03  0.24950518157E+03  0.12508556773E+03 0.  0.
        -24    2    1    2    0    0 -0.66294750552E+02 -0.91126797188E+02  0.45005866518E+03  0.47598191535E+03  0.10633388228E+03 0.  0.
        -13    1    3    3    0    0  0.68262413892E+01  0.39869561207E+02 -0.29509789198E+01  0.40557215868E+02  0.00000000000E+00 0.  1.
         14    1    3    3    0    0 -0.28068109258E+01 -0.29058601264E+02 -0.49895150750E+02  0.57808360670E+02  0.00000000000E+00 0. -1.
         13    1    5    5    0    0 -0.63205199215E+02 -0.65486897024E+02  0.15462911942E+03  0.17942573802E+03  0.00000000000E+00 0. -1.
        -14    1    5    5    0    0 -0.30895513371E+01 -0.25639900164E+02  0.29542954576E+03  0.29655617734E+03  0.00000000000E+00 0.  1.
          5    1    4    4  501    0 -0.31204481397E+02 -0.50632953872E+01  0.58216961818E+02  0.66378035997E+02  0.41800000000E+01 0.  1.
         -5    1    4    4    0  501  0.93479801486E+02  0.85379132632E+02  0.13224979952E+03  0.18312714558E+03  0.41800000000E+01 0.  1.
</event>
<event>
11    1  0.8632322E-009  0.2036598E+03  0.7561462E-02  0.1051965E+00
         22   -1    0    0    0    0  0.00000000000E+00  0.00000000000E+00  0.52880542076E+03  0.52880542076E+03  0.00000000000E+00 0.  1.
         22   -1    0    0    0    0 -0.00000000000E+00 -0.00000000000E+00 -0.90000390919E+03  0.90000390919E+03  0.00000000000E+00 0. -1.
         24    2    1    2    0    0  0.96915767469E+01 -0.19286677899E+02 -0.56780653473E+03  0.57274291019E+03  0.71862908986E+02 0.  0.
         25    2    1    2    0    0  0.97712841004E+01  0.17791734213E+03 -0.27549022002E+03  0.35113058045E+03  0.12509102515E+03 0.  0.
        -24    2    1    2    0    0 -0.19462860847E+02 -0.15863066423E+03  0.47209826631E+03  0.50493583932E+03  0.80876066812E+02 0.  0.
        -11    1    3    3    0    0  0.37700330640E+01  0.65332895575E+01 -0.44376316299E+01  0.87515482190E+01  0.00000000000E+00 0.  1.
         12    1    3    3    0    0  0.59215436829E+01 -0.25819967457E+02 -0.56336890310E+03  0.56399136197E+03  0.00000000000E+00 0. -1.
         13    1    5    5    0    0  0.14373397426E+01  0.16067435177E+01  0.90587222852E+02  0.90612871682E+02  0.00000000000E+00 0. -1.
        -14    1    5    5    0    0 -0.20900200590E+02 -0.16023740775E+03  0.38151104346E+03  0.41432296763E+03  0.00000000000E+00 0.  1.
          5    1    4    4  501    0  0.34747998649E+02  0.17616005686E+03 -0.18787510088E+03  0.25991212934E+03  0.41800000000E+01 0.  1.
         -5    1    4    4    0  501 -0.24976714549E+02  0.17572852674E+01 -0.87615119141E+02  0.91218451112E+02  0.41800000000E+01 0.  1.
</event>
<event>
11    1  0.7157190E-009  0.2058233E+03  0.7561462E-02  0.1050480E+00
         22   -1    0    0    0    0  0.00000000000E+00  0.00000000000E+00  0.90895491182E+03  0.90895491182E+03  0.00000000000E+00 0.  1.
         22   -1    0    0    0    0 -0.00000000000E+00 -0.00000000000E+00 -0.10241986198E+04  0.10241986198E+04  0.00000000000E+00 0.  1.
        -24    2    1    2    0    0 -0.46435874434E+02 -0.29057288947E+02 -0.97698524611E+03  0.98170203113E+03  0.78981582293E+02 0.  0.
         25    2    1    2    0    0  0.18732086625E+03  0.59684702073E+02  0.45300559054E+03  0.50942388284E+03  0.12508899534E+03 0.  0.
         24    2    1    2    0    0 -0.14088499182E+03 -0.30627413126E+02  0.40873594758E+03  0.44202761766E+03  0.86814287854E+02 0.  0.
        -11    1    5    5    0    0 -0.68934145678E+02  0.28590495936E+02  0.16529785369E+03  0.18136348401E+03  0.00000000000E+00 0.  1.
         12    1    5    5    0    0 -0.71950846141E+02 -0.59217909062E+02  0.24343809389E+03  0.26066413365E+03  0.00000000000E+00 0. -1.
         13    1    3    3    0    0  0.21479665729E+02 -0.10215518292E+02 -0.17192691093E+03  0.17356438447E+03  0.00000000000E+00 0. -1.
        -14    1    3    3    0    0 -0.67915540163E+02 -0.18841770655E+02 -0.80505833518E+03  0.80813764666E+03  0.00000000000E+00 0.  1.
          5    1    4    4  501    0  0.57997900057E+01 -0.10737867288E+02  0.14126137261E+03  0.14184917042E+03  0.41800000000E+01 0. -1.
         -5    1    4    4    0  501  0.18152107625E+03  0.70422569361E+02  0.31174421793E+03  0.36757471242E+03  0.41800000000E+01 0. -1.
</event>
<event>
11    1  0.7157190E-009  0.1443081E+03  0.7561462E-02  0.1102841E+00
         22   -1    0    0    0    0  0.00000000000E+00  0.00000000000E+00  0.18494292191E+04  0.18494292191E+04  0.00000000000E+00 0. -1.
         22   -1    0    0    0    0 -0.00000000000E+00 -0.00000000000E+00 -0.31626374402E+03  0.31626374402E+03  0.00000000000E+00 0. -1.
        -24    2    1    2    0    0  0.55066551770E+01 -0.87322740751E+01 -0.29618626889E+03  0.30857384626E+03  0.85935655306E+02 0.  0.
         25    2    1    2    0    0 -0.72339725396E+02  0.31572164370E+02  0.46393381858E+03  0.48693208303E+03  0.12505370056E+03 0.  0.
         24    2    1    2    0    0  0.66833070219E+02 -0.22839890295E+02  0.13654179253E+04  0.13701870338E+04  0.89766791640E+02 0.  0.
        -11    1    5    5    0    0  0.31265964955E+02 -0.90004909534E+01  0.12445979973E+03  0.12864218263E+03  0.00000000000E+00 0.  1.
         12    1    5    5    0    0  0.35567105264E+02 -0.13839399341E+02  0.12409581256E+04  0.12415448512E+04  0.00000000000E+00 0. -1.
         13    1    3    3    0    0 -0.37369977091E+01  0.22922122024E+02 -0.25384914845E+03  0.25490935448E+03  0.00000000000E+00 0. -1.
        -14    1    3    3    0    0  0.92436528861E+01 -0.31654396099E+02 -0.42337120440E+02  0.53664491782E+02  0.00000000000E+00 0.  1.
          5    1    4    4  501    0 -0.36393707729E+02 -0.35773540408E+02  0.76681226050E+02  0.92204831675E+02  0.41800000000E+01 0.  1.
         -5    1    4    4    0  501 -0.35946017667E+02  0.67345704778E+02  0.38725259253E+03  0.39472725135E+03  0.41800000000E+01 0.  1.
</event>
<event>
11    1  0.7157190E-009  0.2151637E+03  0.7561462E-02  0.1044290E+00
         22   -1    0    0    0    0  0.00000000000E+00  0.00000000000E+00  0.26142355091E+03  0.26142355091E+03  0.00000000000E+00 0.  1.
         22   -1    0    0    0    0 -0.00000000000E+00 -0.00000000000E+00 -0.48615921549E+03  0.48615921549E+03  0.00000000000E+00 0.  1.
        -24    2    1    2    0    0  0.29976266880E+02 -0.10643131483E+03 -0.27051451480E+03  0.30309510008E+03  0.80388653567E+02 0.  0.
         25    2    1    2    0    0  0.16385022194E+03  0.38545008254E+02  0.72885831054E+02  0.22201783930E+03  0.12508782397E+03 0.  0.
         24    2    1    2    0    0 -0.19382648882E+03  0.67886306579E+02 -0.27106980839E+02  0.22246982702E+03  0.81121989213E+02 0.  0.
        -13    1    5    5    0    0 -0.16135662925E+03  0.55476356281E+02 -0.53507621728E+02  0.17882017082E+03  0.00000000000E+00 0.  1.
         14    1    5    5    0    0 -0.32469859578E+02  0.12409950298E+02  0.26400640889E+02  0.43649656204E+02  0.00000000000E+00 0. -1.
         13    1    3    3    0    0  0.18369256512E+02  0.37565907769E+01 -0.84737352008E+02  0.86786867580E+02  0.00000000000E+00 0. -1.
        -14    1    3    3    0    0  0.11607010368E+02 -0.11018790561E+03 -0.18577716279E+03  0.21630823250E+03  0.00000000000E+00 0.  1.
          5    1    4    4  501    0  0.13870144958E+02  0.55072381766E+02  0.33300275524E+02  0.65967635281E+02  0.41800000000E+01 0. -1.
         -5    1    4    4    0  501  0.14998007699E+03 -0.16527373512E+02  0.39585555530E+02  0.15605020402E+03  0.41800000000E+01 0. -1.
</event>
<event>
11    1  0.7157190E-009  0.1659740E+03  0.7561462E-02  0.1081589E+00
         22   -1    0    0    0    0  0.00000000000E+00  0.00000000000E+00  0.56896661524E+02  0.56896661524E+02  0.00000000000E+00 0. -1.
         22   -1    0    0    0    0 -0.00000000000E+00 -0.00000000000E+00 -0.14582471429E+04  0.14582471429E+04  0.00000000000E+00 0.  1.
        -24    2    1    2    0    0 -0.27147538503E+02  0.70714206703E+02 -0.94342269012E+03  0.94977714604E+03  0.79326962903E+02 0.  0.
         25    2    1    2    0    0 -0.77783323276E+02 -0.10016878729E+03 -0.34657150470E+03  0.38967072918E+03  0.12508971972E+03 0.  0.
         24    2    1    2    0    0  0.10493086178E+03  0.29454580585E+02 -0.11135628659E+03  0.17569592924E+03  0.81183612361E+02 0.  0.
        -13    1    5    5    0    0  0.26379336156E+02  0.41045547927E+02 -0.72261007647E+02  0.87190937642E+02  0.00000000000E+00 0.  1.
         14    1    5    5    0    0  0.78551525623E+02 -0.11590967342E+02 -0.39095278946E+02  0.88504991597E+02  0.00000000000E+00 0. -1.
         11    1    3    3    0    0 -0.44023881311E+02  0.36882159756E+02 -0.31324704219E+03  0.31846837406E+03  0.00000000000E+00 0. -1.
        -12    1    3    3    0    0  0.16876342808E+02  0.33832046947E+02 -0.63017564792E+03  0.63130877198E+03  0.00000000000E+00 0.  1.
          5    1    4    4  501    0 -0.10999815783E+02  0.20298643054E+02 -0.13604436907E+03  0.13805279284E+03  0.41800000000E+01 0. -1.
         -5    1    4    4    0  501 -0.66783507493E+02 -0.12046743034E+03 -0.21052713563E+03  0.25161793633E+03  0.41800000000E+01 0. -1.
</event>
<event>
11    1  0.7157190E-009  0.1388375E+03  0.7561462E-02  0.1108864E+00
         22   -1    0    0    0    0  0.00000000000E+00  0.00000000000E+00  0.11273221982E+03  0.11273221982E+03  0.00000000000E+00 0. -1.
         22   -1    0    0    0    0 -0.00000000000E+00 -0.00000000000E+00 -0.29113901790E+04  0.29113901790E+04  0.00000000000E+00 0.  1.
        -24    2    1    2    0    0 -0.39297619862E+02 -0.16250996832E+02 -0.26241868579E+04  0.26257281977E+04  0.79268561534E+02 0.  0.
         25    2    1    2    0    0  0.79896048700E+02 -0.26031287317E+02 -0.23685520554E+03  0.28072955198E+03  0.12509071287E+03 0.  0.
         24    2    1    2    0    0 -0.40598428838E+02  0.42282284149E+02  0.62384104285E+02  0.11766464919E+03  0.80728986276E+02 0.  0.
        -11    1    5    5    0    0  0.11512748458E+01  0.52603146683E+02  0.50772594662E+02  0.73118211435E+02  0.00000000000E+00 0.  1.
         12    1    5    5    0    0 -0.41749703684E+02 -0.10320862534E+02  0.11611509622E+02  0.44546437757E+02  0.00000000000E+00 0. -1.
         13    1    3    3    0    0 -0.34464850229E+02 -0.42405471386E+02 -0.11459990226E+04  0.11473010981E+04  0.00000000000E+00 0. -1.
        -14    1    3    3    0    0 -0.48327696329E+01  0.26154474554E+02 -0.14781878353E+04  0.14784270996E+04  0.00000000000E+00 0.  1.
          5    1    4    4  501    0  0.88143000401E+02 -0.64572093192E+02 -0.19131037404E+03  0.22035397740E+03  0.41800000000E+01 0.  1.
         -5    1    4    4    0  501 -0.82469517019E+01  0.38540805875E+02 -0.45544831500E+02  0.60375574584E+02  0.41800000000E+01 0.  1.
</event>
<event>
11    1  0.7157190E-009  0.2155517E+03  0.7561462E-02  0.1044040E+00
         22   -1    0    0    0    0  0.00000000000E+00  0.00000000000E+00  0.18396134557E+04  0.18396134557E+04  0.00000000000E+00 0. -1.
         22   -1    0    0    0    0 -0.00000000000E+00 -0.00000000000E+00 -0.52045789055E+03  0.52045789055E+03  0.00000000000E+00 0.  1.
        -24    2    1    2    0    0  0.51282826473E+02  0.16003938154E+03 -0.39738784100E+03  0.43836625570E+03  0.77494167688E+02 0.  0.
         25    2    1    2    0    0 -0.94232720028E+01 -0.26024475407E+03  0.10934222428E+03  0.30889962168E+03  0.12508846546E+03 0.  0.
         24    2    1    2    0    0 -0.41859554470E+02  0.10020537253E+03  0.16072011819E+04  0.16128054689E+04  0.79072766381E+02 0.  0.
        -11    1    5    5    0    0  0.18273100418E+02  0.28583640817E+02  0.23689397920E+03  0.23931086081E+03  0.00000000000E+00 0.  1.
         12    1    5    5    0    0 -0.60132654888E+02  0.71621731717E+02  0.13703072027E+04  0.13734946081E+04  0.00000000000E+00 0. -1.
         13    1    3    3    0    0 -0.61195551414E+01  0.75835819407E+02 -0.11260215889E+03  0.13589616127E+03  0.00000000000E+00 0. -1.
        -14    1    3    3    0    0  0.57402381614E+02  0.84203562129E+02 -0.28478568211E+03  0.30247009443E+03  0.00000000000E+00 0.  1.
          5    1    4    4  501    0  0.13867482230E+02 -0.15228507709E+03  0.12464291449E+03  0.19732303540E+03  0.41800000000E+01 0. -1.
         -5    1    4    4    0  501 -0.23290754233E+02 -0.10795967698E+03 -0.15300690208E+02  0.11157658628E+03  0.41800000000E+01 0. -1.
</event>
<event>
11    1  0.7157190E-009  0.1411854E+03  0.7561462E-02  0.1106242E+00
         22   -1    0    0    0    0  0.00000000000E+00  0.00000000000E+00  0.45404660015E+04  0.45404660015E+04  0.00000000000E+00 0. -1.
         22   -1    0    0    0    0 -0.00000000000E+00 -0.00000000000E+00 -0.12713139294E+03  0.12713139294E+03  0.00000000000E+00 0. -1.
        -24    2    1    2    0    0  0.43075011333E+02 -0.31366811905E+02 -0.47407412892E+02  0.10385609771E+03  0.75493660291E+02 0.  0.
         25    2    1    2    0    0 -0.10777680239E+03  0.25220758347E+02  0.86174104940E+02  0.18794965674E+03  0.12508865385E+03 0.  0.
         24    2    1    2    0    0  0.64701791062E+02  0.61460535577E+01  0.43745679165E+04  0.43757916400E+04  0.80522820497E+02 0.  0.
        -11    1    5    5    0    0  0.18808198044E+02  0.39979171857E+02  0.23752502103E+04  0.23756610962E+04  0.00000000000E+00 0.  1.
         12    1    5    5    0    0  0.45893593018E+02 -0.33833118300E+02  0.19993177062E+04  0.20001305438E+04  0.00000000000E+00 0. -1.
         11    1    3    3    0    0  0.10196416038E+02 -0.41978704110E+02 -0.53511252303E+02  0.68772324534E+02  0.00000000000E+00 0. -1.
        -12    1    3    3    0    0  0.32878595295E+02  0.10611892204E+02  0.61038394114E+01  0.35083773177E+02  0.00000000000E+00 0.  1.
          5    1    4    4  501    0 -0.74592000054E+02  0.75085693125E+02  0.65036682507E+02  0.12429428891E+03  0.41800000000E+01 0. -1.
         -5    1    4    4    0  501 -0.33184802341E+02 -0.49864934777E+02  0.21137422433E+02  0.63655367832E+02  0.41800000000E+01 0. -1.
</event>
<event>
11    1  0.7157190E-009  0.1391565E+03  0.7561462E-02  0.1108504E+00
         22   -1    0    0    0    0  0.00000000000E+00  0.00000000000E+00  0.86336078521E+03  0.86336078521E+03  0.00000000000E+00 0.  1.
         22   -1    0    0    0    0 -0.00000000000E+00 -0.00000000000E+00 -0.37749024119E+03  0.37749024119E+03  0.00000000000E+00 0. -1.
        -24    2    1    2    0    0 -0.23860123715E+02 -0.63005548440E+02 -0.24521024943E+03  0.26734488829E+03  0.82499807486E+02 0.  0.
         25    2    1    2    0    0  0.39319636756E+02  0.25513149983E+02 -0.81084022564E+02  0.15626516606E+03  0.12508888341E+03 0.  0.
         24    2    1    2    0    0 -0.15459513041E+02  0.37492398458E+02  0.81216481601E+03  0.81724097205E+03  0.81402957879E+02 0.  0.
        -13    1    5    5    0    0 -0.42907217820E+02  0.38554338926E+02  0.39704960571E+03  0.40121796544E+03  0.00000000000E+00 0.  1.
         14    1    5    5    0    0  0.27447704779E+02 -0.10619404684E+01  0.41511521029E+03  0.41602300661E+03  0.00000000000E+00 0. -1.
         11    1    3    3    0    0 -0.30472086869E+02 -0.33751727231E+01 -0.16132746269E+03  0.16421476818E+03  0.00000000000E+00 0. -1.
        -12    1    3    3    0    0  0.66119631542E+01 -0.59630375717E+02 -0.83882786736E+02  0.10313012012E+03  0.00000000000E+00 0.  1.
          5    1    4    4  501    0  0.34168119364E+02  0.61458956589E+02 -0.94028229213E+02  0.11748805903E+03  0.41800000000E+01 0.  1.
         -5    1    4    4    0  501  0.51515173919E+01 -0.35945806606E+02  0.12944206649E+02  0.38777107032E+02  0.41800000000E+01 0.  1.
</event>
<event>
11    1  0.7157190E-009  0.3284350E+03  0.7561462E-02  0.9888268E-01
         22   -1    0    0    0    0  0.00000000000E+00  0.00000000000E+00  0.10973597725E+04  0.10973597725E+04  0.00000000000E+00 0. -1.
         22   -1    0    0    0    0 -0.00000000000E+00 -0.00000000000E+00 -0.49704481561E+03  0.49704481561E+03  0.00000000000E+00 0. -1.
         24    2    1    2    0    0  0.26308795367E+03 -0.14541578378E+03 -0.24784552468E+03  0.39871000485E+03  0.84742211024E+02 0.  0.
         25    2    1    2    0    0 -0.25240170661E+03  0.18344572751E+03 -0.66292201182E+01  0.33622945552E+03  0.12508934311E+03 0.  0.
        -24    2    1    2    0    0 -0.10686247059E+02 -0.38029943732E+02  0.85478970168E+03  0.85946512772E+03  0.80339275398E+02 0.  0.
        -13    1    3    3    0    0  0.70990545995E+01  0.97054813097E+01 -0.41189751004E+01  0.12710582187E+02  0.00000000000E+00 0.  1.
         14    1    3    3    0    0  0.25598889907E+03 -0.15512126509E+03 -0.24372654958E+03  0.38599942267E+03  0.00000000000E+00 0. -1.
         13    1    5    5    0    0 -0.40532119452E+02 -0.40151492532E+02  0.45614314988E+03  0.45969725717E+03  0.00000000000E+00 0. -1.
        -14    1    5    5    0    0  0.29845872393E+02  0.21215488000E+01  0.39864655180E+03  0.39976787055E+03  0.00000000000E+00 0.  1.
          5    1    4    4  501    0 -0.11146030802E+03  0.11560782879E+03  0.52428910146E+02  0.16898175452E+03  0.41800000000E+01 0.  1.
         -5    1    4    4    0  501 -0.14094139859E+03  0.67837898719E+02 -0.59058130264E+02  0.16724770100E+03  0.41800000000E+01 0.  1.
</event>
<event>
11    1  0.7157190E-009  0.1299468E+03  0.7561462E-02  0.1119334E+00
         22   -1    0    0    0    0  0.00000000000E+00  0.00000000000E+00  0.19334954088E+03  0.19334954088E+03  0.00000000000E+00 0.  1.
         22   -1    0    0    0    0 -0.00000000000E+00 -0.00000000000E+00 -0.96277821651E+03  0.96277821651E+03  0.00000000000E+00 0.  1.
        -24    2    1    2    0    0  0.11394009232E+02 -0.33027140801E+02 -0.89678234135E+03  0.90108363160E+03  0.80700234896E+02 0.  0.
         25    2    1    2    0    0 -0.31214281981E+02  0.47733942654E+02  0.65547187982E+02  0.15227296973E+03  0.12505104069E+03 0.  0.
         24    2    1    2    0    0  0.19820272748E+02 -0.14706801852E+02  0.61806477734E+02  0.10277115606E+03  0.78311790908E+02 0.  0.
        -13    1    5    5    0    0  0.87297002217E+01  0.30834445447E+02  0.11588663010E+02  0.34077379629E+02  0.00000000000E+00 0.  1.
         14    1    5    5    0    0  0.11090572527E+02 -0.45541247300E+02  0.50217814725E+02  0.68693776430E+02  0.00000000000E+00 0. -1.
         11    1    3    3    0    0 -0.25149940199E+02  0.90930529674E+01 -0.45671198035E+03  0.45749430171E+03  0.00000000000E+00 0. -1.
        -12    1    3    3    0    0  0.36543949432E+02 -0.42120193769E+02 -0.44007036100E+03  0.44358932989E+03  0.00000000000E+00 0.  1.
          5    1    4    4  501    0 -0.31811529764E+02  0.44464524263E+02  0.10180063155E+03  0.11562831975E+03  0.41800000000E+01 0. -1.
         -5    1    4    4    0  501  0.59724778320E+00  0.32694183907E+01 -0.36253443569E+02  0.36644649980E+02  0.41800000000E+01 0. -1.
</event>
<event>
11    1  0.7157190E-009  0.1351057E+03  0.7561462E-02  0.1113150E+00
         22   -1    0    0    0    0  0.00000000000E+00  0.00000000000E+00  0.87960350019E+03  0.87960350019E+03  0.00000000000E+00 0.  1.
         22   -1    0    0    0    0 -0.00000000000E+00 -0.00000000000E+00 -0.22057573610E+03  0.22057573610E+03  0.00000000000E+00 0. -1.
        -24    2    1    2    0    0  0.31158357857E+02  0.28983133048E+02 -0.30409525693E+02  0.10703342357E+03  0.93383881063E+02 0.  0.
         25    2    1    2    0    0 -0.36494031076E+02 -0.45536753841E+02 -0.11794659275E+03  0.18155775991E+03  0.12508561543E+03 0.  0.
         24    2    1    2    0    0  0.53356732195E+01  0.16553620793E+02  0.80738388253E+03  0.81158805281E+03  0.80647020491E+02 0.  0.
        -13    1    5    5    0    0  0.40196374083E+01  0.17445645760E+02  0.80907146959E+03  0.80926951687E+03  0.00000000000E+00 0.  1.
         14    1    5    5    0    0  0.13160358112E+01 -0.89202496697E+00 -0.16875870552E+01  0.23185359318E+01  0.00000000000E+00 0. -1.
         11    1    3    3    0    0  0.12145654116E+02  0.52289447452E+02 -0.48151478074E+02  0.72112884213E+02  0.00000000000E+00 0. -1.
        -12    1    3    3    0    0  0.19012703741E+02 -0.23306314405E+02  0.17741952381E+02  0.34920539357E+02  0.00000000000E+00 0.  1.
          5    1    4    4  501    0 -0.56020624432E+02  0.25968528206E+02 -0.68713819958E+02  0.92475598253E+02  0.41800000000E+01 0.  1.
         -5    1    4    4    0  501  0.19526593355E+02 -0.71505282047E+02 -0.49232772796E+02  0.89082161659E+02  0.41800000000E+01 0.  1.
</event>
<event>
11    1  0.7157190E-009  0.1353968E+03  0.7561462E-02  0.1112810E+00
         22   -1    0    0    0    0  0.00000000000E+00  0.00000000000E+00  0.60386460740E+03  0.60386460740E+03  0.00000000000E+00 0. -1.
         22   -1    0    0    0    0 -0.00000000000E+00 -0.00000000000E+00 -0.24167929793E+03  0.24167929793E+03  0.00000000000E+00 0. -1.
        -24    2    1    2    0    0  0.34296981056E+01  0.19263575590E+02 -0.15250757167E+03  0.17315415759E+03  0.79630111770E+02 0.  0.
         25    2    1    2    0    0  0.19545654712E+02 -0.64733402533E+02 -0.65738534653E+01  0.14234700626E+03  0.12508800350E+03 0.  0.
         24    2    1    2    0    0 -0.22975352817E+02  0.45469826944E+02  0.52126673460E+03  0.53004274148E+03  0.81430505293E+02 0.  0.
        -13    1    5    5    0    0 -0.16611220691E+02  0.49947448307E+00  0.17138842185E+02  0.23873040004E+02  0.00000000000E+00 0.  1.
         14    1    5    5    0    0 -0.63641321265E+01  0.44970352461E+02  0.50412789242E+03  0.50616970147E+03  0.00000000000E+00 0. -1.
         13    1    3    3    0    0  0.30783301384E+01 -0.27928711391E+02 -0.93299900305E+02  0.97439008787E+02  0.00000000000E+00 0. -1.
        -14    1    3    3    0    0  0.35136796721E+00  0.47192286980E+02 -0.59207671362E+02  0.75715148802E+02  0.00000000000E+00 0.  1.
          5    1    4    4  501    0  0.42894520655E+02 -0.37635911344E+01 -0.48229677371E+02  0.64789495289E+02  0.41800000000E+01 0. -1.
         -5    1    4    4    0  501 -0.23348865944E+02 -0.60969811399E+02  0.41655823906E+02  0.77557510972E+02  0.41800000000E+01 0. -1.
</event>
<event>
11    1  0.7157190E-009  0.2623288E+03  0.7561462E-02  0.1017529E+00
         22   -1    0    0    0    0  0.00000000000E+00  0.00000000000E+00  0.38143975383E+03  0.38143975383E+03  0.00000000000E+00 0.  1.
         22   -1    0    0    0    0 -0.00000000000E+00 -0.00000000000E+00 -0.76743703007E+03  0.76743703007E+03  0.00000000000E+00 0.  1.
        -24    2    1    2    0    0 -0.13704590619E+03 -0.19295873737E+03 -0.64093779103E+03  0.68794804279E+03  0.80352989229E+02 0.  0.
         25    2    1    2    0    0  0.10499103586E+03  0.16263369493E+03  0.51100654987E+02  0.23607105655E+03  0.12508169517E+03 0.  0.
         24    2    1    2    0    0  0.32054870337E+02  0.30325042440E+02  0.20383985980E+03  0.22485768456E+03  0.84042649577E+02 0.  0.
        -11    1    5    5    0    0  0.39638202707E+02  0.92110060531E+01  0.19735185216E+03  0.20150380467E+03  0.00000000000E+00 0.  1.
         12    1    5    5    0    0 -0.75833323706E+01  0.21114036387E+02  0.64880076419E+01  0.23353879882E+02  0.00000000000E+00 0. -1.
         13    1    3    3    0    0 -0.74086649370E+02 -0.13120831987E+03 -0.29900185647E+03  0.33482318466E+03  0.00000000000E+00 0. -1.
        -14    1    3    3    0    0 -0.62959256823E+02 -0.61750417495E+02 -0.34193593457E+03  0.35312485813E+03  0.00000000000E+00 0.  1.
          5    1    4    4  501    0  0.90033196971E+02  0.14430424901E+03 -0.99844458876E+01  0.17043137739E+03  0.41800000000E+01 0.  1.
         -5    1    4    4    0  501  0.14957838884E+02  0.18329445917E+02  0.61085100874E+02  0.65639679162E+02  0.41800000000E+01 0.  1.
</event>
<event>
11    1  0.9745684E-009  0.1752948E+03  0.7561462E-02  0.1073514E+00
         22   -1    0    0    0    0  0.00000000000E+00  0.00000000000E+00  0.72988835118E+03  0.72988835118E+03  0.00000000000E+00 0.  1.
         22   -1    0    0    0    0 -0.00000000000E+00 -0.00000000000E+00 -0.49201137796E+03  0.49201137796E+03  0.00000000000E+00 0.  1.
         24    2    1    2    0    0  0.79109504295E+02  0.29850245876E+02 -0.33801505792E+03  0.35799549773E+03  0.82202470533E+02 0.  0.
         25    2    1    2    0    0 -0.19556709482E+03 -0.49167787616E+02 -0.32054201284E+02  0.23945532625E+03  0.12508965400E+03 0.  0.
        -24    2    1    2    0    0  0.11645759052E+03  0.19317541740E+02  0.60794623243E+03  0.62444890515E+03  0.80014222595E+02 0.  0.
        -11    1    3    3    0    0  0.90333009533E+02  0.86050603144E+01 -0.29598311212E+03  0.30958052641E+03  0.00000000000E+00 0.  1.
         12    1    3    3    0    0 -0.11223505237E+02  0.21245185562E+02 -0.42031945804E+02  0.48414971315E+02  0.00000000000E+00 0. -1.
         11    1    5    5    0    0  0.42616715533E+01 -0.22225396365E+02  0.11349373406E+03  0.11572794718E+03  0.00000000000E+00 0. -1.
        -12    1    5    5    0    0  0.11219591897E+03  0.41542938105E+02  0.49445249837E+03  0.50872095798E+03  0.00000000000E+00 0.  1.
          5    1    4    4  501    0 -0.10306298088E+03  0.23195558363E+02 -0.55822376825E+02  0.11955593716E+03  0.41800000000E+01 0.  1.
         -5    1    4    4    0  501 -0.92504113938E+02 -0.72363345979E+02  0.23768175541E+02  0.11989938909E+03  0.41800000000E+01 0.  1.
</event>
<event>
11    1  0.7157190E-009  0.1628738E+03  0.7561462E-02  0.1084405E+00
         22   -1    0    0    0    0  0.00000000000E+00  0.00000000000E+00  0.51368044083E+03  0.51368044083E+03  0.00000000000E+00 0.  1.
         22   -1    0    0    0    0 -0.00000000000E+00 -0.00000000000E+00 -0.11272135256E+04  0.11272135256E+04  0.00000000000E+00 0. -1.
         24    2    1    2    0    0 -0.40966328326E+02 -0.91492023040E+02 -0.90448733652E+03  0.91359615462E+03  0.80694246822E+02 0.  0.
         25    2    1    2    0    0  0.10121481869E+03  0.11223361330E+03 -0.16715800928E+03  0.25773970051E+03  0.12508848738E+03 0.  0.
        -24    2    1    2    0    0 -0.60248490368E+02 -0.20741590264E+02  0.45811226105E+03  0.46955811128E+03  0.80980750670E+02 0.  0.
        -11    1    3    3    0    0 -0.39564226576E+02 -0.75021691673E+01 -0.19223912859E+03  0.19641154022E+03  0.00000000000E+00 0.  1.
         12    1    3    3    0    0 -0.14021017503E+01 -0.83989853873E+02 -0.71224820793E+03  0.71718461440E+03  0.00000000000E+00 0. -1.
         11    1    5    5    0    0 -0.50862194656E+02 -0.30913272441E+02  0.15355880616E+03  0.16469031607E+03  0.00000000000E+00 0. -1.
        -12    1    5    5    0    0 -0.93862957118E+01  0.10171682178E+02  0.30455345489E+03  0.30486779521E+03  0.00000000000E+00 0.  1.
          5    1    4    4  501    0  0.11861436017E+02  0.91978580151E+01 -0.10783416698E+03  0.10895400049E+03  0.41800000000E+01 0. -1.
         -5    1    4    4    0  501  0.89353382677E+02  0.10303575529E+03 -0.59323842301E+02  0.14878570002E+03  0.41800000000E+01 0. -1.
</event>
<event>
11    1  0.7157190E-009  0.1590173E+03  0.7561462E-02  0.1088005E+00
         22   -1    0    0    0    0  0.00000000000E+00  0.00000000000E+00  0.10523452915E+04  0.10523452915E+04  0.00000000000E+00 0.  1.
         22   -1    0    0    0    0 -0.00000000000E+00 -0.00000000000E+00 -0.22770076545E+03  0.22770076545E+03  0.00000000000E+00 0.  1.
        -24    2    1    2    0    0 -0.88602738490E+02 -0.47686747978E+02 -0.17964309017E+03  0.22461973213E+03  0.89765878895E+02 0.  0.
         25    2    1    2    0    0  0.35501653580E+02  0.79312785727E+02  0.23717230639E+03  0.28186727645E+03  0.12509026033E+03 0.  0.
         24    2    1    2    0    0  0.53101084910E+02 -0.31626037749E+02  0.76711530984E+03  0.77355904838E+03  0.78152231285E+02 0.  0.
        -11    1    5    5    0    0  0.46225488509E+02 -0.56823831592E+02  0.53954779456E+03  0.54449753557E+03  0.00000000000E+00 0.  1.
         12    1    5    5    0    0  0.68755964014E+01  0.25197793843E+02  0.22756751528E+03  0.22906151281E+03  0.00000000000E+00 0. -1.
         13    1    3    3    0    0 -0.83066691436E+02 -0.33094999851E+02 -0.69165405068E+02  0.11304515690E+03  0.00000000000E+00 0. -1.
        -14    1    3    3    0    0 -0.55360470543E+01 -0.14591748127E+02 -0.11047768510E+03  0.11157457522E+03  0.00000000000E+00 0.  1.
          5    1    4    4  501    0 -0.42260445450E+02  0.42767569247E+01  0.50382356715E+02  0.66030978848E+02  0.41800000000E+01 0.  1.
         -5    1    4    4    0  501  0.77762099031E+02  0.75036028803E+02  0.18678994967E+03  0.21583629760E+03  0.41800000000E+01 0.  1.
</event>
<event>
11    1  0.7157190E-009  0.1824538E+03  0.7561462E-02  0.1067675E+00
         22   -1    0    0    0    0  0.00000000000E+00  0.00000000000E+00  0.13140061938E+04  0.13140061938E+04  0.00000000000E+00 0.  1.
         22   -1    0    0    0    0 -0.00000000000E+00 -0.00000000000E+00 -0.41834393277E+03  0.41834393277E+03  0.00000000000E+00 0.  1.
        -24    2    1    2    0    0  0.10411345973E+03  0.88066612083E+02 -0.38230596224E+03  0.41356952784E+03  0.79287861211E+02 0.  0.
         25    2    1    2    0    0 -0.70737420423E+01 -0.78172172636E+02  0.32149237531E+03  0.35378653502E+03  0.12508652435E+03 0.  0.
         24    2    1    2    0    0 -0.97039717690E+02 -0.98944394468E+01  0.95647584801E+03  0.96499406376E+03  0.82782175115E+02 0.  0.
        -13    1    5    5    0    0 -0.35235195589E+02  0.25503756518E+02  0.59378729053E+03  0.59537828899E+03  0.00000000000E+00 0.  1.
         14    1    5    5    0    0 -0.61804522101E+02 -0.35398195965E+02  0.36268855748E+03  0.36961577477E+03  0.00000000000E+00 0. -1.
         13    1    3    3    0    0 -0.79937159706E+01  0.10378109158E+01 -0.30326600704E+01  0.86124081195E+01  0.00000000000E+00 0. -1.
        -14    1    3    3    0    0  0.11210717570E+03  0.87028801167E+02 -0.37927330217E+03  0.40495711972E+03  0.00000000000E+00 0.  1.
          5    1    4    4  501    0 -0.10438024821E+02  0.30693642678E+02  0.12373658811E+03  0.12798151312E+03  0.41800000000E+01 0. -1.
         -5    1    4    4    0  501  0.33642827784E+01 -0.10886581531E+03  0.19775578720E+03  0.22580502189E+03  0.41800000000E+01 0. -1.
</event>
<event>
11    1  0.7157190E-009  0.2226919E+03  0.7561462E-02  0.1039544E+00
         22   -1    0    0    0    0  0.00000000000E+00  0.00000000000E+00  0.18489168718E+04  0.18489168718E+04  0.00000000000E+00 0.  1.
         22   -1    0    0    0    0 -0.00000000000E+00 -0.00000000000E+00 -0.37023958660E+03  0.37023958660E+03  0.00000000000E+00 0.  1.
        -24    2    1    2    0    0  0.18126576821E+03 -0.39260577203E+02 -0.32836757993E+03  0.38575909618E+03  0.81155043552E+02 0.  0.
         25    2    1    2    0    0 -0.14791735742E+03  0.21079222909E+02  0.80969993890E+03  0.83281786124E+03  0.12509084969E+03 0.  0.
         24    2    1    2    0    0 -0.33348410783E+02  0.18181354294E+02  0.99734492621E+03  0.10005795010E+04  0.70850249002E+02 0.  0.
        -11    1    5    5    0    0 -0.19390025601E+02 -0.26648808911E+02  0.46611238919E+03  0.46727603348E+03  0.00000000000E+00 0.  1.
         12    1    5    5    0    0 -0.13958385182E+02  0.44830163205E+02  0.53123253702E+03  0.53330346749E+03  0.00000000000E+00 0. -1.
         11    1    3    3    0    0  0.44468633183E+02 -0.38326390679E+01 -0.25152919835E+02  0.51232976056E+02  0.00000000000E+00 0. -1.
        -12    1    3    3    0    0  0.13679713502E+03 -0.35427938135E+02 -0.30321466009E+03  0.33452612012E+03  0.00000000000E+00 0.  1.
          5    1    4    4  501    0 -0.21560030471E+02  0.58171581777E+02  0.22306050497E+03  0.23156474066E+03  0.41800000000E+01 0. -1.
         -5    1    4    4    0  501 -0.12635732695E+03 -0.37092358868E+02  0.58663943394E+03  0.60125312058E+03  0.41800000000E+01 0. -1.
</event>
<event>
11    1  0.7157190E-009  0.1339436E+03  0.7561462E-02  0.1114516E+00
         22   -1    0    0    0    0  0.00000000000E+00  0.00000000000E+00  0.38446564131E+03  0.38446564131E+03  0.00000000000E+00 0. -1.
         22   -1    0    0    0    0 -0.00000000000E+00 -0.00000000000E+00 -0.18300918160E+04  0.18300918160E+04  0.00000000000E+00 0. -1.
         24    2    1    2    0    0 -0.23011045809E+02 -0.10499240849E+02 -0.17510511987E+04  0.17532285175E+04  0.83607368273E+02 0.  0.
         25    2    1    2    0    0 -0.18264832506E+02 -0.17856550516E+02 -0.13796661382E+02  0.12841401089E+03  0.12508936736E+03 0.  0.
        -24    2    1    2    0    0  0.41275878315E+02  0.28355791365E+02  0.31922168537E+03  0.33291492889E+03  0.80138108482E+02 0.  0.
        -11    1    3    3    0    0  0.27163631330E+02  0.25182621087E+01 -0.29604230796E+03  0.29729657350E+03  0.00000000000E+00 0.  1.
         12    1    3    3    0    0 -0.50174677139E+02 -0.13017502957E+02 -0.14550088907E+04  0.14559319440E+04  0.00000000000E+00 0. -1.
         13    1    5    5    0    0  0.43430395422E+02  0.52947387369E+02  0.25721255333E+03  0.26617273088E+03  0.00000000000E+00 0. -1.
        -14    1    5    5    0    0 -0.21545171074E+01 -0.24591596004E+02  0.62009132043E+02  0.66742198007E+02  0.00000000000E+00 0.  1.
          5    1    4    4  501    0  0.16747243717E+02  0.41024023203E+02 -0.34957638350E+02  0.56594606906E+02  0.41800000000E+01 0. -1.
         -5    1    4    4    0  501 -0.35012076222E+02 -0.58880573719E+02  0.21160976967E+02  0.71819403987E+02  0.41800000000E+01 0. -1.
</event>
<event>
11    1  0.7157190E-009  0.2627734E+03  0.7561462E-02  0.1017306E+00
         22   -1    0    0    0    0  0.00000000000E+00  0.00000000000E+00  0.66032372583E+03  0.66032372583E+03  0.00000000000E+00 0.  1.
         22   -1    0    0    0    0 -0.00000000000E+00 -0.00000000000E+00 -0.39141572968E+04  0.39141572968E+04  0.00000000000E+00 0. -1.
        -24    2    1    2    0    0 -0.22915882609E+03  0.19067536116E+02 -0.37535299146E+04  0.37614424730E+04  0.81149978944E+02 0.  0.
         25    2    1    2    0    0  0.27100386871E+03 -0.92498176041E+02  0.13480515717E+02  0.31277601662E+03  0.12509237724E+03 0.  0.
         24    2    1    2    0    0 -0.41845042620E+02  0.73430639925E+02  0.48621582794E+03  0.50026253302E+03  0.81937196276E+02 0.  0.
        -11    1    5    5    0    0 -0.59301267679E+02  0.73996918440E+02  0.45207785104E+03  0.46191619119E+03  0.00000000000E+00 0.  1.
         12    1    5    5    0    0  0.17456225059E+02 -0.56627851473E+00  0.34137976906E+02  0.38346341833E+02  0.00000000000E+00 0. -1.
         11    1    3    3    0    0 -0.20529956572E+03 -0.85251656851E+01 -0.33360563180E+04  0.33423782472E+04  0.00000000000E+00 0. -1.
        -12    1    3    3    0    0 -0.23859260362E+02  0.27592701801E+02 -0.41747359664E+03  0.41906422585E+03  0.00000000000E+00 0.  1.
          5    1    4    4  501    0  0.28420801789E+03 -0.90986703136E+02  0.11184593778E+02  0.29865589751E+03  0.41800000000E+01 0. -1.
         -5    1    4    4    0  501 -0.13204149184E+02 -0.15114729048E+01  0.22959219388E+01  0.14120119106E+02  0.41800000000E+01 0. -1.
</event>
<event>
11    1  0.7157190E-009  0.1898568E+03  0.7561462E-02  0.1061937E+00
         22   -1    0    0    0    0  0.00000000000E+00  0.00000000000E+00  0.63861624488E+03  0.63861624488E+03  0.00000000000E+00 0.  1.
         22   -1    0    0    0    0 -0.00000000000E+00 -0.00000000000E+00 -0.52629288416E+03  0.52629288416E+03  0.00000000000E+00 0. -1.
        -24    2    1    2    0    0 -0.13886694729E+03  0.15622161085E+02 -0.40166449882E+03  0.43310230831E+03  0.81946073020E+02 0.  0.
         25    2    1    2    0    0  0.15996613832E+03 -0.30890208706E+02 -0.45537732171E+01  0.20545500569E+03  0.12509057563E+03 0.  0.
         24    2    1    2    0    0 -0.21099191032E+02  0.15268047621E+02  0.51854163276E+03  0.52635181504E+03  0.86501555795E+02 0.  0.
        -13    1    5    5    0    0  0.85573543986E+01  0.35114296204E+02  0.41992552843E+03  0.42147798464E+03  0.00000000000E+00 0.  1.
         14    1    5    5    0    0 -0.29656545430E+02 -0.19846248583E+02  0.98616104329E+02  0.10487383040E+03  0.00000000000E+00 0. -1.
         13    1    3    3    0    0 -0.38168631727E+02  0.30522600759E+02 -0.21501129134E+03  0.22049564397E+03  0.00000000000E+00 0. -1.
        -14    1    3    3    0    0 -0.10069831556E+03 -0.14900439673E+02 -0.18665320748E+03  0.21260666434E+03  0.00000000000E+00 0.  1.
          5    1    4    4  501    0  0.26578300145E+01 -0.44810645783E+02  0.11884534454E+02  0.46623734247E+02  0.41800000000E+01 0.  1.
         -5    1    4    4    0  501  0.15730830831E+03  0.13920437078E+02 -0.16438307672E+02  0.15883127145E+03  0.41800000000E+01 0.  1.
</event>
<event>
11    1  0.7157190E-009  0.2364818E+03  0.7561462E-02  0.1031357E+00
         22   -1    0    0    0    0  0.00000000000E+00  0.00000000000E+00  0.53767934357E+03  0.53767934357E+03  0.00000000000E+00 0. -1.
         22   -1    0    0    0    0 -0.00000000000E+00 -0.00000000000E+00 -0.21205897846E+03  0.21205897846E+03  0.00000000000E+00 0.  1.
         24    2    1    2    0    0 -0.31527406699E+02  0.19596201710E+03 -0.47332405564E+02  0.21936118689E+03  0.80522569387E+02 0.  0.
         25    2    1    2    0    0  0.26652545015E+02 -0.20417237865E+03  0.12804644922E+03  0.27283517915E+03  0.12508566450E+03 0.  0.
        -24    2    1    2    0    0  0.48748616843E+01  0.82103615529E+01  0.24490632146E+03  0.25754195599E+03  0.79104857568E+02 0.  0.
        -13    1    3    3    0    0  0.62974172264E+01  0.16097451279E+03 -0.47077239630E+02  0.16783538877E+03  0.00000000000E+00 0.  1.
         14    1    3    3    0    0 -0.37824823926E+02  0.34987504304E+02 -0.25516593320E+00  0.51525798122E+02  0.00000000000E+00 0. -1.
         13    1    5    5    0    0  0.29379776479E+01  0.41924511447E+02  0.95035297098E+02  0.10391344507E+03  0.00000000000E+00 0. -1.
        -14    1    5    5    0    0  0.19368840364E+01 -0.33714149894E+02  0.14987102436E+03  0.15362851091E+03  0.00000000000E+00 0.  1.
          5    1    4    4  501    0 -0.36957080822E+02 -0.42873952376E+02 -0.81762697751E+00  0.56763919255E+02  0.41800000000E+01 0. -1.
         -5    1    4    4    0  501  0.63609625837E+02 -0.16129842628E+03  0.12886407620E+03  0.21607125989E+03  0.41800000000E+01 0. -1.
</event>
<event>
11    1  0.7157190E-009  0.1284572E+03  0.7561462E-02  0.1121179E+00
         22   -1    0    0    0    0  0.00000000000E+00  0.00000000000E+00  0.56021600336E+02  0.56021600336E+02  0.00000000000E+00 0.  1.
         22   -1    0    0    0    0 -0.00000000000E+00 -0.00000000000E+00 -0.41846789868E+04  0.41846789868E+04  0.00000000000E+00 0.  1.
        -24    2    1    2    0    0 -0.35921961975E+01  0.82738144466E+01 -0.33125587300E+04  0.33135618105E+04  0.81025749672E+02 0.  0.
         25    2    1    2    0    0  0.28546769330E+02  0.70021924106E+01 -0.82949500011E+03  0.83938909869E+03  0.12509258595E+03 0.  0.
         24    2    1    2    0    0 -0.24954573132E+02 -0.15276006857E+02  0.13396343657E+02  0.87749677980E+02  0.81636124702E+02 0.  0.
        -13    1    5    5    0    0 -0.47213565260E+02  0.14235653337E+02  0.32621743697E+01  0.49420808898E+02  0.00000000000E+00 0.  1.
         14    1    5    5    0    0  0.22258992128E+02 -0.29511660194E+02  0.10134169288E+02  0.38328869082E+02  0.00000000000E+00 0. -1.
         11    1    3    3    0    0 -0.26881815477E+02 -0.12563801714E+02 -0.53160111386E+03  0.53242861059E+03  0.00000000000E+00 0. -1.
        -12    1    3    3    0    0  0.23289619279E+02  0.20837616161E+02 -0.27809576161E+04  0.27811331999E+04  0.00000000000E+00 0.  1.
          5    1    4    4  501    0 -0.20044233082E+02 -0.46351332745E+02 -0.22781057790E+03  0.23337812479E+03  0.41800000000E+01 0. -1.
         -5    1    4    4    0  501  0.48591002412E+02  0.53353525155E+02 -0.60168442221E+03  0.60601097390E+03  0.41800000000E+01 0. -1.
</event>
<event>
11    1  0.7157190E-009  0.1449784E+03  0.7561462E-02  0.1102123E+00
         22   -1    0    0    0    0  0.00000000000E+00  0.00000000000E+00  0.41458193025E+03  0.41458193025E+03  0.00000000000E+00 0.  1.
         22   -1    0    0    0    0 -0.00000000000E+00 -0.00000000000E+00 -0.58740489311E+03  0.58740489311E+03  0.00000000000E+00 0.  1.
        -24    2    1    2    0    0 -0.48145891221E+00  0.75206360688E+02 -0.52977804379E+03  0.54097394487E+03  0.79572638887E+02 0.  0.
         25    2    1    2    0    0 -0.21085632229E+02 -0.40024519103E+02  0.52230825106E+02  0.14289994405E+03  0.12508304802E+03 0.  0.
         24    2    1    2    0    0  0.21567091141E+02 -0.35181841585E+02  0.30472425583E+03  0.31811293444E+03  0.81462049864E+02 0.  0.
        -13    1    5    5    0    0 -0.82620687723E+01 -0.47022648730E+02  0.25126092007E+03  0.25575660544E+03  0.00000000000E+00 0.  1.
         14    1    5    5    0    0  0.29829159913E+02  0.11840807144E+02  0.53463335757E+02  0.62356328991E+02  0.00000000000E+00 0. -1.
         13    1    3    3    0    0 -0.18754826658E+02 -0.43437304800E+01 -0.21231608134E+03  0.21318707726E+03  0.00000000000E+00 0. -1.
        -14    1    3    3    0    0  0.18273367746E+02  0.79550091168E+02 -0.31746196245E+03  0.32778686761E+03  0.00000000000E+00 0.  1.
          5    1    4    4  501    0 -0.29274800387E+02 -0.76303841404E+02  0.63757369878E+02  0.10373892598E+03  0.41800000000E+01 0.  1.
         -5    1    4    4    0  501  0.81891681579E+01  0.36279322301E+02 -0.11526544772E+02  0.39161018068E+02  0.41800000000E+01 0.  1.
</event>
<event>
11    1  0.7157190E-009  0.1662679E+03  0.7561462E-02  0.1081326E+00
         22   -1    0    0    0    0  0.00000000000E+00  0.00000000000E+00  0.83795968226E+03  0.83795968226E+03  0.00000000000E+00 0. -1.
         22   -1    0    0    0    0 -0.00000000000E+00 -0.00000000000E+00 -0.30869986958E+03  0.30869986958E+03  0.00000000000E+00 0. -1.
        -24    2    1    2    0    0  0.57198113516E+02 -0.94751895692E+02 -0.24952716124E+03  0.28444137058E+03  0.79959634636E+02 0.  0.
         25    2    1    2    0    0 -0.11311260358E+03  0.40690251423E+02  0.18177413090E+03  0.25127855779E+03  0.12509564856E+03 0.  0.
         24    2    1    2    0    0  0.55914490066E+02  0.54061644269E+02  0.59701284302E+03  0.61093962347E+03  0.10379690366E+03 0.  0.
        -13    1    5    5    0    0  0.35844017823E+02  0.53738787071E+01  0.51981095090E+02  0.63369601804E+02  0.00000000000E+00 0.  1.
         14    1    5    5    0    0  0.20070472243E+02  0.48687765562E+02  0.54503174793E+03  0.54757002166E+03  0.00000000000E+00 0. -1.
         13    1    3    3    0    0  0.52726716688E+02 -0.10363720729E+03 -0.24860172814E+03  0.27445144674E+03  0.00000000000E+00 0. -1.
        -14    1    3    3    0    0  0.44713968280E+01  0.88853115973E+01 -0.92543310693E+00  0.99899238340E+01  0.00000000000E+00 0.  1.
          5    1    4    4  501    0  0.21770115776E+01 -0.19994504885E+02 -0.71474947076E+01  0.21750372079E+02  0.41800000000E+01 0. -1.
         -5    1    4    4    0  501 -0.11528961516E+03  0.60684756308E+02  0.18892162561E+03  0.22952818571E+03  0.41800000000E+01 0. -1.
</event>
<event>
11    1  0.7157190E-009  0.1729685E+03  0.7561462E-02  0.1075477E+00
         22   -1    0    0    0    0  0.00000000000E+00  0.00000000000E+00  0.17031205538E+04  0.17031205538E+04  0.00000000000E+00 0. -1.
         22   -1    0    0    0    0 -0.00000000000E+00 -0.00000000000E+00 -0.15022440233E+03  0.15022440233E+03  0.00000000000E+00 0.  1.
        -24    2    1    2    0    0  0.46682605268E+02 -0.39504842145E+02 -0.79141303261E+02  0.12975878852E+03  0.82668610306E+02 0.  0.
         25    2    1    2    0    0 -0.43608679272E+02 -0.83070199740E+02  0.10282745256E+03  0.18714692489E+03  0.12509241185E+03 0.  0.
         24    2    1    2    0    0 -0.30739259959E+01  0.12257504188E+03  0.15292100022E+04  0.15364392427E+04  0.84428821581E+02 0.  0.
        -13    1    5    5    0    0 -0.11074191575E+02 -0.46984959706E+01  0.39760902476E+02  0.41540858792E+02  0.00000000000E+00 0.  1.
         14    1    5    5    0    0  0.80002655789E+01  0.12727353786E+03  0.14894490997E+04  0.14948983839E+04  0.00000000000E+00 0. -1.
         11    1    3    3    0    0 -0.40071274674E+01 -0.16465496715E+02  0.13504246789E+02  0.21668740940E+02  0.00000000000E+00 0. -1.
        -12    1    3    3    0    0  0.50689732735E+02 -0.23039345430E+02 -0.92645550050E+02  0.10809004758E+03  0.00000000000E+00 0.  1.
          5    1    4    4  501    0 -0.84631435575E+02 -0.36221760843E+02  0.47166542631E+02  0.10352125864E+03  0.41800000000E+01 0.  1.
         -5    1    4    4    0  501  0.41022756303E+02 -0.46848438897E+02  0.55660909931E+02  0.83625666252E+02  0.41800000000E+01 0.  1.
</event>
<event>
11    1  0.7157190E-009  0.1427712E+03  0.7561462E-02  0.1104503E+00
         22   -1    0    0    0    0  0.00000000000E+00  0.00000000000E+00  0.59185951918E+03  0.59185951918E+03  0.00000000000E+00 0.  1.
         22   -1    0    0    0    0 -0.00000000000E+00 -0.00000000000E+00 -0.94105719283E+03  0.94105719283E+03  0.00000000000E+00 0. -1.
        -24    2    1    2    0    0 -0.22578794402E+02 -0.63424220734E+02 -0.83179257552E+03  0.83837376541E+03  0.80369447593E+02 0.  0.
         25    2    1    2    0    0  0.30974623423E+02  0.91020157505E+02 -0.41707305284E+02  0.16319686370E+03  0.12509844379E+03 0.  0.
         24    2    1    2    0    0 -0.83958290215E+01 -0.27595936771E+02  0.52430220715E+03  0.53134608290E+03  0.81263950960E+02 0.  0.
        -13    1    5    5    0    0  0.27965535554E+02  0.59779391066E+01  0.31397234981E+03  0.31527201490E+03  0.00000000000E+00 0.  1.
         14    1    5    5    0    0 -0.36361364575E+02 -0.33573875878E+02  0.21032985734E+03  0.21607406800E+03  0.00000000000E+00 0. -1.
         13    1    3    3    0    0  0.17799661918E+02 -0.61777921232E+02 -0.53144576629E+03  0.53532041062E+03  0.00000000000E+00 0. -1.
        -14    1    3    3    0    0 -0.40378456319E+02 -0.16462995019E+01 -0.30034680923E+03  0.30305335479E+03  0.00000000000E+00 0.  1.
          5    1    4    4  501    0  0.59607579860E+02  0.52310855730E+02 -0.71131885982E+02  0.10661475886E+03  0.41800000000E+01 0.  1.
         -5    1    4    4    0  501 -0.28632956437E+02  0.38709301775E+02  0.29424580698E+02  0.56582104835E+02  0.41800000000E+01 0.  1.
</event>
<event>
11    1  0.7157190E-009  0.1332289E+03  0.7561462E-02  0.1115364E+00
         22   -1    0    0    0    0  0.00000000000E+00  0.00000000000E+00  0.24890371057E+04  0.24890371057E+04  0.00000000000E+00 0.  1.
         22   -1    0    0    0    0 -0.00000000000E+00 -0.00000000000E+00 -0.22317131802E+04  0.22317131802E+04  0.00000000000E+00 0. -1.
        -24    2    1    2    0    0  0.37411069286E+02  0.26590704636E+02 -0.21559003157E+04  0.21578657434E+04  0.79823187881E+02 0.  0.
         25    2    1    2    0    0 -0.48255342315E+02 -0.11383980467E+02 -0.13484364022E+02  0.13521525472E+03  0.12507263475E+03 0.  0.
         24    2    1    2    0    0  0.10844273029E+02 -0.15206724169E+02  0.24267086053E+04  0.24276692879E+04  0.65686174835E+02 0.  0.
        -13    1    5    5    0    0 -0.22097744887E+02  0.46065000409E+01  0.14917128200E+04  0.14918835972E+04  0.00000000000E+00 0.  1.
         14    1    5    5    0    0  0.32942017917E+02 -0.19813224210E+02  0.93499578527E+03  0.93578569067E+03  0.00000000000E+00 0. -1.
         11    1    3    3    0    0  0.58817062910E+02  0.61714052157E+01 -0.16846835563E+04  0.16857212753E+04  0.00000000000E+00 0. -1.
        -12    1    3    3    0    0 -0.21405993624E+02  0.20419299420E+02 -0.47121675947E+03  0.47214446810E+03  0.00000000000E+00 0.  1.
          5    1    4    4  501    0 -0.51183609326E+02 -0.14926255019E+02  0.48934072113E+02  0.72488418151E+02  0.41800000000E+01 0. -1.
         -5    1    4    4    0  501  0.29282670109E+01  0.35422745524E+01 -0.62418436134E+02  0.62726836571E+02  0.41800000000E+01 0. -1.
</event>
<event>
11    1  0.7157190E-009  0.1352099E+03  0.7561462E-02  0.1113028E+00
         22   -1    0    0    0    0  0.00000000000E+00  0.00000000000E+00  0.14457115004E+04  0.14457115004E+04  0.00000000000E+00 0. -1.
         22   -1    0    0    0    0 -0.00000000000E+00 -0.00000000000E+00 -0.33978045544E+03  0.33978045544E+03  0.00000000000E+00 0.  1.
         24    2    1    2    0    0  0.11678575421E+02  0.53873097645E+02 -0.27924325518E+03  0.29573785363E+03  0.80283141000E+02 0.  0.
         25    2    1    2    0    0 -0.78786917615E+01 -0.13862504755E+02  0.27426699763E+02  0.12905171996E+03  0.12509148550E+03 0.  0.
        -24    2    1    2    0    0 -0.37998836590E+01 -0.40010592890E+02  0.13577476004E+04  0.13607023823E+04  0.80107053891E+02 0.  0.
        -11    1    3    3    0    0 -0.27920577903E+02 -0.12141832660E+01 -0.10768168120E+03  0.11124916799E+03  0.00000000000E+00 0.  1.
         12    1    3    3    0    0  0.39599153323E+02  0.55087280911E+02 -0.17156157398E+03  0.18448868564E+03  0.00000000000E+00 0. -1.
         13    1    5    5    0    0  0.37312451147E+02 -0.14947591303E+02  0.50539863647E+03  0.50699450810E+03  0.00000000000E+00 0. -1.
        -14    1    5    5    0    0 -0.41112334806E+02 -0.25063001587E+02  0.85234896393E+03  0.85370787418E+03  0.00000000000E+00 0.  1.
          5    1    4    4  501    0  0.40619909898E+02 -0.39923240758E+02  0.43223357154E+02  0.71621039063E+02  0.41800000000E+01 0.  1.
         -5    1    4    4    0  501 -0.48498601660E+02  0.26060736003E+02 -0.15796657391E+02  0.57430680900E+02  0.41800000000E+01 0.  1.
</event>
<event>
11    1  0.7157190E-009  0.2576362E+03  0.7561462E-02  0.1019908E+00
         22   -1    0    0    0    0  0.00000000000E+00  0.00000000000E+00  0.21777361412E+04  0.21777361412E+04  0.00000000000E+00 0.  1.
         22   -1    0    0    0    0 -0.00000000000E+00 -0.00000000000E+00 -0.29073915696E+03  0.29073915696E+03  0.00000000000E+00 0.  1.
        -24    2    1    2    0    0  0.39125610599E+01  0.12482213037E+02 -0.24223156669E+03  0.25523252959E+03  0.79349848678E+02 0.  0.
         25    2    1    2    0    0  0.11777379275E+02 -0.23468244069E+03  0.49587129126E+03  0.56280580719E+03  0.12508990556E+03 0.  0.
         24    2    1    2    0    0 -0.15689940335E+02  0.22220022766E+03  0.16333572597E+04  0.16504369614E+04  0.80418345894E+02 0.  0.
        -13    1    5    5    0    0 -0.36032130321E+02  0.17650135915E+03  0.14151547001E+04  0.14265741724E+04  0.00000000000E+00 0.  1.
         14    1    5    5    0    0  0.20342189987E+02  0.45698868505E+02  0.21820255957E+03  0.22386278895E+03  0.00000000000E+00 0. -1.
         13    1    3    3    0    0  0.32074806979E+02 -0.18228692146E+02 -0.86854000676E+02  0.94364696225E+02  0.00000000000E+00 0. -1.
        -14    1    3    3    0    0 -0.28162245919E+02  0.30710905183E+02 -0.15537756601E+03  0.16086783337E+03  0.00000000000E+00 0.  1.
          5    1    4    4  501    0  0.53347662842E+02 -0.50090110611E+02  0.99655597862E+02  0.12370813594E+03  0.41800000000E+01 0.  1.
         -5    1    4    4    0  501 -0.41570283568E+02 -0.18459233008E+03  0.39621569340E+03  0.43909767125E+03  0.41800000000E+01 0.  1.
</event>
<event>
11    1  0.7157190E-009  0.1538069E+03  0.7561462E-02  0.1093051E+00
         22   -1    0    0    0    0  0.00000000000E+00  0.00000000000E+00  0.15755213715E+04  0.15755213715E+04  0.00000000000E+00 0. -1.
         22   -1    0    0    0    0 -0.00000000000E+00 -0.00000000000E+00 -0.92171746718E+03  0.92171746718E+03  0.00000000000E+00 0. -1.
        -24    2    1    2    0    0 -0.84615884130E+02 -0.27929539509E+02 -0.86638114918E+03  0.87482774812E+03  0.82264124641E+02 0.  0.
         25    2    1    2    0    0  0.85263615333E+02  0.66769757967E+02  0.87679776956E+02  0.18725176175E+03  0.12508954519E+03 0.  0.
         24    2    1    2    0    0 -0.64773120380E+00 -0.38840218457E+02  0.14325052765E+04  0.14351593288E+04  0.78114976875E+02 0.  0.
        -11    1    5    5    0    0 -0.35203854365E+01  0.23171360353E+02  0.27796686789E+03  0.27895319446E+03  0.00000000000E+00 0.  1.
         12    1    5    5    0    0  0.28726542327E+01 -0.62011578810E+02  0.11545384086E+04  0.11562061343E+04  0.00000000000E+00 0. -1.
         13    1    3    3    0    0 -0.73289251186E+02 -0.23838687751E+02 -0.85430106841E+03  0.85777031474E+03  0.00000000000E+00 0. -1.
        -14    1    3    3    0    0 -0.11326632944E+02 -0.40908517587E+01 -0.12080080774E+02  0.17057433378E+02  0.00000000000E+00 0.  1.
          5    1    4    4  501    0  0.69143888341E+01  0.13200193127E+02 -0.31346634853E+02  0.34959087347E+02  0.41800000000E+01 0.  1.
         -5    1    4    4    0  501  0.78349226499E+02  0.53569564840E+02  0.11902641181E+03  0.15229267441E+03  0.41800000000E+01 0.  1.
</event>
<event>
11    1  0.7157190E-009  0.1967666E+03  0.7561462E-02  0.1056834E+00
         22   -1    0    0    0    0  0.00000000000E+00  0.00000000000E+00  0.11328724889E+04  0.11328724889E+04  0.00000000000E+00 0.  1.
         22   -1    0    0    0    0 -0.00000000000E+00 -0.00000000000E+00 -0.10016551059E+04  0.10016551059E+04  0.00000000000E+00 0.  1.
         24    2    1    2    0    0  0.62862077933E+02  0.13802825106E+03 -0.97306657289E+03  0.98808976064E+03  0.80370273508E+02 0.  0.
         25    2    1    2    0    0 -0.68689419782E+02 -0.15524613543E+03  0.61083707467E+03  0.64621231445E+03  0.12509526210E+03 0.  0.
        -24    2    1    2    0    0  0.58273418490E+01  0.17217884363E+02  0.49344688122E+03  0.50022551975E+03  0.80033321601E+02 0.  0.
        -11    1    3    3    0    0  0.19576206907E+02  0.50176564639E+02 -0.59894363229E+03  0.60136044946E+03  0.00000000000E+00 0.  1.
         12    1    3    3    0    0  0.43285871026E+02  0.87851686425E+02 -0.37412294060E+03  0.38672931117E+03  0.00000000000E+00 0. -1.
         13    1    5    5    0    0  0.23283867583E+02  0.37772835747E+02  0.17136450632E+03  0.17701615643E+03  0.00000000000E+00 0. -1.
        -14    1    5    5    0    0 -0.17456525734E+02 -0.20554951384E+02  0.32208237489E+03  0.32320936332E+03  0.00000000000E+00 0.  1.
          5    1    4    4  501    0 -0.36966812271E+02  0.96415888940E+01  0.17407634062E+03  0.17826819741E+03  0.41800000000E+01 0.  1.
         -5    1    4    4    0  501 -0.31722607510E+02 -0.16488772432E+03  0.43676073405E+03  0.46794411704E+03  0.41800000000E+01 0.  1.
</event>
<event>
11    1  0.7157190E-009  0.1480092E+03  0.7561462E-02  0.1098931E+00
         22   -1    0    0    0    0  0.00000000000E+00  0.00000000000E+00  0.60678474359E+02  0.60678474359E+02  0.00000000000E+00 0.  1.
         22   -1    0    0    0    0 -0.00000000000E+00 -0.00000000000E+00 -0.14558650189E+04  0.14558650189E+04  0.00000000000E+00 0. -1.
         24    2    1    2    0    0  0.87676125635E+02  0.20342967399E+02 -0.10267533496E+04  0.10340398067E+04  0.83156127271E+02 0.  0.
         25    2    1    2    0    0 -0.19880306715E+02  0.46654102057E+02 -0.31803370913E+03  0.34549205925E+03  0.12508993178E+03 0.  0.
        -24    2    1    2    0    0 -0.67795818920E+02 -0.66997069456E+02 -0.50399485761E+02  0.13701162730E+03  0.84541099302E+02 0.  0.
        -13    1    3    3    0    0  0.11915696079E+02  0.74654597453E+01 -0.20515106826E+02  0.24871399445E+02  0.00000000000E+00 0.  1.
         14    1    3    3    0    0  0.75760429557E+02  0.12877507654E+02 -0.10062382428E+04  0.10091684073E+04  0.00000000000E+00 0. -1.
         11    1    5    5    0    0 -0.86227694815E+01 -0.48068768557E+02 -0.56389092791E+02  0.74596839410E+02  0.00000000000E+00 0. -1.
        -12    1    5    5    0    0 -0.59173049439E+02 -0.18928300899E+02  0.59896070300E+01  0.62414787889E+02  0.00000000000E+00 0.  1.
          5    1    4    4  501    0  0.44198721433E+02 -0.62840741119E+01 -0.63775814156E+02  0.77960524851E+02  0.41800000000E+01 0. -1.
         -5    1    4    4    0  501 -0.64079028148E+02  0.52938176169E+02 -0.25425789497E+03  0.26753153440E+03  0.41800000000E+01 0. -1.
</event>
<event>
11    1  0.7157190E-009  0.1291553E+03  0.7561462E-02  0.1120311E+00
         22   -1    0    0    0    0  0.00000000000E+00  0.00000000000E+00  0.33739006411E+03  0.33739006411E+03  0.00000000000E+00 0. -1.
         22   -1    0    0    0    0 -0.00000000000E+00 -0.00000000000E+00 -0.69717484356E+03  0.69717484356E+03  0.00000000000E+00 0. -1.
        -24    2    1    2    0    0  0.48234336566E+01  0.13446503454E+02 -0.65416420928E+03  0.65894306378E+03  0.77917101011E+02 0.  0.
         25    2    1    2    0    0  0.64626667202E+01 -0.40845296514E+02  0.10759479248E+03  0.17010018987E+03  0.12508929177E+03 0.  0.
         24    2    1    2    0    0 -0.11286100377E+02  0.27398793061E+02  0.18678463735E+03  0.20552165402E+03  0.80452343624E+02 0.  0.
        -11    1    5    5    0    0 -0.10444376490E+01  0.42541474512E+02  0.42707188561E+02  0.60289069145E+02  0.00000000000E+00 0.  1.
         12    1    5    5    0    0 -0.10241662728E+02 -0.15142681451E+02  0.14407744879E+03  0.14523258487E+03  0.00000000000E+00 0. -1.
         13    1    3    3    0    0  0.24227689807E+02 -0.21723147949E+02 -0.42834903288E+03  0.42958325163E+03  0.00000000000E+00 0. -1.
        -14    1    3    3    0    0 -0.19404256150E+02  0.35169651403E+02 -0.22581517641E+03  0.22935981216E+03  0.00000000000E+00 0.  1.
          5    1    4    4  501    0 -0.36517051938E+02 -0.68716683667E+02  0.80334861833E+02  0.11192247371E+03  0.41800000000E+01 0.  1.
         -5    1    4    4    0  501  0.42979718658E+02  0.27871387153E+02  0.27259930645E+02  0.58177716151E+02  0.41800000000E+01 0.  1.
</event>
<event>
11    1  0.7157190E-009  0.1392538E+03  0.7561462E-02  0.1108395E+00
         22   -1    0    0    0    0  0.00000000000E+00  0.00000000000E+00  0.17394924124E+04  0.17394924124E+04  0.00000000000E+00 0.  1.
         22   -1    0    0    0    0 -0.00000000000E+00 -0.00000000000E+00 -0.24917703437E+03  0.24917703437E+03  0.00000000000E+00 0. -1.
         24    2    1    2    0    0 -0.24171424469E+02 -0.62171521111E+02 -0.18650426926E+03  0.21811212519E+03  0.91320867853E+02 0.  0.
         25    2    1    2    0    0  0.43642878268E+02  0.10632058902E+02  0.51813040982E+02  0.14265149955E+03  0.12508843915E+03 0.  0.
        -24    2    1    2    0    0 -0.19471453799E+02  0.51539462209E+02  0.16250066064E+04  0.16279058221E+04  0.79971502231E+02 0.  0.
        -11    1    3    3    0    0 -0.16422032493E+02  0.14265388131E+02 -0.69902644985E+01  0.22848375161E+02  0.00000000000E+00 0.  1.
         12    1    3    3    0    0 -0.77493919759E+01 -0.76436909242E+02 -0.17951400476E+03  0.19526375003E+03  0.00000000000E+00 0. -1.
         13    1    5    5    0    0  0.55003770493E+01  0.10582242565E+02  0.31574802660E+02  0.33752128354E+02  0.00000000000E+00 0. -1.
        -14    1    5    5    0    0 -0.24971830848E+02  0.40957219643E+02  0.15934318037E+04  0.15941536937E+04  0.00000000000E+00 0.  1.
          5    1    4    4  501    0  0.25855496054E+02  0.42112040662E+02  0.81687562329E+02  0.95562863520E+02  0.41800000000E+01 0. -1.
         -5    1    4    4    0  501  0.17787382214E+02 -0.31479981760E+02 -0.29874521347E+02  0.47088636032E+02  0.41800000000E+01 0. -1.
</event>
<event>
11    1  0.7157190E-009  0.2047339E+03  0.7561462E-02  0.1051226E+00
         22   -1    0    0    0    0  0.00000000000E+00  0.00000000000E+00  0.72666104838E+03  0.72666104838E+03  0.00000000000E+00 0.  1.
         22   -1    0    0    0    0 -0.00000000000E+00 -0.00000000000E+00 -0.68212433004E+03  0.68212433004E+03  0.00000000000E+00 0.  1.
        -24    2    1    2    0    0 -0.84905594195E+02  0.13568593774E+03 -0.59177647286E+03  0.61831392634E+03  0.80579675166E+02 0.  0.
         25    2    1    2    0    0  0.18558253034E+03 -0.11478190696E+03  0.16376787145E+03  0.30013822133E+03  0.12508906608E+03 0.  0.
         24    2    1    2    0    0 -0.10067693614E+03 -0.20904030781E+02  0.47254531974E+03  0.49033323074E+03  0.80961558671E+02 0.  0.
        -11    1    5    5    0    0 -0.60250131216E+02  0.28804817488E+02  0.24524630056E+03  0.25417620613E+03  0.00000000000E+00 0.  1.
         12    1    5    5    0    0 -0.40426804925E+02 -0.49708848270E+02  0.22729901918E+03  0.23615702461E+03  0.00000000000E+00 0. -1.
         11    1    3    3    0    0  0.58323462264E+01  0.39651215434E+02 -0.22326724972E+03  0.22683584361E+03  0.00000000000E+00 0. -1.
        -12    1    3    3    0    0 -0.90737940421E+02  0.96034722309E+02 -0.36850922314E+03  0.39147808273E+03  0.00000000000E+00 0.  1.
          5    1    4    4  501    0  0.77813557971E+02 -0.88772534595E+01  0.15950318130E+01  0.78445981156E+02  0.41800000000E+01 0. -1.
         -5    1    4    4    0  501  0.10776897236E+03 -0.10590465350E+03  0.16217283964E+03  0.22169224018E+03  0.41800000000E+01 0. -1.
</event>
<event>
11    1  0.7157190E-009  0.1342394E+03  0.7561462E-02  0.1114167E+00
         22   -1    0    0    0    0  0.00000000000E+00  0.00000000000E+00  0.28984125208E+03  0.28984125208E+03  0.00000000000E+00 0.  1.
         22   -1    0    0    0    0 -0.00000000000E+00 -0.00000000000E+00 -0.49730716011E+03  0.49730716011E+03  0.00000000000E+00 0. -1.
         24    2    1    2    0    0  0.22851914689E+02  0.60506430515E+02 -0.18157457692E+03  0.20871804184E+03  0.80066571469E+02 0.  0.
         25    2    1    2    0    0 -0.44136879908E+02 -0.85419138515E+01 -0.27785810157E+03  0.30801548904E+03  0.12508952161E+03 0.  0.
        -24    2    1    2    0    0  0.21284965219E+02 -0.51964516664E+02  0.25196677047E+03  0.27041488131E+03  0.80520766739E+02 0.  0.
        -13    1    3    3    0    0 -0.28720057032E+02  0.32087669981E+02 -0.62773516438E+02  0.76124730585E+02  0.00000000000E+00 0.  1.
         14    1    3    3    0    0  0.51571971721E+02  0.28418760535E+02 -0.11880106048E+03  0.13259331126E+03  0.00000000000E+00 0. -1.
         13    1    5    5    0    0  0.32001940112E+02 -0.52125990158E+02  0.94398745124E+02  0.11248273691E+03  0.00000000000E+00 0. -1.
        -14    1    5    5    0    0 -0.10716974893E+02  0.16147349413E+00  0.15756802535E+03  0.15793214440E+03  0.00000000000E+00 0.  1.
          5    1    4    4  501    0  0.97488598954E+01  0.51188873688E+02 -0.10378152991E+03  0.11620421425E+03  0.41800000000E+01 0.  1.
         -5    1    4    4    0  501 -0.53885739804E+02 -0.59730787539E+02 -0.17407657166E+03  0.19181127479E+03  0.41800000000E+01 0.  1.
</event>
<event>
11    1  0.7157190E-009  0.1273342E+03  0.7561462E-02  0.1122588E+00
         22   -1    0    0    0    0  0.00000000000E+00  0.00000000000E+00  0.26214427002E+03  0.26214427002E+03  0.00000000000E+00 0.  1.
         22   -1    0    0    0    0 -0.00000000000E+00 -0.00000000000E+00 -0.10099003346E+04  0.10099003346E+04  0.00000000000E+00 0.  1.
         24    2    1    2    0    0  0.22263083448E+02 -0.11230598118E+02 -0.88800363594E+03  0.89171578846E+03  0.77361610250E+02 0.  0.
         25    2    1    2    0    0 -0.42426939128E+02  0.59360829020E+00 -0.72919629387E+02  0.15087875273E+03  0.12508688237E+03 0.  0.
        -24    2    1    2    0    0  0.20163855680E+02  0.10636989828E+02  0.21316720070E+03  0.22945006348E+03  0.81776216254E+02 0.  0.
        -13    1    3    3    0    0  0.32344285303E+02  0.19034103966E+02 -0.23899424336E+03  0.24192291802E+03  0.00000000000E+00 0.  1.
         14    1    3    3    0    0 -0.10081201855E+02 -0.30264702084E+02 -0.64900939258E+03  0.64979287044E+03  0.00000000000E+00 0. -1.
         13    1    5    5    0    0 -0.15806057906E+02 -0.13178403436E+00  0.17569026394E+03  0.17639988003E+03  0.00000000000E+00 0. -1.
        -14    1    5    5    0    0  0.35969913586E+02  0.10768773862E+02  0.37476936765E+02  0.53050183441E+02  0.00000000000E+00 0.  1.
          5    1    4    4  501    0 -0.58248239122E+02 -0.47850182074E+02 -0.63997878571E+02  0.98973219342E+02  0.41800000000E+01 0. -1.
         -5    1    4    4    0  501  0.15821299994E+02  0.48443790364E+02 -0.89217508158E+01  0.51905533385E+02  0.41800000000E+01 0. -1.
</event>
<event>
11    1  0.7157190E-009  0.1346767E+03  0.7561462E-02  0.1113653E+00
         22   -1    0    0    0    0  0.00000000000E+00  0.00000000000E+00  0.62622869235E+03  0.62622869235E+03  0.00000000000E+00 0.  1.
         22   -1    0    0    0    0 -0.00000000000E+00 -0.00000000000E+00 -0.25153651697E+03  0.25153651697E+03  0.00000000000E+00 0. -1.
         24    2    1    2    0    0  0.44774346769E+02 -0.16638926628E+02 -0.10429884366E+03  0.13948682073E+03  0.79351927271E+02 0.  0.
         25    2    1    2    0    0  0.70899980905E+01  0.19298392346E+02 -0.91119072171E+02  0.15611857244E+03  0.12509047657E+03 0.  0.
        -24    2    1    2    0    0 -0.51864344860E+02 -0.26594657173E+01  0.57011009121E+03  0.58215981614E+03  0.10577122670E+03 0.  0.
        -11    1    3    3    0    0  0.54584496359E+02 -0.37332745654E+02 -0.58545641542E+02  0.88322099637E+02  0.00000000000E+00 0.  1.
         12    1    3    3    0    0 -0.98101495898E+01  0.20693819025E+02 -0.45753202118E+02  0.51164721097E+02  0.00000000000E+00 0. -1.
         11    1    5    5    0    0  0.23072715442E+02  0.12157613367E+02  0.49258343169E+02  0.55736362748E+02  0.00000000000E+00 0. -1.
        -12    1    5    5    0    0 -0.74937060302E+02 -0.14817079084E+02  0.52085174805E+03  0.52642345339E+03  0.00000000000E+00 0.  1.
          5    1    4    4  501    0  0.11592476864E+02 -0.31220066935E+02 -0.99078466166E+02  0.10460923935E+03  0.41800000000E+01 0. -1.
         -5    1    4    4    0  501 -0.45024787733E+01  0.50518459281E+02  0.79593939950E+01  0.51509333096E+02  0.41800000000E+01 0. -1.
</event>
<event>
11    1  0.1210151E-008  0.2066496E+03  0.7561462E-02  0.1049918E+00
         22   -1    0    0    0    0  0.00000000000E+00  0.00000000000E+00  0.26001272284E+03  0.26001272284E+03  0.00000000000E+00 0.  1.
         22   -1    0    0    0    0 -0.00000000000E+00 -0.00000000000E+00 -0.21120207007E+04  0.21120207007E+04  0.00000000000E+00 0.  1.
        -24    2    1    2    0    0  0.47701325232E+02 -0.21080582065E+02 -0.10798852571E+04  0.10845202297E+04  0.85511126645E+02 0.  0.
         25    2    1    2    0    0 -0.50737784294E+02  0.18481160694E+03 -0.98263608883E+03  0.10089349075E+04  0.12508521775E+03 0.  0.
         24    2    1    2    0    0  0.30364590618E+01 -0.16373102487E+03  0.21051336810E+03  0.27857828629E+03  0.80454427178E+02 0.  0.
        -13    1    5    5    0    0  0.39176030719E+02 -0.54371958091E+02  0.84740137812E+02  0.10803685559E+03  0.00000000000E+00 0.  1.
         14    1    5    5    0    0 -0.36139571657E+02 -0.10935906678E+03  0.12577323029E+03  0.17054143070E+03  0.00000000000E+00 0. -1.
         11    1    3    3    0    0 -0.11209088788E+02 -0.37270359621E+02 -0.44908314552E+03  0.45076645279E+03  0.00000000000E+00 0. -1.
        -12    1    3    3    0    0  0.58910414020E+02  0.16189777555E+02 -0.63080211160E+03  0.63375377693E+03  0.00000000000E+00 0.  1.
          5    1    4    4  501    0 -0.90346942544E+02  0.10947278656E+03 -0.67070550066E+03  0.68557290060E+03  0.41800000000E+01 0. -1.
         -5    1    4    4    0  501  0.39609158250E+02  0.75338820381E+02 -0.31193058817E+03  0.32336200691E+03  0.41800000000E+01 0. -1.
</event>
<event>
11    1  0.7157190E-009  0.2316642E+03  0.7561462E-02  0.1034147E+00
         22   -1    0    0    0    0  0.00000000000E+00  0.00000000000E+00  0.30240601974E+04  0.30240601974E+04  0.00000000000E+00 0. -1.
         22   -1    0    0    0    0 -0.00000000000E+00 -0.00000000000E+00 -0.40202024535E+03  0.40202024535E+03  0.00000000000E+00 0.  1.
        -24    2    1    2    0    0 -0.72394924713E+02  0.17924320637E+03 -0.35169516948E+03  0.40919727040E+03  0.79898446266E+02 0.  0.
         25    2    1    2    0    0  0.12936733227E+03 -0.22142910351E+03  0.99140808914E+03  0.10316521219E+04  0.12509734986E+03 0.  0.
         24    2    1    2    0    0 -0.56972407557E+02  0.42185897145E+02  0.19823270324E+04  0.19852310504E+04  0.80599969226E+02 0.  0.
        -11    1    5    5    0    0 -0.60068940592E+02 -0.31334029583E+01  0.94736561051E+03  0.94927324613E+03  0.00000000000E+00 0.  1.
         12    1    5    5    0    0  0.30965330346E+01  0.45319300104E+02  0.10349614219E+04  0.10359578043E+04  0.00000000000E+00 0. -1.
         11    1    3    3    0    0  0.48177233808E+01  0.24396571013E+02 -0.11228499835E+02  0.27285203762E+02  0.00000000000E+00 0. -1.
        -12    1    3    3    0    0 -0.77212648094E+02  0.15484663535E+03 -0.34046666965E+03  0.38191206664E+03  0.00000000000E+00 0.  1.
          5    1    4    4  501    0  0.15115468065E+03 -0.18616841897E+03  0.89600913376E+03  0.92755391104E+03  0.41800000000E+01 0. -1.
         -5    1    4    4    0  501 -0.21787348384E+02 -0.35260684540E+02  0.95398955377E+02  0.10409821089E+03  0.41800000000E+01 0. -1.
</event>
<event>
11    1  0.7157190E-009  0.1498294E+03  0.7561462E-02  0.1097053E+00
         22   -1    0    0    0    0  0.00000000000E+00  0.00000000000E+00  0.41913075413E+03  0.41913075413E+03  0.00000000000E+00 0.  1.
         22   -1    0    0    0    0 -0.00000000000E+00 -0.00000000000E+00 -0.10868876330E+04  0.10868876330E+04  0.00000000000E+00 0.  1.
        -24    2    1    2    0    0  0.85667075527E+02 -0.38227994573E+01 -0.95466778019E+03  0.96182304406E+03  0.79746698485E+02 0.  0.
         25    2    1    2    0    0 -0.38033698780E+02  0.62414025537E+02 -0.76909234066E+02  0.16402761050E+03  0.12509178188E+03 0.  0.
         24    2    1    2    0    0 -0.47633376746E+02 -0.58591226080E+02  0.36382013538E+03  0.38016773258E+03  0.80377507009E+02 0.  0.
        -11    1    5    5    0    0 -0.47429257363E+02 -0.77775776999E+02  0.30114265809E+03  0.31461962186E+03  0.00000000000E+00 0.  1.
         12    1    5    5    0    0 -0.20411938340E+00  0.19184550918E+02  0.62677477289E+02  0.65548110712E+02  0.00000000000E+00 0. -1.
         13    1    3    3    0    0  0.82510490617E+01  0.29495342723E+02 -0.18037846030E+03  0.18296022516E+03  0.00000000000E+00 0. -1.
        -14    1    3    3    0    0  0.77416026465E+02 -0.33318142180E+02 -0.77428931990E+03  0.77886281889E+03  0.00000000000E+00 0.  1.
          5    1    4    4  501    0 -0.25248719623E+02 -0.14375802837E+01  0.29576932135E+02  0.39138622793E+02  0.41800000000E+01 0.  1.
         -5    1    4    4    0  501 -0.12784979158E+02  0.63851605821E+02 -0.10648616620E+03  0.12488898771E+03  0.41800000000E+01 0.  1.
</event>
<event>
11    1  0.7157190E-009  0.2015552E+03  0.7561462E-02  0.1053429E+00
         22   -1    0    0    0    0  0.00000000000E+00  0.00000000000E+00  0.85754180433E+03  0.85754180433E+03  0.00000000000E+00 0.  1.
         22   -1    0    0    0    0 -0.00000000000E+00 -0.00000000000E+00 -0.64940489154E+03  0.64940489154E+03  0.00000000000E+00 0.  1.
        -24    2    1    2    0    0 -0.11914636220E+02 -0.24707417203E+02 -0.59769013564E+03  0.60382367116E+03  0.81345636561E+02 0.  0.
         25    2    1    2    0    0 -0.13178705386E+03  0.90379390777E+02  0.26110203156E+03  0.33069935124E+03  0.12510606773E+03 0.  0.
         24    2    1    2    0    0  0.14370169008E+03 -0.65671973574E+02  0.54472501687E+03  0.57242367347E+03  0.77333913056E+02 0.  0.
        -11    1    5    5    0    0  0.12728441138E+02 -0.38678774700E+02  0.16081603782E+03  0.16589110538E+03  0.00000000000E+00 0.  1.
         12    1    5    5    0    0  0.13097324894E+03 -0.26993198874E+02  0.38390897905E+03  0.40653256809E+03  0.00000000000E+00 0. -1.
         13    1    3    3    0    0 -0.65016107174E+01  0.30080224215E+02 -0.22005455824E+03  0.22219608330E+03  0.00000000000E+00 0. -1.
        -14    1    3    3    0    0 -0.54130255028E+01 -0.54787641418E+02 -0.37763557740E+03  0.38162758786E+03  0.00000000000E+00 0.  1.
          5    1    4    4  501    0 -0.10093251096E+03  0.12206870943E+03  0.20756548899E+03  0.26113032419E+03  0.41800000000E+01 0.  1.
         -5    1    4    4    0  501 -0.30854542893E+02 -0.31689318657E+02  0.53536542570E+02  0.69569027048E+02  0.41800000000E+01 0.  1.
</event>
<event>
11    1  0.7157190E-009  0.1716660E+03  0.7561462E-02  0.1076591E+00
         22   -1    0    0    0    0  0.00000000000E+00  0.00000000000E+00  0.61831221416E+03  0.61831221416E+03  0.00000000000E+00 0. -1.
         22   -1    0    0    0    0 -0.00000000000E+00 -0.00000000000E+00 -0.39262845914E+03  0.39262845914E+03  0.00000000000E+00 0. -1.
         24    2    1    2    0    0 -0.71913681433E+02 -0.53510185141E+02 -0.30661761020E+03  0.32951259059E+03  0.80803904532E+02 0.  0.
         25    2    1    2    0    0  0.15668171793E+03 -0.23115250572E+02  0.96721892686E+02  0.22379629277E+03  0.12508469367E+03 0.  0.
        -24    2    1    2    0    0 -0.84768036499E+02  0.76625435713E+02  0.43557947253E+03  0.45763178993E+03  0.81488041222E+02 0.  0.
        -11    1    3    3    0    0 -0.53455995170E+01 -0.33960092618E+01  0.42794856905E+01  0.76434488863E+01  0.00000000000E+00 0.  1.
         12    1    3    3    0    0 -0.66568081916E+02 -0.50114175879E+02 -0.31089709589E+03  0.32186914171E+03  0.00000000000E+00 0. -1.
         11    1    5    5    0    0 -0.98166834264E+02  0.51571571678E+02  0.32225370295E+03  0.34079877262E+03  0.00000000000E+00 0. -1.
        -12    1    5    5    0    0  0.13398797765E+02  0.25053864034E+02  0.11332576957E+03  0.11683301731E+03  0.00000000000E+00 0.  1.
          5    1    4    4  501    0  0.15637216444E+03  0.13853015600E+02  0.51570722232E+02  0.16529117231E+03  0.41800000000E+01 0. -1.
         -5    1    4    4    0  501  0.30955349669E+00 -0.36968266172E+02  0.45151170454E+02  0.58505120464E+02  0.41800000000E+01 0. -1.
</event>
<event>
11    1  0.7157190E-009  0.1674883E+03  0.7561462E-02  0.1080238E+00
         22   -1    0    0    0    0  0.00000000000E+00  0.00000000000E+00  0.12685586456E+03  0.12685586456E+03  0.00000000000E+00 0.  1.
         22   -1    0    0    0    0 -0.00000000000E+00 -0.00000000000E+00 -0.11099399398E+04  0.11099399398E+04  0.00000000000E+00 0. -1.
         24    2    1    2    0    0 -0.92908692635E+02 -0.52683775501E+02 -0.85242630623E+03  0.86270993046E+03  0.78931686886E+02 0.  0.
         25    2    1    2    0    0  0.10855343841E+03  0.11953261461E+03 -0.16642201235E+03  0.26346957710E+03  0.12509211373E+03 0.  0.
        -24    2    1    2    0    0 -0.15644745774E+02 -0.66848839113E+02  0.35764243390E+02  0.11061629675E+03  0.79014926693E+02 0.  0.
        -11    1    3    3    0    0 -0.18015367075E+02 -0.54211876489E+02 -0.41549130692E+03  0.41940017541E+03  0.00000000000E+00 0.  1.
         12    1    3    3    0    0 -0.74893325560E+02  0.15281009880E+01 -0.43693499931E+03  0.44330975505E+03  0.00000000000E+00 0. -1.
         11    1    5    5    0    0 -0.11581718471E+02  0.16039259377E+02 -0.10892095245E+01  0.19813642307E+02  0.00000000000E+00 0. -1.
        -12    1    5    5    0    0 -0.40630273032E+01 -0.82888098489E+02  0.36853452915E+02  0.90802654442E+02  0.00000000000E+00 0.  1.
          5    1    4    4  501    0  0.12064664595E+03  0.10414724956E+03 -0.17909720156E+03  0.23978228203E+03  0.41800000000E+01 0. -1.
         -5    1    4    4    0  501 -0.12093207539E+02  0.15385365049E+02  0.12675189208E+02  0.23687295070E+02  0.41800000000E+01 0. -1.
</event>
<event>
11    1  0.7157190E-009  0.1948295E+03  0.7561462E-02  0.1058241E+00
         22   -1    0    0    0    0  0.00000000000E+00  0.00000000000E+00  0.67334276484E+03  0.67334276484E+03  0.00000000000E+00 0.  1.
         22   -1    0    0    0    0 -0.00000000000E+00 -0.00000000000E+00 -0.30609745861E+03  0.30609745861E+03  0.00000000000E+00 0.  1.
        -24    2    1    2    0    0 -0.10371600740E+03  0.43457140274E+02 -0.22736309719E+03  0.26583322148E+03  0.79547410048E+02 0.  0.
         25    2    1    2    0    0 -0.55565835630E+02  0.79377120353E+02  0.17246179748E+03  0.23404853710E+03  0.12508939525E+03 0.  0.
         24    2    1    2    0    0  0.15928184303E+03 -0.12283426063E+03  0.42214660595E+03  0.47955846488E+03  0.10634661828E+03 0.  0.
        -13    1    5    5    0    0  0.11458830547E+03 -0.21694341167E+02  0.22954970484E+03  0.25747658376E+03  0.00000000000E+00 0.  1.
         14    1    5    5    0    0  0.44693537564E+02 -0.10113991946E+03  0.19259690110E+03  0.22208188112E+03  0.00000000000E+00 0. -1.
         11    1    3    3    0    0 -0.10089644308E+03  0.23886116024E+02 -0.12900893818E+03  0.16551116245E+03  0.00000000000E+00 0. -1.
        -12    1    3    3    0    0 -0.28195643219E+01  0.19571024250E+02 -0.98354159013E+02  0.10032205903E+03  0.00000000000E+00 0.  1.
          5    1    4    4  501    0 -0.73296464915E+02  0.33733258011E+02  0.16582115335E+03  0.18445712717E+03  0.41800000000E+01 0. -1.
         -5    1    4    4    0  501  0.17730629285E+02  0.45643862342E+02  0.66406441292E+01  0.49591409929E+02  0.41800000000E+01 0. -1.
</event>
<event>
11    1  0.7157190E-009  0.1820211E+03  0.7561462E-02  0.1068020E+00
         22   -1    0    0    0    0  0.00000000000E+00  0.00000000000E+00  0.67749370342E+03  0.67749370342E+03  0.00000000000E+00 0.  1.
         22   -1    0    0    0    0 -0.00000000000E+00 -0.00000000000E+00 -0.13171259888E+04  0.13171259888E+04  0.00000000000E+00 0.  1.
        -24    2    1    2    0    0 -0.25368687989E+02 -0.12571086311E+03 -0.10137613141E+04  0.10248990775E+04  0.79115900103E+02 0.  0.
         25    2    1    2    0    0 -0.42719308989E+02  0.16960432629E+03 -0.25331320436E+03  0.33227332708E+03  0.12508963798E+03 0.  0.
         24    2    1    2    0    0  0.68087996978E+02 -0.43893463184E+02  0.62744223312E+03  0.63744728761E+03  0.78055602886E+02 0.  0.
        -11    1    5    5    0    0  0.34019122105E+02 -0.61365182989E+02  0.48063852135E+03  0.48573282220E+03  0.00000000000E+00 0.  1.
         12    1    5    5    0    0  0.34068874873E+02  0.17471719805E+02  0.14680371176E+03  0.15171446541E+03  0.00000000000E+00 0. -1.
         11    1    3    3    0    0 -0.23975934081E+02 -0.10676232030E+02 -0.37072530195E+03  0.37165316741E+03  0.00000000000E+00 0. -1.
        -12    1    3    3    0    0 -0.13927539082E+01 -0.11503463108E+03 -0.64303601219E+03  0.65324591011E+03  0.00000000000E+00 0.  1.
          5    1    4    4  501    0  0.36791121190E+02  0.77417356920E+02 -0.63577539255E+02  0.10680173055E+03  0.41800000000E+01 0.  1.
         -5    1    4    4    0  501 -0.79510430179E+02  0.92186969372E+02 -0.18973566510E+03  0.22547159653E+03  0.41800000000E+01 0.  1.
</event>
<event>
11    1  0.7157190E-009  0.1905478E+03  0.7561462E-02  0.1061417E+00
         22   -1    0    0    0    0  0.00000000000E+00  0.00000000000E+00  0.48928828761E+02  0.48928828761E+02  0.00000000000E+00 0.  1.
         22   -1    0    0    0    0 -0.00000000000E+00 -0.00000000000E+00 -0.30825196321E+04  0.30825196321E+04  0.00000000000E+00 0. -1.
         24    2    1    2    0    0  0.11492229194E+03  0.76698925452E+02 -0.23539846483E+04  0.23593208757E+04  0.77855067731E+02 0.  0.
         25    2    1    2    0    0 -0.13616816193E+03 -0.15790821144E+03 -0.50303825089E+03  0.55872407749E+03  0.12509333054E+03 0.  0.
        -24    2    1    2    0    0  0.21245869981E+02  0.81209285985E+02 -0.17656790415E+03  0.21340350771E+03  0.85548215673E+02 0.  0.
        -13    1    3    3    0    0  0.91730496950E+02  0.17984250614E+02 -0.12167486952E+04  0.12203340955E+04  0.00000000000E+00 0.  1.
         14    1    3    3    0    0  0.23191794994E+02  0.58714674838E+02 -0.11372359531E+04  0.11389867802E+04  0.00000000000E+00 0. -1.
         13    1    5    5    0    0 -0.31011133066E+02  0.34776759399E+02 -0.96176512075E+02  0.10686924180E+03  0.00000000000E+00 0. -1.
        -14    1    5    5    0    0  0.52257003046E+02  0.46432526585E+02 -0.80391392076E+02  0.10653426591E+03  0.00000000000E+00 0.  1.
          5    1    4    4  501    0 -0.30089426141E+02 -0.38294123822E+01 -0.11380537499E+02  0.32665379203E+02  0.41800000000E+01 0.  1.
         -5    1    4    4    0  501 -0.10607873578E+03 -0.15407879905E+03 -0.49165771340E+03  0.52605869829E+03  0.41800000000E+01 0.  1.
</event>
<event>
11    1  0.7157190E-009  0.1384434E+03  0.7561462E-02  0.1109309E+00
         22   -1    0    0    0    0  0.00000000000E+00  0.00000000000E+00  0.21515579150E+04  0.21515579150E+04  0.00000000000E+00 0.  1.
         22   -1    0    0    0    0 -0.00000000000E+00 -0.00000000000E+00 -0.25805854140E+03  0.25805854140E+03  0.00000000000E+00 0.  1.
         24    2    1    2    0    0  0.39833994711E+01  0.20918001156E+02 -0.18431038969E+03  0.20209471591E+03  0.80115692643E+02 0.  0.
         25    2    1    2    0    0 -0.60370798943E+02 -0.38774166810E+02  0.17925732645E+02  0.14531352190E+03  0.12508644362E+03 0.  0.
        -24    2    1    2    0    0  0.56387399472E+02  0.17856165654E+02  0.20598840307E+04  0.20622082186E+04  0.77988048220E+02 0.  0.
        -13    1    3    3    0    0  0.22767969876E+02 -0.20502307935E+02 -0.11637555433E+03  0.12034115974E+03  0.00000000000E+00 0.  1.
         14    1    3    3    0    0 -0.18784570405E+02  0.41420309091E+02 -0.67934835356E+02  0.81753556163E+02  0.00000000000E+00 0. -1.
         13    1    5    5    0    0  0.10821578311E+02  0.32281268538E+02  0.34901437913E+03  0.35067110473E+03  0.00000000000E+00 0. -1.
        -14    1    5    5    0    0  0.45565821161E+02 -0.14425102885E+02  0.17108696516E+04  0.17115371139E+04  0.00000000000E+00 0.  1.
          5    1    4    4  501    0 -0.16847961704E+02  0.35733276404E+02 -0.26909865961E+02  0.47982644176E+02  0.41800000000E+01 0. -1.
         -5    1    4    4    0  501 -0.43522837238E+02 -0.74507443213E+02  0.44835598606E+02  0.97330877720E+02  0.41800000000E+01 0. -1.
</event>
<event>
11    1  0.7157190E-009  0.2038812E+03  0.7561462E-02  0.1051812E+00
         22   -1    0    0    0    0  0.00000000000E+00  0.00000000000E+00  0.72845025004E+03  0.72845025004E+03  0.00000000000E+00 0. -1.
         22   -1    0    0    0    0 -0.00000000000E+00 -0.00000000000E+00 -0.12880002012E+04  0.12880002012E+04  0.00000000000E+00 0.  1.
         24    2    1    2    0    0 -0.25435475929E+02 -0.10911961468E+01 -0.11870031673E+04  0.11900119104E+04  0.80645356356E+02 0.  0.
         25    2    1    2    0    0 -0.13893641767E+03  0.30733861468E+01  0.15177615695E+02  0.18759751307E+03  0.12509873315E+03 0.  0.
        -24    2    1    2    0    0  0.16437189360E+03 -0.19821900000E+01  0.61227560047E+03  0.63884102777E+03  0.78831461685E+02 0.  0.
        -13    1    3    3    0    0 -0.51934766298E+02 -0.12885273277E+02 -0.88603536764E+03  0.88764966227E+03  0.00000000000E+00 0.  1.
         14    1    3    3    0    0  0.26499290369E+02  0.11794077130E+02 -0.30096779966E+03  0.30236224810E+03  0.00000000000E+00 0. -1.
         13    1    5    5    0    0  0.10122195500E+03  0.30401402522E+02  0.44009937648E+03  0.45261196475E+03  0.00000000000E+00 0. -1.
        -14    1    5    5    0    0  0.63149938597E+02 -0.32383592522E+02  0.17217622398E+03  0.18622906302E+03  0.00000000000E+00 0.  1.
          5    1    4    4  501    0 -0.10768525113E+03  0.11652557499E+02 -0.46383689195E+02  0.11790171513E+03  0.41800000000E+01 0.  1.
         -5    1    4    4    0  501 -0.31251166546E+02 -0.85791713517E+01  0.61561304890E+02  0.69695797946E+02  0.41800000000E+01 0.  1.
</event>
<event>
11    1  0.7157190E-009  0.1726016E+03  0.7561462E-02  0.1075790E+00
         22   -1    0    0    0    0  0.00000000000E+00  0.00000000000E+00  0.80869436323E+03  0.80869436323E+03  0.00000000000E+00 0. -1.
         22   -1    0    0    0    0 -0.00000000000E+00 -0.00000000000E+00 -0.14946033662E+04  0.14946033662E+04  0.00000000000E+00 0. -1.
         24    2    1    2    0    0  0.22434359503E+01 -0.41251737757E+02 -0.82824210731E+03  0.83309229946E+03  0.79693489263E+02 0.  0.
         25    2    1    2    0    0  0.85011647299E+02  0.12167478200E+03 -0.64308236527E+03  0.67174037471E+03  0.12509384372E+03 0.  0.
        -24    2    1    2    0    0 -0.87255083249E+02 -0.80423044239E+02  0.78541546963E+03  0.79846505526E+03  0.81164456109E+02 0.  0.
        -13    1    3    3    0    0 -0.23758971306E+02  0.15667171788E+01 -0.88226658345E+02  0.91383185341E+02  0.00000000000E+00 0.  1.
         14    1    3    3    0    0  0.26002407256E+02 -0.42818454935E+02 -0.74001544896E+03  0.74170911412E+03  0.00000000000E+00 0. -1.
         13    1    5    5    0    0 -0.63022680224E+02 -0.94269425400E+02  0.56306920246E+03  0.57437401539E+03  0.00000000000E+00 0. -1.
        -14    1    5    5    0    0 -0.24232403026E+02  0.13846381162E+02  0.22234626717E+03  0.22409103987E+03  0.00000000000E+00 0.  1.
          5    1    4    4  501    0  0.21881259336E+02 -0.23247320900E+02 -0.16723665708E+03  0.17030795433E+03  0.41800000000E+01 0. -1.
         -5    1    4    4    0  501  0.63130387963E+02  0.14492210290E+03 -0.47584570820E+03  0.50143242037E+03  0.41800000000E+01 0. -1.
</event>
<event>
11    1  0.7157190E-009  0.1565007E+03  0.7561462E-02  0.1090415E+00
         22   -1    0    0    0    0  0.00000000000E+00  0.00000000000E+00  0.83866390189E+03  0.83866390189E+03  0.00000000000E+00 0. -1.
         22   -1    0    0    0    0 -0.00000000000E+00 -0.00000000000E+00 -0.89510366518E+03  0.89510366518E+03  0.00000000000E+00 0.  1.
         24    2    1    2    0    0 -0.27889213686E+02 -0.67918506230E+02 -0.77994283305E+03  0.78751234989E+03  0.80462082175E+02 0.  0.
         25    2    1    2    0    0  0.10329788056E+03  0.10366288852E+02 -0.44199259284E+02  0.16845719770E+03  0.12508533432E+03 0.  0.
        -24    2    1    2    0    0 -0.75408666878E+02  0.57552217378E+02  0.76770232904E+03  0.77779801948E+03  0.81266034304E+02 0.  0.
        -11    1    3    3    0    0 -0.29480295842E+02  0.79886578813E+01 -0.15554536961E+03  0.15851583046E+03  0.00000000000E+00 0.  1.
         12    1    3    3    0    0  0.15910821563E+01 -0.75907164112E+02 -0.62439746344E+03  0.62899651943E+03  0.00000000000E+00 0. -1.
         13    1    5    5    0    0 -0.52996720957E+02  0.50048238799E+02  0.72765120674E+03  0.73129320885E+03  0.00000000000E+00 0. -1.
        -14    1    5    5    0    0 -0.22411945920E+02  0.75039785792E+01  0.40051122297E+02  0.46504810630E+02  0.00000000000E+00 0.  1.
          5    1    4    4  501    0  0.12252972279E+03  0.34483389233E+01 -0.65160522963E+02  0.13888408894E+03  0.41800000000E+01 0.  1.
         -5    1    4    4    0  501 -0.19231842226E+02  0.69179499287E+01  0.20961263679E+02  0.29573108759E+02  0.41800000000E+01 0.  1.
</event>
<event>
11    1  0.7157190E-009  0.1551805E+03  0.7561462E-02  0.1091700E+00
         22   -1    0    0    0    0  0.00000000000E+00  0.00000000000E+00  0.81288958924E+03  0.81288958924E+03  0.00000000000E+00 0.  1.
         22   -1    0    0    0    0 -0.00000000000E+00 -0.00000000000E+00 -0.23384876437E+03  0.23384876437E+03  0.00000000000E+00 0.  1.
        -24    2    1    2    0    0 -0.49031833351E+02  0.73594514044E+02 -0.17593962218E+03  0.21141597093E+03  0.76952510897E+02 0.  0.
         25    2    1    2    0    0  0.49449212256E+02 -0.13624505123E+03  0.22286120564E+03  0.29381019774E+03  0.12509746895E+03 0.  0.
         24    2    1    2    0    0 -0.41737890459E+00  0.62650537184E+02  0.53211924141E+03  0.54151218494E+03  0.78481178300E+02 0.  0.
        -13    1    5    5    0    0 -0.81426508789E+01  0.78429021212E+02  0.48190824362E+03  0.48831646439E+03  0.00000000000E+00 0.  1.
         14    1    5    5    0    0  0.77252719743E+01 -0.15778484028E+02  0.50210997791E+02  0.53195720546E+02  0.00000000000E+00 0. -1.
         13    1    3    3    0    0  0.15235606145E+02  0.38783881273E+02 -0.44102324858E+02  0.60673949922E+02  0.00000000000E+00 0. -1.
        -14    1    3    3    0    0 -0.64267439496E+02  0.34810632771E+02 -0.13183729732E+03  0.15074202101E+03  0.00000000000E+00 0.  1.
          5    1    4    4  501    0 -0.29786175766E+02 -0.99624001882E+02  0.12235019169E+03  0.16062129319E+03  0.41800000000E+01 0. -1.
         -5    1    4    4    0  501  0.79235388022E+02 -0.36621049346E+02  0.10051101395E+03  0.13318890455E+03  0.41800000000E+01 0. -1.
</event>
<event>
11    1  0.7157190E-009  0.1779433E+03  0.7561462E-02  0.1071319E+00
         22   -1    0    0    0    0  0.00000000000E+00  0.00000000000E+00  0.67025743299E+03  0.67025743299E+03  0.00000000000E+00 0.  1.
         22   -1    0    0    0    0 -0.00000000000E+00 -0.00000000000E+00 -0.14805636848E+04  0.14805636848E+04  0.00000000000E+00 0.  1.
        -24    2    1    2    0    0  0.44326854211E+02  0.11874747858E+03 -0.13989495870E+04  0.14069975667E+04  0.80724048438E+02 0.  0.
         25    2    1    2    0    0 -0.45960462995E+02 -0.11266947178E+03  0.26608003219E+02  0.17652814749E+03  0.12508967579E+03 0.  0.
         24    2    1    2    0    0  0.16336087835E+01 -0.60780067972E+01  0.56203533196E+03  0.56729540364E+03  0.76816337935E+02 0.  0.
        -13    1    5    5    0    0  0.31148819196E+02 -0.12867772358E+02  0.44931789557E+03  0.45058007033E+03  0.00000000000E+00 0.  1.
         14    1    5    5    0    0 -0.29515210412E+02  0.67897655606E+01  0.11271743639E+03  0.11671533331E+03  0.00000000000E+00 0. -1.
         11    1    3    3    0    0 -0.53280996712E+01  0.88775653843E+02 -0.69595558826E+03  0.70161505556E+03  0.00000000000E+00 0. -1.
        -12    1    3    3    0    0  0.49654953882E+02  0.29971824739E+02 -0.70299399875E+03  0.70538251112E+03  0.00000000000E+00 0.  1.
          5    1    4    4  501    0 -0.29424069345E+02  0.18652064839E+02 -0.14358131734E+02  0.37911788753E+02  0.41800000000E+01 0.  1.
         -5    1    4    4    0  501 -0.16536393649E+02 -0.13132153662E+03  0.40966134953E+02  0.13861635874E+03  0.41800000000E+01 0.  1.
</event>
<event>
11    1  0.7157190E-009  0.1899936E+03  0.7561462E-02  0.1061834E+00
         22   -1    0    0    0    0  0.00000000000E+00  0.00000000000E+00  0.34511444351E+03  0.34511444351E+03  0.00000000000E+00 0.  1.
         22   -1    0    0    0    0 -0.00000000000E+00 -0.00000000000E+00 -0.92089992639E+03  0.92089992639E+03  0.00000000000E+00 0. -1.
        -24    2    1    2    0    0  0.16814772225E+02 -0.91068386351E+02 -0.80748014844E+03  0.81641706318E+03  0.77048318400E+02 0.  0.
         25    2    1    2    0    0 -0.95224819228E+02 -0.78007414160E+02  0.14889316661E+03  0.23015203410E+03  0.12509141009E+03 0.  0.
         24    2    1    2    0    0  0.78410047003E+02  0.16907580051E+03  0.82801498953E+02  0.21944527262E+03  0.81027018066E+02 0.  0.
        -11    1    5    5    0    0  0.30936614573E+02  0.17662014019E+02 -0.81535741927E+01  0.36544515766E+02  0.00000000000E+00 0.  1.
         12    1    5    5    0    0  0.47473432430E+02  0.15141378649E+03  0.90955073146E+02  0.18290075685E+03  0.00000000000E+00 0. -1.
         11    1    3    3    0    0  0.11524749634E+02 -0.10247760530E+03 -0.77019637861E+03  0.77706945704E+03  0.00000000000E+00 0. -1.
        -12    1    3    3    0    0  0.52900225905E+01  0.11409218951E+02 -0.37283769831E+02  0.39347606139E+02  0.00000000000E+00 0.  1.
          5    1    4    4  501    0  0.74992737729E+01 -0.28619894905E+02  0.10293589576E+03  0.10718492678E+03  0.41800000000E+01 0. -1.
         -5    1    4    4    0  501 -0.10272409300E+03 -0.49387519255E+02  0.45957270845E+02  0.12296710733E+03  0.41800000000E+01 0. -1.
</event>
<event>
11    1  0.7157190E-009  0.1659117E+03  0.7561462E-02  0.1081645E+00
         22   -1    0    0    0    0  0.00000000000E+00  0.00000000000E+00  0.43451651008E+03  0.43451651008E+03  0.00000000000E+00 0.  1.
         22   -1    0    0    0    0 -0.00000000000E+00 -0.00000000000E+00 -0.67265549453E+03  0.67265549453E+03  0.00000000000E+00 0. -1.
         24    2    1    2    0    0  0.49191043988E+02  0.61385352142E+02 -0.57252527685E+03  0.58367760014E+03  0.81892783624E+02 0.  0.
         25    2    1    2    0    0 -0.14149526539E+03 -0.82200089167E+01  0.31295180048E+02  0.19161343495E+03  0.12509133257E+03 0.  0.
        -24    2    1    2    0    0  0.92304221401E+02 -0.53165343225E+02  0.30309111236E+03  0.33188096951E+03  0.83271438852E+02 0.  0.
        -11    1    3    3    0    0  0.67875776150E+02  0.44124085971E+02 -0.32844154106E+03  0.33827193475E+03  0.00000000000E+00 0.  1.
         12    1    3    3    0    0 -0.18684732162E+02  0.17261266171E+02 -0.24408373580E+03  0.24540566539E+03  0.00000000000E+00 0. -1.
         11    1    5    5    0    0  0.93825899596E+01 -0.50696567592E+02  0.10023869124E+03  0.11272076198E+03  0.00000000000E+00 0. -1.
        -12    1    5    5    0    0  0.82921631442E+02 -0.24687756331E+01  0.20285242112E+03  0.21916020754E+03  0.00000000000E+00 0.  1.
          5    1    4    4  501    0 -0.84690409855E+02  0.45416790382E+02  0.53786159370E+02  0.11020695854E+03  0.41800000000E+01 0.  1.
         -5    1    4    4    0  501 -0.56804855535E+02 -0.53636799299E+02 -0.22490979322E+02  0.81406476415E+02  0.41800000000E+01 0.  1.
</event>
<event>
11    1  0.7157190E-009  0.2776218E+03  0.7561462E-02  0.1010134E+00
         22   -1    0    0    0    0  0.00000000000E+00  0.00000000000E+00  0.52384221589E+03  0.52384221589E+03  0.00000000000E+00 0.  1.
         22   -1    0    0    0    0 -0.00000000000E+00 -0.00000000000E+00 -0.12377516274E+04  0.12377516274E+04  0.00000000000E+00 0.  1.
         24    2    1    2    0    0  0.45535298489E+02 -0.15365473810E+02 -0.10275408316E+04  0.10319807783E+04  0.82671670826E+02 0.  0.
         25    2    1    2    0    0  0.17474624133E+03 -0.11763673262E+03 -0.75525416971E+02  0.25637081191E+03  0.12508898782E+03 0.  0.
        -24    2    1    2    0    0 -0.22028153982E+03  0.13300220643E+03  0.38915683701E+03  0.47324225304E+03  0.79382885897E+02 0.  0.
        -13    1    3    3    0    0  0.60378138291E+02 -0.45267512567E+00 -0.44709222469E+03  0.45115095243E+03  0.00000000000E+00 0.  1.
         14    1    3    3    0    0 -0.14842839802E+02 -0.14912798684E+02 -0.58044860686E+03  0.58082982591E+03  0.00000000000E+00 0. -1.
         13    1    5    5    0    0  0.37009688207E+01 -0.34271250783E+01  0.16075931115E+01  0.52940260791E+01  0.00000000000E+00 0. -1.
        -14    1    5    5    0    0 -0.22398250864E+03  0.13642933151E+03  0.38754924390E+03  0.46794822696E+03  0.00000000000E+00 0.  1.
          5    1    4    4  501    0 -0.58169714148E+00 -0.21299301876E+02  0.24441395610E+02  0.32693315086E+02  0.41800000000E+01 0. -1.
         -5    1    4    4    0  501  0.17532793847E+03 -0.96337430742E+02 -0.99966812581E+02  0.22367749683E+03  0.41800000000E+01 0. -1.
</event>
<event>
11    1  0.7157190E-009  0.1852385E+03  0.7561462E-02  0.1065483E+00
         22   -1    0    0    0    0  0.00000000000E+00  0.00000000000E+00  0.19948686971E+03  0.19948686971E+03  0.00000000000E+00 0. -1.
         22   -1    0    0    0    0 -0.00000000000E+00 -0.00000000000E+00 -0.98490226270E+03  0.98490226270E+03  0.00000000000E+00 0.  1.
         24    2    1    2    0    0 -0.10479131852E+03 -0.10095925668E+03 -0.79292997530E+03  0.81023652086E+03  0.81063444622E+02 0.  0.
         25    2    1    2    0    0 -0.93046783608E+01  0.12270171200E+03 -0.95502845070E+02  0.19977010961E+03  0.12508003881E+03 0.  0.
        -24    2    1    2    0    0  0.11409599689E+03 -0.21742455319E+02  0.10301742738E+03  0.17438250195E+03  0.79410552025E+02 0.  0.
        -13    1    3    3    0    0 -0.68804870279E+02 -0.10317547704E+03 -0.69282820229E+03  0.70383961747E+03  0.00000000000E+00 0.  1.
         14    1    3    3    0    0 -0.35986448245E+02  0.22162203601E+01 -0.10010177302E+03  0.10639690339E+03  0.00000000000E+00 0. -1.
         11    1    5    5    0    0  0.11630317201E+03 -0.37649598055E+02  0.79208675483E+02  0.14566377149E+03  0.00000000000E+00 0. -1.
        -12    1    5    5    0    0 -0.22071751263E+01  0.15907142736E+02  0.23808751896E+02  0.28718730454E+02  0.00000000000E+00 0.  1.
          5    1    4    4  501    0  0.33423765532E+02  0.11315216241E+02 -0.68817238684E+02  0.77449770568E+02  0.41800000000E+01 0.  1.
         -5    1    4    4    0  501 -0.42728443893E+02  0.11138649575E+03 -0.26685606385E+02  0.12232033904E+03  0.41800000000E+01 0.  1.
</event>
<event>
11    1  0.7157190E-009  0.1702810E+03  0.7561462E-02  0.1077787E+00
         22   -1    0    0    0    0  0.00000000000E+00  0.00000000000E+00  0.51686139430E+03  0.51686139430E+03  0.00000000000E+00 0. -1.
         22   -1    0    0    0    0 -0.00000000000E+00 -0.00000000000E+00 -0.19359091924E+03  0.19359091924E+03  0.00000000000E+00 0. -1.
        -24    2    1    2    0    0  0.31655321676E+02 -0.28569908254E+02 -0.10457222925E+03  0.14504234134E+03  0.91014452728E+02 0.  0.
         25    2    1    2    0    0 -0.11628797590E+03 -0.48362911753E+02  0.88338817623E+02  0.19827577490E+03  0.12509065368E+03 0.  0.
         24    2    1    2    0    0  0.84632654229E+02  0.76932820006E+02  0.33950388668E+03  0.36713419730E+03  0.80270074104E+02 0.  0.
        -13    1    5    5    0    0 -0.86052487071E+00 -0.83713571199E+01  0.19681528191E+01  0.86425545183E+01  0.00000000000E+00 0.  1.
         14    1    5    5    0    0  0.85493179100E+02  0.85304177126E+02  0.33753573386E+03  0.35849164278E+03  0.00000000000E+00 0. -1.
         11    1    3    3    0    0 -0.35827513476E+00 -0.31282126613E+02 -0.10827264086E+03  0.11270166177E+03  0.00000000000E+00 0. -1.
        -12    1    3    3    0    0  0.32013596811E+02  0.27122183591E+01  0.37004116170E+01  0.32340679574E+02  0.00000000000E+00 0.  1.
          5    1    4    4  501    0 -0.33678185854E+02  0.36211029515E+02  0.57635090380E+02  0.76057444764E+02  0.41800000000E+01 0. -1.
         -5    1    4    4    0  501 -0.82609790051E+02 -0.84573941268E+02  0.30703727243E+02  0.12221833013E+03  0.41800000000E+01 0. -1.
</event>
<event>
11    1  0.7157190E-009  0.1424486E+03  0.7561462E-02  0.1104855E+00
         22   -1    0    0    0    0  0.00000000000E+00  0.00000000000E+00  0.14303632805E+03  0.14303632805E+03  0.00000000000E+00 0.  1.
         22   -1    0    0    0    0 -0.00000000000E+00 -0.00000000000E+00 -0.20513830408E+04  0.20513830408E+04  0.00000000000E+00 0. -1.
        -24    2    1    2    0    0 -0.34842852373E+02 -0.10372314690E+02 -0.17853352530E+04  0.17873511317E+04  0.76684374602E+02 0.  0.
         25    2    1    2    0    0  0.43394478253E+02 -0.57675610561E+02 -0.21909566971E+03  0.26241960438E+03  0.12510627275E+03 0.  0.
         24    2    1    2    0    0 -0.85516258793E+01  0.68047925251E+02  0.96084209909E+02  0.14464863277E+03  0.83590676109E+02 0.  0.
        -13    1    5    5    0    0 -0.64643981984E+01  0.82475822128E+02  0.99774260344E+02  0.12961077388E+03  0.00000000000E+00 0.  1.
         14    1    5    5    0    0 -0.20872276809E+01 -0.14427896876E+02 -0.36900504352E+01  0.15037858886E+02  0.00000000000E+00 0. -1.
         11    1    3    3    0    0 -0.56471731233E+02 -0.11436277746E+02 -0.95704916554E+03  0.95878201388E+03  0.00000000000E+00 0. -1.
        -12    1    3    3    0    0  0.21628878860E+02  0.10639630559E+01 -0.82828608742E+03  0.82856911784E+03  0.00000000000E+00 0.  1.
          5    1    4    4  501    0  0.49119017969E+02 -0.25003044715E+02 -0.17366408815E+02  0.57938715263E+02  0.41800000000E+01 0. -1.
         -5    1    4    4    0  501 -0.57245397163E+01 -0.32672565846E+02 -0.20172926089E+03  0.20448088912E+03  0.41800000000E+01 0. -1.
</event>
<event>
11    1  0.7157190E-009  0.1532656E+03  0.7561462E-02  0.1093588E+00
         22   -1    0    0    0    0  0.00000000000E+00  0.00000000000E+00  0.33799170896E+04  0.33799170896E+04  0.00000000000E+00 0.  1.
         22   -1    0    0    0    0 -0.00000000000E+00 -0.00000000000E+00 -0.10176083380E+04  0.10176083380E+04  0.00000000000E+00 0.  1.
         24    2    1    2    0    0 -0.26990234630E+02 -0.29619895663E+01 -0.10076962322E+04  0.10113190153E+04  0.81099988675E+02 0.  0.
         25    2    1    2    0    0  0.24310373623E+02 -0.86174606931E+02  0.92122751413E+03  0.93398326367E+03  0.12509015500E+03 0.  0.
        -24    2    1    2    0    0  0.26798610074E+01  0.89136596498E+02  0.24487774697E+04  0.24522231487E+04  0.94523862373E+02 0.  0.
        -13    1    3    3    0    0 -0.50829459275E+02 -0.13146416185E+02 -0.83915167904E+03  0.84079248488E+03  0.00000000000E+00 0.  1.
         14    1    3    3    0    0  0.23839224644E+02  0.10184426619E+02 -0.16854455311E+03  0.17052653037E+03  0.00000000000E+00 0. -1.
         11    1    5    5    0    0 -0.84978954911E+01 -0.19196318713E+02  0.37137437609E+03  0.37196725675E+03  0.00000000000E+00 0. -1.
        -12    1    5    5    0    0  0.11177756498E+02  0.10833291521E+03  0.20774030936E+04  0.20802558920E+04  0.00000000000E+00 0.  1.
          5    1    4    4  501    0  0.68050372920E+00 -0.70278694869E+02  0.19733684969E+03  0.20952055432E+03  0.41800000000E+01 0.  1.
         -5    1    4    4    0  501  0.23629869894E+02 -0.15895912063E+02  0.72389066444E+03  0.72446270935E+03  0.41800000000E+01 0.  1.
</event>
<event>
11    1  0.7157190E-009  0.1393350E+03  0.7561462E-02  0.1108303E+00
         22   -1    0    0    0    0  0.00000000000E+00  0.00000000000E+00  0.18305029981E+04  0.18305029981E+04  0.00000000000E+00 0.  1.
         22   -1    0    0    0    0 -0.00000000000E+00 -0.00000000000E+00 -0.12116921986E+03  0.12116921986E+03  0.00000000000E+00 0. -1.
        -24    2    1    2    0    0 -0.52258363306E+01  0.32478329429E+02 -0.76510197990E+02  0.11630389268E+03  0.81182718649E+02 0.  0.
         25    2    1    2    0    0 -0.56451550904E+02 -0.32428776493E+02  0.19172421079E+03  0.23800114160E+03  0.12509183529E+03 0.  0.
         24    2    1    2    0    0  0.61677387234E+02 -0.49552935552E-01  0.15941197655E+04  0.15973671837E+04  0.80993767464E+02 0.  0.
        -11    1    5    5    0    0  0.62492276702E+02 -0.93769048398E+01  0.62188293470E+03  0.62508527055E+03  0.00000000000E+00 0.  1.
         12    1    5    5    0    0 -0.81488946759E+00  0.93273519043E+01  0.97223683079E+03  0.97228191317E+03  0.00000000000E+00 0. -1.
         13    1    3    3    0    0  0.61716879198E+01  0.57297380167E+02 -0.64424262301E+02  0.86438215384E+02  0.00000000000E+00 0. -1.
        -14    1    3    3    0    0 -0.11397524250E+02 -0.24819050739E+02 -0.12085935689E+02  0.29865677292E+02  0.00000000000E+00 0.  1.
          5    1    4    4  501    0 -0.75877981594E+02 -0.58397515183E+02  0.91220046943E+02  0.13231140251E+03  0.41800000000E+01 0. -1.
         -5    1    4    4    0  501  0.19426430691E+02  0.25968738690E+02  0.10050416385E+03  0.10568973909E+03  0.41800000000E+01 0. -1.
</event>
<event>
11    1  0.7157190E-009  0.1364764E+03  0.7561462E-02  0.1111558E+00
         22   -1    0    0    0    0  0.00000000000E+00  0.00000000000E+00  0.87509027488E+03  0.87509027488E+03  0.00000000000E+00 0.  1.
         22   -1    0    0    0    0 -0.00000000000E+00 -0.00000000000E+00 -0.19279158964E+04  0.19279158964E+04  0.00000000000E+00 0. -1.
         24    2    1    2    0    0 -0.17780532221E+02 -0.17995753036E+02 -0.15219327255E+04  0.15242652292E+04  0.80406924048E+02 0.  0.
         25    2    1    2    0    0 -0.36082128764E+02  0.84635695560E+01 -0.39138981229E+03  0.41256408292E+03  0.12509830263E+03 0.  0.
        -24    2    1    2    0    0  0.53862660985E+02  0.95321834800E+01  0.86049691629E+03  0.86617685918E+03  0.82555191650E+02 0.  0.
        -11    1    3    3    0    0 -0.18336518048E+02 -0.20545309499E+02 -0.16156833540E+03  0.16389833629E+03  0.00000000000E+00 0.  1.
         12    1    3    3    0    0  0.55598582706E+00  0.25495564625E+01 -0.13603643901E+04  0.13603668929E+04  0.00000000000E+00 0. -1.
         11    1    5    5    0    0  0.80048232133E+01  0.20190080322E+02  0.52577034982E+02  0.56886388052E+02  0.00000000000E+00 0. -1.
        -12    1    5    5    0    0  0.45857837772E+02 -0.10657896842E+02  0.80791988130E+03  0.80929047113E+03  0.00000000000E+00 0.  1.
          5    1    4    4  501    0  0.31535827363E+02  0.42008098574E+02 -0.12493444571E+03  0.13559231865E+03  0.41800000000E+01 0. -1.
         -5    1    4    4    0  501 -0.67617956127E+02 -0.33544529018E+02 -0.26645536658E+03  0.27697176426E+03  0.41800000000E+01 0. -1.
</event>
<event>
11    1  0.7157190E-009  0.1313277E+03  0.7561462E-02  0.1117648E+00
         22   -1    0    0    0    0  0.00000000000E+00  0.00000000000E+00  0.78441094747E+03  0.78441094747E+03  0.00000000000E+00 0.  1.
         22   -1    0    0    0    0 -0.00000000000E+00 -0.00000000000E+00 -0.25038166749E+03  0.25038166749E+03  0.00000000000E+00 0. -1.
        -24    2    1    2    0    0  0.28313815828E+02  0.23012868652E+02 -0.17982478513E+03  0.20078994091E+03  0.81537615437E+02 0.  0.
         25    2    1    2    0    0 -0.69598321973E+02 -0.25627778145E+02  0.35070853030E+02  0.14959263905E+03  0.12508910221E+03 0.  0.
         24    2    1    2    0    0  0.41284506144E+02  0.26149094927E+01  0.67878321208E+03  0.68441003499E+03  0.77195846980E+02 0.  0.
        -11    1    5    5    0    0  0.14637813234E+02 -0.36159152361E+02  0.24549432550E+03  0.24857436257E+03  0.00000000000E+00 0.  1.
         12    1    5    5    0    0  0.26646692910E+02  0.38774061854E+02  0.43328888658E+03  0.43583567242E+03  0.00000000000E+00 0. -1.
         11    1    3    3    0    0  0.42784386095E+02  0.31882176198E+02 -0.17527751458E+03  0.18321895091E+03  0.00000000000E+00 0. -1.
        -12    1    3    3    0    0 -0.14470570266E+02 -0.88693075459E+01 -0.45472705501E+01  0.17570990002E+02  0.00000000000E+00 0.  1.
          5    1    4    4  501    0 -0.38034503038E+02  0.49363623795E+02  0.25875478102E+02  0.67604759762E+02  0.41800000000E+01 0.  1.
         -5    1    4    4    0  501 -0.31563818935E+02 -0.74991401940E+02  0.91953749284E+01  0.81987879292E+02  0.41800000000E+01 0.  1.
</event>
<event>
11    1  0.7157190E-009  0.1260080E+03  0.7561462E-02  0.1124274E+00
         22   -1    0    0    0    0  0.00000000000E+00  0.00000000000E+00  0.81884433677E+03  0.81884433677E+03  0.00000000000E+00 0.  1.
         22   -1    0    0    0    0 -0.00000000000E+00 -0.00000000000E+00 -0.13809264620E+04  0.13809264620E+04  0.00000000000E+00 0. -1.
        -24    2    1    2    0    0 -0.13832842190E+02 -0.60088662419E+01 -0.13647995727E+04  0.13674769883E+04  0.84190177293E+02 0.  0.
         25    2    1    2    0    0  0.28838973672E+02 -0.18908921602E+02  0.39310446536E+03  0.41396922160E+03  0.12510060762E+03 0.  0.
         24    2    1    2    0    0 -0.15006131482E+02  0.24917787844E+02  0.40961298214E+03  0.41832458882E+03  0.79790891337E+02 0.  0.
        -11    1    5    5    0    0 -0.15622135303E+02 -0.54790331741E+01  0.35829029220E+03  0.35867255875E+03  0.00000000000E+00 0.  1.
         12    1    5    5    0    0  0.61600382132E+00  0.30396821018E+02  0.51322689943E+02  0.59652030072E+02  0.00000000000E+00 0. -1.
         11    1    3    3    0    0 -0.21030072587E+02  0.15577823969E+02 -0.12583676950E+04  0.12586398168E+04  0.00000000000E+00 0. -1.
        -12    1    3    3    0    0  0.71972303965E+01 -0.21586690211E+02 -0.10643187770E+03  0.10883717155E+03  0.00000000000E+00 0.  1.
          5    1    4    4  501    0  0.44029023878E+02 -0.38492685397E+02  0.76577862638E+02  0.96446271151E+02  0.41800000000E+01 0. -1.
         -5    1    4    4    0  501 -0.15190050207E+02  0.19583763795E+02  0.31652660272E+03  0.31752295045E+03  0.41800000000E+01 0. -1.
</event>
<event>
11    1  0.7444890E-009  0.1827738E+03  0.7561462E-02  0.1067421E+00
         22   -1    0    0    0    0  0.00000000000E+00  0.00000000000E+00  0.26703100794E+04  0.26703100794E+04  0.00000000000E+00 0.  1.
         22   -1    0    0    0    0 -0.00000000000E+00 -0.00000000000E+00 -0.64911946743E+03  0.64911946743E+03  0.00000000000E+00 0.  1.
         24    2    1    2    0    0 -0.46602191285E+02 -0.13527511183E+03 -0.52810793380E+03  0.55288439933E+03  0.79448405698E+02 0.  0.
         25    2    1    2    0    0 -0.25995751386E+02  0.97457531800E+02 -0.47214987737E+02  0.16747068109E+03  0.12507367574E+03 0.  0.
        -24    2    1    2    0    0  0.72597942671E+02  0.37817580027E+02  0.25965135335E+04  0.25990744664E+04  0.81270668795E+02 0.  0.
        -13    1    3    3    0    0 -0.48621066749E+02 -0.10867791221E+03 -0.50061755945E+03  0.51458025376E+03  0.00000000000E+00 0.  1.
         14    1    3    3    0    0  0.20188754632E+01 -0.26597199618E+02 -0.27490374349E+02  0.38304145566E+02  0.00000000000E+00 0. -1.
         11    1    5    5    0    0 -0.14211836882E+02 -0.41945325289E+01  0.65452248549E+03  0.65469019729E+03  0.00000000000E+00 0. -1.
        -12    1    5    5    0    0  0.86809779553E+02  0.42012112556E+02  0.19419910480E+04  0.19443842691E+04  0.00000000000E+00 0.  1.
          5    1    4    4  501    0  0.82106106247E+00  0.85755689193E+02  0.25012057554E+02  0.89430351633E+02  0.41800000000E+01 0.  1.
         -5    1    4    4    0  501 -0.26816812448E+02  0.11701842607E+02 -0.72227045291E+02  0.78040329457E+02  0.41800000000E+01 0.  1.
</event>
<event>
11    1  0.7157190E-009  0.1663650E+03  0.7561462E-02  0.1081239E+00
         22   -1    0    0    0    0  0.00000000000E+00  0.00000000000E+00  0.74052914728E+03  0.74052914728E+03  0.00000000000E+00 0. -1.
         22   -1    0    0    0    0 -0.00000000000E+00 -0.00000000000E+00 -0.17427647124E+04  0.17427647124E+04  0.00000000000E+00 0. -1.
        -24    2    1    2    0    0 -0.21019062454E+02  0.10862626501E+03 -0.15805742924E+04  0.15864327763E+04  0.79450573910E+02 0.  0.
         25    2    1    2    0    0  0.93047827515E+02 -0.75840518883E+02 -0.10611891272E+03  0.20327169233E+03  0.12509386377E+03 0.  0.
         24    2    1    2    0    0 -0.72028765062E+02 -0.32785746130E+02  0.68445763994E+03  0.69358939106E+03  0.79504304145E+02 0.  0.
        -11    1    5    5    0    0 -0.21184355841E+02  0.17173614087E+02  0.37664480380E+03  0.37763079612E+03  0.00000000000E+00 0.  1.
         12    1    5    5    0    0 -0.50844409220E+02 -0.49959360216E+02  0.30781283614E+03  0.31595859494E+03  0.00000000000E+00 0. -1.
         11    1    3    3    0    0 -0.49291094772E+02  0.51166545029E+02 -0.72890097421E+03  0.73235528097E+03  0.00000000000E+00 0. -1.
        -12    1    3    3    0    0  0.28272032319E+02  0.57459719984E+02 -0.85167331814E+03  0.85407749535E+03  0.00000000000E+00 0.  1.
          5    1    4    4  501    0  0.95236968744E+01 -0.65511031722E+02  0.17954541950E+01  0.66355799560E+02  0.41800000000E+01 0. -1.
         -5    1    4    4    0  501  0.83524130641E+02 -0.10329487160E+02 -0.10791436692E+03  0.13691589277E+03  0.41800000000E+01 0. -1.
</event>
<event>
11    1  0.7157190E-009  0.1393029E+03  0.7561462E-02  0.1108339E+00
         22   -1    0    0    0    0  0.00000000000E+00  0.00000000000E+00  0.50138911475E+03  0.50138911475E+03  0.00000000000E+00 0.  1.
         22   -1    0    0    0    0 -0.00000000000E+00 -0.00000000000E+00 -0.32012068958E+03  0.32012068958E+03  0.00000000000E+00 0.  1.
        -24    2    1    2    0    0 -0.51082416039E+02 -0.17571448791E+02 -0.24122107934E+03  0.25980833571E+03  0.79966199998E+02 0.  0.
         25    2    1    2    0    0  0.10683264959E+03  0.26430772013E+02  0.46467603029E+02  0.17296459689E+03  0.12508282424E+03 0.  0.
         24    2    1    2    0    0 -0.55750233549E+02 -0.88593232221E+01  0.37602190149E+03  0.38873687173E+03  0.80853626365E+02 0.  0.
        -11    1    5    5    0    0  0.77272611845E+01 -0.23177602256E+01  0.22029046296E+03  0.22043813338E+03  0.00000000000E+00 0.  1.
         12    1    5    5    0    0 -0.63477494734E+02 -0.65415629965E+01  0.15573143853E+03  0.16829873835E+03  0.00000000000E+00 0. -1.
         13    1    3    3    0    0 -0.31136396846E+02  0.24057215221E+02 -0.52998304295E+02  0.66007916729E+02  0.00000000000E+00 0. -1.
        -14    1    3    3    0    0 -0.19946019193E+02 -0.41628664012E+02 -0.18822277505E+03  0.19380041898E+03  0.00000000000E+00 0.  1.
          5    1    4    4  501    0  0.20266425447E+02  0.17825173159E+01 -0.41896833082E+02  0.46762403602E+02  0.41800000000E+01 0.  1.
         -5    1    4    4    0  501  0.86566224141E+02  0.24648254697E+02  0.88364436111E+02  0.12620219329E+03  0.41800000000E+01 0.  1.
</event>
<event>
11    1  0.7157190E-009  0.1429221E+03  0.7561462E-02  0.1104339E+00
         22   -1    0    0    0    0  0.00000000000E+00  0.00000000000E+00  0.53432185535E+03  0.53432185535E+03  0.00000000000E+00 0.  1.
         22   -1    0    0    0    0 -0.00000000000E+00 -0.00000000000E+00 -0.10961280200E+04  0.10961280200E+04  0.00000000000E+00 0.  1.
        -24    2    1    2    0    0  0.16097071860E+02  0.34497489891E+02 -0.99094517242E+03  0.99490658684E+03  0.80109857492E+02 0.  0.
         25    2    1    2    0    0  0.19048808349E+02 -0.92514834366E+02 -0.34156234713E+02  0.16045298440E+03  0.12512657654E+03 0.  0.
         24    2    1    2    0    0 -0.35145880209E+02  0.58017344475E+02  0.46329524243E+03  0.47509030415E+03  0.80418096724E+02 0.  0.
        -11    1    5    5    0    0 -0.11977914059E+02  0.64543843997E+02  0.42368415667E+03  0.42873959793E+03  0.00000000000E+00 0.  1.
         12    1    5    5    0    0 -0.23167966150E+02 -0.65264995215E+01  0.39611085770E+02  0.46350706223E+02  0.00000000000E+00 0. -1.
         11    1    3    3    0    0 -0.13278516866E+02  0.49500130320E+02 -0.43995884324E+03  0.44293381634E+03  0.00000000000E+00 0. -1.
        -12    1    3    3    0    0  0.29375588725E+02 -0.15002640430E+02 -0.55098632918E+03  0.55197277050E+03  0.00000000000E+00 0.  1.
          5    1    4    4  501    0  0.68140698061E+02 -0.33195719347E+02 -0.34396119779E+02  0.83340722166E+02  0.41800000000E+01 0.  1.
         -5    1    4    4    0  501 -0.49091889712E+02 -0.59319115019E+02  0.23988506666E+00  0.77112262235E+02  0.41800000000E+01 0.  1.
</event>
<event>
11    1  0.9034548E-009  0.1571048E+03  0.7561462E-02  0.1089832E+00
         22   -1    0    0    0    0  0.00000000000E+00  0.00000000000E+00  0.62445456659E+03  0.62445456659E+03  0.00000000000E+00 0.  1.
         22   -1    0    0    0    0 -0.00000000000E+00 -0.00000000000E+00 -0.12812340707E+04  0.12812340707E+04  0.00000000000E+00 0.  1.
        -24    2    1    2    0    0 -0.43718398907E+02  0.57048112600E+02 -0.97725062901E+03  0.98324770076E+03  0.81187829080E+02 0.  0.
         25    2    1    2    0    0  0.11128086567E+03  0.10069325127E+02 -0.27027196440E+03  0.31808989072E+03  0.12509764774E+03 0.  0.
         24    2    1    2    0    0 -0.67562466763E+02 -0.67117437728E+02  0.59074308929E+03  0.60435104582E+03  0.84813629040E+02 0.  0.
        -11    1    5    5    0    0 -0.53382754233E+02 -0.19100403129E+02  0.47326509873E+03  0.47664913461E+03  0.00000000000E+00 0.  1.
         12    1    5    5    0    0 -0.14179712530E+02 -0.48017034599E+02  0.11747799056E+03  0.12770191121E+03  0.00000000000E+00 0. -1.
         11    1    3    3    0    0  0.23986360637E+02  0.14587681120E+02 -0.21711810196E+03  0.21892559497E+03  0.00000000000E+00 0. -1.
        -12    1    3    3    0    0 -0.67704759545E+02  0.42460431480E+02 -0.76013252705E+03  0.76432210579E+03  0.00000000000E+00 0.  1.
          5    1    4    4  501    0  0.54355030569E+02 -0.31740629496E+02 -0.22597184706E+03  0.23461177501E+03  0.41800000000E+01 0.  1.
         -5    1    4    4    0  501  0.56925835101E+02  0.41809954624E+02 -0.44300117338E+02  0.83478115717E+02  0.41800000000E+01 0.  1.
</event>
<event>
11    1  0.7157190E-009  0.1668906E+03  0.7561462E-02  0.1080770E+00
         22   -1    0    0    0    0  0.00000000000E+00  0.00000000000E+00  0.33294321774E+03  0.33294321774E+03  0.00000000000E+00 0.  1.
         22   -1    0    0    0    0 -0.00000000000E+00 -0.00000000000E+00 -0.60844067240E+03  0.60844067240E+03  0.00000000000E+00 0. -1.
        -24    2    1    2    0    0 -0.28791602706E+02 -0.26306900580E+02 -0.47646782341E+03  0.48478542172E+03  0.80463090664E+02 0.  0.
         25    2    1    2    0    0  0.93917460347E+02 -0.63560968463E+02 -0.42950538314E+02  0.17422057440E+03  0.12509026234E+03 0.  0.
         24    2    1    2    0    0 -0.65125857641E+02  0.89867869043E+02  0.24392090707E+03  0.28237789402E+03  0.89007049751E+02 0.  0.
        -11    1    5    5    0    0 -0.21453130432E+02  0.28943924386E+01  0.13327011188E+03  0.13501680278E+03  0.00000000000E+00 0.  1.
         12    1    5    5    0    0 -0.43672727209E+02  0.86973476604E+02  0.11065079519E+03  0.14736109123E+03  0.00000000000E+00 0. -1.
         13    1    3    3    0    0 -0.78395787303E+01  0.28661978645E+02 -0.19341777205E+03  0.19568700151E+03  0.00000000000E+00 0. -1.
        -14    1    3    3    0    0 -0.20952023975E+02 -0.54968879225E+02 -0.28305005136E+03  0.28909842021E+03  0.00000000000E+00 0.  1.
          5    1    4    4  501    0  0.79722743090E+02 -0.40172043241E+01 -0.70856602821E+02  0.10681752787E+03  0.41800000000E+01 0. -1.
         -5    1    4    4    0  501  0.14194717256E+02 -0.59543764139E+02  0.27906064507E+02  0.67403046534E+02  0.41800000000E+01 0. -1.
</event>
<event>
11    1  0.1065423E-008  0.1632119E+03  0.7561462E-02  0.1084095E+00
         22   -1    0    0    0    0  0.00000000000E+00  0.00000000000E+00  0.19725827494E+04  0.19725827494E+04  0.00000000000E+00 0. -1.
         22   -1    0    0    0    0 -0.00000000000E+00 -0.00000000000E+00 -0.39152986817E+03  0.39152986817E+03  0.00000000000E+00 0. -1.
        -24    2    1    2    0    0  0.94630429551E+02  0.25764840522E+02 -0.28619369465E+03  0.31346462019E+03  0.82063950965E+02 0.  0.
         25    2    1    2    0    0 -0.15801585023E+03 -0.39340540561E+02  0.26682286001E+02  0.20706444005E+03  0.12508817247E+03 0.  0.
         24    2    1    2    0    0  0.63385420681E+02  0.13575700039E+02  0.18405642899E+04  0.18435835573E+04  0.83195050946E+02 0.  0.
        -11    1    5    5    0    0 -0.13550356028E+02  0.89176791512E+01  0.99467592451E+02  0.10078164068E+03  0.00000000000E+00 0.  1.
         12    1    5    5    0    0  0.76935776709E+02  0.46580208875E+01  0.17410966974E+04  0.17428019166E+04  0.00000000000E+00 0. -1.
         11    1    3    3    0    0  0.96613946797E+02  0.30210168749E+02 -0.29008051797E+03  0.30723544053E+03  0.00000000000E+00 0. -1.
        -12    1    3    3    0    0 -0.19835172453E+01 -0.44453282264E+01  0.38868233199E+01  0.62291796590E+01  0.00000000000E+00 0.  1.
          5    1    4    4  501    0 -0.13777152891E+03 -0.27698367521E+02  0.70469720404E+02  0.15726298877E+03  0.41800000000E+01 0.  1.
         -5    1    4    4    0  501 -0.20244321320E+02 -0.11642173040E+02 -0.43787434403E+02  0.49801451288E+02  0.41800000000E+01 0.  1.
</event>
<event>
11    1  0.7157190E-009  0.1504812E+03  0.7561462E-02  0.1096388E+00
         22   -1    0    0    0    0  0.00000000000E+00  0.00000000000E+00  0.30869440260E+04  0.30869440260E+04  0.00000000000E+00 0.  1.
         22   -1    0    0    0    0 -0.00000000000E+00 -0.00000000000E+00 -0.39353530301E+02  0.39353530301E+02  0.00000000000E+00 0.  1.
         24    2    1    2    0    0  0.59645985524E+01 -0.79794542263E+02  0.90984686217E+02  0.14605464194E+03  0.81553662668E+02 0.  0.
         25    2    1    2    0    0 -0.36552364476E+02  0.99592873920E+02  0.61421054962E+03  0.63573240036E+03  0.12508504996E+03 0.  0.
        -24    2    1    2    0    0  0.30587765924E+02 -0.19798331657E+02  0.23423952598E+04  0.23445105140E+04  0.92662891544E+02 0.  0.
        -11    1    3    3    0    0  0.12917403935E+02 -0.95857403132E+02  0.78153174506E+02  0.12435199936E+03  0.00000000000E+00 0.  1.
         12    1    3    3    0    0 -0.69528053826E+01  0.16062860869E+02  0.12831511711E+02  0.21702642576E+02  0.00000000000E+00 0. -1.
         13    1    5    5    0    0 -0.20531726267E+02 -0.33949172141E+02  0.60130180913E+03  0.60260929609E+03  0.00000000000E+00 0. -1.
        -14    1    5    5    0    0  0.51119492191E+02  0.14150840484E+02  0.17410934507E+04  0.17419012179E+04  0.00000000000E+00 0.  1.
          5    1    4    4  501    0 -0.62768863777E+02  0.29531187732E+02  0.44875070475E+03  0.45409986646E+03  0.41800000000E+01 0.  1.
         -5    1    4    4    0  501  0.26216499301E+02  0.70061686187E+02  0.16545984487E+03  0.18163253390E+03  0.41800000000E+01 0.  1.
</event>
<event>
11    1  0.7157190E-009  0.1517718E+03  0.7561462E-02  0.1095082E+00
         22   -1    0    0    0    0  0.00000000000E+00  0.00000000000E+00  0.76736425792E+03  0.76736425792E+03  0.00000000000E+00 0. -1.
         22   -1    0    0    0    0 -0.00000000000E+00 -0.00000000000E+00 -0.17659081589E+03  0.17659081589E+03  0.00000000000E+00 0.  1.
         24    2    1    2    0    0 -0.80024704585E+02  0.41854456369E+02 -0.11309477539E+03  0.16526012902E+03  0.79779277773E+02 0.  0.
         25    2    1    2    0    0  0.65506871651E+02 -0.59811368702E+01  0.11298473988E+03  0.18094260344E+03  0.12509096715E+03 0.  0.
        -24    2    1    2    0    0  0.14517832934E+02 -0.35873319499E+02  0.59088347754E+03  0.59775234135E+03  0.81651179021E+02 0.  0.
        -13    1    3    3    0    0 -0.56780323089E+02 -0.34135995344E+01 -0.95984106013E+02  0.11157332279E+03  0.00000000000E+00 0.  1.
         14    1    3    3    0    0 -0.23244381495E+02  0.45268055904E+02 -0.17110669373E+02  0.53686806226E+02  0.00000000000E+00 0. -1.
         11    1    5    5    0    0  0.47508936965E+02 -0.31611779734E+02  0.38040483167E+03  0.38466120114E+03  0.00000000000E+00 0. -1.
        -12    1    5    5    0    0 -0.32991104031E+02 -0.42615397649E+01  0.21047864587E+03  0.21309114020E+03  0.00000000000E+00 0.  1.
          5    1    4    4  501    0  0.52765061716E+02 -0.28439445665E+02 -0.48095831072E+01  0.60279003785E+02  0.41800000000E+01 0.  1.
         -5    1    4    4    0  501  0.12741809935E+02  0.22458308795E+02  0.11779432299E+03  0.12066359966E+03  0.41800000000E+01 0.  1.
</event>
<event>
11    1  0.7157190E-009  0.1507743E+03  0.7561462E-02  0.1096090E+00
         22   -1    0    0    0    0  0.00000000000E+00  0.00000000000E+00  0.20455712039E+04  0.20455712039E+04  0.00000000000E+00 0. -1.
         22   -1    0    0    0    0 -0.00000000000E+00 -0.00000000000E+00 -0.27217974814E+04  0.27217974814E+04  0.00000000000E+00 0.  1.
         24    2    1    2    0    0 -0.36686978054E+02  0.82173391420E+02 -0.24949266502E+04  0.24978654233E+04  0.81081949789E+02 0.  0.
         25    2    1    2    0    0  0.36337664822E+02  0.70015179760E+01 -0.20460105416E+03  0.24264658437E+03  0.12508527653E+03 0.  0.
        -24    2    1    2    0    0  0.34931323233E+00 -0.89174909396E+02  0.20233014269E+04  0.20268566777E+04  0.80293471295E+02 0.  0.
        -13    1    3    3    0    0 -0.17916804203E+02  0.52392573881E+01 -0.13815213462E+04  0.13816474557E+04  0.00000000000E+00 0.  1.
         14    1    3    3    0    0 -0.18770173851E+02  0.76934134032E+02 -0.11134053040E+04  0.11162179676E+04  0.00000000000E+00 0. -1.
         13    1    5    5    0    0 -0.32466182986E+02 -0.61965153182E+02  0.15692592087E+04  0.15708176843E+04  0.00000000000E+00 0. -1.
        -14    1    5    5    0    0  0.32815496218E+02 -0.27209756214E+02  0.45404221818E+03  0.45603899342E+03  0.00000000000E+00 0.  1.
          5    1    4    4  501    0 -0.12067789871E+02 -0.52070802745E+02 -0.75736025860E+02  0.92792338390E+02  0.41800000000E+01 0. -1.
         -5    1    4    4    0  501  0.48405454693E+02  0.59072320721E+02 -0.12886502830E+03  0.14985424598E+03  0.41800000000E+01 0. -1.
</event>
<event>
11    1  0.7157190E-009  0.1678556E+03  0.7561462E-02  0.1079913E+00
         22   -1    0    0    0    0  0.00000000000E+00  0.00000000000E+00  0.47757001691E+03  0.47757001691E+03  0.00000000000E+00 0.  1.
         22   -1    0    0    0    0 -0.00000000000E+00 -0.00000000000E+00 -0.34007200133E+03  0.34007200133E+03  0.00000000000E+00 0. -1.
        -24    2    1    2    0    0  0.11840191242E+03  0.33765201252E+02 -0.24726311992E+03  0.28771917445E+03  0.80524351531E+02 0.  0.
         25    2    1    2    0    0 -0.71751892494E+02  0.48549529574E+01  0.13066103207E+02  0.14488225918E+03  0.12509293077E+03 0.  0.
         24    2    1    2    0    0 -0.46650019927E+02 -0.38620154209E+02  0.37169503230E+03  0.38504058461E+03  0.80195474261E+02 0.  0.
        -13    1    5    5    0    0 -0.53346114499E+01  0.17315765022E+02  0.18378508114E+03  0.18467606734E+03  0.00000000000E+00 0.  1.
         14    1    5    5    0    0 -0.41315408477E+02 -0.55935919231E+02  0.18790995116E+03  0.20036451727E+03  0.00000000000E+00 0. -1.
         11    1    3    3    0    0  0.10189848389E+03  0.41946462063E+02 -0.13646803707E+03  0.17540334045E+03  0.00000000000E+00 0. -1.
        -12    1    3    3    0    0  0.16503428527E+02 -0.81812608107E+01 -0.11079508286E+03  0.11231583400E+03  0.00000000000E+00 0.  1.
          5    1    4    4  501    0 -0.66057477198E+02  0.30352670197E+01  0.64775177350E+02  0.92661206232E+02  0.41800000000E+01 0. -1.
         -5    1    4    4    0  501 -0.56944152953E+01  0.18196859376E+01 -0.51709074143E+02  0.52221052950E+02  0.41800000000E+01 0. -1.
</event>
<event>
11    1  0.7157190E-009  0.1538233E+03  0.7561462E-02  0.1093035E+00
         22   -1    0    0    0    0  0.00000000000E+00  0.00000000000E+00  0.19494304162E+03  0.19494304162E+03  0.00000000000E+00 0. -1.
         22   -1    0    0    0    0 -0.00000000000E+00 -0.00000000000E+00 -0.51347109091E+03  0.51347109091E+03  0.00000000000E+00 0. -1.
        -24    2    1    2    0    0 -0.86730146469E+02  0.43418289688E+02 -0.36356528355E+03  0.38450040684E+03  0.79079588171E+02 0.  0.
         25    2    1    2    0    0  0.35715791547E+02 -0.59032969893E+02 -0.81385106080E+02  0.16441358450E+03  0.12509109471E+03 0.  0.
         24    2    1    2    0    0  0.51014354922E+02  0.15614680205E+02  0.12642234035E+03  0.15950014120E+03  0.81310542117E+02 0.  0.
        -11    1    5    5    0    0  0.37598824845E+02 -0.27744709405E+02  0.38464445473E+02  0.60522343768E+02  0.00000000000E+00 0.  1.
         12    1    5    5    0    0  0.13415530078E+02  0.43359389610E+02  0.87957894872E+02  0.98977797435E+02  0.00000000000E+00 0. -1.
         11    1    3    3    0    0 -0.20790784234E+02  0.48914436004E+02 -0.22141250930E+03  0.22770238917E+03  0.00000000000E+00 0. -1.
        -12    1    3    3    0    0 -0.65939362235E+02 -0.54961463160E+01 -0.14215277425E+03  0.15679801767E+03  0.00000000000E+00 0.  1.
          5    1    4    4  501    0  0.58569913784E+02 -0.84903100360E+02 -0.78182670004E+02  0.12949507149E+03  0.41800000000E+01 0. -1.
         -5    1    4    4    0  501 -0.22854122237E+02  0.25870130467E+02 -0.32024360766E+01  0.34918513005E+02  0.41800000000E+01 0. -1.
</event>
<event>
11    1  0.7157190E-009  0.1496418E+03  0.7561462E-02  0.1097245E+00
         22   -1    0    0    0    0  0.00000000000E+00  0.00000000000E+00  0.21712734820E+03  0.21712734820E+03  0.00000000000E+00 0.  1.
         22   -1    0    0    0    0 -0.00000000000E+00 -0.00000000000E+00 -0.12762166973E+04  0.12762166973E+04  0.00000000000E+00 0.  1.
         24    2    1    2    0    0 -0.28780461697E+02 -0.26609529369E+02 -0.11319264130E+04  0.11353527480E+04  0.78943498406E+02 0.  0.
         25    2    1    2    0    0 -0.15944145492E+01 -0.54836210951E+02 -0.84920846705E+02  0.16083776654E+03  0.12509070609E+03 0.  0.
        -24    2    1    2    0    0  0.30374876246E+02  0.81445740320E+02  0.15775791055E+03  0.19715353101E+03  0.80161803401E+02 0.  0.
        -13    1    3    3    0    0 -0.14496004933E+02 -0.24888843105E+02 -0.10995059779E+04  0.10998831684E+04  0.00000000000E+00 0.  1.
         14    1    3    3    0    0 -0.14284456764E+02 -0.17206862644E+01 -0.32420435076E+02  0.35469579597E+02  0.00000000000E+00 0. -1.
         11    1    5    5    0    0  0.48334419581E+02  0.57350475868E+02  0.63669855540E+02  0.98382639236E+02  0.00000000000E+00 0. -1.
        -12    1    5    5    0    0 -0.17959543335E+02  0.24095264452E+02  0.94088055013E+02  0.98770891775E+02  0.00000000000E+00 0.  1.
          5    1    4    4  501    0  0.20515890524E+02 -0.13329007849E+02  0.28612980760E+02  0.37877952455E+02  0.41800000000E+01 0. -1.
         -5    1    4    4    0  501 -0.22110305073E+02 -0.41507203103E+02 -0.11353382746E+03  0.12295981408E+03  0.41800000000E+01 0. -1.
</event>
<event>
11    1  0.7157190E-009  0.1353142E+03  0.7561462E-02  0.1112907E+00
         22   -1    0    0    0    0  0.00000000000E+00  0.00000000000E+00  0.15601174647E+04  0.15601174647E+04  0.00000000000E+00 0. -1.
         22   -1    0    0    0    0 -0.00000000000E+00 -0.00000000000E+00 -0.12910413268E+04  0.12910413268E+04  0.00000000000E+00 0. -1.
         24    2    1    2    0    0  0.51189505533E+02 -0.54003104716E+01 -0.12742358366E+04  0.12778493003E+04  0.81069959581E+02 0.  0.
         25    2    1    2    0    0 -0.76702307561E+02  0.17924897118E+02  0.39250765711E+03  0.41942224710E+03  0.12509282375E+03 0.  0.
        -24    2    1    2    0    0  0.25512802028E+02 -0.12524586646E+02  0.11508043173E+04  0.11538872440E+04  0.79356328085E+02 0.  0.
        -13    1    3    3    0    0  0.10903749797E+02  0.35779635944E+02 -0.59519889321E+03  0.59637303476E+03  0.00000000000E+00 0.  1.
         14    1    3    3    0    0  0.40285755736E+02 -0.41179946416E+02 -0.67903694334E+03  0.68147626556E+03  0.00000000000E+00 0. -1.
         13    1    5    5    0    0 -0.10492116653E+02 -0.38484499718E+02  0.55573628225E+03  0.55716600457E+03  0.00000000000E+00 0. -1.
        -14    1    5    5    0    0  0.36004918681E+02  0.25959913072E+02  0.59506803506E+03  0.59672123945E+03  0.00000000000E+00 0.  1.
          5    1    4    4  501    0 -0.20945234514E+02  0.61061416531E+01  0.34326942808E+03  0.34398744231E+03  0.41800000000E+01 0. -1.
         -5    1    4    4    0  501 -0.55757073047E+02  0.11818755465E+02  0.49238229028E+02  0.75434804788E+02  0.41800000000E+01 0. -1.
</event>
<event>
11    1  0.7157190E-009  0.1345691E+03  0.7561462E-02  0.1113779E+00
         22   -1    0    0    0    0  0.00000000000E+00  0.00000000000E+00  0.48530860224E+03  0.48530860224E+03  0.00000000000E+00 0. -1.
         22   -1    0    0    0    0 -0.00000000000E+00 -0.00000000000E+00 -0.14632731533E+03  0.14632731533E+03  0.00000000000E+00 0. -1.
         24    2    1    2    0    0 -0.45705251962E+02 -0.17034768270E+02 -0.91522967434E+02  0.13073887511E+03  0.79605568335E+02 0.  0.
         25    2    1    2    0    0  0.51978435635E+02  0.21952023254E+02  0.12799951830E+03  0.18765541287E+03  0.12508808175E+03 0.  0.
        -24    2    1    2    0    0 -0.62731836736E+01 -0.49172549843E+01  0.30250473604E+03  0.31324162960E+03  0.80917680126E+02 0.  0.
        -11    1    3    3    0    0 -0.27342659975E+02 -0.68388328234E+01  0.77800139867E+01  0.29239003173E+02  0.00000000000E+00 0.  1.
         12    1    3    3    0    0 -0.18362591987E+02 -0.10195935446E+02 -0.99302981421E+02  0.10149987194E+03  0.00000000000E+00 0. -1.
         13    1    5    5    0    0  0.31752028269E+02 -0.24155567867E+01  0.22083188549E+03  0.22311599643E+03  0.00000000000E+00 0. -1.
        -14    1    5    5    0    0 -0.38025211942E+02 -0.25016981976E+01  0.81672850552E+02  0.90125633171E+02  0.00000000000E+00 0.  1.
          5    1    4    4  501    0 -0.22885665298E+02  0.23377419734E+02 -0.65429967893E+01  0.33623513150E+02  0.41800000000E+01 0. -1.
         -5    1    4    4    0  501  0.74864100934E+02 -0.14253964806E+01  0.13454251509E+03  0.15403189972E+03  0.41800000000E+01 0. -1.
</event>
<event>
11    1  0.7157190E-009  0.1356902E+03  0.7561462E-02  0.1112469E+00
         22   -1    0    0    0    0  0.00000000000E+00  0.00000000000E+00  0.14880034107E+03  0.14880034107E+03  0.00000000000E+00 0.  1.
         22   -1    0    0    0    0 -0.00000000000E+00 -0.00000000000E+00 -0.64195632269E+03  0.64195632269E+03  0.00000000000E+00 0.  1.
         24    2    1    2    0    0 -0.20489949650E+02  0.48847026251E+02 -0.55090428813E+03  0.55956107370E+03  0.82505699854E+02 0.  0.
         25    2    1    2    0    0 -0.12355711942E+02 -0.53543965537E+02  0.26462538010E+02  0.13916610878E+03  0.12508924834E+03 0.  0.
        -24    2    1    2    0    0  0.32845661592E+02  0.46969392862E+01  0.31285768501E+02  0.92029481290E+02  0.79935770415E+02 0.  0.
        -13    1    3    3    0    0 -0.65979084741E+01  0.68318164233E+02 -0.47620210050E+03  0.48112300348E+03  0.00000000000E+00 0.  1.
         14    1    3    3    0    0 -0.13892041176E+02 -0.19471137982E+02 -0.74702187629E+02  0.78438070214E+02  0.00000000000E+00 0. -1.
         13    1    5    5    0    0  0.20065365640E+02  0.83278230697E+01 -0.25621326334E+02  0.33592021351E+02  0.00000000000E+00 0. -1.
        -14    1    5    5    0    0  0.12780295952E+02 -0.36308837835E+01  0.56907094834E+02  0.58437459939E+02  0.00000000000E+00 0.  1.
          5    1    4    4  501    0  0.88457065827E+01 -0.42127150553E+02  0.74001585395E+02  0.85712603389E+02  0.41800000000E+01 0.  1.
         -5    1    4    4    0  501 -0.21201418525E+02 -0.11416814984E+02 -0.47539047385E+02  0.53453505387E+02  0.41800000000E+01 0.  1.
</event>
<event>
11    1  0.7157190E-009  0.1697352E+03  0.7561462E-02  0.1078262E+00
         22   -1    0    0    0    0  0.00000000000E+00  0.00000000000E+00  0.68927448482E+03  0.68927448482E+03  0.00000000000E+00 0. -1.
         22   -1    0    0    0    0 -0.00000000000E+00 -0.00000000000E+00 -0.32161649267E+03  0.32161649267E+03  0.00000000000E+00 0.  1.
         24    2    1    2    0    0  0.16763726802E+02  0.27082849187E+02 -0.25906526779E+03  0.27260674516E+03  0.78645541972E+02 0.  0.
         25    2    1    2    0    0 -0.21816710256E+02  0.91989461882E+02  0.86642735556E+02  0.17914899627E+03  0.12509743921E+03 0.  0.
        -24    2    1    2    0    0  0.50529834540E+01 -0.11907231107E+03  0.54008052439E+03  0.55913523606E+03  0.82106586056E+02 0.  0.
        -11    1    3    3    0    0  0.30307137489E+02  0.46709176155E+02 -0.13102741590E+03  0.14236731871E+03  0.00000000000E+00 0.  1.
         12    1    3    3    0    0 -0.13543410687E+02 -0.19626326968E+02 -0.12803785189E+03  0.13023942645E+03  0.00000000000E+00 0. -1.
         11    1    5    5    0    0  0.23165392160E+02 -0.57290053625E+02  0.40273386633E+03  0.40744736191E+03  0.00000000000E+00 0. -1.
        -12    1    5    5    0    0 -0.18112408706E+02 -0.61782257444E+02  0.13734665806E+03  0.15168787415E+03  0.00000000000E+00 0.  1.
          5    1    4    4  501    0 -0.38546993629E+02  0.57483947375E+01 -0.17425140220E+02  0.42895485445E+02  0.41800000000E+01 0.  1.
         -5    1    4    4    0  501  0.16730283373E+02  0.86241067144E+02  0.10406787578E+03  0.13625351083E+03  0.41800000000E+01 0.  1.
</event>
<event>
11    1  0.7157190E-009  0.1979090E+03  0.7561462E-02  0.1056012E+00
         22   -1    0    0    0    0  0.00000000000E+00  0.00000000000E+00  0.35879308533E+03  0.35879308533E+03  0.00000000000E+00 0. -1.
         22   -1    0    0    0    0 -0.00000000000E+00 -0.00000000000E+00 -0.46248143057E+03  0.46248143057E+03  0.00000000000E+00 0. -1.
         24    2    1    2    0    0 -0.90008784170E+02 -0.76990902321E+02 -0.23964170344E+03  0.27844297563E+03  0.77930509965E+02 0.  0.
         25    2    1    2    0    0  0.18035604723E+03  0.17989509546E+03 -0.59891971799E+02  0.29004334122E+03  0.12509013692E+03 0.  0.
        -24    2    1    2    0    0 -0.90347263061E+02 -0.10290419314E+03  0.19584533001E+03  0.25278819905E+03  0.82429238648E+02 0.  0.
        -13    1    3    3    0    0 -0.38780636613E+02 -0.39922553380E+01 -0.25797288236E+02  0.46748004868E+02  0.00000000000E+00 0.  1.
         14    1    3    3    0    0 -0.51228147556E+02 -0.72998646983E+02 -0.21384441520E+03  0.23169497076E+03  0.00000000000E+00 0. -1.
         11    1    5    5    0    0 -0.99454842882E+02 -0.10999285170E+03  0.18205506767E+03  0.23480575134E+03  0.00000000000E+00 0. -1.
        -12    1    5    5    0    0  0.91075798211E+01  0.70886585563E+01  0.13790262340E+02  0.17982447713E+02  0.00000000000E+00 0.  1.
          5    1    4    4  501    0  0.10753105860E+03  0.18110867137E+03 -0.40080483497E+02  0.21444625659E+03  0.41800000000E+01 0. -1.
         -5    1    4    4    0  501  0.72824988629E+02 -0.12135759060E+01 -0.19811488303E+02  0.75597084626E+02  0.41800000000E+01 0. -1.
</event>
<event>
11    1  0.7157190E-009  0.1440381E+03  0.7561462E-02  0.1103131E+00
         22   -1    0    0    0    0  0.00000000000E+00  0.00000000000E+00  0.11688109597E+03  0.11688109597E+03  0.00000000000E+00 0. -1.
         22   -1    0    0    0    0 -0.00000000000E+00 -0.00000000000E+00 -0.36067887910E+03  0.36067887910E+03  0.00000000000E+00 0. -1.
         24    2    1    2    0    0  0.40412950787E+02  0.40681191777E+02 -0.19218405669E+03  0.21578993814E+03  0.79639310647E+02 0.  0.
         25    2    1    2    0    0 -0.61517257483E+02  0.34939403669E+02 -0.60053215069E+02  0.15575757984E+03  0.12509556403E+03 0.  0.
        -24    2    1    2    0    0  0.21104306696E+02 -0.75620595446E+02  0.84394886285E+01  0.10601245710E+03  0.70735775067E+02 0.  0.
        -11    1    3    3    0    0 -0.15518477318E+02  0.12105249064E+02 -0.80951743835E+01  0.21281260335E+02  0.00000000000E+00 0.  1.
         12    1    3    3    0    0  0.55931428105E+02  0.28575942713E+02 -0.18408888231E+03  0.19450867780E+03  0.00000000000E+00 0. -1.
         11    1    5    5    0    0  0.46173522216E+01 -0.36224811142E+01  0.28803222264E+02  0.29395032297E+02  0.00000000000E+00 0. -1.
        -12    1    5    5    0    0  0.16486954474E+02 -0.71998114332E+02 -0.20363733635E+02  0.76617424798E+02  0.00000000000E+00 0.  1.
          5    1    4    4  501    0 -0.79875851875E+02  0.50249874489E+02 -0.80434938423E+02  0.12406632629E+03  0.41800000000E+01 0. -1.
         -5    1    4    4    0  501  0.18358594393E+02 -0.15310470821E+02  0.20381723354E+02  0.31691253552E+02  0.41800000000E+01 0. -1.
</event>
<event>
11    1  0.7157190E-009  0.1974164E+03  0.7561462E-02  0.1056366E+00
         22   -1    0    0    0    0  0.00000000000E+00  0.00000000000E+00  0.11818637978E+03  0.11818637978E+03  0.00000000000E+00 0. -1.
         22   -1    0    0    0    0 -0.00000000000E+00 -0.00000000000E+00 -0.25892169598E+04  0.25892169598E+04  0.00000000000E+00 0.  1.
         24    2    1    2    0    0  0.12653141264E+03 -0.41381867520E+02 -0.14854660606E+04  0.14935344206E+04  0.79454333648E+02 0.  0.
         25    2    1    2    0    0 -0.21910567483E+03  0.80095722645E+02 -0.10411690511E+04  0.10742920943E+04  0.12509152400E+03 0.  0.
        -24    2    1    2    0    0  0.92574262197E+02 -0.38713855125E+02  0.55604531676E+02  0.13957682462E+03  0.79505153474E+02 0.  0.
        -13    1    3    3    0    0  0.25123769381E+02  0.11412399064E+02 -0.61149436035E+03  0.61211665504E+03  0.00000000000E+00 0.  1.
         14    1    3    3    0    0  0.10140764326E+03 -0.52794266584E+02 -0.87397170022E+03  0.88141776558E+03  0.00000000000E+00 0. -1.
         13    1    5    5    0    0  0.10121871757E+03 -0.36798485126E+02  0.65692694958E+02  0.12615422095E+03  0.00000000000E+00 0. -1.
        -14    1    5    5    0    0 -0.86444553694E+01 -0.19153699989E+01 -0.10088163282E+02  0.13422603670E+02  0.00000000000E+00 0.  1.
          5    1    4    4  501    0 -0.15247314181E+03  0.25540634755E+02 -0.85823915779E+03  0.87206210063E+03  0.41800000000E+01 0.  1.
         -5    1    4    4    0  501 -0.66632533028E+02  0.54555087890E+02 -0.18292989331E+03  0.20222999366E+03  0.41800000000E+01 0.  1.
</event>
<event>
11    1  0.7157190E-009  0.2049737E+03  0.7561462E-02  0.1051061E+00
         22   -1    0    0    0    0  0.00000000000E+00  0.00000000000E+00  0.52810182707E+03  0.52810182707E+03  0.00000000000E+00 0.  1.
         22   -1    0    0    0    0 -0.00000000000E+00 -0.00000000000E+00 -0.19901967989E+04  0.19901967989E+04  0.00000000000E+00 0. -1.
         24    2    1    2    0    0 -0.15028912614E+03 -0.62521065283E+02 -0.19148913929E+04  0.19233757394E+04  0.77906889217E+02 0.  0.
         25    2    1    2    0    0  0.13198069798E+03  0.70628171469E+02  0.77271958835E+02  0.20982192030E+03  0.12508812643E+03 0.  0.
        -24    2    1    2    0    0  0.18308428157E+02 -0.81071061858E+01  0.37552446225E+03  0.38510096622E+03  0.82965105459E+02 0.  0.
        -11    1    3    3    0    0 -0.39893416195E+02 -0.24974765677E+02 -0.24905673182E+03  0.25346494677E+03  0.00000000000E+00 0.  1.
         12    1    3    3    0    0 -0.11039570994E+03 -0.37546299607E+02 -0.16658346611E+04  0.16699107926E+04  0.00000000000E+00 0. -1.
         13    1    5    5    0    0  0.35834412227E+02 -0.40507483947E+01  0.67309976135E+02  0.76361944380E+02  0.00000000000E+00 0. -1.
        -14    1    5    5    0    0 -0.17525984070E+02 -0.40563577911E+01  0.30821448611E+03  0.30873902184E+03  0.00000000000E+00 0.  1.
          5    1    4    4  501    0  0.24156450519E+02  0.70683629733E+02  0.68707904716E+02  0.10157735075E+03  0.41800000000E+01 0. -1.
         -5    1    4    4    0  501  0.10782424746E+03 -0.55458263837E-01  0.85640541187E+01  0.10824456956E+03  0.41800000000E+01 0. -1.
</event>
<event>
11    1  0.7157190E-009  0.1720447E+03  0.7561462E-02  0.1076266E+00
         22   -1    0    0    0    0  0.00000000000E+00  0.00000000000E+00  0.25838883452E+04  0.25838883452E+04  0.00000000000E+00 0.  1.
         22   -1    0    0    0    0 -0.00000000000E+00 -0.00000000000E+00 -0.49050081512E+03  0.49050081512E+03  0.00000000000E+00 0. -1.
         24    2    1    2    0    0 -0.31448538246E+01  0.93732179271E+02 -0.45107567517E+03  0.46775147276E+03  0.80787152458E+02 0.  0.
         25    2    1    2    0    0  0.12070793569E+03 -0.95575000161E+02  0.31277391820E+03  0.37037839758E+03  0.12509055559E+03 0.  0.
        -24    2    1    2    0    0 -0.11756308186E+03  0.18428208902E+01  0.22316892871E+04  0.22362592900E+04  0.81203841461E+02 0.  0.
        -11    1    3    3    0    0  0.91584371100E+01 -0.13206232964E+02 -0.63987283917E+02  0.65974647119E+02  0.00000000000E+00 0.  1.
         12    1    3    3    0    0 -0.12303290935E+02  0.10693841223E+03 -0.38708839125E+03  0.40177682564E+03  0.00000000000E+00 0. -1.
         11    1    5    5    0    0  0.51164528734E+01  0.14154584999E+02  0.48012973413E+03  0.48036558158E+03  0.00000000000E+00 0. -1.
        -12    1    5    5    0    0 -0.12267953474E+03 -0.12311764109E+02  0.17515595530E+04  0.17558937084E+04  0.00000000000E+00 0.  1.
          5    1    4    4  501    0  0.12662935255E+03 -0.74210697133E+02  0.31516620433E+03  0.34769157201E+03  0.41800000000E+01 0. -1.
         -5    1    4    4    0  501 -0.59214168597E+01 -0.21364303028E+02 -0.23922861337E+01  0.22686825570E+02  0.41800000000E+01 0. -1.
</event>
<event>
11    1  0.7157190E-009  0.1535263E+03  0.7561462E-02  0.1093329E+00
         22   -1    0    0    0    0  0.00000000000E+00  0.00000000000E+00  0.99317791992E+03  0.99317791992E+03  0.00000000000E+00 0.  1.
         22   -1    0    0    0    0 -0.00000000000E+00 -0.00000000000E+00 -0.11839280746E+03  0.11839280746E+03  0.00000000000E+00 0.  1.
         24    2    1    2    0    0  0.46883742519E+01  0.99670702062E+02 -0.12707036205E+02  0.12888321314E+03  0.80580296329E+02 0.  0.
         25    2    1    2    0    0  0.30100605862E+02 -0.66662791282E+02  0.72552742546E+02  0.16205831823E+03  0.12509605846E+03 0.  0.
        -24    2    1    2    0    0 -0.34788980114E+02 -0.33007910780E+02  0.81493940611E+03  0.82062919602E+03  0.83703323786E+02 0.  0.
        -11    1    3    3    0    0 -0.31770103666E+02  0.70456662707E+02 -0.23791186696E+02  0.80867183525E+02  0.00000000000E+00 0.  1.
         12    1    3    3    0    0  0.36458477918E+02  0.29214039354E+02  0.11084150490E+02  0.48016029611E+02  0.00000000000E+00 0. -1.
         13    1    5    5    0    0  0.15103252245E+02  0.18187923589E+02  0.14899502567E+03  0.15085896217E+03  0.00000000000E+00 0. -1.
        -14    1    5    5    0    0 -0.49892232359E+02 -0.51195834369E+02  0.66594438045E+03  0.66977023385E+03  0.00000000000E+00 0.  1.
          5    1    4    4  501    0  0.27994150382E+02  0.25597117235E+02  0.56674069107E+02  0.68325012810E+02  0.41800000000E+01 0.  1.
         -5    1    4    4    0  501  0.21064554799E+01 -0.92259908517E+02  0.15878673439E+02  0.93733305417E+02  0.41800000000E+01 0.  1.
</event>
<event>
11    1  0.7157190E-009  0.1417413E+03  0.7561462E-02  0.1105629E+00
         22   -1    0    0    0    0  0.00000000000E+00  0.00000000000E+00  0.59514200751E+03  0.59514200751E+03  0.00000000000E+00 0.  1.
         22   -1    0    0    0    0 -0.00000000000E+00 -0.00000000000E+00 -0.12474698679E+04  0.12474698679E+04  0.00000000000E+00 0. -1.
        -24    2    1    2    0    0 -0.32921666093E+02 -0.33383112826E+02 -0.11797889969E+04  0.11834805880E+04  0.80783393100E+02 0.  0.
         25    2    1    2    0    0 -0.26777930516E+02 -0.39835289859E+01  0.74318123770E+01  0.12820049760E+03  0.12508880719E+03 0.  0.
         24    2    1    2    0    0  0.59699596608E+02  0.37366641812E+02  0.52002932417E+03  0.53093078979E+03  0.80602095530E+02 0.  0.
        -13    1    5    5    0    0  0.24364390115E+02  0.48962530881E+02  0.43086048883E+03  0.43431752644E+03  0.00000000000E+00 0.  1.
         14    1    5    5    0    0  0.35335206494E+02 -0.11595889069E+02  0.89168835331E+02  0.96613263352E+02  0.00000000000E+00 0. -1.
         13    1    3    3    0    0 -0.45014582431E+02 -0.35603472875E+02 -0.11474308342E+04  0.11488652833E+04  0.00000000000E+00 0. -1.
        -14    1    3    3    0    0  0.12092916338E+02  0.22203600497E+01 -0.32358162672E+02  0.34615304647E+02  0.00000000000E+00 0.  1.
          5    1    4    4  501    0  0.23257876132E+02 -0.48557660072E+02  0.23922852781E+02  0.59063952112E+02  0.41800000000E+01 0.  1.
         -5    1    4    4    0  501 -0.50035806648E+02  0.44574131086E+02 -0.16491040404E+02  0.69136545492E+02  0.41800000000E+01 0.  1.
</event>
<event>
11    1  0.7157190E-009  0.1592651E+03  0.7561462E-02  0.1087770E+00
         22   -1    0    0    0    0  0.00000000000E+00  0.00000000000E+00  0.20925336760E+03  0.20925336760E+03  0.00000000000E+00 0.  1.
         22   -1    0    0    0    0 -0.00000000000E+00 -0.00000000000E+00 -0.42289589890E+03  0.42289589890E+03  0.00000000000E+00 0.  1.
         24    2    1    2    0    0 -0.19629251124E+02 -0.23253141433E+02 -0.26076106643E+03  0.27126809185E+03  0.68293687895E+02 0.  0.
         25    2    1    2    0    0  0.71126076762E+01 -0.79411250025E+02 -0.83314611559E+02  0.17013193170E+03  0.12508722504E+03 0.  0.
        -24    2    1    2    0    0  0.12516643448E+02  0.10266439146E+03  0.13043314669E+03  0.19074924294E+03  0.93144104969E+02 0.  0.
        -13    1    3    3    0    0 -0.44826841509E+02 -0.19974917827E+02 -0.18263451006E+03  0.18911321299E+03  0.00000000000E+00 0.  1.
         14    1    3    3    0    0  0.25197590385E+02 -0.32782236067E+01 -0.78126556367E+02  0.82154878863E+02  0.00000000000E+00 0. -1.
         11    1    5    5    0    0 -0.33902567574E+02  0.10037306507E+02  0.37962446879E+02  0.51877538328E+02  0.00000000000E+00 0. -1.
        -12    1    5    5    0    0  0.46419211021E+02  0.92627084952E+02  0.92470699815E+02  0.13887170462E+03  0.00000000000E+00 0.  1.
          5    1    4    4  501    0 -0.42866332175E+02 -0.21422154619E+02  0.10234037534E+02  0.49179661110E+02  0.41800000000E+01 0. -1.
         -5    1    4    4    0  501  0.49978939851E+02 -0.57989095406E+02 -0.93548649093E+02  0.12095227059E+03  0.41800000000E+01 0. -1.
</event>
<event>
11    1  0.7157190E-009  0.1717585E+03  0.7561462E-02  0.1076511E+00
         22   -1    0    0    0    0  0.00000000000E+00  0.00000000000E+00  0.22174723837E+03  0.22174723837E+03  0.00000000000E+00 0.  1.
         22   -1    0    0    0    0 -0.00000000000E+00 -0.00000000000E+00 -0.10862273302E+04  0.10862273302E+04  0.00000000000E+00 0. -1.
         24    2    1    2    0    0 -0.52407394041E+02 -0.55477011786E+01 -0.74927371036E+03  0.75576035922E+03  0.83578200504E+02 0.  0.
         25    2    1    2    0    0  0.16178255231E+03  0.36280760336E+02 -0.27238964395E+03  0.34254041743E+03  0.12509169293E+03 0.  0.
        -24    2    1    2    0    0 -0.10937515826E+03 -0.30733059158E+02  0.15718326247E+03  0.20967379193E+03  0.79681082133E+02 0.  0.
        -13    1    3    3    0    0 -0.37682664023E+02  0.39961873075E+01 -0.11184236736E+03  0.11808754303E+03  0.00000000000E+00 0.  1.
         14    1    3    3    0    0 -0.14724730018E+02 -0.95438884861E+01 -0.63743134299E+03  0.63767281619E+03  0.00000000000E+00 0. -1.
         11    1    5    5    0    0 -0.11861061285E+02  0.23952227560E+02  0.35348534753E+02  0.44316056786E+02  0.00000000000E+00 0. -1.
        -12    1    5    5    0    0 -0.97514096979E+02 -0.54685286718E+02  0.12183472772E+03  0.16535773514E+03  0.00000000000E+00 0.  1.
          5    1    4    4  501    0  0.11002008223E+03 -0.37215379912E+02 -0.13298517954E+03  0.17661238171E+03  0.41800000000E+01 0. -1.
         -5    1    4    4    0  501  0.51762470073E+02  0.73496140248E+02 -0.13940446441E+03  0.16592803572E+03  0.41800000000E+01 0. -1.
</event>
<event>
11    1  0.7157190E-009  0.1421382E+03  0.7561462E-02  0.1105194E+00
         22   -1    0    0    0    0  0.00000000000E+00  0.00000000000E+00  0.55387652432E+02  0.55387652432E+02  0.00000000000E+00 0. -1.
         22   -1    0    0    0    0 -0.00000000000E+00 -0.00000000000E+00 -0.13514681979E+04  0.13514681979E+04  0.00000000000E+00 0. -1.
         24    2    1    2    0    0 -0.35547560838E+02 -0.24663805311E+02 -0.70295421777E+03  0.70864320973E+03  0.78476965051E+02 0.  0.
         25    2    1    2    0    0  0.72678140261E+02 -0.31672244707E+02 -0.57663886001E+03  0.59535310824E+03  0.12509078885E+03 0.  0.
        -24    2    1    2    0    0 -0.37130579423E+02  0.56336050018E+02 -0.16487467732E+02  0.10285953241E+03  0.75867096657E+02 0.  0.
        -11    1    3    3    0    0 -0.22397272921E+02  0.17903874976E+02 -0.50160102356E+03  0.50241991741E+03  0.00000000000E+00 0.  1.
         12    1    3    3    0    0 -0.13150287917E+02 -0.42567680288E+02 -0.20135319421E+03  0.20622329232E+03  0.00000000000E+00 0. -1.
         11    1    5    5    0    0 -0.23637035336E+02  0.37862266853E+02  0.28101569860E+02  0.52744278546E+02  0.00000000000E+00 0. -1.
        -12    1    5    5    0    0 -0.13493544087E+02  0.18473783165E+02 -0.44589037591E+02  0.50115253863E+02  0.00000000000E+00 0.  1.
          5    1    4    4  501    0  0.22180863450E+02 -0.33921960756E+02 -0.42737198150E+02  0.59047697928E+02  0.41800000000E+01 0. -1.
         -5    1    4    4    0  501  0.50497276811E+02  0.22497160492E+01 -0.53390166186E+03  0.53630541031E+03  0.41800000000E+01 0. -1.
</event>
<event>
11    1  0.7157190E-009  0.1673223E+03  0.7561462E-02  0.1080386E+00
         22   -1    0    0    0    0  0.00000000000E+00  0.00000000000E+00  0.49856721057E+03  0.49856721057E+03  0.00000000000E+00 0.  1.
         22   -1    0    0    0    0 -0.00000000000E+00 -0.00000000000E+00 -0.52192334046E+03  0.52192334046E+03  0.00000000000E+00 0. -1.
         24    2    1    2    0    0 -0.43771867859E+02 -0.59205963579E+02 -0.45845591741E+03  0.47070539947E+03  0.77203771583E+02 0.  0.
         25    2    1    2    0    0  0.13671444966E+03  0.62883919773E+01  0.16423773861E+03  0.24769168822E+03  0.12508698178E+03 0.  0.
        -24    2    1    2    0    0 -0.92942581804E+02  0.52917571602E+02  0.27086204891E+03  0.30209346334E+03  0.80346861516E+02 0.  0.
        -13    1    3    3    0    0  0.14523736876E+02  0.10442497248E+01 -0.22777088171E+02  0.27033777684E+02  0.00000000000E+00 0.  1.
         14    1    3    3    0    0 -0.58295604735E+02 -0.60250213304E+02 -0.43567882924E+03  0.44367162179E+03  0.00000000000E+00 0. -1.
         13    1    5    5    0    0 -0.19175447787E+02 -0.21620866727E+02  0.58081711223E+02  0.64874069199E+02  0.00000000000E+00 0. -1.
        -14    1    5    5    0    0 -0.73767134017E+02  0.74538438329E+02  0.21278033769E+03  0.23721939414E+03  0.00000000000E+00 0.  1.
          5    1    4    4  501    0  0.13531251320E+03  0.46379956060E+02  0.14215918548E+03  0.20171088957E+03  0.41800000000E+01 0.  1.
         -5    1    4    4    0  501  0.14019364587E+01 -0.40091564083E+02  0.22078553126E+02  0.45980798651E+02  0.41800000000E+01 0.  1.
</event>
<event>
11    1  0.7157190E-009  0.1928574E+03  0.7561462E-02  0.1059693E+00
         22   -1    0    0    0    0  0.00000000000E+00  0.00000000000E+00  0.11307009230E+04  0.11307009230E+04  0.00000000000E+00 0. -1.
         22   -1    0    0    0    0 -0.00000000000E+00 -0.00000000000E+00 -0.25875279610E+03  0.25875279610E+03  0.00000000000E+00 0.  1.
        -24    2    1    2    0    0  0.19974655972E+02 -0.22968062438E+02 -0.19441242408E+03  0.21282592691E+03  0.81068895127E+02 0.  0.
         25    2    1    2    0    0 -0.12226015588E+03  0.12236124795E+03  0.19193247636E+03  0.28706347429E+03  0.12509013579E+03 0.  0.
         24    2    1    2    0    0  0.10228549991E+03 -0.99393185513E+02  0.87442807460E+03  0.88956431789E+03  0.79742643533E+02 0.  0.
        -13    1    5    5    0    0  0.17820509888E+02  0.18364104948E+01  0.30278916398E+02  0.35181753145E+02  0.00000000000E+00 0.  1.
         14    1    5    5    0    0  0.84464990025E+02 -0.10122959601E+03  0.84414915820E+03  0.85438256474E+03  0.00000000000E+00 0. -1.
         13    1    3    3    0    0  0.71599615051E+01 -0.56696001305E+01  0.62148874183E+01  0.11046910881E+02  0.00000000000E+00 0. -1.
        -14    1    3    3    0    0  0.12814694467E+02 -0.17298462307E+02 -0.20062731150E+03  0.20177901603E+03  0.00000000000E+00 0.  1.
          5    1    4    4  501    0 -0.10532397211E+03  0.42301280683E+02  0.52022117832E+02  0.12492522000E+03  0.41800000000E+01 0.  1.
         -5    1    4    4    0  501 -0.16936183773E+02  0.80059967268E+02  0.13991035853E+03  0.16213825429E+03  0.41800000000E+01 0.  1.
</event>
<event>
11    1  0.7157190E-009  0.6815820E+03  0.7561462E-02  0.9059895E-01
         22   -1    0    0    0    0  0.00000000000E+00  0.00000000000E+00  0.71425959981E+03  0.71425959981E+03  0.00000000000E+00 0.  1.
         22   -1    0    0    0    0 -0.00000000000E+00 -0.00000000000E+00 -0.95612651544E+03  0.95612651544E+03  0.00000000000E+00 0. -1.
         24    2    1    2    0    0 -0.22344953007E+02  0.10969606043E+03 -0.22755069873E+03  0.26621040867E+03  0.80969985748E+02 0.  0.
         25    2    1    2    0    0 -0.47796416356E+03 -0.52354222837E+03 -0.15250249808E+03  0.73583367131E+03  0.12509185974E+03 0.  0.
        -24    2    1    2    0    0  0.50030911657E+03  0.41384616794E+03  0.13818628118E+03  0.66834203527E+03  0.77509773330E+02 0.  0.
        -11    1    3    3    0    0 -0.19674414230E+02  0.10217212102E+03 -0.23390701271E+03  0.25600530362E+03  0.00000000000E+00 0.  1.
         12    1    3    3    0    0 -0.26705387774E+01  0.75239394142E+01  0.63563139767E+01  0.10205105048E+02  0.00000000000E+00 0. -1.
         11    1    5    5    0    0  0.27269314223E+03  0.27112194785E+03  0.96553000580E+02  0.39647338164E+03  0.00000000000E+00 0. -1.
        -12    1    5    5    0    0  0.22761597434E+03  0.14272422009E+03  0.41633280600E+02  0.27186865363E+03  0.00000000000E+00 0.  1.
          5    1    4    4  501    0 -0.29408844201E+03 -0.35081513914E+03 -0.39891913404E+02  0.45953031535E+03  0.41800000000E+01 0. -1.
         -5    1    4    4    0  501 -0.18387572155E+03 -0.17272708923E+03 -0.11261058468E+03  0.27630335596E+03  0.41800000000E+01 0. -1.
</event>
<event>
11    1  0.7157190E-009  0.1579797E+03  0.7561462E-02  0.1088993E+00
         22   -1    0    0    0    0  0.00000000000E+00  0.00000000000E+00  0.97418468131E+03  0.97418468131E+03  0.00000000000E+00 0. -1.
         22   -1    0    0    0    0 -0.00000000000E+00 -0.00000000000E+00 -0.12727516348E+04  0.12727516348E+04  0.00000000000E+00 0. -1.
         24    2    1    2    0    0  0.75323963748E+02  0.63167218843E+02 -0.12313320311E+04  0.12378786939E+04  0.80630595074E+02 0.  0.
         25    2    1    2    0    0 -0.17625789256E+02 -0.26599740783E+02  0.84033149171E+02  0.15403405302E+03  0.12508678856E+03 0.  0.
        -24    2    1    2    0    0 -0.57698174492E+02 -0.36567478059E+02  0.84873192852E+03  0.85502356914E+03  0.77802040490E+02 0.  0.
        -13    1    3    3    0    0  0.12637132240E+02 -0.16160606298E+02 -0.10282797586E+03  0.10485444639E+03  0.00000000000E+00 0.  1.
         14    1    3    3    0    0  0.62686831508E+02  0.79327825141E+02 -0.11285040553E+04  0.11330242475E+04  0.00000000000E+00 0. -1.
         11    1    5    5    0    0 -0.51989504397E+02  0.11232730934E+02  0.53228896520E+03  0.53493983333E+03  0.00000000000E+00 0. -1.
        -12    1    5    5    0    0 -0.57086700946E+01 -0.47800208993E+02  0.31644296332E+03  0.32008373581E+03  0.00000000000E+00 0.  1.
          5    1    4    4  501    0 -0.23638163688E+02 -0.60707114560E+02  0.96911789622E+02  0.11684812326E+03  0.41800000000E+01 0.  1.
         -5    1    4    4    0  501  0.60123744320E+01  0.34107373777E+02 -0.12878640450E+02  0.37185929760E+02  0.41800000000E+01 0.  1.
</event>
<event>
11    1  0.7157190E-009  0.1337348E+03  0.7561462E-02  0.1114763E+00
         22   -1    0    0    0    0  0.00000000000E+00  0.00000000000E+00  0.33409892638E+03  0.33409892638E+03  0.00000000000E+00 0. -1.
         22   -1    0    0    0    0 -0.00000000000E+00 -0.00000000000E+00 -0.16648088845E+04  0.16648088845E+04  0.00000000000E+00 0.  1.
         24    2    1    2    0    0  0.31071131661E+02 -0.35377191048E+02 -0.15398800184E+04  0.15426503927E+04  0.79516049076E+02 0.  0.
         25    2    1    2    0    0 -0.27442675527E+02  0.46844823534E+02 -0.78667973586E+02  0.15742986241E+03  0.12509186056E+03 0.  0.
        -24    2    1    2    0    0 -0.36284561348E+01 -0.11467632485E+02  0.28783803389E+03  0.29882755578E+03  0.79388299226E+02 0.  0.
        -13    1    3    3    0    0  0.92637269495E+01 -0.24740298291E+02 -0.14245878832E+04  0.14248328098E+04  0.00000000000E+00 0.  1.
         14    1    3    3    0    0  0.21807404712E+02 -0.10636892757E+02 -0.11529213523E+03  0.11781758287E+03  0.00000000000E+00 0. -1.
         11    1    5    5    0    0 -0.35623555517E+02  0.14739793127E+02  0.12433961217E+03  0.13017925474E+03  0.00000000000E+00 0. -1.
        -12    1    5    5    0    0  0.31995099383E+02 -0.26207425612E+02  0.16349842171E+03  0.16864830104E+03  0.00000000000E+00 0.  1.
          5    1    4    4  501    0  0.30680179969E+02  0.42741097426E+02  0.75186279666E+01  0.53311134096E+02  0.41800000000E+01 0. -1.
         -5    1    4    4    0  501 -0.58122855495E+02  0.41037261074E+01 -0.86186601553E+02  0.10411872832E+03  0.41800000000E+01 0. -1.
</event>
<event>
11    1  0.7157190E-009  0.2292694E+03  0.7561462E-02  0.1035561E+00
         22   -1    0    0    0    0  0.00000000000E+00  0.00000000000E+00  0.17138145663E+04  0.17138145663E+04  0.00000000000E+00 0.  1.
         22   -1    0    0    0    0 -0.00000000000E+00 -0.00000000000E+00 -0.40617454539E+03  0.40617454539E+03  0.00000000000E+00 0. -1.
         24    2    1    2    0    0 -0.19934826175E+03  0.21556923789E+02 -0.21761018752E+03  0.30664832215E+03  0.80464708650E+02 0.  0.
         25    2    1    2    0    0  0.17128253750E+03  0.12004713348E+03 -0.33349693369E+02  0.24598863829E+03  0.12509670744E+03 0.  0.
        -24    2    1    2    0    0  0.28065724250E+02 -0.14160405727E+03  0.15585999019E+04  0.15673521513E+04  0.80744772151E+02 0.  0.
        -13    1    3    3    0    0 -0.52778258783E+02  0.24261822943E+02 -0.11135536943E+03  0.12559537791E+03  0.00000000000E+00 0.  1.
         14    1    3    3    0    0 -0.14657000296E+03 -0.27048991540E+01 -0.10625481809E+03  0.18105294424E+03  0.00000000000E+00 0. -1.
         11    1    5    5    0    0 -0.27058640439E+02 -0.52198073357E+02  0.66718869545E+03  0.66977426363E+03  0.00000000000E+00 0. -1.
        -12    1    5    5    0    0  0.55124364689E+02 -0.89405983909E+02  0.89141120640E+03  0.89757788767E+03  0.00000000000E+00 0.  1.
          5    1    4    4  501    0  0.35711777690E+02 -0.27445850007E+01  0.35404902376E+02  0.50535564950E+02  0.41800000000E+01 0. -1.
         -5    1    4    4    0  501  0.13557075981E+03  0.12279171848E+03 -0.68754595745E+02  0.19545307334E+03  0.41800000000E+01 0. -1.
</event>
<event>
11    1  0.7157190E-009  0.1412519E+03  0.7561462E-02  0.1106168E+00
         22   -1    0    0    0    0  0.00000000000E+00  0.00000000000E+00  0.13497752374E+04  0.13497752374E+04  0.00000000000E+00 0.  1.
         22   -1    0    0    0    0 -0.00000000000E+00 -0.00000000000E+00 -0.65972909672E+02  0.65972909672E+02  0.00000000000E+00 0. -1.
         24    2    1    2    0    0 -0.42992952757E+02 -0.69867907670E+01  0.51074388365E+02  0.10449166689E+03  0.80079373571E+02 0.  0.
         25    2    1    2    0    0  0.10000984018E+03 -0.20741639284E+02  0.14008067845E+03  0.21378097942E+03  0.12509007536E+03 0.  0.
        -24    2    1    2    0    0 -0.57016887423E+02  0.27728430051E+02  0.10926472609E+04  0.10974755007E+04  0.80960772596E+02 0.  0.
        -11    1    3    3    0    0 -0.37621963749E+02 -0.40517964192E+02  0.21047551705E+02  0.59161786749E+02  0.00000000000E+00 0.  1.
         12    1    3    3    0    0 -0.53709890085E+01  0.33531173425E+02  0.30026836660E+02  0.45329880145E+02  0.00000000000E+00 0. -1.
         11    1    5    5    0    0  0.15094297417E+02  0.24759212905E+02  0.23146822620E+03  0.23327750894E+03  0.00000000000E+00 0. -1.
        -12    1    5    5    0    0 -0.72111184840E+02  0.29692171460E+01  0.86117903467E+03  0.86419799178E+03  0.00000000000E+00 0.  1.
          5    1    4    4  501    0  0.61632527708E+02 -0.34469348645E+02  0.31045986428E+01  0.70808300364E+02  0.41800000000E+01 0. -1.
         -5    1    4    4    0  501  0.38377312472E+02  0.13727709361E+02  0.13697607981E+03  0.14297267906E+03  0.41800000000E+01 0. -1.
</event>
<event>
11    1  0.7157190E-009  0.1389242E+03  0.7561462E-02  0.1108766E+00
         22   -1    0    0    0    0  0.00000000000E+00  0.00000000000E+00  0.92531875359E+03  0.92531875359E+03  0.00000000000E+00 0.  1.
         22   -1    0    0    0    0 -0.00000000000E+00 -0.00000000000E+00 -0.99186200198E+03  0.99186200198E+03  0.00000000000E+00 0. -1.
        -24    2    1    2    0    0 -0.51136878831E+02  0.32381226916E+02 -0.92487273002E+03  0.93054030139E+03  0.82777784055E+02 0.  0.
         25    2    1    2    0    0  0.46918109753E+02 -0.34408237008E+02  0.14155133721E+02  0.13868210198E+03  0.12508845591E+03 0.  0.
         24    2    1    2    0    0  0.42187690785E+01  0.20270100920E+01  0.84417434791E+03  0.84795835220E+03  0.79881979213E+02 0.  0.
        -11    1    5    5    0    0 -0.37768074873E+02 -0.19286385800E+01  0.41050374571E+03  0.41224200704E+03  0.00000000000E+00 0.  1.
         12    1    5    5    0    0  0.41986843952E+02  0.39556486720E+01  0.43367060220E+03  0.43571634516E+03  0.00000000000E+00 0. -1.
         13    1    3    3    0    0 -0.64131130508E+02  0.13750790682E+02 -0.41404052897E+03  0.41920334657E+03  0.00000000000E+00 0. -1.
        -14    1    3    3    0    0  0.12994251676E+02  0.18630436233E+02 -0.51083220105E+03  0.51133695482E+03  0.00000000000E+00 0.  1.
          5    1    4    4  501    0  0.24540378566E+02  0.24615117934E+02  0.53681059582E+02  0.64087929979E+02  0.41800000000E+01 0.  1.
         -5    1    4    4    0  501  0.22377731187E+02 -0.59023354942E+02 -0.39525925861E+02  0.74594172003E+02  0.41800000000E+01 0.  1.
</event>
<event>
11    1  0.7157190E-009  0.1430412E+03  0.7561462E-02  0.1104209E+00
         22   -1    0    0    0    0  0.00000000000E+00  0.00000000000E+00  0.21823452871E+03  0.21823452871E+03  0.00000000000E+00 0. -1.
         22   -1    0    0    0    0 -0.00000000000E+00 -0.00000000000E+00 -0.20580328595E+04  0.20580328595E+04  0.00000000000E+00 0.  1.
        -24    2    1    2    0    0 -0.45680850874E+01  0.69226422326E+02 -0.19329874642E+04  0.19359250102E+04  0.80944075003E+02 0.  0.
         25    2    1    2    0    0 -0.11932074410E+02 -0.69910190345E+02 -0.68346721008E+02  0.15921742903E+03  0.12509638812E+03 0.  0.
         24    2    1    2    0    0  0.16500159498E+02  0.68376801862E+00  0.16153585442E+03  0.18112494901E+03  0.80247692115E+02 0.  0.
        -11    1    5    5    0    0 -0.14933056467E+02 -0.20768992731E+02  0.14840016285E+02  0.29573185791E+02  0.00000000000E+00 0.  1.
         12    1    5    5    0    0  0.31433215964E+02  0.21452760750E+02  0.14669583813E+03  0.15155176322E+03  0.00000000000E+00 0. -1.
         11    1    3    3    0    0 -0.25826943347E+02  0.79051607239E+02 -0.15250646494E+04  0.15273304726E+04  0.00000000000E+00 0. -1.
        -12    1    3    3    0    0  0.21258858260E+02 -0.98251849132E+01 -0.40792281478E+03  0.40859453757E+03  0.00000000000E+00 0.  1.
          5    1    4    4  501    0  0.28665220759E+00 -0.10540359731E+03 -0.44095710749E+02  0.11433243023E+03  0.41800000000E+01 0. -1.
         -5    1    4    4    0  501 -0.12218726618E+02  0.35493406968E+02 -0.24251010260E+02  0.44884998797E+02  0.41800000000E+01 0. -1.
</event>
<event>
11    1  0.7157190E-009  0.1339912E+03  0.7561462E-02  0.1114460E+00
         22   -1    0    0    0    0  0.00000000000E+00  0.00000000000E+00  0.58644233022E+03  0.58644233022E+03  0.00000000000E+00 0. -1.
         22   -1    0    0    0    0 -0.00000000000E+00 -0.00000000000E+00 -0.16413940826E+04  0.16413940826E+04  0.00000000000E+00 0.  1.
         24    2    1    2    0    0 -0.32444870801E+02 -0.12228988976E+02 -0.12312821139E+04  0.12343396400E+04  0.79602041002E+02 0.  0.
         25    2    1    2    0    0  0.37316593777E+02  0.59887587390E+02 -0.39218379189E+03  0.41765100894E+03  0.12508072333E+03 0.  0.
        -24    2    1    2    0    0 -0.48717229763E+01 -0.47658598414E+02  0.56851415348E+03  0.57584576386E+03  0.78070002933E+02 0.  0.
        -13    1    3    3    0    0 -0.23559500689E+02 -0.45266913969E+02 -0.84781291226E+03  0.84934732458E+03  0.00000000000E+00 0.  1.
         14    1    3    3    0    0 -0.88853701120E+01  0.33037924993E+02 -0.38346920166E+03  0.38499231539E+03  0.00000000000E+00 0. -1.
         13    1    5    5    0    0 -0.23580825678E+01  0.12305790574E+02  0.31784496549E+03  0.31809183441E+03  0.00000000000E+00 0. -1.
        -14    1    5    5    0    0 -0.25136404084E+01 -0.59964388988E+02  0.25066918800E+03  0.25775392945E+03  0.00000000000E+00 0.  1.
          5    1    4    4  501    0 -0.20767446859E+02  0.78933773805E+02 -0.24300838749E+03  0.25638326055E+03  0.41800000000E+01 0.  1.
         -5    1    4    4    0  501  0.58084040636E+02 -0.19046186415E+02 -0.14917540440E+03  0.16126774839E+03  0.41800000000E+01 0.  1.
</event>
<event>
11    1  0.7157190E-009  0.1314576E+03  0.7561462E-02  0.1117491E+00
         22   -1    0    0    0    0  0.00000000000E+00  0.00000000000E+00  0.23096743462E+03  0.23096743462E+03  0.00000000000E+00 0.  1.
         22   -1    0    0    0    0 -0.00000000000E+00 -0.00000000000E+00 -0.44320958042E+03  0.44320958042E+03  0.00000000000E+00 0. -1.
        -24    2    1    2    0    0  0.85832918639E+01 -0.39725026107E+02 -0.38704710927E+03  0.39722962350E+03  0.79587426090E+02 0.  0.
         25    2    1    2    0    0 -0.13210842576E+02  0.33169601894E+02  0.80405055643E+02  0.15292941602E+03  0.12509070493E+03 0.  0.
         24    2    1    2    0    0  0.46275507116E+01  0.65554242125E+01  0.94399907834E+02  0.12401797551E+03  0.80029543537E+02 0.  0.
        -13    1    5    5    0    0 -0.11433296406E+02 -0.12495203912E+02  0.97453388341E+02  0.98914171313E+02  0.00000000000E+00 0.  1.
         14    1    5    5    0    0  0.16060847118E+02  0.19050628124E+02 -0.30534805061E+01  0.25103804199E+02  0.00000000000E+00 0. -1.
         11    1    3    3    0    0  0.17476689159E+02 -0.62486045666E+02 -0.27557450245E+03  0.28310995561E+03  0.00000000000E+00 0. -1.
        -12    1    3    3    0    0 -0.88933972952E+01  0.22761019559E+02 -0.11147260683E+03  0.11411966789E+03  0.00000000000E+00 0.  1.
          5    1    4    4  501    0 -0.34381744609E+02 -0.37984542302E+02  0.14094167324E+02  0.53301479987E+02  0.41800000000E+01 0.  1.
         -5    1    4    4    0  501  0.21170902034E+02  0.71154144196E+02  0.66310888319E+02  0.99627936037E+02  0.41800000000E+01 0.  1.
</event>
<event>
11    1  0.7157190E-009  0.1369237E+03  0.7561462E-02  0.1111043E+00
         22   -1    0    0    0    0  0.00000000000E+00  0.00000000000E+00  0.62945212164E+03  0.62945212164E+03  0.00000000000E+00 0.  1.
         22   -1    0    0    0    0 -0.00000000000E+00 -0.00000000000E+00 -0.62645991974E+03  0.62645991974E+03  0.00000000000E+00 0. -1.
        -24    2    1    2    0    0 -0.50748691383E+02  0.23691607410E+02 -0.59401959275E+03  0.60187858070E+03  0.79131709114E+02 0.  0.
         25    2    1    2    0    0  0.32653134004E+02 -0.27255403259E+02  0.15229845415E+03  0.20162178681E+03  0.12508973424E+03 0.  0.
         24    2    1    2    0    0  0.18095557379E+02  0.35637958495E+01  0.44471334050E+03  0.45241167387E+03  0.81032200961E+02 0.  0.
        -13    1    5    5    0    0  0.10958045640E+02 -0.25226453532E+02  0.38251624533E+03  0.38350375574E+03  0.00000000000E+00 0.  1.
         14    1    5    5    0    0  0.71375117390E+01  0.28790249381E+02  0.62197095168E+02  0.68907918127E+02  0.00000000000E+00 0. -1.
         13    1    3    3    0    0 -0.10370990402E+02 -0.28702600476E+02 -0.16692628348E+03  0.16969319618E+03  0.00000000000E+00 0. -1.
        -14    1    3    3    0    0 -0.40377700981E+02  0.52394207887E+02 -0.42709330928E+03  0.43218538451E+03  0.00000000000E+00 0.  1.
          5    1    4    4  501    0  0.42346745795E+02 -0.72071946091E+02  0.11573180110E+03  0.14282483845E+03  0.41800000000E+01 0.  1.
         -5    1    4    4    0  501 -0.96936117911E+01  0.44816542832E+02  0.36566653051E+02  0.58796948359E+02  0.41800000000E+01 0.  1.
</event>
<event>
11    1  0.7157190E-009  0.2770188E+03  0.7561462E-02  0.1010415E+00
         22   -1    0    0    0    0  0.00000000000E+00  0.00000000000E+00  0.79229243594E+03  0.79229243594E+03  0.00000000000E+00 0.  1.
         22   -1    0    0    0    0 -0.00000000000E+00 -0.00000000000E+00 -0.44640675021E+03  0.44640675021E+03  0.00000000000E+00 0. -1.
         24    2    1    2    0    0  0.25131140378E+02  0.25634063160E+02 -0.33712480587E+03  0.34890870096E+03  0.82434625398E+02 0.  0.
         25    2    1    2    0    0  0.21133915291E+03 -0.11182912770E+03  0.18844913967E+03  0.32913460270E+03  0.12508603877E+03 0.  0.
        -24    2    1    2    0    0 -0.23647029329E+03  0.86195064544E+02  0.49456135192E+03  0.56065588249E+03  0.79976865368E+02 0.  0.
        -13    1    3    3    0    0  0.13707063584E+02  0.45806454678E+02 -0.10207386252E+03  0.11271729367E+03  0.00000000000E+00 0.  1.
         14    1    3    3    0    0  0.11424076794E+02 -0.20172391518E+02 -0.23505094335E+03  0.23619140730E+03  0.00000000000E+00 0. -1.
         11    1    5    5    0    0 -0.47047836523E+02  0.52229956662E+02  0.10837643478E+03  0.12917785766E+03  0.00000000000E+00 0. -1.
        -12    1    5    5    0    0 -0.18942245677E+03  0.33965107882E+02  0.38618491714E+03  0.43147802483E+03  0.00000000000E+00 0.  1.
          5    1    4    4  501    0  0.44727841877E+02 -0.91412759031E+02  0.67251690797E+02  0.12205381873E+03  0.41800000000E+01 0.  1.
         -5    1    4    4    0  501  0.16661131103E+03 -0.20416368673E+02  0.12119744887E+03  0.20708078396E+03  0.41800000000E+01 0.  1.
</event>
<event>
11    1  0.7157190E-009  0.1368263E+03  0.7561462E-02  0.1111155E+00
         22   -1    0    0    0    0  0.00000000000E+00  0.00000000000E+00  0.11384226249E+04  0.11384226249E+04  0.00000000000E+00 0.  1.
         22   -1    0    0    0    0 -0.00000000000E+00 -0.00000000000E+00 -0.49322228717E+03  0.49322228717E+03  0.00000000000E+00 0. -1.
        -24    2    1    2    0    0  0.10550325880E+02  0.38604724290E+02 -0.45343100924E+03  0.46226350346E+03  0.80537149070E+02 0.  0.
         25    2    1    2    0    0 -0.54536561843E+02 -0.31635760293E+01  0.10850574238E+03  0.17437177958E+03  0.12509107320E+03 0.  0.
         24    2    1    2    0    0  0.43986235964E+02 -0.35441148260E+02  0.99012560457E+03  0.99500962902E+03  0.80651007872E+02 0.  0.
        -13    1    5    5    0    0  0.58197549948E+02 -0.49006235355E+02  0.67547997906E+03  0.67975125453E+03  0.00000000000E+00 0.  1.
         14    1    5    5    0    0 -0.14211313984E+02  0.13565087094E+02  0.31464562551E+03  0.31525837449E+03  0.00000000000E+00 0. -1.
         11    1    3    3    0    0 -0.13526082173E+02  0.54470463072E+02 -0.21948257709E+03  0.22654489156E+03  0.00000000000E+00 0. -1.
        -12    1    3    3    0    0  0.24076408052E+02 -0.15865738783E+02 -0.23394843215E+03  0.23571861190E+03  0.00000000000E+00 0.  1.
          5    1    4    4  501    0 -0.69621429455E+02  0.83869444307E+01  0.65243950244E+01  0.70551572674E+02  0.41800000000E+01 0.  1.
         -5    1    4    4    0  501  0.15084867612E+02 -0.11550520460E+02  0.10198134735E+03  0.10382020690E+03  0.41800000000E+01 0.  1.
</event>
<event>
11    1  0.7157190E-009  0.1794569E+03  0.7561462E-02  0.1070083E+00
         22   -1    0    0    0    0  0.00000000000E+00  0.00000000000E+00  0.12531065644E+03  0.12531065644E+03  0.00000000000E+00 0. -1.
         22   -1    0    0    0    0 -0.00000000000E+00 -0.00000000000E+00 -0.48799510582E+03  0.48799510582E+03  0.00000000000E+00 0. -1.
        -24    2    1    2    0    0  0.10323281822E+03 -0.23405232117E+02 -0.15661997301E+03  0.20135023941E+03  0.69334575189E+02 0.  0.
         25    2    1    2    0    0 -0.18771642755E+03 -0.72861951477E+01 -0.17993984287E+03  0.28864507857E+03  0.12508832287E+03 0.  0.
         24    2    1    2    0    0  0.84483609327E+02  0.30691427265E+02 -0.26124633494E+02  0.12331044429E+03  0.80271571819E+02 0.  0.
        -13    1    5    5    0    0 -0.12921065639E+02  0.49703606935E+01  0.91219627904E+01  0.16579162459E+02  0.00000000000E+00 0.  1.
         14    1    5    5    0    0  0.97404674966E+02  0.25721066571E+02 -0.35246596284E+02  0.10673128183E+03  0.00000000000E+00 0. -1.
         11    1    3    3    0    0  0.10055742423E+03  0.21550048271E+01 -0.12974129991E+03  0.16416225057E+03  0.00000000000E+00 0. -1.
        -12    1    3    3    0    0  0.26753939932E+01 -0.25560236944E+02 -0.26878673104E+02  0.37187988833E+02  0.00000000000E+00 0.  1.
          5    1    4    4  501    0 -0.50199853808E+02  0.53962341945E+01 -0.13365587069E+03  0.14293533096E+03  0.41800000000E+01 0. -1.
         -5    1    4    4    0  501 -0.13751657374E+03 -0.12682429342E+02 -0.46283972177E+02  0.14570974761E+03  0.41800000000E+01 0. -1.
</event>
<event>
11    1  0.7157190E-009  0.1838925E+03  0.7561462E-02  0.1066537E+00
         22   -1    0    0    0    0  0.00000000000E+00  0.00000000000E+00  0.96541189837E+03  0.96541189837E+03  0.00000000000E+00 0. -1.
         22   -1    0    0    0    0 -0.00000000000E+00 -0.00000000000E+00 -0.41829749124E+03  0.41829749124E+03  0.00000000000E+00 0. -1.
        -24    2    1    2    0    0 -0.37595497500E+02  0.24231695267E+01 -0.36198398550E+03  0.37261639052E+03  0.79945453537E+02 0.  0.
         25    2    1    2    0    0 -0.50778878947E+02 -0.10868630974E+03  0.13205100122E+03  0.21789516523E+03  0.12509847174E+03 0.  0.
         24    2    1    2    0    0  0.88374376447E+02  0.10626314022E+03  0.77704739140E+03  0.79319783387E+03  0.79109226896E+02 0.  0.
        -13    1    5    5    0    0  0.53302299430E+02  0.32545193928E+02  0.17852115884E+03  0.18912992605E+03  0.00000000000E+00 0.  1.
         14    1    5    5    0    0  0.35072077017E+02  0.73717946290E+02  0.59852623256E+03  0.60406790782E+03  0.00000000000E+00 0. -1.
         11    1    3    3    0    0 -0.18239455690E+02  0.24720559459E+02 -0.31895406258E+03  0.32043014502E+03  0.00000000000E+00 0. -1.
        -12    1    3    3    0    0 -0.19356041810E+02 -0.22297389932E+02 -0.43029922926E+02  0.52186245499E+02  0.00000000000E+00 0.  1.
          5    1    4    4  501    0  0.16655643164E+02 -0.83926504947E+02  0.11594153515E+03  0.14415609822E+03  0.41800000000E+01 0. -1.
         -5    1    4    4    0  501 -0.67434522111E+02 -0.24759804797E+02  0.16109466075E+02  0.73739067008E+02  0.41800000000E+01 0. -1.
</event>
<event>
11    1  0.7157190E-009  0.2539371E+03  0.7561462E-02  0.1021823E+00
         22   -1    0    0    0    0  0.00000000000E+00  0.00000000000E+00  0.16416111826E+04  0.16416111826E+04  0.00000000000E+00 0.  1.
         22   -1    0    0    0    0 -0.00000000000E+00 -0.00000000000E+00 -0.79362875181E+02  0.79362875181E+02  0.00000000000E+00 0. -1.
         24    2    1    2    0    0 -0.20819357210E+03 -0.10045177798E+03  0.31818451538E+03  0.39936504439E+03  0.69396899734E+02 0.  0.
         25    2    1    2    0    0  0.14707855715E+03  0.15946236277E+03  0.41804909932E+03  0.48731203075E+03  0.12509044231E+03 0.  0.
        -24    2    1    2    0    0  0.61115014953E+02 -0.59010584787E+02  0.82601469276E+03  0.83429698268E+03  0.80832471669E+02 0.  0.
        -13    1    3    3    0    0 -0.15141934672E+02 -0.31178102326E+02  0.31290288530E+02  0.46695121871E+02  0.00000000000E+00 0.  1.
         14    1    3    3    0    0 -0.19305163743E+03 -0.69273675658E+02  0.28689422685E+03  0.35266992252E+03  0.00000000000E+00 0. -1.
         13    1    5    5    0    0  0.56847508170E+02 -0.43052908805E+02  0.31316872508E+03  0.32118505960E+03  0.00000000000E+00 0. -1.
        -14    1    5    5    0    0  0.42675067826E+01 -0.15957675982E+02  0.51284596768E+03  0.51311192308E+03  0.00000000000E+00 0.  1.
          5    1    4    4  501    0  0.11980466357E+03  0.43775073452E+02  0.25877268574E+03  0.28853108976E+03  0.41800000000E+01 0. -1.
         -5    1    4    4    0  501  0.27273893580E+02  0.11568728932E+03  0.15927641357E+03  0.19878094099E+03  0.41800000000E+01 0. -1.
</event>
<event>
11    1  0.7157190E-009  0.1603125E+03  0.7561462E-02  0.1086784E+00
         22   -1    0    0    0    0  0.00000000000E+00  0.00000000000E+00  0.73958605314E+03  0.73958605314E+03  0.00000000000E+00 0.  1.
         22   -1    0    0    0    0 -0.00000000000E+00 -0.00000000000E+00 -0.24391463111E+03  0.24391463111E+03  0.00000000000E+00 0.  1.
        -24    2    1    2    0    0  0.70688811713E+02  0.26134199405E+01 -0.15755233700E+03  0.20330564417E+03  0.10726932455E+03 0.  0.
         25    2    1    2    0    0  0.36363550190E+02 -0.18091788667E+02  0.20591484467E+02  0.13312167502E+03  0.12509096901E+03 0.  0.
         24    2    1    2    0    0 -0.10705236190E+03  0.15478368726E+02  0.63263227456E+03  0.64707336507E+03  0.82344136849E+02 0.  0.
        -11    1    5    5    0    0 -0.10184655067E+03  0.27898365041E+02  0.61888386179E+03  0.62782821937E+03  0.00000000000E+00 0.  1.
         12    1    5    5    0    0 -0.52058112336E+01 -0.12419996314E+02  0.13748412771E+02  0.19245145694E+02  0.00000000000E+00 0. -1.
         13    1    3    3    0    0  0.64088667535E+02 -0.45524164590E+02 -0.11098577541E+03  0.13600606314E+03  0.00000000000E+00 0. -1.
        -14    1    3    3    0    0  0.66001441781E+01  0.48137584530E+02 -0.46566561590E+02  0.67299581023E+02  0.00000000000E+00 0.  1.
          5    1    4    4  501    0 -0.14767083505E+02  0.28248896162E+02 -0.32682403332E+02  0.45844070251E+02  0.41800000000E+01 0.  1.
         -5    1    4    4    0  501  0.51130633695E+02 -0.46340684829E+02  0.53273887799E+02  0.87277604766E+02  0.41800000000E+01 0.  1.
</event>
<event>
11    1  0.7157190E-009  0.2682435E+03  0.7561462E-02  0.1014606E+00
         22   -1    0    0    0    0  0.00000000000E+00  0.00000000000E+00  0.22374510095E+04  0.22374510095E+04  0.00000000000E+00 0.  1.
         22   -1    0    0    0    0 -0.00000000000E+00 -0.00000000000E+00 -0.28970034331E+03  0.28970034331E+03  0.00000000000E+00 0.  1.
         24    2    1    2    0    0  0.24179552059E+03 -0.20358168166E+02 -0.97887341272E+02  0.27365943631E+03  0.80174975580E+02 0.  0.
         25    2    1    2    0    0 -0.22861862388E+03 -0.25454101204E+02  0.63935205810E+02  0.26953607371E+03  0.12509035949E+03 0.  0.
        -24    2    1    2    0    0 -0.13176896712E+02  0.45812269371E+02  0.19817028016E+04  0.19839558428E+04  0.81623510469E+02 0.  0.
        -13    1    3    3    0    0  0.23716903547E+03 -0.34495358330E+02 -0.86032386711E+02  0.25463827814E+03  0.00000000000E+00 0.  1.
         14    1    3    3    0    0  0.46264851223E+01  0.14137190163E+02 -0.11854954561E+02  0.19021158165E+02  0.00000000000E+00 0. -1.
         13    1    5    5    0    0  0.78286107665E+01 -0.17580147715E+02  0.18203960917E+03  0.18305400309E+03  0.00000000000E+00 0. -1.
        -14    1    5    5    0    0 -0.21005507478E+02  0.63392417086E+02  0.17996631925E+04  0.18009018397E+04  0.00000000000E+00 0.  1.
          5    1    4    4  501    0 -0.80005158063E+02 -0.69485073495E+02  0.35938724580E+02  0.11197350169E+03  0.41800000000E+01 0.  1.
         -5    1    4    4    0  501 -0.14861346582E+03  0.44030972291E+02  0.27996481230E+02  0.15756257203E+03  0.41800000000E+01 0.  1.
</event>
<event>
11    1  0.7157190E-009  0.1809302E+03  0.7561462E-02  0.1068893E+00
         22   -1    0    0    0    0  0.00000000000E+00  0.00000000000E+00  0.16058455787E+03  0.16058455787E+03  0.00000000000E+00 0.  1.
         22   -1    0    0    0    0 -0.00000000000E+00 -0.00000000000E+00 -0.68400065258E+03  0.68400065258E+03  0.00000000000E+00 0. -1.
         24    2    1    2    0    0 -0.68632314229E+02 -0.10891718865E+03 -0.53075109141E+03  0.55204926669E+03  0.80550128984E+02 0.  0.
         25    2    1    2    0    0  0.51935488695E+02  0.14011349474E+03 -0.26021111853E+02  0.19660427265E+03  0.12508819035E+03 0.  0.
        -24    2    1    2    0    0  0.16696825534E+02 -0.31196306090E+02  0.33356108562E+02  0.95931671113E+02  0.82693784818E+02 0.  0.
        -11    1    3    3    0    0 -0.61824996294E+02 -0.70215964989E+02 -0.22343237277E+03  0.24222848120E+03  0.00000000000E+00 0.  1.
         12    1    3    3    0    0 -0.68073179350E+01 -0.38701223663E+02 -0.30731871865E+03  0.30982078549E+03  0.00000000000E+00 0. -1.
         13    1    5    5    0    0 -0.30898698238E+02 -0.20100484717E+01  0.13583004171E+00  0.30964306830E+02  0.00000000000E+00 0. -1.
        -14    1    5    5    0    0  0.47595523772E+02 -0.29186257619E+02  0.33220278520E+02  0.64967364283E+02  0.00000000000E+00 0.  1.
          5    1    4    4  501    0  0.59686095700E+02  0.82112976135E+02  0.39183176062E+02  0.10889336323E+03  0.41800000000E+01 0. -1.
         -5    1    4    4    0  501 -0.77506070047E+01  0.58000518608E+02 -0.65204287915E+02  0.87710909414E+02  0.41800000000E+01 0. -1.
</event>
<event>
11    1  0.7157190E-009  0.1314953E+03  0.7561462E-02  0.1117445E+00
         22   -1    0    0    0    0  0.00000000000E+00  0.00000000000E+00  0.12987288794E+03  0.12987288794E+03  0.00000000000E+00 0. -1.
         22   -1    0    0    0    0 -0.00000000000E+00 -0.00000000000E+00 -0.10446453777E+04  0.10446453777E+04  0.00000000000E+00 0. -1.
         24    2    1    2    0    0  0.64928505081E+01  0.41833421044E+02 -0.75386491799E+03  0.75898254160E+03  0.77136188972E+02 0.  0.
         25    2    1    2    0    0 -0.12908487938E+02 -0.28191512426E+02 -0.26065048676E+03  0.29077099158E+03  0.12509077849E+03 0.  0.
        -24    2    1    2    0    0  0.64156374299E+01 -0.13641908618E+02  0.99742914953E+02  0.12476473250E+03  0.73418848515E+02 0.  0.
        -11    1    3    3    0    0 -0.18746569150E+02  0.17430008729E+02 -0.75724695961E+02  0.79934151885E+02  0.00000000000E+00 0.  1.
         12    1    3    3    0    0  0.25239419658E+02  0.24403412315E+02 -0.67814022203E+03  0.67904838972E+03  0.00000000000E+00 0. -1.
         11    1    5    5    0    0  0.28658872846E+02 -0.27230086340E+01  0.95348211419E+02  0.99599333279E+02  0.00000000000E+00 0. -1.
        -12    1    5    5    0    0 -0.22243235416E+02 -0.10918899984E+02  0.43947035343E+01  0.25165399218E+02  0.00000000000E+00 0.  1.
          5    1    4    4  501    0 -0.23070369995E+02 -0.28875036187E+02 -0.82099291734E+01  0.38090484685E+02  0.41800000000E+01 0.  1.
         -5    1    4    4    0  501  0.10161882057E+02  0.68352376157E+00 -0.25244055759E+03  0.25268050690E+03  0.41800000000E+01 0.  1.
</event>
<event>
11    1  0.7157190E-009  0.1367029E+03  0.7561462E-02  0.1111297E+00
         22   -1    0    0    0    0  0.00000000000E+00  0.00000000000E+00  0.81559232891E+03  0.81559232891E+03  0.00000000000E+00 0.  1.
         22   -1    0    0    0    0 -0.00000000000E+00 -0.00000000000E+00 -0.46599289713E+02  0.46599289713E+02  0.00000000000E+00 0. -1.
         24    2    1    2    0    0 -0.88759014000E+02  0.14502185239E+02  0.13675026780E+03  0.18169773752E+03  0.78898391185E+02 0.  0.
         25    2    1    2    0    0 -0.97927500574E+00 -0.25565558019E+01  0.25298011601E+03  0.28223008346E+03  0.12508951178E+03 0.  0.
        -24    2    1    2    0    0  0.89738289006E+02 -0.11945629438E+02  0.37926265539E+03  0.39826379765E+03  0.81106301653E+02 0.  0.
        -11    1    3    3    0    0  0.86879875796E+01  0.75936348344E+01  0.49137382110E+02  0.50474020435E+02  0.00000000000E+00 0.  1.
         12    1    3    3    0    0 -0.97447001579E+02  0.69085504049E+01  0.87612885694E+02  0.13122371708E+03  0.00000000000E+00 0. -1.
         11    1    5    5    0    0  0.47297254869E+01 -0.33511589129E+02  0.10680192971E+03  0.11203592772E+03  0.00000000000E+00 0. -1.
        -12    1    5    5    0    0  0.85008563519E+02  0.21565959691E+02  0.27246072568E+03  0.28622786993E+03  0.00000000000E+00 0.  1.
          5    1    4    4  501    0 -0.39757691641E+02  0.10303318099E+02  0.23287229438E+03  0.23650329871E+03  0.41800000000E+01 0. -1.
         -5    1    4    4    0  501  0.38778416635E+02 -0.12859873900E+02  0.20107821625E+02  0.45726784754E+02  0.41800000000E+01 0. -1.
</event>
<event>
11    1  0.7157190E-009  0.1999663E+03  0.7561462E-02  0.1054547E+00
         22   -1    0    0    0    0  0.00000000000E+00  0.00000000000E+00  0.11573185073E+04  0.11573185073E+04  0.00000000000E+00 0.  1.
         22   -1    0    0    0    0 -0.00000000000E+00 -0.00000000000E+00 -0.17839690760E+04  0.17839690760E+04  0.00000000000E+00 0. -1.
        -24    2    1    2    0    0 -0.32735439863E+02  0.10339204276E+03 -0.16959452130E+04  0.17016245200E+04  0.86800447987E+02 0.  0.
         25    2    1    2    0    0 -0.12534188331E+03 -0.11099708415E+03  0.63766765788E+02  0.21850327357E+03  0.12508612929E+03 0.  0.
         24    2    1    2    0    0  0.15807732317E+03  0.76050413918E+01  0.10055278785E+04  0.10211597898E+04  0.81453821362E+02 0.  0.
        -13    1    5    5    0    0  0.12893388492E+03  0.30690467616E+02  0.88952652560E+03  0.89934603531E+03  0.00000000000E+00 0.  1.
         14    1    5    5    0    0  0.29143438253E+02 -0.23085426224E+02  0.11600135291E+03  0.12181375446E+03  0.00000000000E+00 0. -1.
         11    1    3    3    0    0 -0.29667379796E+02  0.11815235521E+03 -0.15825130131E+04  0.15871948743E+04  0.00000000000E+00 0. -1.
        -12    1    3    3    0    0 -0.30680600665E+01 -0.14760312451E+02 -0.11343219992E+03  0.11442964561E+03  0.00000000000E+00 0.  1.
          5    1    4    4  501    0 -0.13704858362E+03 -0.12648300671E+03  0.67344872453E+02  0.19832566527E+03  0.41800000000E+01 0. -1.
         -5    1    4    4    0  501  0.11706700304E+02  0.15485922560E+02 -0.35781066657E+01  0.20177608304E+02  0.41800000000E+01 0. -1.
</event>
<event>
11    1  0.7157190E-009  0.1530613E+03  0.7561462E-02  0.1093791E+00
         22   -1    0    0    0    0  0.00000000000E+00  0.00000000000E+00  0.11180792095E+04  0.11180792095E+04  0.00000000000E+00 0. -1.
         22   -1    0    0    0    0 -0.00000000000E+00 -0.00000000000E+00 -0.11365938357E+04  0.11365938357E+04  0.00000000000E+00 0. -1.
        -24    2    1    2    0    0 -0.20096816924E+02  0.85945195315E+02 -0.10728084591E+04  0.10797519271E+04  0.84591817096E+02 0.  0.
         25    2    1    2    0    0  0.87170825670E+02 -0.66971091997E+02  0.63516303275E+02  0.17823442268E+03  0.12509719675E+03 0.  0.
         24    2    1    2    0    0 -0.67074008746E+02 -0.18974103318E+02  0.99077752966E+03  0.99668669541E+03  0.82977805955E+02 0.  0.
        -13    1    5    5    0    0 -0.40326862377E+02 -0.22194262250E+02  0.19147302466E+03  0.19692831254E+03  0.00000000000E+00 0.  1.
         14    1    5    5    0    0 -0.26747146369E+02  0.32201589328E+01  0.79930450500E+03  0.79975838287E+03  0.00000000000E+00 0. -1.
         11    1    3    3    0    0  0.23071560908E+02  0.43395963061E+02 -0.72795073303E+03  0.72960796066E+03  0.00000000000E+00 0. -1.
        -12    1    3    3    0    0 -0.43168377832E+02  0.42549232254E+02 -0.34485772607E+03  0.35014396645E+03  0.00000000000E+00 0.  1.
          5    1    4    4  501    0 -0.41813681844E+01 -0.20694469158E+01 -0.30969810284E+02  0.31596961871E+02  0.41800000000E+01 0.  1.
         -5    1    4    4    0  501  0.91352193854E+02 -0.64901645081E+02  0.94486113560E+02  0.14663746081E+03  0.41800000000E+01 0.  1.
</event>
<event>
11    1  0.7157190E-009  0.1445978E+03  0.7561462E-02  0.1102530E+00
         22   -1    0    0    0    0  0.00000000000E+00  0.00000000000E+00  0.11406896488E+04  0.11406896488E+04  0.00000000000E+00 0. -1.
         22   -1    0    0    0    0 -0.00000000000E+00 -0.00000000000E+00 -0.38454412824E+03  0.38454412824E+03  0.00000000000E+00 0. -1.
        -24    2    1    2    0    0  0.34841791600E+02 -0.62642978190E+02 -0.35191211359E+03  0.36813804658E+03  0.80903599990E+02 0.  0.
         25    2    1    2    0    0 -0.49380682961E+02  0.91340532163E+02  0.27497107128E+03  0.31943366806E+03  0.12508890272E+03 0.  0.
         24    2    1    2    0    0  0.14538891361E+02 -0.28697553973E+02  0.83308656291E+03  0.83766206245E+03  0.81299327224E+02 0.  0.
        -13    1    5    5    0    0 -0.24300763207E+02 -0.39986871426E+02  0.47451142573E+03  0.47681292991E+03  0.00000000000E+00 0.  1.
         14    1    5    5    0    0  0.38839654568E+02  0.11289317453E+02  0.35857513718E+03  0.36084913255E+03  0.00000000000E+00 0. -1.
         11    1    3    3    0    0  0.57832989921E+02 -0.38683010383E+02 -0.17861500630E+03  0.19168815950E+03  0.00000000000E+00 0. -1.
        -12    1    3    3    0    0 -0.22991198322E+02 -0.23959967807E+02 -0.17329710728E+03  0.17644988708E+03  0.00000000000E+00 0.  1.
          5    1    4    4  501    0  0.95183067006E+01 -0.16266404248E+02  0.11243586169E+01  0.19337286570E+02  0.41800000000E+01 0.  1.
         -5    1    4    4    0  501 -0.58898989661E+02  0.10760693641E+03  0.27384671266E+03  0.30009638149E+03  0.41800000000E+01 0.  1.
</event>
<event>
11    1  0.7157190E-009  0.1767228E+03  0.7561462E-02  0.1072325E+00
         22   -1    0    0    0    0  0.00000000000E+00  0.00000000000E+00  0.12811138020E+03  0.12811138020E+03  0.00000000000E+00 0. -1.
         22   -1    0    0    0    0 -0.00000000000E+00 -0.00000000000E+00 -0.17774122443E+04  0.17774122443E+04  0.00000000000E+00 0.  1.
        -24    2    1    2    0    0 -0.51851043902E+02  0.85703108501E+02 -0.97373540670E+03  0.98225126043E+03  0.81383922209E+02 0.  0.
         25    2    1    2    0    0 -0.71809562572E+02 -0.47327712162E+02 -0.74142230821E+03  0.75680318588E+03  0.12508995734E+03 0.  0.
         24    2    1    2    0    0  0.12366060647E+03 -0.38375396339E+02  0.65856850780E+02  0.16646917823E+03  0.81303418558E+02 0.  0.
        -11    1    5    5    0    0 -0.74232379321E+01  0.88211753587E+01 -0.16634453221E+01  0.11648375271E+02  0.00000000000E+00 0.  1.
         12    1    5    5    0    0  0.13108384441E+03 -0.47196571697E+02  0.67520296102E+02  0.15482080296E+03  0.00000000000E+00 0. -1.
         11    1    3    3    0    0 -0.39786975526E+02  0.76909844069E+02 -0.44731282724E+03  0.45561704638E+03  0.00000000000E+00 0. -1.
        -12    1    3    3    0    0 -0.12064068376E+02  0.87932644317E+01 -0.52642257946E+03  0.52663421405E+03  0.00000000000E+00 0.  1.
          5    1    4    4  501    0 -0.95704636394E+02 -0.31663724364E+02 -0.34821586002E+03  0.36253789655E+03  0.41800000000E+01 0.  1.
         -5    1    4    4    0  501  0.23895073823E+02 -0.15663987798E+02 -0.39320644819E+03  0.39426528933E+03  0.41800000000E+01 0.  1.
</event>
<event>
11    1  0.7157190E-009  0.2219257E+03  0.7561462E-02  0.1040018E+00
         22   -1    0    0    0    0  0.00000000000E+00  0.00000000000E+00  0.64253066265E+03  0.64253066265E+03  0.00000000000E+00 0.  1.
         22   -1    0    0    0    0 -0.00000000000E+00 -0.00000000000E+00 -0.54425187118E+03  0.54425187118E+03  0.00000000000E+00 0.  1.
        -24    2    1    2    0    0  0.17468182904E+03  0.61500616351E+02 -0.47443353834E+03  0.51560174667E+03  0.80386016539E+02 0.  0.
         25    2    1    2    0    0 -0.17111950407E+03  0.11277409612E+02  0.22983000230E+03  0.31285525716E+03  0.12509003690E+03 0.  0.
         24    2    1    2    0    0 -0.35623249708E+01 -0.72778025963E+02  0.34288232750E+03  0.35832553000E+03  0.74293766325E+02 0.  0.
        -11    1    5    5    0    0 -0.42901951776E+01 -0.73003903763E+02  0.34675296443E+03  0.35438057803E+03  0.00000000000E+00 0.  1.
         12    1    5    5    0    0  0.72787020684E+00  0.22587779980E+00 -0.38706369316E+01  0.39449519737E+01  0.00000000000E+00 0. -1.
         11    1    3    3    0    0 -0.64662873130E+01 -0.43977570111E+01 -0.95820161311E+01  0.12368030218E+02  0.00000000000E+00 0. -1.
        -12    1    3    3    0    0  0.18114811636E+03  0.65898373362E+02 -0.46485152221E+03  0.50323371645E+03  0.00000000000E+00 0.  1.
          5    1    4    4  501    0 -0.18528901724E+03  0.30468209522E+02  0.19882622523E+03  0.27351356811E+03  0.41800000000E+01 0. -1.
         -5    1    4    4    0  501  0.14169513165E+02 -0.19190799910E+02  0.31003777074E+02  0.39341689051E+02  0.41800000000E+01 0. -1.
</event>
<event>
11    1  0.7157190E-009  0.1890061E+03  0.7561462E-02  0.1062582E+00
         22   -1    0    0    0    0  0.00000000000E+00  0.00000000000E+00  0.13938066308E+03  0.13938066308E+03  0.00000000000E+00 0. -1.
         22   -1    0    0    0    0 -0.00000000000E+00 -0.00000000000E+00 -0.54967343707E+03  0.54967343707E+03  0.00000000000E+00 0. -1.
        -24    2    1    2    0    0  0.14238028171E+03  0.50133433854E+02 -0.36409532057E+03  0.40215037719E+03  0.79837444846E+02 0.  0.
         25    2    1    2    0    0 -0.96782863909E+02 -0.66920454414E+02 -0.75101952264E+02  0.18743507641E+03  0.12508530957E+03 0.  0.
         24    2    1    2    0    0 -0.45597417800E+02  0.16787020560E+02  0.28904498841E+02  0.99468646550E+02  0.81838945642E+02 0.  0.
        -11    1    5    5    0    0 -0.25909526029E+02  0.67834638422E+01 -0.27807927241E+02  0.38608285875E+02  0.00000000000E+00 0.  1.
         12    1    5    5    0    0 -0.19687891771E+02  0.10003556718E+02  0.56712426082E+02  0.60860360675E+02  0.00000000000E+00 0. -1.
         11    1    3    3    0    0  0.13256109051E+03  0.15127370522E+02 -0.30265694580E+03  0.33076049779E+03  0.00000000000E+00 0. -1.
        -12    1    3    3    0    0  0.98191911951E+01  0.35006063332E+02 -0.61438374771E+02  0.71389879396E+02  0.00000000000E+00 0.  1.
          5    1    4    4  501    0 -0.24350300484E+02 -0.28367067882E+02 -0.95618311572E+02  0.10275194199E+03  0.41800000000E+01 0.  1.
         -5    1    4    4    0  501 -0.72432563425E+02 -0.38553386532E+02  0.20516359308E+02  0.84683134429E+02  0.41800000000E+01 0.  1.
</event>
<event>
11    1  0.7157190E-009  0.1434602E+03  0.7561462E-02  0.1103755E+00
         22   -1    0    0    0    0  0.00000000000E+00  0.00000000000E+00  0.79210117874E+03  0.79210117874E+03  0.00000000000E+00 0.  1.
         22   -1    0    0    0    0 -0.00000000000E+00 -0.00000000000E+00 -0.91901517933E+02  0.91901517933E+02  0.00000000000E+00 0.  1.
        -24    2    1    2    0    0 -0.31662937867E+02 -0.64097072518E+02 -0.25741041341E+02  0.11317346652E+03  0.83872856008E+02 0.  0.
         25    2    1    2    0    0  0.35126447507E+02  0.52588558717E+02  0.24130744483E+03  0.27906315052E+03  0.12509010841E+03 0.  0.
         24    2    1    2    0    0 -0.34635096396E+01  0.11508513801E+02  0.48463325731E+03  0.49176607963E+03  0.82583540697E+02 0.  0.
        -13    1    5    5    0    0 -0.24793778633E+02 -0.22072809498E+02  0.34448584128E+03  0.34608154418E+03  0.00000000000E+00 0.  1.
         14    1    5    5    0    0  0.21330268994E+02  0.33581323299E+02  0.14014741603E+03  0.14568453545E+03  0.00000000000E+00 0. -1.
         13    1    3    3    0    0 -0.21827002958E+01 -0.77219280177E+02 -0.23855300867E+02  0.80849593635E+02  0.00000000000E+00 0. -1.
        -14    1    3    3    0    0 -0.29480237572E+02  0.13122207658E+02 -0.18857404740E+01  0.32323872884E+02  0.00000000000E+00 0.  1.
          5    1    4    4  501    0 -0.34549204559E+00  0.82705703065E+02  0.97847088597E+02  0.12818688635E+03  0.41800000000E+01 0.  1.
         -5    1    4    4    0  501  0.35471939552E+02 -0.30117144348E+02  0.14346035624E+03  0.15087626417E+03  0.41800000000E+01 0.  1.
</event>
<event>
11    1  0.7157190E-009  0.1949378E+03  0.7561462E-02  0.1058162E+00
         22   -1    0    0    0    0  0.00000000000E+00  0.00000000000E+00  0.74409391047E+03  0.74409391047E+03  0.00000000000E+00 0.  1.
         22   -1    0    0    0    0 -0.00000000000E+00 -0.00000000000E+00 -0.15873578209E+03  0.15873578209E+03  0.00000000000E+00 0. -1.
         24    2    1    2    0    0 -0.14119332579E+03  0.48308020376E+02 -0.57574940579E+02  0.17889800708E+03  0.80127417738E+02 0.  0.
         25    2    1    2    0    0  0.16432005463E+03  0.20122170671E+02  0.36219234713E+03  0.41741714727E+03  0.12509115241E+03 0.  0.
        -24    2    1    2    0    0 -0.23126728835E+02 -0.68430191048E+02  0.28074072182E+03  0.30651453821E+03  0.99590524700E+02 0.  0.
        -11    1    3    3    0    0 -0.18987164453E+00  0.24486099333E+02 -0.18394204744E+02  0.30626000064E+02  0.00000000000E+00 0.  1.
         12    1    3    3    0    0 -0.14100345415E+03  0.23821921043E+02 -0.39180735836E+02  0.14827200701E+03  0.00000000000E+00 0. -1.
         13    1    5    5    0    0  0.22987849411E+01 -0.77680388611E+02  0.11638271942E+03  0.13994450531E+03  0.00000000000E+00 0. -1.
        -14    1    5    5    0    0 -0.25425513776E+02  0.92501975634E+01  0.16435800241E+03  0.16657003290E+03  0.00000000000E+00 0.  1.
          5    1    4    4  501    0 -0.10937045641E+02 -0.22840612813E+02  0.62555680561E+02  0.67616552201E+02  0.41800000000E+01 0.  1.
         -5    1    4    4    0  501  0.17525710027E+03  0.42962783484E+02  0.29963666657E+03  0.34980059507E+03  0.41800000000E+01 0.  1.
</event>
<event>
11    1  0.7157190E-009  0.1262696E+03  0.7561462E-02  0.1123939E+00
         22   -1    0    0    0    0  0.00000000000E+00  0.00000000000E+00  0.16229467504E+03  0.16229467504E+03  0.00000000000E+00 0. -1.
         22   -1    0    0    0    0 -0.00000000000E+00 -0.00000000000E+00 -0.26596384239E+04  0.26596384239E+04  0.00000000000E+00 0.  1.
         24    2    1    2    0    0 -0.15510646787E+02 -0.70821264557E+01 -0.25407022778E+04  0.25419938858E+04  0.79209307727E+02 0.  0.
         25    2    1    2    0    0  0.25389258314E+02  0.99642569329E+01 -0.67728724413E+02  0.14483994983E+03  0.12509008795E+03 0.  0.
        -24    2    1    2    0    0 -0.98786115269E+01 -0.28821304772E+01  0.11108725333E+03  0.13509926332E+03  0.76194090697E+02 0.  0.
        -11    1    3    3    0    0 -0.71715764204E+01 -0.71858633511E+01 -0.25139794978E+04  0.25139999967E+04  0.00000000000E+00 0.  1.
         12    1    3    3    0    0 -0.83390703665E+01  0.10373689543E+00 -0.26722780004E+02  0.27993889103E+02  0.00000000000E+00 0. -1.
         11    1    5    5    0    0  0.64116712352E+01  0.21369118670E+02  0.10213562383E+03  0.10454393534E+03  0.00000000000E+00 0. -1.
        -12    1    5    5    0    0 -0.16290282762E+02 -0.24251249148E+02  0.89516294969E+01  0.30555327986E+02  0.00000000000E+00 0.  1.
          5    1    4    4  501    0  0.55148060046E+02  0.50079575530E+02 -0.56199091905E+02  0.93408151374E+02  0.41800000000E+01 0.  1.
         -5    1    4    4    0  501 -0.29758801732E+02 -0.40115318597E+02 -0.11529632508E+02  0.51431798457E+02  0.41800000000E+01 0.  1.
</event>
<event>
11    1  0.7157190E-009  0.1808395E+03  0.7561462E-02  0.1068966E+00
         22   -1    0    0    0    0  0.00000000000E+00  0.00000000000E+00  0.11047542639E+04  0.11047542639E+04  0.00000000000E+00 0. -1.
         22   -1    0    0    0    0 -0.00000000000E+00 -0.00000000000E+00 -0.10179159818E+04  0.10179159818E+04  0.00000000000E+00 0. -1.
        -24    2    1    2    0    0 -0.10980414762E+03 -0.68049012586E+02 -0.90091869878E+03  0.91377253873E+03  0.81474731002E+02 0.  0.
         25    2    1    2    0    0  0.15551057415E+03  0.35450738792E+02 -0.13277656165E+02  0.20313559339E+03  0.12508988606E+03 0.  0.
         24    2    1    2    0    0 -0.45706426536E+02  0.32598273794E+02  0.10010346370E+04  0.10057621136E+04  0.79594973146E+02 0.  0.
        -13    1    5    5    0    0  0.54675582027E+01 -0.16936000220E+02  0.78947177653E+02  0.80928234601E+02  0.00000000000E+00 0.  1.
         14    1    5    5    0    0 -0.51173984739E+02  0.49534274015E+02  0.92208745932E+03  0.92483387895E+03  0.00000000000E+00 0. -1.
         11    1    3    3    0    0 -0.92037389417E+02 -0.13290503182E+02 -0.62805573319E+03  0.63490276619E+03  0.00000000000E+00 0. -1.
        -12    1    3    3    0    0 -0.17766758199E+02 -0.54758509404E+02 -0.27286296559E+03  0.27886977254E+03  0.00000000000E+00 0.  1.
          5    1    4    4  501    0  0.16710479147E+03  0.53590273778E+02  0.34219262741E+01  0.17557081408E+03  0.41800000000E+01 0. -1.
         -5    1    4    4    0  501 -0.11594217321E+02 -0.18139534987E+02 -0.16699582439E+02  0.27564779311E+02  0.41800000000E+01 0. -1.
</event>
<event>
11    1  0.7157190E-009  0.1315787E+03  0.7561462E-02  0.1117344E+00
         22   -1    0    0    0    0  0.00000000000E+00  0.00000000000E+00  0.16301826100E+03  0.16301826100E+03  0.00000000000E+00 0.  1.
         22   -1    0    0    0    0 -0.00000000000E+00 -0.00000000000E+00 -0.10048781795E+04  0.10048781795E+04  0.00000000000E+00 0.  1.
        -24    2    1    2    0    0  0.10421631254E+02  0.41198542770E+02 -0.82844518024E+03  0.83382766422E+03  0.84505778685E+02 0.  0.
         25    2    1    2    0    0 -0.43750572565E+02 -0.11137966365E+02 -0.12995237166E+03  0.18593980767E+03  0.12509127180E+03 0.  0.
         24    2    1    2    0    0  0.33328941311E+02 -0.30060576405E+02  0.11653763338E+03  0.14812896864E+03  0.79666271235E+02 0.  0.
        -13    1    5    5    0    0  0.33108356975E+02 -0.55946814129E+02  0.90335346028E+02  0.11129548084E+03  0.00000000000E+00 0.  1.
         14    1    5    5    0    0  0.22058433597E+00  0.25886237724E+02  0.26202287354E+02  0.36833487800E+02  0.00000000000E+00 0. -1.
         11    1    3    3    0    0 -0.27490586346E+02 -0.34586670698E-01 -0.11723009959E+03  0.12041025614E+03  0.00000000000E+00 0. -1.
        -12    1    3    3    0    0  0.37912217601E+02  0.41233129441E+02 -0.71121508065E+03  0.71341740808E+03  0.00000000000E+00 0.  1.
          5    1    4    4  501    0  0.27583102096E+01  0.40205433469E+02 -0.22278540212E+01  0.40577344531E+02  0.41800000000E+01 0.  1.
         -5    1    4    4    0  501 -0.46508882775E+02 -0.51343399834E+02 -0.12772451764E+03  0.14536246314E+03  0.41800000000E+01 0.  1.
</event>
<event>
11    1  0.7157190E-009  0.1289058E+03  0.7561462E-02  0.1120621E+00
         22   -1    0    0    0    0  0.00000000000E+00  0.00000000000E+00  0.13360959149E+04  0.13360959149E+04  0.00000000000E+00 0. -1.
         22   -1    0    0    0    0 -0.00000000000E+00 -0.00000000000E+00 -0.39757438702E+02  0.39757438702E+02  0.00000000000E+00 0.  1.
        -24    2    1    2    0    0  0.28769681018E+02  0.74737270117E+01  0.33325000788E+02  0.92584920199E+02  0.81104011180E+02 0.  0.
         25    2    1    2    0    0 -0.46329219896E+02  0.46538261433E+01  0.57060008123E+03  0.58600330008E+03  0.12508940915E+03 0.  0.
         24    2    1    2    0    0  0.17559538878E+02 -0.12127553155E+02  0.69241339414E+03  0.69726513329E+03  0.79290243839E+02 0.  0.
        -11    1    5    5    0    0  0.45819095862E+02 -0.25666974522E+01  0.27643088342E+03  0.28021422303E+03  0.00000000000E+00 0.  1.
         12    1    5    5    0    0 -0.28259556984E+02 -0.95608557027E+01  0.41598251072E+03  0.41705091025E+03  0.00000000000E+00 0. -1.
         13    1    3    3    0    0  0.30784540354E+02 -0.93799806031E+01  0.55803232501E+02  0.64417953386E+02  0.00000000000E+00 0. -1.
        -14    1    3    3    0    0 -0.20148593361E+01  0.16853707615E+02 -0.22478231713E+02  0.28166966813E+02  0.00000000000E+00 0.  1.
          5    1    4    4  501    0 -0.55278213538E+02 -0.47318583064E+02  0.22865835256E+03  0.23999342448E+03  0.41800000000E+01 0.  1.
         -5    1    4    4    0  501  0.89489936425E+01  0.51972409208E+02  0.34194172867E+03  0.34600987560E+03  0.41800000000E+01 0.  1.
</event>
<event>
11    1  0.7157190E-009  0.1665268E+03  0.7561462E-02  0.1081094E+00
         22   -1    0    0    0    0  0.00000000000E+00  0.00000000000E+00  0.23087439733E+04  0.23087439733E+04  0.00000000000E+00 0. -1.
         22   -1    0    0    0    0 -0.00000000000E+00 -0.00000000000E+00 -0.17677143977E+03  0.17677143977E+03  0.00000000000E+00 0. -1.
         24    2    1    2    0    0 -0.31842482441E+02  0.10176184365E+03 -0.11564223039E+03  0.17468900204E+03  0.75984902937E+02 0.  0.
         25    2    1    2    0    0  0.75171324989E+02 -0.12720606749E+03  0.27731388460E+03  0.33820511750E+03  0.12509036416E+03 0.  0.
        -24    2    1    2    0    0 -0.43328842548E+02  0.25444223845E+02  0.19703008793E+04  0.19726212935E+04  0.81390512465E+02 0.  0.
        -13    1    3    3    0    0  0.48764405437E+01  0.13979653074E+02  0.94166839251E+01  0.17546632401E+02  0.00000000000E+00 0.  1.
         14    1    3    3    0    0 -0.36718922984E+02  0.87782190575E+02 -0.12505891431E+03  0.15714236964E+03  0.00000000000E+00 0. -1.
         11    1    5    5    0    0 -0.46086797836E+02  0.20558923237E+02  0.19617217766E+04  0.19623707578E+04  0.00000000000E+00 0. -1.
        -12    1    5    5    0    0  0.27579552881E+01  0.48853006074E+01  0.85791027155E+01  0.10250535732E+02  0.00000000000E+00 0.  1.
          5    1    4    4  501    0 -0.83926315430E+01  0.10384801713E+02  0.90458477853E+02  0.91534086472E+02  0.41800000000E+01 0.  1.
         -5    1    4    4    0  501  0.83563956532E+02 -0.13759086921E+03  0.18685540675E+03  0.24667103103E+03  0.41800000000E+01 0.  1.
</event>
<event>
11    1  0.7157190E-009  0.1336078E+03  0.7561462E-02  0.1114914E+00
         22   -1    0    0    0    0  0.00000000000E+00  0.00000000000E+00  0.98596290295E+03  0.98596290295E+03  0.00000000000E+00 0. -1.
         22   -1    0    0    0    0 -0.00000000000E+00 -0.00000000000E+00 -0.46675154748E+03  0.46675154748E+03  0.00000000000E+00 0.  1.
         24    2    1    2    0    0  0.29319370725E+01 -0.12897997476E+02 -0.32020916626E+03  0.33048545217E+03  0.80695534833E+02 0.  0.
         25    2    1    2    0    0 -0.49651213038E+02  0.16786718346E+02 -0.10610560621E+03  0.17219948148E+03  0.12508886795E+03 0.  0.
        -24    2    1    2    0    0  0.46719275965E+02 -0.38887208703E+01  0.94552612795E+03  0.95002951678E+03  0.79615395599E+02 0.  0.
        -11    1    3    3    0    0  0.35161118198E+02 -0.80749120236E+01 -0.25549250146E+03  0.25802698840E+03  0.00000000000E+00 0.  1.
         12    1    3    3    0    0 -0.32229181125E+02 -0.48230854526E+01 -0.64716664800E+02  0.72458463772E+02  0.00000000000E+00 0. -1.
         13    1    5    5    0    0  0.68181033948E+02  0.65898934676E+01  0.69467298824E+03  0.69804200495E+03  0.00000000000E+00 0. -1.
        -14    1    5    5    0    0 -0.21461757983E+02 -0.10478614338E+02  0.25085313971E+03  0.25198751183E+03  0.00000000000E+00 0.  1.
          5    1    4    4  501    0  0.35821616385E+02 -0.20768286545E+02 -0.25666086068E+02  0.48895094851E+02  0.41800000000E+01 0.  1.
         -5    1    4    4    0  501 -0.85472829422E+02  0.37555004892E+02 -0.80439520146E+02  0.12330438663E+03  0.41800000000E+01 0.  1.
</event>
<event>
11    1  0.7157190E-009  0.1553610E+03  0.7561462E-02  0.1091523E+00
         22   -1    0    0    0    0  0.00000000000E+00  0.00000000000E+00  0.42825390860E+02  0.42825390860E+02  0.00000000000E+00 0.  1.
         22   -1    0    0    0    0 -0.00000000000E+00 -0.00000000000E+00 -0.14756961681E+04  0.14756961681E+04  0.00000000000E+00 0. -1.
        -24    2    1    2    0    0 -0.61472310623E+02  0.16907292918E+02 -0.85286901974E+03  0.85913586644E+03  0.81634371719E+02 0.  0.
         25    2    1    2    0    0  0.12509117602E+03 -0.61190553427E+02 -0.45176253013E+03  0.48900803283E+03  0.12508951351E+03 0.  0.
         24    2    1    2    0    0 -0.63618865401E+02  0.44283260510E+02 -0.12823922742E+03  0.17037765974E+03  0.81085635555E+02 0.  0.
        -13    1    5    5    0    0 -0.56718978308E+02 -0.50633871389E+01 -0.94061542014E+02  0.10995569142E+03  0.00000000000E+00 0.  1.
         14    1    5    5    0    0 -0.68998870934E+01  0.49346647648E+02 -0.34177685402E+02  0.60421968319E+02  0.00000000000E+00 0. -1.
         13    1    3    3    0    0 -0.34526486833E+02 -0.32354356161E+02 -0.37005716668E+03  0.37306995224E+03  0.00000000000E+00 0. -1.
        -14    1    3    3    0    0 -0.26945823790E+02  0.49261649078E+02 -0.48281185306E+03  0.48606591420E+03  0.00000000000E+00 0.  1.
          5    1    4    4  501    0  0.43256126887E+01 -0.30885499354E+02 -0.24936506249E+03  0.25134245918E+03  0.41800000000E+01 0.  1.
         -5    1    4    4    0  501  0.12076556334E+03 -0.30305054073E+02 -0.20239746764E+03  0.23766557365E+03  0.41800000000E+01 0.  1.
</event>
<event>
11    1  0.7157190E-009  0.1282415E+03  0.7561462E-02  0.1121449E+00
         22   -1    0    0    0    0  0.00000000000E+00  0.00000000000E+00  0.19849904120E+03  0.19849904120E+03  0.00000000000E+00 0. -1.
         22   -1    0    0    0    0 -0.00000000000E+00 -0.00000000000E+00 -0.12810988474E+04  0.12810988474E+04  0.00000000000E+00 0. -1.
        -24    2    1    2    0    0 -0.75218970480E+01  0.27256319661E+02 -0.11250745506E+04  0.11287852093E+04  0.86970215560E+02 0.  0.
         25    2    1    2    0    0  0.97522752400E+01 -0.26292825250E+02 -0.11622176969E+03  0.17303600589E+03  0.12509012772E+03 0.  0.
         24    2    1    2    0    0 -0.22303781919E+01 -0.96349441085E+00  0.15869651416E+03  0.17777667336E+03  0.80087821017E+02 0.  0.
        -11    1    5    5    0    0  0.37402986948E+02 -0.11319440121E+02  0.73454359576E+02  0.83202500552E+02  0.00000000000E+00 0.  1.
         12    1    5    5    0    0 -0.39633365140E+02  0.10355945711E+02  0.85242154588E+02  0.94574172810E+02  0.00000000000E+00 0. -1.
         13    1    3    3    0    0  0.17705884357E+02 -0.18996880132E+02 -0.69656502416E+03  0.69704893134E+03  0.00000000000E+00 0. -1.
        -14    1    3    3    0    0 -0.25227781405E+02  0.46253199793E+02 -0.42850952648E+03  0.43173627799E+03  0.00000000000E+00 0.  1.
          5    1    4    4  501    0  0.19506224541E+02 -0.69896542126E+02 -0.10334723218E+03  0.12634928649E+03  0.41800000000E+01 0. -1.
         -5    1    4    4    0  501 -0.97539493010E+01  0.43603716876E+02 -0.12874537516E+02  0.46686719403E+02  0.41800000000E+01 0. -1.
</event>
<event>
11    1  0.7157190E-009  0.3484507E+03  0.7561462E-02  0.9815438E-01
         22   -1    0    0    0    0  0.00000000000E+00  0.00000000000E+00  0.64578375493E+02  0.64578375493E+02  0.00000000000E+00 0.  1.
         22   -1    0    0    0    0 -0.00000000000E+00 -0.00000000000E+00 -0.27874564099E+04  0.27874564099E+04  0.00000000000E+00 0. -1.
         24    2    1    2    0    0  0.32675913320E+03  0.33907029579E+02 -0.76025164105E+03  0.83235110487E+03  0.83093840147E+02 0.  0.
         25    2    1    2    0    0 -0.31001007432E+03 -0.10087976860E+03 -0.17166678975E+04  0.17518218161E+04  0.12509209122E+03 0.  0.
        -24    2    1    2    0    0 -0.16749058881E+02  0.66972739025E+02 -0.24595849585E+03  0.26786186439E+03  0.80551337443E+02 0.  0.
        -13    1    3    3    0    0  0.11528119160E+03  0.52283232146E+02 -0.28523579333E+03  0.31206208885E+03  0.00000000000E+00 0.  1.
         14    1    3    3    0    0  0.21147794160E+03 -0.18376202567E+02 -0.47501584773E+03  0.52028901602E+03  0.00000000000E+00 0. -1.
         13    1    5    5    0    0  0.79779041191E+01  0.11534171353E+02 -0.17023089782E+03  0.17080761879E+03  0.00000000000E+00 0. -1.
        -14    1    5    5    0    0 -0.24726963000E+02  0.55438567672E+02 -0.75727598030E+02  0.97054245596E+02  0.00000000000E+00 0.  1.
          5    1    4    4  501    0 -0.82606075796E+02  0.32516999944E+01 -0.69795820700E+03  0.70284953470E+03  0.41800000000E+01 0. -1.
         -5    1    4    4    0  501 -0.22740399853E+03 -0.10413146860E+03 -0.10187096905E+04  0.10489722814E+04  0.41800000000E+01 0. -1.
</event>
<event>
11    1  0.7412261E-009  0.1612265E+03  0.7561462E-02  0.1085929E+00
         22   -1    0    0    0    0  0.00000000000E+00  0.00000000000E+00  0.45040994759E+03  0.45040994759E+03  0.00000000000E+00 0.  1.
         22   -1    0    0    0    0 -0.00000000000E+00 -0.00000000000E+00 -0.83085238765E+03  0.83085238765E+03  0.00000000000E+00 0. -1.
        -24    2    1    2    0    0 -0.47365323735E+02 -0.30452158945E+02 -0.60736503423E+03  0.61593718356E+03  0.85530821410E+02 0.  0.
         25    2    1    2    0    0  0.89352570566E+02  0.12068768518E+03 -0.16347936625E+03  0.25479782712E+03  0.12508809014E+03 0.  0.
         24    2    1    2    0    0 -0.41987246831E+02 -0.90235526231E+02  0.39040196043E+03  0.41052732456E+03  0.78826482951E+02 0.  0.
        -11    1    5    5    0    0 -0.47401994629E+02 -0.89183140296E+02  0.39198597711E+03  0.40478832476E+03  0.00000000000E+00 0.  1.
         12    1    5    5    0    0  0.54147477981E+01 -0.10523859349E+01 -0.15840166847E+01  0.57389998023E+01  0.00000000000E+00 0. -1.
         11    1    3    3    0    0 -0.45237299128E+02 -0.31643117989E+02 -0.60991527638E+03  0.61240864177E+03  0.00000000000E+00 0. -1.
        -12    1    3    3    0    0 -0.21280246071E+01  0.11909590432E+01  0.25502421503E+01  0.35285417945E+01  0.00000000000E+00 0.  1.
          5    1    4    4  501    0  0.66865875839E+02  0.24127033233E+02 -0.98207427741E+01  0.71882393345E+02  0.41800000000E+01 0. -1.
         -5    1    4    4    0  501  0.22486694727E+02  0.96560651943E+02 -0.15365862348E+03  0.18291543377E+03  0.41800000000E+01 0. -1.
</event>
<event>
11    1  0.7157190E-009  0.3271512E+03  0.7561462E-02  0.9893129E-01
         22   -1    0    0    0    0  0.00000000000E+00  0.00000000000E+00  0.79148342560E+02  0.79148342560E+02  0.00000000000E+00 0. -1.
         22   -1    0    0    0    0 -0.00000000000E+00 -0.00000000000E+00 -0.12708952618E+04  0.12708952618E+04  0.00000000000E+00 0. -1.
         24    2    1    2    0    0 -0.18624714679E+03 -0.11553796346E+03 -0.83027546653E+03  0.86250948447E+03  0.80797523509E+02 0.  0.
         25    2    1    2    0    0  0.54823859984E+02  0.20605546620E+02 -0.10519562411E+03  0.17361972738E+03  0.12508975269E+03 0.  0.
        -24    2    1    2    0    0  0.13142328680E+03  0.94932416837E+02 -0.25627582860E+03  0.31391439251E+03  0.81121522534E+02 0.  0.
        -13    1    3    3    0    0 -0.23840107858E+02 -0.80173840812E+01 -0.31393532027E+02  0.40226645936E+02  0.00000000000E+00 0.  1.
         14    1    3    3    0    0 -0.16240703893E+03 -0.10752057938E+03 -0.79888193450E+03  0.82228283854E+03  0.00000000000E+00 0. -1.
         13    1    5    5    0    0  0.12271864555E+03  0.10897312249E+03 -0.23978976556E+03  0.29057553073E+03  0.00000000000E+00 0. -1.
        -14    1    5    5    0    0  0.87046412528E+01 -0.14040705653E+02 -0.16486063039E+02  0.23338861778E+02  0.00000000000E+00 0.  1.
          5    1    4    4  501    0  0.72444177530E+01  0.80703666002E+01 -0.12116524649E+03  0.12172141045E+03  0.41800000000E+01 0. -1.
         -5    1    4    4    0  501  0.47579442231E+02  0.12535180020E+02  0.15969622375E+02  0.51898316928E+02  0.41800000000E+01 0. -1.
</event>
<event>
11    1  0.8933028E-009  0.1691871E+03  0.7561462E-02  0.1078741E+00
         22   -1    0    0    0    0  0.00000000000E+00  0.00000000000E+00  0.11036486706E+04  0.11036486706E+04  0.00000000000E+00 0.  1.
         22   -1    0    0    0    0 -0.00000000000E+00 -0.00000000000E+00 -0.39842734665E+03  0.39842734665E+03  0.00000000000E+00 0.  1.
        -24    2    1    2    0    0 -0.12045175767E+01 -0.89688374693E+01 -0.27271003897E+03  0.28467602948E+03  0.81165174179E+02 0.  0.
         25    2    1    2    0    0  0.34204958188E+01  0.12250977473E+03 -0.48355960206E+02  0.18167510771E+03  0.12508877319E+03 0.  0.
         24    2    1    2    0    0 -0.22159782421E+01 -0.11354093726E+03  0.10262873231E+04  0.10357248800E+04  0.81017915069E+02 0.  0.
        -11    1    5    5    0    0 -0.34545333153E+02 -0.22485822627E+02  0.23871562982E+03  0.24224810460E+03  0.00000000000E+00 0.  1.
         12    1    5    5    0    0  0.32329354911E+02 -0.91055114637E+02  0.78757169326E+03  0.79347677541E+03  0.00000000000E+00 0. -1.
         11    1    3    3    0    0 -0.97571687991E+01 -0.29363062566E+02 -0.38354682341E+02  0.49279543867E+02  0.00000000000E+00 0. -1.
        -12    1    3    3    0    0  0.85526512224E+01  0.20394225097E+02 -0.23435535663E+03  0.23539648561E+03  0.00000000000E+00 0.  1.
          5    1    4    4  501    0  0.49642392650E+02  0.19271660793E+02 -0.42627596845E+02  0.68339947838E+02  0.41800000000E+01 0. -1.
         -5    1    4    4    0  501 -0.46221896832E+02  0.10323811394E+03 -0.57283633615E+01  0.11333515987E+03  0.41800000000E+01 0. -1.
</event>
<event>
11    1  0.7157190E-009  0.1562954E+03  0.7561462E-02  0.1090614E+00
         22   -1    0    0    0    0  0.00000000000E+00  0.00000000000E+00  0.68426387721E+03  0.68426387721E+03  0.00000000000E+00 0. -1.
         22   -1    0    0    0    0 -0.00000000000E+00 -0.00000000000E+00 -0.48871274935E+03  0.48871274935E+03  0.00000000000E+00 0. -1.
        -24    2    1    2    0    0 -0.58460865623E+02 -0.72775044140E+02 -0.44647100478E+03  0.46324468681E+03  0.80903658038E+02 0.  0.
         25    2    1    2    0    0  0.80006198216E+02  0.68007340841E+02  0.19267702324E+03  0.25258247691E+03  0.12508989646E+03 0.  0.
         24    2    1    2    0    0 -0.21545332594E+02  0.47677032993E+01  0.44934510941E+03  0.45714946284E+03  0.81164472982E+02 0.  0.
        -13    1    5    5    0    0  0.47989453147E+01  0.15983186576E+02  0.16876682921E+02  0.23734248580E+02  0.00000000000E+00 0.  1.
         14    1    5    5    0    0 -0.26344277908E+02 -0.11215483276E+02  0.43246842649E+03  0.43341521426E+03  0.00000000000E+00 0. -1.
         11    1    3    3    0    0 -0.39443331404E+02 -0.43197488382E+02 -0.40350818504E+03  0.40772620076E+03  0.00000000000E+00 0. -1.
        -12    1    3    3    0    0 -0.19017534218E+02 -0.29577555758E+02 -0.42962819748E+02  0.55518486048E+02  0.00000000000E+00 0.  1.
          5    1    4    4  501    0  0.21227979712E+02  0.11907639874E+02 -0.15441335166E+02  0.29126040612E+02  0.41800000000E+01 0. -1.
         -5    1    4    4    0  501  0.58778218504E+02  0.56099700967E+02  0.20811835840E+03  0.22345643630E+03  0.41800000000E+01 0. -1.
</event>
<event>
11    1  0.7157190E-009  0.2879060E+03  0.7561462E-02  0.1005444E+00
         22   -1    0    0    0    0  0.00000000000E+00  0.00000000000E+00  0.43911322095E+03  0.43911322095E+03  0.00000000000E+00 0. -1.
         22   -1    0    0    0    0 -0.00000000000E+00 -0.00000000000E+00 -0.40728304248E+03  0.40728304248E+03  0.00000000000E+00 0. -1.
        -24    2    1    2    0    0  0.23331398540E+03  0.11278359490E+03 -0.14502716612E+03  0.30762744156E+03  0.80288285713E+02 0.  0.
         25    2    1    2    0    0 -0.22414604592E+03 -0.13190474982E+03 -0.52713655535E+02  0.29337026189E+03  0.12508824148E+03 0.  0.
         24    2    1    2    0    0 -0.91679394852E+01  0.19121154927E+02  0.22957100012E+03  0.24539855998E+03  0.84071038205E+02 0.  0.
        -13    1    5    5    0    0 -0.21138705292E+02  0.46414892704E+02  0.97806089312E+02  0.11030511426E+03  0.00000000000E+00 0.  1.
         14    1    5    5    0    0  0.11970765807E+02 -0.27293737777E+02  0.13176491081E+03  0.13509344572E+03  0.00000000000E+00 0. -1.
         11    1    3    3    0    0  0.10828946862E+03  0.96103662906E+02 -0.69375499630E+02  0.16054744777E+03  0.00000000000E+00 0. -1.
        -12    1    3    3    0    0  0.12502451678E+03  0.16679931991E+02 -0.75651666490E+02  0.14707999378E+03  0.00000000000E+00 0.  1.
          5    1    4    4  501    0 -0.21268364107E+03 -0.92144142370E+02 -0.75116490131E+01  0.23194562169E+03  0.41800000000E+01 0.  1.
         -5    1    4    4    0  501 -0.11462404850E+02 -0.39760607453E+02 -0.45202006522E+02  0.61424640199E+02  0.41800000000E+01 0.  1.
</event>
<event>
11    1  0.7157190E-009  0.1568446E+03  0.7561462E-02  0.1090083E+00
         22   -1    0    0    0    0  0.00000000000E+00  0.00000000000E+00  0.41385421723E+03  0.41385421723E+03  0.00000000000E+00 0.  1.
         22   -1    0    0    0    0 -0.00000000000E+00 -0.00000000000E+00 -0.27046518754E+03  0.27046518754E+03  0.00000000000E+00 0. -1.
         24    2    1    2    0    0  0.26864361594E+02 -0.36793148511E+01 -0.16323552544E+03  0.18437745097E+03  0.81326357224E+02 0.  0.
         25    2    1    2    0    0  0.55552727931E+02 -0.48374292764E+02 -0.23791132368E+02  0.14710030425E+03  0.12508518597E+03 0.  0.
        -24    2    1    2    0    0 -0.82417089525E+02  0.52053607615E+02  0.33041568749E+03  0.35284164955E+03  0.76292518682E+02 0.  0.
        -13    1    3    3    0    0  0.28565024583E+02  0.28041921925E+02 -0.38062690762E+02  0.55236567985E+02  0.00000000000E+00 0.  1.
         14    1    3    3    0    0 -0.17006629893E+01 -0.31721236776E+02 -0.12517283468E+03  0.12914088299E+03  0.00000000000E+00 0. -1.
         11    1    5    5    0    0 -0.26781164464E+01  0.21106469488E+02  0.14993773160E+02  0.26028226899E+02  0.00000000000E+00 0. -1.
        -12    1    5    5    0    0 -0.79738973078E+02  0.30947138127E+02  0.31542191433E+03  0.32681342265E+03  0.00000000000E+00 0.  1.
          5    1    4    4  501    0  0.39609499484E+01 -0.75216485204E+02 -0.41584204611E+02  0.86138999553E+02  0.41800000000E+01 0.  1.
         -5    1    4    4    0  501  0.51591777982E+02  0.26842192440E+02  0.17793072243E+02  0.60961304696E+02  0.41800000000E+01 0.  1.
</event>
<event>
11    1  0.7157190E-009  0.1689781E+03  0.7561462E-02  0.1078924E+00
         22   -1    0    0    0    0  0.00000000000E+00  0.00000000000E+00  0.29551325538E+03  0.29551325538E+03  0.00000000000E+00 0.  1.
         22   -1    0    0    0    0 -0.00000000000E+00 -0.00000000000E+00 -0.56780405427E+03  0.56780405427E+03  0.00000000000E+00 0. -1.
        -24    2    1    2    0    0 -0.71224134909E+02  0.84764856502E+02 -0.47263604719E+03  0.49187689817E+03  0.79373116125E+02 0.  0.
         25    2    1    2    0    0  0.11018733045E+03 -0.13213467461E+03  0.13623648820E+03  0.25260275797E+03  0.12508777953E+03 0.  0.
         24    2    1    2    0    0 -0.38963195544E+02  0.47369818109E+02  0.64108760101E+02  0.11883765351E+03  0.79059626209E+02 0.  0.
        -11    1    5    5    0    0 -0.17596488392E+02  0.59847575382E+02  0.15475336676E+02  0.64271725728E+02  0.00000000000E+00 0.  1.
         12    1    5    5    0    0 -0.21366707152E+02 -0.12477757273E+02  0.48633423425E+02  0.54565927786E+02  0.00000000000E+00 0. -1.
         13    1    3    3    0    0 -0.72898945315E+02  0.98403574922E+02 -0.42757941302E+03  0.44477148540E+03  0.00000000000E+00 0. -1.
        -14    1    3    3    0    0  0.16748104064E+01 -0.13638718421E+02 -0.45056634169E+02  0.47105412775E+02  0.00000000000E+00 0.  1.
          5    1    4    4  501    0 -0.14325988034E+02 -0.14046161449E+02 -0.13726995648E+02  0.24666402132E+02  0.41800000000E+01 0.  1.
         -5    1    4    4    0  501  0.12451331849E+03 -0.11808851316E+03  0.14996348385E+03  0.22793635583E+03  0.41800000000E+01 0.  1.
</event>
<event>
11    1  0.7157190E-009  0.1466334E+03  0.7561462E-02  0.1100369E+00
         22   -1    0    0    0    0  0.00000000000E+00  0.00000000000E+00  0.16830623666E+03  0.16830623666E+03  0.00000000000E+00 0. -1.
         22   -1    0    0    0    0 -0.00000000000E+00 -0.00000000000E+00 -0.12852848488E+04  0.12852848488E+04  0.00000000000E+00 0.  1.
         24    2    1    2    0    0 -0.22985048709E+02  0.76559851032E+02 -0.11779654254E+04  0.11836524710E+04  0.83910102094E+02 0.  0.
         25    2    1    2    0    0 -0.38590401905E+01 -0.18906797645E+02 -0.32268505698E+02  0.13062600302E+03  0.12509810956E+03 0.  0.
        -24    2    1    2    0    0  0.26844088900E+02 -0.57653053387E+02  0.93255318984E+02  0.13931261149E+03  0.81651512713E+02 0.  0.
        -13    1    3    3    0    0  0.11324830155E+02  0.45390370969E+02 -0.94292113385E+03  0.94408092991E+03  0.00000000000E+00 0.  1.
         14    1    3    3    0    0 -0.34309878864E+02  0.31169480062E+02 -0.23504429158E+03  0.23957154105E+03  0.00000000000E+00 0. -1.
         13    1    5    5    0    0 -0.20351506794E+02 -0.16409560762E+02  0.65955804134E+02  0.70948048685E+02  0.00000000000E+00 0. -1.
        -14    1    5    5    0    0  0.47195595694E+02 -0.41243492625E+02  0.27299514850E+02  0.68364562807E+02  0.00000000000E+00 0.  1.
          5    1    4    4  501    0 -0.50171221632E+02 -0.48580283197E+02 -0.27802834421E+02  0.75283898659E+02  0.41800000000E+01 0. -1.
         -5    1    4    4    0  501  0.46312181441E+02  0.29673485552E+02 -0.44656712775E+01  0.55342104357E+02  0.41800000000E+01 0. -1.
</event>
<event>
11    1  0.7157190E-009  0.1398040E+03  0.7561462E-02  0.1107777E+00
         22   -1    0    0    0    0  0.00000000000E+00  0.00000000000E+00  0.54417120498E+03  0.54417120498E+03  0.00000000000E+00 0. -1.
         22   -1    0    0    0    0 -0.00000000000E+00 -0.00000000000E+00 -0.28319415233E+03  0.28319415233E+03  0.00000000000E+00 0.  1.
        -24    2    1    2    0    0  0.28679745454E+02 -0.25382224908E+01 -0.17176290067E+03  0.19197935172E+03  0.80775039865E+02 0.  0.
         25    2    1    2    0    0 -0.66283875196E+02 -0.46255458463E+02 -0.38203219798E+02  0.15375250312E+03  0.12508887506E+03 0.  0.
         24    2    1    2    0    0  0.37604129742E+02  0.48793680954E+02  0.47094317312E+03  0.48163350248E+03  0.79927870786E+02 0.  0.
        -11    1    5    5    0    0  0.16876625551E+02  0.51620142163E+02  0.14208292844E+03  0.15210857346E+03  0.00000000000E+00 0.  1.
         12    1    5    5    0    0  0.20727504192E+02 -0.28264612086E+01  0.32886024467E+03  0.32952492901E+03  0.00000000000E+00 0. -1.
         13    1    3    3    0    0 -0.45014508587E+01  0.29718400692E+02 -0.11437149407E+03  0.11825516925E+03  0.00000000000E+00 0. -1.
        -14    1    3    3    0    0  0.33181196312E+02 -0.32256623183E+02 -0.57391406603E+02  0.73724182463E+02  0.00000000000E+00 0.  1.
          5    1    4    4  501    0 -0.48576910090E+02  0.28304913808E+02  0.17375293609E+02  0.58993707864E+02  0.41800000000E+01 0.  1.
         -5    1    4    4    0  501 -0.17706965106E+02 -0.74560372271E+02 -0.55578513406E+02  0.94758795259E+02  0.41800000000E+01 0.  1.
</event>
<event>
11    1  0.1036140E-008  0.1767138E+03  0.7561462E-02  0.1072332E+00
         22   -1    0    0    0    0  0.00000000000E+00  0.00000000000E+00  0.15447968965E+04  0.15447968965E+04  0.00000000000E+00 0.  1.
         22   -1    0    0    0    0 -0.00000000000E+00 -0.00000000000E+00 -0.39213401270E+03  0.39213401270E+03  0.00000000000E+00 0. -1.
        -24    2    1    2    0    0  0.40019533807E+01 -0.82064102138E+02 -0.23871863231E+03  0.26489560480E+03  0.80203263895E+02 0.  0.
         25    2    1    2    0    0  0.36356347219E+02  0.19800983559E+03 -0.33706242336E+02  0.23940246608E+03  0.12509097096E+03 0.  0.
         24    2    1    2    0    0 -0.40358300600E+02 -0.11594573345E+03  0.14250877584E+04  0.14326328383E+04  0.80557585975E+02 0.  0.
        -13    1    5    5    0    0 -0.54657367634E+02 -0.11901246645E+03  0.13292149501E+04  0.13356510692E+04  0.00000000000E+00 0.  1.
         14    1    5    5    0    0  0.14299067034E+02  0.30667329930E+01  0.95872808259E+02  0.96981769074E+02  0.00000000000E+00 0. -1.
         13    1    3    3    0    0 -0.13518595429E+02 -0.52833740052E+02 -0.21864546742E+03  0.22534417439E+03  0.00000000000E+00 0. -1.
        -14    1    3    3    0    0  0.17520548810E+02 -0.29230362085E+02 -0.20073164887E+02  0.39551430402E+02  0.00000000000E+00 0.  1.
          5    1    4    4  501    0  0.59639186721E+02  0.20402965190E+03 -0.30323486191E+02  0.21476013983E+03  0.41800000000E+01 0. -1.
         -5    1    4    4    0  501 -0.23282839502E+02 -0.60198163041E+01 -0.33827561446E+01  0.24642326244E+02  0.41800000000E+01 0. -1.
</event>
<event>
11    1  0.7157190E-009  0.1680514E+03  0.7561462E-02  0.1079740E+00
         22   -1    0    0    0    0  0.00000000000E+00  0.00000000000E+00  0.13011922544E+04  0.13011922544E+04  0.00000000000E+00 0.  1.
         22   -1    0    0    0    0 -0.00000000000E+00 -0.00000000000E+00 -0.19366294638E+03  0.19366294638E+03  0.00000000000E+00 0.  1.
        -24    2    1    2    0    0 -0.11909618797E+03 -0.59823739557E+02 -0.10355022955E+03  0.18664890625E+03  0.79701834118E+02 0.  0.
         25    2    1    2    0    0  0.33131415185E+01  0.84176707407E+02  0.85373345610E+02  0.17330100590E+03  0.12509170848E+03 0.  0.
         24    2    1    2    0    0  0.11578304645E+03 -0.24352967849E+02  0.11257061919E+04  0.11349052886E+04  0.82442723277E+02 0.  0.
        -13    1    5    5    0    0  0.10063962753E+03 -0.51552829075E+02  0.88336493414E+03  0.89057264481E+03  0.00000000000E+00 0.  1.
         14    1    5    5    0    0  0.15143418922E+02  0.27199861226E+02  0.24234125781E+03  0.24433264379E+03  0.00000000000E+00 0. -1.
         13    1    3    3    0    0 -0.48415323592E+02  0.24590115211E+01 -0.25671491340E+01  0.48545654295E+02  0.00000000000E+00 0. -1.
        -14    1    3    3    0    0 -0.70680864378E+02 -0.62282751079E+02 -0.10098308042E+03  0.13810325196E+03  0.00000000000E+00 0.  1.
          5    1    4    4  501    0  0.49767221160E+01  0.56087358597E+02 -0.23214520990E+02  0.61048717777E+02  0.41800000000E+01 0. -1.
         -5    1    4    4    0  501 -0.16635805975E+01  0.28089348810E+02  0.10858786660E+03  0.11225228813E+03  0.41800000000E+01 0. -1.
</event>
<event>
11    1  0.7157190E-009  0.1513087E+03  0.7561462E-02  0.1095549E+00
         22   -1    0    0    0    0  0.00000000000E+00  0.00000000000E+00  0.27911453793E+04  0.27911453793E+04  0.00000000000E+00 0.  1.
         22   -1    0    0    0    0 -0.00000000000E+00 -0.00000000000E+00 -0.47627157535E+03  0.47627157535E+03  0.00000000000E+00 0.  1.
        -24    2    1    2    0    0 -0.10030940531E+02 -0.24892694159E+02 -0.44731075945E+03  0.45523647006E+03  0.80206372367E+02 0.  0.
         25    2    1    2    0    0 -0.52550942698E+02  0.81844169525E+02  0.24167674122E+03  0.28899001208E+03  0.12509000830E+03 0.  0.
         24    2    1    2    0    0  0.62581883229E+02 -0.56951475366E+02  0.25205078222E+04  0.25231904725E+04  0.79815513790E+02 0.  0.
        -11    1    5    5    0    0  0.67187637942E+02 -0.66221693777E+02  0.24596622714E+04  0.24614706946E+04  0.00000000000E+00 0.  1.
         12    1    5    5    0    0 -0.46057547127E+01  0.92702184109E+01  0.60845550859E+02  0.61719777910E+02  0.00000000000E+00 0. -1.
         11    1    3    3    0    0  0.84404828152E+00  0.74912899727E+01 -0.98208991713E+00  0.76023906478E+01  0.00000000000E+00 0. -1.
        -12    1    3    3    0    0 -0.10874988812E+02 -0.32383984132E+02 -0.44632866953E+03  0.44763407941E+03  0.00000000000E+00 0.  1.
          5    1    4    4  501    0  0.45279727840E+01  0.90199955866E+02  0.19400565529E+03  0.21403785006E+03  0.41800000000E+01 0.  1.
         -5    1    4    4    0  501 -0.57078915482E+02 -0.83557863414E+01  0.47671085928E+02  0.74952162020E+02  0.41800000000E+01 0.  1.
</event>
<event>
11    1  0.7157190E-009  0.1694049E+03  0.7561462E-02  0.1078551E+00
         22   -1    0    0    0    0  0.00000000000E+00  0.00000000000E+00  0.42512740009E+03  0.42512740009E+03  0.00000000000E+00 0. -1.
         22   -1    0    0    0    0 -0.00000000000E+00 -0.00000000000E+00 -0.15202917417E+04  0.15202917417E+04  0.00000000000E+00 0.  1.
         24    2    1    2    0    0 -0.10794591007E+03 -0.28436311894E+02 -0.12964833137E+04  0.13036876431E+04  0.79193084281E+02 0.  0.
         25    2    1    2    0    0  0.12626370209E+03  0.11013362332E+03 -0.15956297409E+03  0.26302032611E+03  0.12508961506E+03 0.  0.
        -24    2    1    2    0    0 -0.18317792021E+02 -0.81697311431E+02  0.36088194623E+03  0.37871117258E+03  0.78589954348E+02 0.  0.
        -11    1    3    3    0    0 -0.71994908463E+02  0.18069684664E+02 -0.87201623374E+03  0.87516975054E+03  0.00000000000E+00 0.  1.
         12    1    3    3    0    0 -0.35951001609E+02 -0.46505996557E+02 -0.42446707998E+03  0.42851789253E+03  0.00000000000E+00 0. -1.
         11    1    5    5    0    0 -0.12579083743E+02 -0.43793089292E+02  0.31776887692E+03  0.32101888909E+03  0.00000000000E+00 0. -1.
        -12    1    5    5    0    0 -0.57387082787E+01 -0.37904222138E+02  0.43113069313E+02  0.57692283489E+02  0.00000000000E+00 0.  1.
          5    1    4    4  501    0  0.72604078743E+02  0.11247069539E+03 -0.16062316232E+03  0.20913699397E+03  0.41800000000E+01 0.  1.
         -5    1    4    4    0  501  0.53659623350E+02 -0.23370720689E+01  0.10601882285E+01  0.53883332145E+02  0.41800000000E+01 0.  1.
</event>
<event>
11    1  0.7157190E-009  0.1292969E+03  0.7561462E-02  0.1120136E+00
         22   -1    0    0    0    0  0.00000000000E+00  0.00000000000E+00  0.64798808651E+03  0.64798808651E+03  0.00000000000E+00 0.  1.
         22   -1    0    0    0    0 -0.00000000000E+00 -0.00000000000E+00 -0.89119455457E+03  0.89119455457E+03  0.00000000000E+00 0. -1.
         24    2    1    2    0    0  0.33914671447E+02 -0.67421403283E+01 -0.71517095287E+03  0.72042461488E+03  0.79664750698E+02 0.  0.
         25    2    1    2    0    0 -0.12744167623E+02  0.16224933262E+02 -0.14696390199E+03  0.19409242356E+03  0.12509123921E+03 0.  0.
        -24    2    1    2    0    0 -0.21170503824E+02 -0.94827929337E+01  0.61892838680E+03  0.62466560264E+03  0.81219785347E+02 0.  0.
        -13    1    3    3    0    0  0.34317929519E+02 -0.11364782796E+02 -0.12219141746E+03  0.12742692446E+03  0.00000000000E+00 0.  1.
         14    1    3    3    0    0 -0.40325807250E+00  0.46226424675E+01 -0.59297953541E+03  0.59299769043E+03  0.00000000000E+00 0. -1.
         13    1    5    5    0    0  0.13664384362E+02 -0.33207193836E+02  0.40739097840E+03  0.40897046642E+03  0.00000000000E+00 0. -1.
        -14    1    5    5    0    0 -0.34834888186E+02  0.23724400902E+02  0.21153740840E+03  0.21569513621E+03  0.00000000000E+00 0.  1.
          5    1    4    4  501    0  0.60238465558E+01 -0.53490763292E+02 -0.54623588297E+02  0.76803367656E+02  0.41800000000E+01 0. -1.
         -5    1    4    4    0  501 -0.18768014179E+02  0.69715696554E+02 -0.92340313698E+02  0.11728905591E+03  0.41800000000E+01 0. -1.
</event>
<event>
11    1  0.7157190E-009  0.1516739E+03  0.7561462E-02  0.1095181E+00
         22   -1    0    0    0    0  0.00000000000E+00  0.00000000000E+00  0.64894232343E+03  0.64894232343E+03  0.00000000000E+00 0. -1.
         22   -1    0    0    0    0 -0.00000000000E+00 -0.00000000000E+00 -0.36196650787E+03  0.36196650787E+03  0.00000000000E+00 0.  1.
        -24    2    1    2    0    0 -0.89014098004E+02 -0.98249809443E+01 -0.30945730775E+03  0.33572333440E+03  0.94479056118E+02 0.  0.
         25    2    1    2    0    0  0.48090674583E+02  0.11723242145E+02  0.91458773273E+02  0.16267769824E+03  0.12509667825E+03 0.  0.
         24    2    1    2    0    0  0.40923423420E+02 -0.18982612004E+01  0.50497435003E+03  0.51250779866E+03  0.77374540494E+02 0.  0.
        -11    1    5    5    0    0  0.30844426629E+02  0.33708805471E+02  0.19242166595E+03  0.19777198929E+03  0.00000000000E+00 0.  1.
         12    1    5    5    0    0  0.10078996791E+02 -0.35607066672E+02  0.31255268408E+03  0.31473580937E+03  0.00000000000E+00 0. -1.
         11    1    3    3    0    0 -0.45620303032E+02 -0.33554595464E+02 -0.64545683284E+02  0.85867736409E+02  0.00000000000E+00 0. -1.
        -12    1    3    3    0    0 -0.43393794972E+02  0.23729614520E+02 -0.24491162446E+03  0.24985559799E+03  0.00000000000E+00 0.  1.
          5    1    4    4  501    0  0.59622008427E+02 -0.31122577326E+02  0.77315876813E+01  0.67828080883E+02  0.41800000000E+01 0. -1.
         -5    1    4    4    0  501 -0.11531333843E+02  0.42845819470E+02  0.83727185592E+02  0.94849617360E+02  0.41800000000E+01 0. -1.
</event>
<event>
11    1  0.7157190E-009  0.1382277E+03  0.7561462E-02  0.1109554E+00
         22   -1    0    0    0    0  0.00000000000E+00  0.00000000000E+00  0.87817078687E+02  0.87817078687E+02  0.00000000000E+00 0.  1.
         22   -1    0    0    0    0 -0.00000000000E+00 -0.00000000000E+00 -0.93319046552E+03  0.93319046552E+03  0.00000000000E+00 0. -1.
        -24    2    1    2    0    0  0.27354098246E+02  0.50742288572E+02 -0.56598406377E+03  0.57446793694E+03  0.79702092797E+02 0.  0.
         25    2    1    2    0    0 -0.20020669186E+02 -0.60297040163E+02 -0.32477578412E+03  0.35378478280E+03  0.12509117611E+03 0.  0.
         24    2    1    2    0    0 -0.73334290598E+01  0.95547515907E+01  0.45386461059E+02  0.92754824464E+02  0.79990337880E+02 0.  0.
        -11    1    5    5    0    0  0.20094138627E+02 -0.54847457634E+01  0.55979865049E+02  0.59729407616E+02  0.00000000000E+00 0.  1.
         12    1    5    5    0    0 -0.27427567687E+02  0.15039497354E+02 -0.10593403990E+02  0.33025416848E+02  0.00000000000E+00 0. -1.
         11    1    3    3    0    0  0.36274826926E+02 -0.73937137662E+01 -0.28497409239E+03  0.28736868898E+03  0.00000000000E+00 0. -1.
        -12    1    3    3    0    0 -0.89207286798E+01  0.58136002338E+02 -0.28100997138E+03  0.28709924796E+03  0.00000000000E+00 0.  1.
          5    1    4    4  501    0  0.20633764329E+02 -0.79881669899E+02 -0.27176268794E+03  0.28404095545E+03  0.41800000000E+01 0.  1.
         -5    1    4    4    0  501 -0.40654433515E+02  0.19584629736E+02 -0.53013096178E+02  0.69743827345E+02  0.41800000000E+01 0.  1.
</event>
<event>
11    1  0.7157190E-009  0.1436003E+03  0.7561462E-02  0.1103603E+00
         22   -1    0    0    0    0  0.00000000000E+00  0.00000000000E+00  0.77838323636E+02  0.77838323636E+02  0.00000000000E+00 0. -1.
         22   -1    0    0    0    0 -0.00000000000E+00 -0.00000000000E+00 -0.12921273314E+04  0.12921273314E+04  0.00000000000E+00 0.  1.
         24    2    1    2    0    0 -0.71513756985E+02  0.10749446671E+02 -0.11256493434E+04  0.11308504520E+04  0.80663079802E+02 0.  0.
         25    2    1    2    0    0  0.42939694268E+02  0.14326377165E+02 -0.58036045713E+02  0.14513648083E+03  0.12508938020E+03 0.  0.
        -24    2    1    2    0    0  0.28574062717E+02 -0.25075823836E+02 -0.30603618634E+02  0.93978722189E+02  0.80312793188E+02 0.  0.
        -13    1    3    3    0    0 -0.29756451465E+02  0.45242598793E+02 -0.57411304023E+03  0.57666118485E+03  0.00000000000E+00 0.  1.
         14    1    3    3    0    0 -0.41757305520E+02 -0.34493152122E+02 -0.55153630315E+03  0.55418926713E+03  0.00000000000E+00 0. -1.
         11    1    5    5    0    0  0.35135546567E+02 -0.29158584058E+01  0.18421782096E+02  0.39779026112E+02  0.00000000000E+00 0. -1.
        -12    1    5    5    0    0 -0.65614838503E+01 -0.22159965430E+02 -0.49025400730E+02  0.54199696077E+02  0.00000000000E+00 0.  1.
          5    1    4    4  501    0 -0.35054934232E+02 -0.17816835246E+02  0.48415577291E+01  0.39839692688E+02  0.41800000000E+01 0. -1.
         -5    1    4    4    0  501  0.77994628500E+02  0.32143212410E+02 -0.62877603442E+02  0.10529678814E+03  0.41800000000E+01 0. -1.
</event>
<event>
11    1  0.7157190E-009  0.1405718E+03  0.7561462E-02  0.1106922E+00
         22   -1    0    0    0    0  0.00000000000E+00  0.00000000000E+00  0.92723709888E+03  0.92723709888E+03  0.00000000000E+00 0. -1.
         22   -1    0    0    0    0 -0.00000000000E+00 -0.00000000000E+00 -0.40214902378E+03  0.40214902378E+03  0.00000000000E+00 0. -1.
         24    2    1    2    0    0 -0.36874934520E+01  0.57717884217E+01 -0.36511267396E+03  0.37415998664E+03  0.81495519894E+02 0.  0.
         25    2    1    2    0    0  0.42845557049E+02  0.45318741068E+02  0.13944307672E+03  0.19744045282E+03  0.12509528653E+03 0.  0.
        -24    2    1    2    0    0 -0.39158063597E+02 -0.51090529490E+02  0.75075767235E+03  0.75778568321E+03  0.80364562691E+02 0.  0.
        -11    1    3    3    0    0  0.25529149439E+02  0.15909356230E+02 -0.56561118307E+02  0.64062510027E+02  0.00000000000E+00 0.  1.
         12    1    3    3    0    0 -0.29216642891E+02 -0.10137567809E+02 -0.30855155565E+03  0.31009747661E+03  0.00000000000E+00 0. -1.
         13    1    5    5    0    0 -0.12882249099E+02 -0.23251536916E+02  0.64087023930E+03  0.64142127336E+03  0.00000000000E+00 0. -1.
        -14    1    5    5    0    0 -0.26275814499E+02 -0.27838992574E+02  0.10988743305E+03  0.11636440984E+03  0.00000000000E+00 0.  1.
          5    1    4    4  501    0  0.22004970821E+02  0.65889368119E+02  0.15054025331E+03  0.16584772485E+03  0.41800000000E+01 0.  1.
         -5    1    4    4    0  501  0.20840586228E+02 -0.20570627051E+02 -0.11097176596E+02  0.31592727961E+02  0.41800000000E+01 0.  1.
</event>
<event>
11    1  0.7157190E-009  0.1523908E+03  0.7561462E-02  0.1094461E+00
         22   -1    0    0    0    0  0.00000000000E+00  0.00000000000E+00  0.62274256865E+03  0.62274256865E+03  0.00000000000E+00 0.  1.
         22   -1    0    0    0    0 -0.00000000000E+00 -0.00000000000E+00 -0.45851445418E+03  0.45851445418E+03  0.00000000000E+00 0.  1.
         24    2    1    2    0    0 -0.82706142773E+02  0.19980617274E+02 -0.33794682119E+03  0.35772103538E+03  0.80726415034E+02 0.  0.
         25    2    1    2    0    0  0.11049406775E+03  0.40958404345E+02 -0.35595050692E+02  0.17550076199E+03  0.12508788882E+03 0.  0.
        -24    2    1    2    0    0 -0.27787924976E+02 -0.60939021620E+02  0.53776998635E+03  0.54803522547E+03  0.81610765252E+02 0.  0.
        -11    1    3    3    0    0 -0.90888145840E+02  0.16251475982E+02 -0.33608731247E+03  0.34853901808E+03  0.00000000000E+00 0.  1.
         12    1    3    3    0    0  0.81820030666E+01  0.37291412924E+01 -0.18595087207E+01  0.91820172971E+01  0.00000000000E+00 0. -1.
         13    1    5    5    0    0  0.51179167596E+00 -0.32392161370E+00 -0.30419371094E+01  0.31016507393E+01  0.00000000000E+00 0. -1.
        -14    1    5    5    0    0 -0.28299716652E+02 -0.60615100006E+02  0.54081192346E+03  0.54493357473E+03  0.00000000000E+00 0.  1.
          5    1    4    4  501    0  0.67153048677E+02 -0.36001914629E+02 -0.41528603824E+02  0.86877886364E+02  0.41800000000E+01 0.  1.
         -5    1    4    4    0  501  0.43341019073E+02  0.76960318974E+02  0.59335531315E+01  0.88622875622E+02  0.41800000000E+01 0.  1.
</event>
<event>
11    1  0.7157190E-009  0.1456343E+03  0.7561462E-02  0.1101425E+00
         22   -1    0    0    0    0  0.00000000000E+00  0.00000000000E+00  0.12588894980E+03  0.12588894980E+03  0.00000000000E+00 0. -1.
         22   -1    0    0    0    0 -0.00000000000E+00 -0.00000000000E+00 -0.76478444261E+03  0.76478444261E+03  0.00000000000E+00 0. -1.
        -24    2    1    2    0    0  0.85611088195E+01 -0.17256236889E+01 -0.41859424893E+03  0.42655725916E+03  0.81570091002E+02 0.  0.
         25    2    1    2    0    0 -0.82121264101E+02  0.82641067794E+01 -0.29557209289E+03  0.33139462734E+03  0.12508932589E+03 0.  0.
         24    2    1    2    0    0  0.73560155282E+02 -0.65384830905E+01  0.75270849009E+02  0.13272150591E+03  0.80594349763E+02 0.  0.
        -13    1    5    5    0    0  0.17466387314E+02  0.33654685696E+02  0.13938832799E+02  0.40398064495E+02  0.00000000000E+00 0.  1.
         14    1    5    5    0    0  0.56093767968E+02 -0.40193168787E+02  0.61332016210E+02  0.92323441413E+02  0.00000000000E+00 0. -1.
         13    1    3    3    0    0  0.10865389493E+02 -0.52339825096E+01 -0.42135871033E+03  0.42153127290E+03  0.00000000000E+00 0. -1.
        -14    1    3    3    0    0 -0.23042806733E+01  0.35083588207E+01  0.27644614030E+01  0.50259862599E+01  0.00000000000E+00 0.  1.
          5    1    4    4  501    0 -0.65191670808E+02 -0.53586407028E+02 -0.18754362511E+03  0.20569769246E+03  0.41800000000E+01 0.  1.
         -5    1    4    4    0  501 -0.16929593293E+02  0.61850513807E+02 -0.10802846778E+03  0.12569693488E+03  0.41800000000E+01 0.  1.
</event>
<event>
11    1  0.7157190E-009  0.1429523E+03  0.7561462E-02  0.1104306E+00
         22   -1    0    0    0    0  0.00000000000E+00  0.00000000000E+00  0.94232136601E+02  0.94232136601E+02  0.00000000000E+00 0.  1.
         22   -1    0    0    0    0 -0.00000000000E+00 -0.00000000000E+00 -0.16290075206E+04  0.16290075206E+04  0.00000000000E+00 0. -1.
         24    2    1    2    0    0  0.37999901135E+02  0.54596513427E+02 -0.12714930021E+04  0.12755660246E+04  0.77132724364E+02 0.  0.
         25    2    1    2    0    0 -0.45041191497E+02 -0.83231282930E+02 -0.31318772490E+03  0.35026031967E+03  0.12505832687E+03 0.  0.
        -24    2    1    2    0    0  0.70412903620E+01  0.28634769503E+02  0.49905342929E+02  0.97413312919E+02  0.78289721462E+02 0.  0.
        -13    1    3    3    0    0  0.47854160315E+02  0.10765389613E+02 -0.41374629883E+03  0.41664362958E+03  0.00000000000E+00 0.  1.
         14    1    3    3    0    0 -0.98542591800E+01  0.43831123815E+02 -0.85774670323E+03  0.85892239506E+03  0.00000000000E+00 0. -1.
         11    1    5    5    0    0 -0.10014816860E+02 -0.21651381574E+02 -0.96965063543E+00  0.23875072841E+02  0.00000000000E+00 0. -1.
        -12    1    5    5    0    0  0.17056107222E+02  0.50286151077E+02  0.50874993564E+02  0.73538240078E+02  0.00000000000E+00 0.  1.
          5    1    4    4  501    0 -0.73211041265E+02 -0.20471376186E+02 -0.96743331585E+02  0.12310840106E+03  0.41800000000E+01 0. -1.
         -5    1    4    4    0  501  0.28169849769E+02 -0.62759906745E+02 -0.21644439332E+03  0.22715191861E+03  0.41800000000E+01 0. -1.
</event>
<event>
11    1  0.7157190E-009  0.3278246E+03  0.7561462E-02  0.9890576E-01
         22   -1    0    0    0    0  0.00000000000E+00  0.00000000000E+00  0.58015027983E+03  0.58015027983E+03  0.00000000000E+00 0. -1.
         22   -1    0    0    0    0 -0.00000000000E+00 -0.00000000000E+00 -0.17432814739E+04  0.17432814739E+04  0.00000000000E+00 0.  1.
         24    2    1    2    0    0 -0.12849552774E+02 -0.30403168346E+03 -0.15855011856E+04  0.16164181196E+04  0.79957190739E+02 0.  0.
         25    2    1    2    0    0 -0.11823724480E+02  0.28870932615E+03  0.43293759316E+02  0.31782912241E+03  0.12509246977E+03 0.  0.
        -24    2    1    2    0    0  0.24673277254E+02  0.15322357309E+02  0.37907623217E+03  0.38918451173E+03  0.83200054875E+02 0.  0.
        -11    1    3    3    0    0 -0.27421142206E+01 -0.29111986478E+03 -0.13861307482E+04  0.14163745077E+04  0.00000000000E+00 0.  1.
         12    1    3    3    0    0 -0.10107438554E+02 -0.12911818683E+02 -0.19937043741E+03  0.20004361197E+03  0.00000000000E+00 0. -1.
         11    1    5    5    0    0  0.42387723102E+02  0.24053921608E+02  0.35363388384E+03  0.35697651745E+03  0.00000000000E+00 0. -1.
        -12    1    5    5    0    0 -0.17714445848E+02 -0.87315642989E+01  0.25442348336E+02  0.32207994282E+02  0.00000000000E+00 0.  1.
          5    1    4    4  501    0 -0.90011581634E+01  0.29029507073E+03  0.16948655015E+02  0.29095872258E+03  0.41800000000E+01 0.  1.
         -5    1    4    4    0  501 -0.28225663166E+01 -0.15857445832E+01  0.26345104301E+02  0.26870399832E+02  0.41800000000E+01 0.  1.
</event>
<event>
11    1  0.7157190E-009  0.1457068E+03  0.7561462E-02  0.1101348E+00
         22   -1    0    0    0    0  0.00000000000E+00  0.00000000000E+00  0.14463768362E+04  0.14463768362E+04  0.00000000000E+00 0.  1.
         22   -1    0    0    0    0 -0.00000000000E+00 -0.00000000000E+00 -0.37796765704E+03  0.37796765704E+03  0.00000000000E+00 0. -1.
        -24    2    1    2    0    0  0.31106452712E+02 -0.15764814796E+02 -0.36151533574E+03  0.37144479560E+03  0.77857288790E+02 0.  0.
         25    2    1    2    0    0  0.54493112148E+00 -0.63126269606E+02  0.72446015131E+03  0.73788541736E+03  0.12508859040E+03 0.  0.
         24    2    1    2    0    0 -0.31651383834E+02  0.78891084401E+02  0.70546436360E+03  0.71501428028E+03  0.79623108476E+02 0.  0.
        -13    1    5    5    0    0 -0.20591470366E+02  0.76822464779E+02  0.33249220384E+03  0.34187244019E+03  0.00000000000E+00 0.  1.
         14    1    5    5    0    0 -0.11059913468E+02  0.20686196226E+01  0.37297215976E+03  0.37314184009E+03  0.00000000000E+00 0. -1.
         13    1    3    3    0    0  0.56747728989E+02 -0.13478961051E+02 -0.27796306741E+03  0.28401664385E+03  0.00000000000E+00 0. -1.
        -14    1    3    3    0    0 -0.25641276277E+02 -0.22858537451E+01 -0.83552268329E+02  0.87428151755E+02  0.00000000000E+00 0.  1.
          5    1    4    4  501    0 -0.88084252815E+00 -0.10046685072E+03  0.57761094202E+03  0.58629876063E+03  0.41800000000E+01 0. -1.
         -5    1    4    4    0  501  0.14257736496E+01  0.37340581112E+02  0.14684920929E+03  0.15158665673E+03  0.41800000000E+01 0. -1.
</event>
<event>
11    1  0.7157190E-009  0.1604427E+03  0.7561462E-02  0.1086662E+00
         22   -1    0    0    0    0  0.00000000000E+00  0.00000000000E+00  0.50647452874E+02  0.50647452874E+02  0.00000000000E+00 0.  1.
         22   -1    0    0    0    0 -0.00000000000E+00 -0.00000000000E+00 -0.28932964736E+04  0.28932964736E+04  0.00000000000E+00 0. -1.
        -24    2    1    2    0    0 -0.14134570780E+02  0.38240821207E+02 -0.21977266065E+04  0.21996979940E+04  0.83707118685E+02 0.  0.
         25    2    1    2    0    0  0.10737521619E+03 -0.96337710915E+00 -0.56656405314E+03  0.59006192030E+03  0.12509147981E+03 0.  0.
         24    2    1    2    0    0 -0.93240645409E+02 -0.37277444097E+02 -0.78358361089E+02  0.15418401211E+03  0.86886426113E+02 0.  0.
        -13    1    5    5    0    0 -0.54603066001E+02 -0.58258253335E+02 -0.75874377461E+02  0.11014735609E+03  0.00000000000E+00 0.  1.
         14    1    5    5    0    0 -0.38637579408E+02  0.20980809237E+02 -0.24839836285E+01  0.44036656020E+02  0.00000000000E+00 0. -1.
         13    1    3    3    0    0 -0.15721622558E+02  0.23816350254E+02 -0.21394999775E+04  0.21396902911E+04  0.00000000000E+00 0. -1.
        -14    1    3    3    0    0  0.15870517786E+01  0.14424470952E+02 -0.58226628959E+02  0.60007702969E+02  0.00000000000E+00 0.  1.
          5    1    4    4  501    0  0.58287186238E+02  0.30014496437E+02 -0.48740746165E+03  0.49181477423E+03  0.41800000000E+01 0.  1.
         -5    1    4    4    0  501  0.49088029951E+02 -0.30977873546E+02 -0.79156591494E+02  0.98247146069E+02  0.41800000000E+01 0.  1.
</event>
<event>
11    1  0.7157190E-009  0.1265517E+03  0.7561462E-02  0.1123580E+00
         22   -1    0    0    0    0  0.00000000000E+00  0.00000000000E+00  0.74249892618E+03  0.74249892618E+03  0.00000000000E+00 0. -1.
         22   -1    0    0    0    0 -0.00000000000E+00 -0.00000000000E+00 -0.30203563392E+03  0.30203563392E+03  0.00000000000E+00 0. -1.
         24    2    1    2    0    0  0.14948316426E+02  0.12816836780E+02 -0.21554819551E+03  0.23039743551E+03  0.78957141754E+02 0.  0.
         25    2    1    2    0    0 -0.96934425708E+01 -0.12580026075E+02 -0.24899345698E+02  0.12852950826E+03  0.12509051600E+03 0.  0.
        -24    2    1    2    0    0 -0.52548738552E+01 -0.23681070513E+00  0.68091083347E+03  0.68560761632E+03  0.79941044807E+02 0.  0.
        -13    1    3    3    0    0  0.13602458201E+02  0.52636962031E+01  0.12689103206E+00  0.14585933915E+02  0.00000000000E+00 0.  1.
         14    1    3    3    0    0  0.13458582248E+01  0.75531405766E+01 -0.21567508654E+03  0.21581150159E+03  0.00000000000E+00 0. -1.
         13    1    5    5    0    0 -0.24962358766E+02  0.79109721588E+01  0.62821139069E+03  0.62875691187E+03  0.00000000000E+00 0. -1.
        -14    1    5    5    0    0  0.19707484911E+02 -0.81477828639E+01  0.52699442781E+02  0.56850704451E+02  0.00000000000E+00 0.  1.
          5    1    4    4  501    0  0.32401883746E+02  0.12695105738E+02 -0.58984001992E+02  0.68612190396E+02  0.41800000000E+01 0. -1.
         -5    1    4    4    0  501 -0.42095326316E+02 -0.25275131813E+02  0.34084656294E+02  0.59917317868E+02  0.41800000000E+01 0. -1.
</event>
<event>
11    1  0.7157190E-009  0.1348610E+03  0.7561462E-02  0.1113437E+00
         22   -1    0    0    0    0  0.00000000000E+00  0.00000000000E+00  0.19251931605E+04  0.19251931605E+04  0.00000000000E+00 0. -1.
         22   -1    0    0    0    0 -0.00000000000E+00 -0.00000000000E+00 -0.20967326134E+04  0.20967326134E+04  0.00000000000E+00 0.  1.
         24    2    1    2    0    0 -0.49581799377E+02 -0.10799711142E+01 -0.19865843898E+04  0.19888141932E+04  0.80030221393E+02 0.  0.
         25    2    1    2    0    0  0.88384718980E+02  0.14873030957E+02 -0.53104505596E+02  0.16279805609E+03  0.12510017167E+03 0.  0.
        -24    2    1    2    0    0 -0.38802919604E+02 -0.13793059843E+02  0.18681494425E+04  0.18703135246E+04  0.79965151819E+02 0.  0.
        -13    1    3    3    0    0 -0.59431361871E+02  0.26018088947E+02 -0.12829599969E+04  0.12845993077E+04  0.00000000000E+00 0.  1.
         14    1    3    3    0    0  0.98495624942E+01 -0.27098060061E+02 -0.70362439287E+03  0.70421488552E+03  0.00000000000E+00 0. -1.
         13    1    5    5    0    0 -0.59361889751E+02 -0.15048723630E+01  0.15984622292E+04  0.15995648148E+04  0.00000000000E+00 0. -1.
        -14    1    5    5    0    0  0.20558970148E+02 -0.12288187480E+02  0.26968721330E+03  0.27074870973E+03  0.00000000000E+00 0.  1.
          5    1    4    4  501    0  0.97398592362E+02  0.55356199847E+02 -0.41307410691E+02  0.11947622874E+03  0.41800000000E+01 0.  1.
         -5    1    4    4    0  501 -0.90138733815E+01 -0.40483168890E+02 -0.11797094905E+02  0.43321827349E+02  0.41800000000E+01 0.  1.
</event>
<event>
11    1  0.7157190E-009  0.1303293E+03  0.7561462E-02  0.1118865E+00
         22   -1    0    0    0    0  0.00000000000E+00  0.00000000000E+00  0.22665577574E+03  0.22665577574E+03  0.00000000000E+00 0.  1.
         22   -1    0    0    0    0 -0.00000000000E+00 -0.00000000000E+00 -0.19753144188E+04  0.19753144188E+04  0.00000000000E+00 0. -1.
        -24    2    1    2    0    0 -0.54481348848E+01 -0.37252775041E+02 -0.19179696196E+04  0.19200343480E+04  0.80665879235E+02 0.  0.
         25    2    1    2    0    0  0.36877123934E+02  0.55647956717E+01  0.12227602523E+03  0.17885630913E+03  0.12508902330E+03 0.  0.
         24    2    1    2    0    0 -0.31428989049E+02  0.31687979370E+02  0.47034951339E+02  0.10307953746E+03  0.80132359295E+02 0.  0.
        -11    1    5    5    0    0 -0.82375827526E+00  0.88956461913E+01  0.61592664441E+02  0.62237186728E+02  0.00000000000E+00 0.  1.
         12    1    5    5    0    0 -0.30605230774E+02  0.22792333178E+02 -0.14557713103E+02  0.40842350731E+02  0.00000000000E+00 0. -1.
         13    1    3    3    0    0  0.20552948767E+02  0.17840998354E+02 -0.72425249255E+03  0.72476368417E+03  0.00000000000E+00 0. -1.
        -14    1    3    3    0    0 -0.26001083651E+02 -0.55093773396E+02 -0.11937171271E+04  0.11952706638E+04  0.00000000000E+00 0.  1.
          5    1    4    4  501    0 -0.19259039582E+02  0.52610579584E+02  0.64033841380E+02  0.85185614582E+02  0.41800000000E+01 0.  1.
         -5    1    4    4    0  501  0.56136163516E+02 -0.47045783913E+02  0.58242183847E+02  0.93670694550E+02  0.41800000000E+01 0.  1.
</event>
<event>
11    1  0.7157190E-009  0.1310636E+03  0.7561462E-02  0.1117969E+00
         22   -1    0    0    0    0  0.00000000000E+00  0.00000000000E+00  0.32762609904E+04  0.32762609904E+04  0.00000000000E+00 0. -1.
         22   -1    0    0    0    0 -0.00000000000E+00 -0.00000000000E+00 -0.21654395419E+03  0.21654395419E+03  0.00000000000E+00 0.  1.
        -24    2    1    2    0    0  0.18669431644E+02 -0.15970358090E+02 -0.15517757913E+03  0.17750389860E+03  0.82607220860E+02 0.  0.
         25    2    1    2    0    0  0.18653575271E+02  0.33182716801E+01  0.31157390746E+02  0.13029558136E+03  0.12508872342E+03 0.  0.
         24    2    1    2    0    0 -0.37323006915E+02  0.12652086410E+02  0.31837372246E+04  0.31850054646E+04  0.80771357835E+02 0.  0.
        -11    1    5    5    0    0 -0.18042954592E+02 -0.29746544472E+02  0.73247214136E+03  0.73329792240E+03  0.00000000000E+00 0.  1.
         12    1    5    5    0    0 -0.19280052323E+02  0.42398630882E+02  0.24512650832E+04  0.24517075422E+04  0.00000000000E+00 0. -1.
         13    1    3    3    0    0 -0.16038966555E+02 -0.22153148079E+02 -0.13315761608E+03  0.13593734269E+03  0.00000000000E+00 0. -1.
        -14    1    3    3    0    0  0.34708398198E+02  0.61827899883E+01 -0.22019963054E+02  0.41566555913E+02  0.00000000000E+00 0.  1.
          5    1    4    4  501    0  0.65518139479E+02  0.65795822033E+01  0.46477157354E+02  0.80706356989E+02  0.41800000000E+01 0.  1.
         -5    1    4    4    0  501 -0.46864564208E+02 -0.32613105231E+01 -0.15319766608E+02  0.49589224370E+02  0.41800000000E+01 0.  1.
</event>
<event>
11    1  0.7157190E-009  0.1460002E+03  0.7561462E-02  0.1101037E+00
         22   -1    0    0    0    0  0.00000000000E+00  0.00000000000E+00  0.14398003098E+04  0.14398003098E+04  0.00000000000E+00 0. -1.
         22   -1    0    0    0    0 -0.00000000000E+00 -0.00000000000E+00 -0.35089534449E+03  0.35089534449E+03  0.00000000000E+00 0. -1.
        -24    2    1    2    0    0  0.10700179509E+02 -0.74280466562E+02 -0.32122364134E+03  0.33907830212E+03  0.78469010796E+02 0.  0.
         25    2    1    2    0    0  0.44662128947E+02  0.91993468684E+02  0.33503118148E+03  0.37195386706E+03  0.12508510150E+03 0.  0.
         24    2    1    2    0    0 -0.55362308456E+02 -0.17713002122E+02  0.10750974252E+04  0.10796634851E+04  0.80374323221E+02 0.  0.
        -13    1    5    5    0    0 -0.35425369359E+02  0.25653921116E+02  0.30895147155E+03  0.31203219744E+03  0.00000000000E+00 0.  1.
         14    1    5    5    0    0 -0.19936939098E+02 -0.43366923238E+02  0.76614595365E+03  0.76763128770E+03  0.00000000000E+00 0. -1.
         11    1    3    3    0    0 -0.10791909301E+02 -0.83270439878E+02 -0.22744461594E+03  0.24244893232E+03  0.00000000000E+00 0. -1.
        -12    1    3    3    0    0  0.21492088810E+02  0.89899733161E+01 -0.93779025403E+02  0.96629369797E+02  0.00000000000E+00 0.  1.
          5    1    4    4  501    0  0.64452679650E+02  0.79057489974E+00  0.10011093120E+03  0.11914043759E+03  0.41800000000E+01 0.  1.
         -5    1    4    4    0  501 -0.19790550702E+02  0.91202893784E+02  0.23492025028E+03  0.25281342947E+03  0.41800000000E+01 0.  1.
</event>
<event>
11    1  0.7157190E-009  0.1283134E+03  0.7561462E-02  0.1121359E+00
         22   -1    0    0    0    0  0.00000000000E+00  0.00000000000E+00  0.57535924111E+03  0.57535924111E+03  0.00000000000E+00 0. -1.
         22   -1    0    0    0    0 -0.00000000000E+00 -0.00000000000E+00 -0.20160155814E+03  0.20160155814E+03  0.00000000000E+00 0.  1.
         24    2    1    2    0    0 -0.21245932493E+02 -0.18481649954E+02 -0.16194035151E+03  0.18335347951E+03  0.81245676621E+02 0.  0.
         25    2    1    2    0    0  0.20166432657E+02  0.29587315315E+02  0.14742231027E+03  0.19663418494E+03  0.12509824495E+03 0.  0.
        -24    2    1    2    0    0  0.10794998363E+01 -0.11105665361E+02  0.38827572421E+03  0.39697313480E+03  0.81884861925E+02 0.  0.
        -11    1    3    3    0    0 -0.51378496968E+02 -0.33453478716E+01 -0.10959854954E+03  0.12108998045E+03  0.00000000000E+00 0.  1.
         12    1    3    3    0    0  0.30132564475E+02 -0.15136302082E+02 -0.52341801968E+02  0.62263499065E+02  0.00000000000E+00 0. -1.
         11    1    5    5    0    0 -0.15102024741E+02  0.28702730542E+02  0.25211323475E+03  0.25419087519E+03  0.00000000000E+00 0. -1.
        -12    1    5    5    0    0  0.16181524577E+02 -0.39808395904E+02  0.13616248946E+03  0.14278225961E+03  0.00000000000E+00 0.  1.
          5    1    4    4  501    0 -0.32527763941E+02  0.60486797437E+02  0.81606518991E+02  0.10674176518E+03  0.41800000000E+01 0.  1.
         -5    1    4    4    0  501  0.52694196598E+02 -0.30899482122E+02  0.65815791274E+02  0.89892419767E+02  0.41800000000E+01 0.  1.
</event>
<event>
11    1  0.7157190E-009  0.1538462E+03  0.7561462E-02  0.1093012E+00
         22   -1    0    0    0    0  0.00000000000E+00  0.00000000000E+00  0.14469029106E+04  0.14469029106E+04  0.00000000000E+00 0. -1.
         22   -1    0    0    0    0 -0.00000000000E+00 -0.00000000000E+00 -0.14428043338E+03  0.14428043338E+03  0.00000000000E+00 0.  1.
        -24    2    1    2    0    0  0.79044739753E+02  0.43793357093E+02 -0.86103700895E+02  0.13943924741E+03  0.62157279571E+02 0.  0.
         25    2    1    2    0    0 -0.94300270775E+02  0.12436169590E+01  0.17722291510E+03  0.23653822762E+03  0.12509310069E+03 0.  0.
         24    2    1    2    0    0  0.15255531022E+02 -0.45036974052E+02  0.12115032631E+04  0.12152058690E+04  0.82000532713E+02 0.  0.
        -13    1    5    5    0    0 -0.33284959234E+02 -0.27502248052E+02  0.54755662799E+03  0.54925633635E+03  0.00000000000E+00 0.  1.
         14    1    5    5    0    0  0.48540490256E+02 -0.17534726000E+02  0.66394663506E+03  0.66594953264E+03  0.00000000000E+00 0. -1.
         11    1    3    3    0    0 -0.32863243708E+01 -0.10241663183E+02 -0.49977609973E+01  0.11860405036E+02  0.00000000000E+00 0. -1.
        -12    1    3    3    0    0  0.82331064124E+02  0.54035020276E+02 -0.81105939897E+02  0.12757884238E+03  0.00000000000E+00 0.  1.
          5    1    4    4  501    0 -0.24104633073E+02  0.19530931219E+02 -0.12246543657E+02  0.33614592686E+02  0.41800000000E+01 0. -1.
         -5    1    4    4    0  501 -0.70195637702E+02 -0.18287314260E+02  0.18946945875E+03  0.20292363494E+03  0.41800000000E+01 0. -1.
</event>
<event>
11    1  0.7157190E-009  0.1373916E+03  0.7561462E-02  0.1110507E+00
         22   -1    0    0    0    0  0.00000000000E+00  0.00000000000E+00  0.12695036963E+04  0.12695036963E+04  0.00000000000E+00 0. -1.
         22   -1    0    0    0    0 -0.00000000000E+00 -0.00000000000E+00 -0.30861045190E+03  0.30861045190E+03  0.00000000000E+00 0. -1.
         24    2    1    2    0    0 -0.39406024221E+02  0.46626053063E+02 -0.22934000557E+03  0.25372589618E+03  0.89739448790E+02 0.  0.
         25    2    1    2    0    0  0.18293141886E+02 -0.29732757045E+02 -0.11577937444E+01  0.12987322460E+03  0.12508812134E+03 0.  0.
        -24    2    1    2    0    0  0.21112882336E+02 -0.16893296019E+02  0.11913910437E+04  0.11945150274E+04  0.81990209381E+02 0.  0.
        -13    1    3    3    0    0 -0.24399842754E+02  0.66960277611E+02 -0.10538156034E+03  0.12721754739E+03  0.00000000000E+00 0.  1.
         14    1    3    3    0    0 -0.15006181467E+02 -0.20334224548E+02 -0.12395844523E+03  0.12650834879E+03  0.00000000000E+00 0. -1.
         13    1    5    5    0    0  0.23685809761E+01 -0.58467493408E+01  0.11167448935E+04  0.11167627106E+04  0.00000000000E+00 0. -1.
        -14    1    5    5    0    0  0.18744301360E+02 -0.11046546678E+02  0.74646150208E+02  0.77752316800E+02  0.00000000000E+00 0.  1.
          5    1    4    4  501    0 -0.35274014055E+02  0.30115683016E+02 -0.13538996168E+02  0.48497291143E+02  0.41800000000E+01 0. -1.
         -5    1    4    4    0  501  0.53567155940E+02 -0.59848440060E+02  0.12381202423E+02  0.81375933461E+02  0.41800000000E+01 0. -1.
</event>
<event>
11    1  0.7157190E-009  0.1317153E+03  0.7561462E-02  0.1117179E+00
         22   -1    0    0    0    0  0.00000000000E+00  0.00000000000E+00  0.46592446097E+03  0.46592446097E+03  0.00000000000E+00 0. -1.
         22   -1    0    0    0    0 -0.00000000000E+00 -0.00000000000E+00 -0.47479357251E+03  0.47479357251E+03  0.00000000000E+00 0. -1.
         24    2    1    2    0    0  0.14989117875E+02 -0.35293852657E+02 -0.31206751905E+03  0.32455916610E+03  0.80512024974E+02 0.  0.
         25    2    1    2    0    0 -0.25371636608E+02  0.49514425398E+02 -0.12182715195E+03  0.18326152071E+03  0.12509009455E+03 0.  0.
        -24    2    1    2    0    0  0.10382518733E+02 -0.14220572741E+02  0.42502555947E+03  0.43289734666E+03  0.80270574691E+02 0.  0.
        -11    1    3    3    0    0  0.74006523416E+01 -0.75566867027E+01  0.57910369691E+00  0.10592852784E+02  0.00000000000E+00 0.  1.
         12    1    3    3    0    0  0.75884655333E+01 -0.27737165954E+02 -0.31264662275E+03  0.31396631332E+03  0.00000000000E+00 0. -1.
         13    1    5    5    0    0  0.34350334051E+02 -0.13723285125E+02  0.38079898156E+03  0.38259134643E+03  0.00000000000E+00 0. -1.
        -14    1    5    5    0    0 -0.23967815318E+02 -0.49728761550E+00  0.44226577909E+02  0.50306000235E+02  0.00000000000E+00 0.  1.
          5    1    4    4  501    0 -0.68213897338E+02  0.56456168915E+02 -0.10265232002E+03  0.13562966491E+03  0.41800000000E+01 0.  1.
         -5    1    4    4    0  501  0.42842260730E+02 -0.69417435171E+01 -0.19174831937E+02  0.47631855804E+02  0.41800000000E+01 0.  1.
</event>
<event>
11    1  0.7157190E-009  0.1907297E+03  0.7561462E-02  0.1061280E+00
         22   -1    0    0    0    0  0.00000000000E+00  0.00000000000E+00  0.51760640154E+03  0.51760640154E+03  0.00000000000E+00 0. -1.
         22   -1    0    0    0    0 -0.00000000000E+00 -0.00000000000E+00 -0.22119910956E+04  0.22119910956E+04  0.00000000000E+00 0. -1.
        -24    2    1    2    0    0 -0.71279616916E+02  0.11540157672E+03 -0.13673408416E+04  0.13763912996E+04  0.80210502571E+02 0.  0.
         25    2    1    2    0    0  0.87660387463E+02 -0.14353070813E+03 -0.82350581742E+03  0.84976129270E+03  0.12508803117E+03 0.  0.
         24    2    1    2    0    0 -0.16380770546E+02  0.28129131406E+02  0.49646196498E+03  0.50344490485E+03  0.76959157130E+02 0.  0.
        -11    1    5    5    0    0  0.28939157822E+02  0.15351550589E+02  0.28067733557E+03  0.28258257495E+03  0.00000000000E+00 0.  1.
         12    1    5    5    0    0 -0.45319928368E+02  0.12777580817E+02  0.21578462941E+03  0.22086232990E+03  0.00000000000E+00 0. -1.
         11    1    3    3    0    0 -0.72671089283E+02  0.10396125619E+03 -0.13474190684E+04  0.13533762137E+04  0.00000000000E+00 0. -1.
        -12    1    3    3    0    0  0.13914723664E+01  0.11440320528E+02 -0.19921773282E+02  0.23015085919E+02  0.00000000000E+00 0.  1.
          5    1    4    4  501    0  0.70432759925E+02 -0.51095394197E+02 -0.18653606860E+03  0.20587542415E+03  0.41800000000E+01 0. -1.
         -5    1    4    4    0  501  0.17227627538E+02 -0.92435313931E+02 -0.63696974882E+03  0.64388586856E+03  0.41800000000E+01 0. -1.
</event>
<event>
11    1  0.7157190E-009  0.1378145E+03  0.7561462E-02  0.1110024E+00
         22   -1    0    0    0    0  0.00000000000E+00  0.00000000000E+00  0.69037245117E+03  0.69037245117E+03  0.00000000000E+00 0. -1.
         22   -1    0    0    0    0 -0.00000000000E+00 -0.00000000000E+00 -0.62394935644E+03  0.62394935644E+03  0.00000000000E+00 0.  1.
         24    2    1    2    0    0 -0.17415345597E+02  0.24707246424E+02 -0.50240627686E+03  0.51001045931E+03  0.82370257343E+02 0.  0.
         25    2    1    2    0    0  0.62198811609E+02 -0.59869176905E+02 -0.63498243851E+02  0.16472224569E+03  0.12509348802E+03 0.  0.
        -24    2    1    2    0    0 -0.44783466012E+02  0.35161930481E+02  0.63232761544E+03  0.63958910260E+03  0.77421487596E+02 0.  0.
        -13    1    3    3    0    0 -0.44317347151E+02 -0.65967781294E+01 -0.31045677288E+03  0.31367332141E+03  0.00000000000E+00 0.  1.
         14    1    3    3    0    0  0.26902001555E+02  0.31304024553E+02 -0.19194950398E+03  0.19633713790E+03  0.00000000000E+00 0. -1.
         11    1    5    5    0    0 -0.17340625452E+02  0.56973766790E+02  0.34118110539E+03  0.34633979568E+03  0.00000000000E+00 0. -1.
        -12    1    5    5    0    0 -0.27442840560E+02 -0.21811836309E+02  0.29114651005E+03  0.29324930693E+03  0.00000000000E+00 0.  1.
          5    1    4    4  501    0  0.28181667005E+02  0.30731481242E+02 -0.52588627740E+02  0.67243337678E+02  0.41800000000E+01 0. -1.
         -5    1    4    4    0  501  0.34017144604E+02 -0.90600658147E+02 -0.10909616111E+02  0.97478908013E+02  0.41800000000E+01 0. -1.
</event>
<event>
11    1  0.7157190E-009  0.2015008E+03  0.7561462E-02  0.1053467E+00
         22   -1    0    0    0    0  0.00000000000E+00  0.00000000000E+00  0.50835950317E+03  0.50835950317E+03  0.00000000000E+00 0. -1.
         22   -1    0    0    0    0 -0.00000000000E+00 -0.00000000000E+00 -0.63702392033E+03  0.63702392033E+03  0.00000000000E+00 0.  1.
         24    2    1    2    0    0 -0.13944383729E+03  0.67257756810E+02 -0.51868677253E+03  0.54723814874E+03  0.80407921395E+02 0.  0.
         25    2    1    2    0    0  0.25100486512E+03  0.25456443029E+02  0.19732052377E+03  0.34385196275E+03  0.12508920970E+03 0.  0.
        -24    2    1    2    0    0 -0.11156102783E+03 -0.92714199839E+02  0.19270183161E+03  0.25429331201E+03  0.80556234046E+02 0.  0.
        -13    1    3    3    0    0 -0.93511987366E+02  0.82886443437E+02 -0.34636779046E+03  0.36821909314E+03  0.00000000000E+00 0.  1.
         14    1    3    3    0    0 -0.45931849922E+02 -0.15628686627E+02 -0.17231898207E+03  0.17901905559E+03  0.00000000000E+00 0. -1.
         11    1    5    5    0    0 -0.11582508096E+02  0.56661124875E+01  0.59420831881E+02  0.60803738256E+02  0.00000000000E+00 0. -1.
        -12    1    5    5    0    0 -0.99978519736E+02 -0.98380312327E+02  0.13328099973E+03  0.19348957375E+03  0.00000000000E+00 0.  1.
          5    1    4    4  501    0  0.44141661014E+02  0.55985825967E+02  0.37721076935E+02  0.80766645290E+02  0.41800000000E+01 0. -1.
         -5    1    4    4    0  501  0.20686320411E+03 -0.30529382938E+02  0.15959944683E+03  0.26308531746E+03  0.41800000000E+01 0. -1.
</event>
<event>
11    1  0.7157190E-009  0.3441644E+03  0.7561462E-02  0.9830585E-01
         22   -1    0    0    0    0  0.00000000000E+00  0.00000000000E+00  0.21447439835E+04  0.21447439835E+04  0.00000000000E+00 0.  1.
         22   -1    0    0    0    0 -0.00000000000E+00 -0.00000000000E+00 -0.57058132944E+03  0.57058132944E+03  0.00000000000E+00 0. -1.
         24    2    1    2    0    0 -0.29504183704E+03 -0.13612989368E+03 -0.46981739606E+03  0.57623701097E+03  0.75760633693E+02 0.  0.
         25    2    1    2    0    0  0.23153774920E+03  0.16192264567E+03  0.47578002892E+03  0.56731138109E+03  0.12508754816E+03 0.  0.
        -24    2    1    2    0    0  0.63504087835E+02 -0.25792751996E+02  0.15682000212E+04  0.15717769208E+04  0.80829124185E+02 0.  0.
        -13    1    3    3    0    0 -0.11117117682E+03 -0.16509863580E+02 -0.13093972819E+03  0.17255960874E+03  0.00000000000E+00 0.  1.
         14    1    3    3    0    0 -0.18387066022E+03 -0.11962003010E+03 -0.33887766787E+03  0.40367740223E+03  0.00000000000E+00 0. -1.
         13    1    5    5    0    0  0.43198078712E+02  0.10617237088E+01  0.29658688942E+03  0.29971817469E+03  0.00000000000E+00 0. -1.
        -14    1    5    5    0    0  0.20306009123E+02 -0.26854475705E+02  0.12716131317E+04  0.12720587462E+04  0.00000000000E+00 0.  1.
          5    1    4    4  501    0  0.22888573988E+03  0.17188545412E+03  0.40674325615E+03  0.49738399661E+03  0.41800000000E+01 0.  1.
         -5    1    4    4    0  501  0.26520093210E+01 -0.99628084446E+01  0.69036772770E+02  0.69927384479E+02  0.41800000000E+01 0.  1.
</event>
<event>
11    1  0.7157190E-009  0.1667386E+03  0.7561462E-02  0.1080905E+00
         22   -1    0    0    0    0  0.00000000000E+00  0.00000000000E+00  0.80129220075E+03  0.80129220075E+03  0.00000000000E+00 0. -1.
         22   -1    0    0    0    0 -0.00000000000E+00 -0.00000000000E+00 -0.44345748290E+03  0.44345748290E+03  0.00000000000E+00 0. -1.
        -24    2    1    2    0    0  0.79524083430E+02 -0.78805456115E+02 -0.30503502627E+03  0.33484253292E+03  0.80862691299E+02 0.  0.
         25    2    1    2    0    0 -0.10722805914E+03  0.35190026027E+02 -0.61467175882E+02  0.17936306913E+03  0.12512674477E+03 0.  0.
         24    2    1    2    0    0  0.27703975710E+02  0.43615430088E+02  0.72433692000E+03  0.73054408159E+03  0.79755034130E+02 0.  0.
        -13    1    5    5    0    0 -0.26879653204E+02  0.19025356205E+02  0.18645867201E+03  0.18934443827E+03  0.00000000000E+00 0.  1.
         14    1    5    5    0    0  0.54583628914E+02  0.24590073883E+02  0.53787824799E+03  0.54119964333E+03  0.00000000000E+00 0. -1.
         11    1    3    3    0    0  0.66931287059E+02 -0.90134871944E+02 -0.29379126328E+03  0.31451136499E+03  0.00000000000E+00 0. -1.
        -12    1    3    3    0    0  0.12592796371E+02  0.11329415828E+02 -0.11243762994E+02  0.20331167938E+02  0.00000000000E+00 0.  1.
          5    1    4    4  501    0 -0.10240270036E+03 -0.25195116316E+02 -0.52851196540E+02  0.11803316612E+03  0.41800000000E+01 0. -1.
         -5    1    4    4    0  501 -0.48253587767E+01  0.60385142344E+02 -0.86159793411E+01  0.61329903010E+02  0.41800000000E+01 0. -1.
</event>
<event>
11    1  0.7157190E-009  0.1658511E+03  0.7561462E-02  0.1081700E+00
         22   -1    0    0    0    0  0.00000000000E+00  0.00000000000E+00  0.93115161768E+03  0.93115161768E+03  0.00000000000E+00 0.  1.
         22   -1    0    0    0    0 -0.00000000000E+00 -0.00000000000E+00 -0.28579327421E+03  0.28579327421E+03  0.00000000000E+00 0. -1.
         24    2    1    2    0    0 -0.10756429567E+03 -0.21949948883E+02 -0.20480207469E+03  0.24583826281E+03  0.80253870329E+02 0.  0.
         25    2    1    2    0    0  0.99972469329E+02  0.29942747250E+02  0.54500664761E+02  0.17178496573E+03  0.12509472113E+03 0.  0.
        -24    2    1    2    0    0  0.75918263370E+01 -0.79927983672E+01  0.79565975340E+03  0.79932166335E+03  0.75625112699E+02 0.  0.
        -13    1    3    3    0    0 -0.48273038138E+02 -0.19808725338E+02 -0.16824342476E+03  0.17614914642E+03  0.00000000000E+00 0.  1.
         14    1    3    3    0    0 -0.59291257528E+02 -0.21412235449E+01 -0.36558649936E+02  0.69689116386E+02  0.00000000000E+00 0. -1.
         13    1    5    5    0    0  0.29808310039E+02 -0.64098898626E+01  0.13990614652E+03  0.14318991539E+03  0.00000000000E+00 0. -1.
        -14    1    5    5    0    0 -0.22216483702E+02 -0.15829085046E+01  0.65575360688E+03  0.65613174796E+03  0.00000000000E+00 0.  1.
          5    1    4    4  501    0  0.64107074309E+02 -0.28932561449E+02 -0.16889738447E+02  0.72453749063E+02  0.41800000000E+01 0. -1.
         -5    1    4    4    0  501  0.35865395020E+02  0.58875308699E+02  0.71390403208E+02  0.99331216668E+02  0.41800000000E+01 0. -1.
</event>
<event>
11    1  0.7157190E-009  0.1340360E+03  0.7561462E-02  0.1114407E+00
         22   -1    0    0    0    0  0.00000000000E+00  0.00000000000E+00  0.42784462131E+03  0.42784462131E+03  0.00000000000E+00 0.  1.
         22   -1    0    0    0    0 -0.00000000000E+00 -0.00000000000E+00 -0.70677467367E+03  0.70677467367E+03  0.00000000000E+00 0.  1.
        -24    2    1    2    0    0  0.46243057635E+02  0.14512153144E+02 -0.65654923352E+03  0.66317118755E+03  0.79938132306E+02 0.  0.
         25    2    1    2    0    0 -0.46969841741E+02  0.29174760250E+02  0.75470080790E+02  0.15621007282E+03  0.12509404897E+03 0.  0.
         24    2    1    2    0    0  0.72678410579E+00 -0.43686913394E+02  0.30214910037E+03  0.31523803461E+03  0.78561218120E+02 0.  0.
        -11    1    5    5    0    0  0.25653922398E+02 -0.43485237029E+02  0.26935035135E+03  0.27404142269E+03  0.00000000000E+00 0.  1.
         12    1    5    5    0    0 -0.24927138292E+02 -0.20167636557E+00  0.32798749015E+02  0.41196611921E+02  0.00000000000E+00 0. -1.
         11    1    3    3    0    0  0.23414809943E+02 -0.18144553036E+02 -0.81037740998E+02  0.86282058365E+02  0.00000000000E+00 0. -1.
        -12    1    3    3    0    0  0.22828247691E+02  0.32656706180E+02 -0.57551149252E+03  0.57688912919E+03  0.00000000000E+00 0.  1.
          5    1    4    4  501    0 -0.67750118858E+02  0.19812149158E+02  0.99994259042E+02  0.12247009472E+03  0.41800000000E+01 0.  1.
         -5    1    4    4    0  501  0.20780277117E+02  0.93626110914E+01 -0.24524178252E+02  0.33739978104E+02  0.41800000000E+01 0.  1.
</event>
<event>
11    1  0.7157190E-009  0.1307534E+03  0.7561462E-02  0.1118347E+00
         22   -1    0    0    0    0  0.00000000000E+00  0.00000000000E+00  0.59380363462E+03  0.59380363462E+03  0.00000000000E+00 0. -1.
         22   -1    0    0    0    0 -0.00000000000E+00 -0.00000000000E+00 -0.11422699833E+03  0.11422699833E+03  0.00000000000E+00 0. -1.
         24    2    1    2    0    0 -0.32028818195E+01  0.15048857840E+02 -0.41697774312E+02  0.91676032741E+02  0.80181444377E+02 0.  0.
         25    2    1    2    0    0  0.32658138543E+02 -0.37447336424E+02  0.61337148946E+02  0.14791623148E+03  0.12509240055E+03 0.  0.
        -24    2    1    2    0    0 -0.29455256723E+02  0.22398478584E+02  0.45993726166E+03  0.46843836874E+03  0.80764575482E+02 0.  0.
        -13    1    3    3    0    0  0.33796386259E+02 -0.11281992585E+02 -0.23887385679E+02  0.42896226820E+02  0.00000000000E+00 0.  1.
         14    1    3    3    0    0 -0.36999268078E+02  0.26330850424E+02 -0.17810388632E+02  0.48779805921E+02  0.00000000000E+00 0. -1.
         13    1    5    5    0    0  0.10410937847E+02 -0.12482930090E+02  0.28956970245E+03  0.29002555706E+03  0.00000000000E+00 0. -1.
        -14    1    5    5    0    0 -0.39866194570E+02  0.34881408674E+02  0.17036755921E+03  0.17841281168E+03  0.00000000000E+00 0.  1.
          5    1    4    4  501    0  0.16771768871E+02 -0.60026569909E+02 -0.17011522485E+02  0.64740602587E+02  0.41800000000E+01 0.  1.
         -5    1    4    4    0  501  0.15886369672E+02  0.22579233485E+02  0.78348671431E+02  0.83175628889E+02  0.41800000000E+01 0.  1.
</event>
<event>
11    1  0.7157190E-009  0.1503301E+03  0.7561462E-02  0.1096542E+00
         22   -1    0    0    0    0  0.00000000000E+00  0.00000000000E+00  0.23432391604E+03  0.23432391604E+03  0.00000000000E+00 0. -1.
         22   -1    0    0    0    0 -0.00000000000E+00 -0.00000000000E+00 -0.76550269921E+03  0.76550269921E+03  0.00000000000E+00 0. -1.
        -24    2    1    2    0    0 -0.76860542524E+02 -0.47317161828E+02 -0.58912270860E+03  0.60123379837E+03  0.79183696000E+02 0.  0.
         25    2    1    2    0    0  0.12871779980E+02  0.64510989586E+02 -0.12413552898E+03  0.18810948257E+03  0.12509275512E+03 0.  0.
         24    2    1    2    0    0  0.63988762544E+02 -0.17193827758E+02  0.18207945440E+03  0.21048333430E+03  0.82219929800E+02 0.  0.
        -11    1    5    5    0    0  0.80844132945E+02 -0.17989884436E+02  0.11763224592E+03  0.14386366829E+03  0.00000000000E+00 0.  1.
         12    1    5    5    0    0 -0.16855370401E+02  0.79605667841E+00  0.64447208486E+02  0.66619666010E+02  0.00000000000E+00 0. -1.
         11    1    3    3    0    0 -0.71166353314E+02 -0.61371634742E+02 -0.56484793245E+03  0.57261183553E+03  0.00000000000E+00 0. -1.
        -12    1    3    3    0    0 -0.56941892099E+01  0.14054472914E+02 -0.24274776147E+02  0.28621962836E+02  0.00000000000E+00 0.  1.
          5    1    4    4  501    0 -0.30609839877E+02  0.65959115885E+02 -0.20547367719E+02  0.75678490906E+02  0.41800000000E+01 0. -1.
         -5    1    4    4    0  501  0.43481619857E+02 -0.14481262985E+01 -0.10358816126E+03  0.11243099167E+03  0.41800000000E+01 0. -1.
</event>
<event>
11    1  0.7157190E-009  0.1620218E+03  0.7561462E-02  0.1085191E+00
         22   -1    0    0    0    0  0.00000000000E+00  0.00000000000E+00  0.33116211103E+04  0.33116211103E+04  0.00000000000E+00 0.  1.
         22   -1    0    0    0    0 -0.00000000000E+00 -0.00000000000E+00 -0.54571867782E+03  0.54571867782E+03  0.00000000000E+00 0.  1.
         24    2    1    2    0    0 -0.59149036797E+02  0.83402023764E+01 -0.52980566236E+03  0.54086000550E+03  0.90924903879E+02 0.  0.
         25    2    1    2    0    0  0.10992432899E+03 -0.89896924967E+02  0.10326273162E+04  0.10498248055E+04  0.12509249670E+03 0.  0.
        -24    2    1    2    0    0 -0.50775292194E+02  0.81556722591E+02  0.22630807786E+04  0.22666549772E+04  0.83429884653E+02 0.  0.
        -11    1    3    3    0    0 -0.60804658005E+02 -0.23464060260E+01 -0.52582868093E+03  0.52933780683E+03  0.00000000000E+00 0.  1.
         12    1    3    3    0    0  0.16556212078E+01  0.10686608402E+02 -0.39769814345E+01  0.11522198664E+02  0.00000000000E+00 0. -1.
         11    1    5    5    0    0  0.14460176615E+02 -0.45989683735E-01  0.98636751580E+02  0.99691060708E+02  0.00000000000E+00 0. -1.
        -12    1    5    5    0    0 -0.65235468809E+02  0.81602712274E+02  0.21644440270E+04  0.21669639165E+04  0.00000000000E+00 0.  1.
          5    1    4    4  501    0  0.31902640827E+02 -0.71711050413E+02  0.79801170437E+03  0.80187306100E+03  0.41800000000E+01 0. -1.
         -5    1    4    4    0  501  0.78021688164E+02 -0.18185874554E+02  0.23461561186E+03  0.24795174447E+03  0.41800000000E+01 0. -1.
</event>
<event>
11    1  0.7157190E-009  0.1377192E+03  0.7561462E-02  0.1110132E+00
         22   -1    0    0    0    0  0.00000000000E+00  0.00000000000E+00  0.11878886812E+03  0.11878886812E+03  0.00000000000E+00 0. -1.
         22   -1    0    0    0    0 -0.00000000000E+00 -0.00000000000E+00 -0.11128068759E+04  0.11128068759E+04  0.00000000000E+00 0. -1.
         24    2    1    2    0    0  0.36384547380E+02 -0.17372994825E+02 -0.91074939800E+03  0.91542119109E+03  0.83101353210E+02 0.  0.
         25    2    1    2    0    0 -0.24099590478E+02  0.71898113119E+02 -0.13698933770E+03  0.20041016893E+03  0.12509207903E+03 0.  0.
        -24    2    1    2    0    0 -0.12284956902E+02 -0.54525118294E+02  0.53720727933E+02  0.11576438398E+03  0.85974224615E+02 0.  0.
        -13    1    3    3    0    0 -0.48981240312E+01  0.44968170754E+01 -0.46398561238E+01  0.81080976613E+01  0.00000000000E+00 0.  1.
         14    1    3    3    0    0  0.41282671412E+02 -0.21869811901E+02 -0.90610954188E+03  0.90731309343E+03  0.00000000000E+00 0. -1.
         11    1    5    5    0    0 -0.18308402092E+02 -0.18606871585E+02  0.70858505361E+02  0.75513846673E+02  0.00000000000E+00 0. -1.
        -12    1    5    5    0    0  0.60234451904E+01 -0.35918246709E+02 -0.17137777428E+02  0.40250537310E+02  0.00000000000E+00 0.  1.
          5    1    4    4  501    0  0.73555363430E+01  0.68183531958E+02 -0.15071600443E+03  0.16563781071E+03  0.41800000000E+01 0. -1.
         -5    1    4    4    0  501 -0.31455126821E+02  0.37145811609E+01  0.13726666734E+02  0.34772358220E+02  0.41800000000E+01 0. -1.
</event>
<event>
11    1  0.7157190E-009  0.1683356E+03  0.7561462E-02  0.1079489E+00
         22   -1    0    0    0    0  0.00000000000E+00  0.00000000000E+00  0.58712342060E+03  0.58712342060E+03  0.00000000000E+00 0.  1.
         22   -1    0    0    0    0 -0.00000000000E+00 -0.00000000000E+00 -0.27371477163E+03  0.27371477163E+03  0.00000000000E+00 0.  1.
         24    2    1    2    0    0 -0.15363038292E+02  0.12739307069E+03 -0.11177649920E+03  0.18828083649E+03  0.80564695790E+02 0.  0.
         25    2    1    2    0    0  0.59206183118E+02 -0.79536382039E+02 -0.64229239070E+02  0.17205958428E+03  0.12509075587E+03 0.  0.
        -24    2    1    2    0    0 -0.43843144825E+02 -0.47856688654E+02  0.48941438724E+03  0.50049777146E+03  0.82213702040E+02 0.  0.
        -13    1    3    3    0    0  0.63467773963E+01  0.12509469492E+03 -0.76420253687E+02  0.14672770513E+03  0.00000000000E+00 0.  1.
         14    1    3    3    0    0 -0.21709815688E+02  0.22983757777E+01 -0.35356245517E+02  0.41553131357E+02  0.00000000000E+00 0. -1.
         13    1    5    5    0    0  0.18144331290E+02 -0.20104267978E+02  0.61107141431E+02  0.66839218149E+02  0.00000000000E+00 0. -1.
        -14    1    5    5    0    0 -0.61987476116E+02 -0.27752420676E+02  0.42830724581E+03  0.43365855331E+03  0.00000000000E+00 0.  1.
          5    1    4    4  501    0  0.96051959009E+00  0.20562372612E+02 -0.51324414491E+02  0.55456304313E+02  0.41800000000E+01 0. -1.
         -5    1    4    4    0  501  0.58245663528E+02 -0.10009875465E+03 -0.12904824580E+02  0.11660327997E+03  0.41800000000E+01 0. -1.
</event>
<event>
11    1  0.7157190E-009  0.1336588E+03  0.7561462E-02  0.1114853E+00
         22   -1    0    0    0    0  0.00000000000E+00  0.00000000000E+00  0.71560037285E+02  0.71560037285E+02  0.00000000000E+00 0.  1.
         22   -1    0    0    0    0 -0.00000000000E+00 -0.00000000000E+00 -0.14855293127E+04  0.14855293127E+04  0.00000000000E+00 0. -1.
        -24    2    1    2    0    0 -0.13743858277E+02 -0.37156960814E+02 -0.79218367383E+03  0.79735193930E+03  0.81520602606E+02 0.  0.
         25    2    1    2    0    0  0.37913829110E+02  0.59685619609E+02 -0.65181228196E+03  0.66746264893E+03  0.12508918887E+03 0.  0.
         24    2    1    2    0    0 -0.24169970833E+02 -0.22528658796E+02  0.30026680374E+02  0.92274761757E+02  0.80754579844E+02 0.  0.
        -11    1    5    5    0    0  0.25809433191E+02  0.93504930633E+01  0.14255680853E+02  0.30931909071E+02  0.00000000000E+00 0.  1.
         12    1    5    5    0    0 -0.49979404024E+02 -0.31879151859E+02  0.15770999521E+02  0.61342852686E+02  0.00000000000E+00 0. -1.
         13    1    3    3    0    0 -0.63363725250E+01 -0.57133486906E+02 -0.35283348327E+03  0.35748545685E+03  0.00000000000E+00 0. -1.
        -14    1    3    3    0    0 -0.74074857518E+01  0.19976526093E+02 -0.43935019055E+03  0.43986648245E+03  0.00000000000E+00 0.  1.
          5    1    4    4  501    0  0.68338945225E+02  0.50872762945E+02 -0.24549971923E+03  0.25989581371E+03  0.41800000000E+01 0.  1.
         -5    1    4    4    0  501 -0.30425116115E+02  0.88128566646E+01 -0.40631256273E+03  0.40756683521E+03  0.41800000000E+01 0.  1.
</event>
<event>
11    1  0.7157190E-009  0.1409555E+03  0.7561462E-02  0.1106496E+00
         22   -1    0    0    0    0  0.00000000000E+00  0.00000000000E+00  0.84470016841E+03  0.84470016841E+03  0.00000000000E+00 0.  1.
         22   -1    0    0    0    0 -0.00000000000E+00 -0.00000000000E+00 -0.16173880668E+03  0.16173880668E+03  0.00000000000E+00 0. -1.
         24    2    1    2    0    0 -0.66636558124E+02  0.61140901386E+00 -0.12510397765E+03  0.16276427267E+03  0.80002490800E+02 0.  0.
         25    2    1    2    0    0  0.36669760258E+02 -0.25142875350E+02  0.30125746682E+03  0.32920999177E+03  0.12508525839E+03 0.  0.
        -24    2    1    2    0    0  0.29966797865E+02  0.24531466336E+02  0.50680787257E+03  0.51446471065E+03  0.79497905606E+02 0.  0.
        -13    1    3    3    0    0  0.18692692688E+02  0.14722328007E+01 -0.20899444280E+02  0.28077945091E+02  0.00000000000E+00 0.  1.
         14    1    3    3    0    0 -0.85329250811E+02 -0.86082378686E+00 -0.10420453337E+03  0.13468632758E+03  0.00000000000E+00 0. -1.
         11    1    5    5    0    0  0.15979040543E+02 -0.23630529867E+02  0.84407853982E+02  0.89097797349E+02  0.00000000000E+00 0. -1.
        -12    1    5    5    0    0  0.13987757322E+02  0.48161996203E+02  0.42240001858E+03  0.42536691330E+03  0.00000000000E+00 0.  1.
          5    1    4    4  501    0 -0.11727390021E+02  0.43739312444E+02  0.14078757299E+03  0.14795023568E+03  0.41800000000E+01 0. -1.
         -5    1    4    4    0  501  0.48397150280E+02 -0.68882187794E+02  0.16046989383E+03  0.18125975609E+03  0.41800000000E+01 0. -1.
</event>
<event>
11    1  0.7157190E-009  0.1347070E+03  0.7561462E-02  0.1113617E+00
         22   -1    0    0    0    0  0.00000000000E+00  0.00000000000E+00  0.18900455759E+03  0.18900455759E+03  0.00000000000E+00 0.  1.
         22   -1    0    0    0    0 -0.00000000000E+00 -0.00000000000E+00 -0.10129466534E+04  0.10129466534E+04  0.00000000000E+00 0. -1.
        -24    2    1    2    0    0 -0.11181608142E+02 -0.17873063526E+02 -0.77991936914E+03  0.78430000380E+03  0.80048727877E+02 0.  0.
         25    2    1    2    0    0 -0.37761594027E+02  0.29865800769E+02 -0.19550848101E+03  0.23704093638E+03  0.12508771056E+03 0.  0.
         24    2    1    2    0    0  0.48943202169E+02 -0.11992737244E+02  0.15148575432E+03  0.18061027084E+03  0.84456340120E+02 0.  0.
        -13    1    5    5    0    0  0.19201864466E+02  0.16210343943E+02  0.13351005604E+03  0.13585441440E+03  0.00000000000E+00 0.  1.
         14    1    5    5    0    0  0.29741337703E+02 -0.28203081187E+02  0.17975698283E+02  0.44755856438E+02  0.00000000000E+00 0. -1.
         11    1    3    3    0    0  0.16635135327E+02  0.25939675125E+02 -0.30582974403E+03  0.30737831219E+03  0.00000000000E+00 0. -1.
        -12    1    3    3    0    0 -0.27816743469E+02 -0.43812738650E+02 -0.47408962511E+03  0.47692169160E+03  0.00000000000E+00 0.  1.
          5    1    4    4  501    0  0.38143467278E+02  0.47909011423E+00 -0.11981659685E+03  0.12581193467E+03  0.41800000000E+01 0. -1.
         -5    1    4    4    0  501 -0.75905061305E+02  0.29386710655E+02 -0.75691884161E+02  0.11122900172E+03  0.41800000000E+01 0. -1.
</event>
<event>
11    1  0.7157190E-009  0.1398592E+03  0.7561462E-02  0.1107716E+00
         22   -1    0    0    0    0  0.00000000000E+00  0.00000000000E+00  0.14510028308E+04  0.14510028308E+04  0.00000000000E+00 0.  1.
         22   -1    0    0    0    0 -0.00000000000E+00 -0.00000000000E+00 -0.45924241157E+03  0.45924241157E+03  0.00000000000E+00 0.  1.
         24    2    1    2    0    0  0.25574826483E+02  0.53630930411E+02 -0.37769413449E+03  0.39160670618E+03  0.84691231255E+02 0.  0.
         25    2    1    2    0    0 -0.65804356173E+01 -0.11468471792E+03  0.26544539206E+02  0.17189477138E+03  0.12508922099E+03 0.  0.
        -24    2    1    2    0    0 -0.18994390865E+02  0.61053787508E+02  0.13429100145E+04  0.13467437648E+04  0.78886685216E+02 0.  0.
        -11    1    3    3    0    0 -0.12910627275E+02  0.38195842860E+02 -0.30710034108E+03  0.30973573607E+03  0.00000000000E+00 0.  1.
         12    1    3    3    0    0  0.38485453758E+02  0.15435087552E+02 -0.70593793411E+02  0.81870970111E+02  0.00000000000E+00 0. -1.
         13    1    5    5    0    0 -0.79339572633E+01  0.75358599022E+02  0.81254851058E+03  0.81607410703E+03  0.00000000000E+00 0. -1.
        -14    1    5    5    0    0 -0.11060433602E+02 -0.14304811513E+02  0.53036150394E+03  0.53066965778E+03  0.00000000000E+00 0.  1.
          5    1    4    4  501    0  0.42050131117E+02 -0.10382434994E+03  0.41770913290E+02  0.11962437363E+03  0.41800000000E+01 0.  1.
         -5    1    4    4    0  501 -0.48630566735E+02 -0.10860367975E+02 -0.15226374084E+02  0.52270397753E+02  0.41800000000E+01 0.  1.
</event>
<event>
11    1  0.7157190E-009  0.1453099E+03  0.7561462E-02  0.1101770E+00
         22   -1    0    0    0    0  0.00000000000E+00  0.00000000000E+00  0.43015534549E+03  0.43015534549E+03  0.00000000000E+00 0.  1.
         22   -1    0    0    0    0 -0.00000000000E+00 -0.00000000000E+00 -0.11185548102E+04  0.11185548102E+04  0.00000000000E+00 0.  1.
         24    2    1    2    0    0  0.16792963526E+02  0.72745307244E+02 -0.10447652925E+04  0.10505691242E+04  0.81160858820E+02 0.  0.
         25    2    1    2    0    0 -0.36189173249E+01 -0.57338866493E+02  0.27998377544E+01  0.13767934605E+03  0.12508765353E+03 0.  0.
        -24    2    1    2    0    0 -0.13174046201E+02 -0.15406440751E+02  0.35356598998E+03  0.36046168548E+03  0.67177403348E+02 0.  0.
        -13    1    3    3    0    0  0.21099201332E+01  0.26099779526E+02 -0.82556869817E+03  0.82598385314E+03  0.00000000000E+00 0.  1.
         14    1    3    3    0    0  0.14683043392E+02  0.46645527718E+02 -0.21919659431E+03  0.22458527106E+03  0.00000000000E+00 0. -1.
         13    1    5    5    0    0 -0.25362839369E+02 -0.27060177563E+02  0.10561175034E+03  0.11193466237E+03  0.00000000000E+00 0. -1.
        -14    1    5    5    0    0  0.12188793168E+02  0.11653736812E+02  0.24795423964E+03  0.24852702311E+03  0.00000000000E+00 0.  1.
          5    1    4    4  501    0  0.48398935663E+02 -0.34615740803E+02 -0.35181317150E+02  0.69252465379E+02  0.41800000000E+01 0. -1.
         -5    1    4    4    0  501 -0.52017852988E+02 -0.22723125690E+02  0.37981154905E+02  0.68426880672E+02  0.41800000000E+01 0. -1.
</event>
<event>
11    1  0.7157190E-009  0.2247867E+03  0.7561462E-02  0.1038260E+00
         22   -1    0    0    0    0  0.00000000000E+00  0.00000000000E+00  0.63137141630E+03  0.63137141630E+03  0.00000000000E+00 0.  1.
         22   -1    0    0    0    0 -0.00000000000E+00 -0.00000000000E+00 -0.25135906674E+03  0.25135906674E+03  0.00000000000E+00 0.  1.
        -24    2    1    2    0    0  0.13732186508E+03  0.93201826639E+02 -0.63553172088E+02  0.19561403312E+03  0.81743312581E+02 0.  0.
         25    2    1    2    0    0 -0.26113325620E+03 -0.50172735100E+02  0.10036412478E+03  0.31053157937E+03  0.12509605671E+03 0.  0.
         24    2    1    2    0    0  0.12381139112E+03 -0.43029091539E+02  0.34320139686E+03  0.37658487055E+03  0.82753867763E+02 0.  0.
        -13    1    5    5    0    0  0.12049159824E+03 -0.21198150243E+02  0.22284324635E+03  0.25421781854E+03  0.00000000000E+00 0.  1.
         14    1    5    5    0    0  0.33197928781E+01 -0.21830941295E+02  0.12035815051E+03  0.12236705201E+03  0.00000000000E+00 0. -1.
         11    1    3    3    0    0  0.45153442880E+02  0.26837406663E+02  0.18292819454E+02  0.55621102505E+02  0.00000000000E+00 0. -1.
        -12    1    3    3    0    0  0.92168422199E+02  0.66364419975E+02 -0.81845991542E+02  0.13999293061E+03  0.00000000000E+00 0.  1.
          5    1    4    4  501    0 -0.79023339475E+02 -0.75634771244E+02  0.28988480775E+02  0.11323917706E+03  0.41800000000E+01 0.  1.
         -5    1    4    4    0  501 -0.18210991672E+03  0.25462036144E+02  0.71375644010E+02  0.19729240232E+03  0.41800000000E+01 0.  1.
</event>
<event>
11    1  0.7157190E-009  0.1751942E+03  0.7561462E-02  0.1073598E+00
         22   -1    0    0    0    0  0.00000000000E+00  0.00000000000E+00  0.25065847189E+03  0.25065847189E+03  0.00000000000E+00 0. -1.
         22   -1    0    0    0    0 -0.00000000000E+00 -0.00000000000E+00 -0.57278164145E+03  0.57278164145E+03  0.00000000000E+00 0. -1.
         24    2    1    2    0    0 -0.29237646692E+02  0.12498961206E+03 -0.45060520954E+03  0.47439705453E+03  0.74365767466E+02 0.  0.
         25    2    1    2    0    0  0.90094421414E+02 -0.63853570009E+02 -0.13147686931E+02  0.16738235200E+03  0.12509878863E+03 0.  0.
        -24    2    1    2    0    0 -0.60856774722E+02 -0.61136042050E+02  0.14162972691E+03  0.18166070681E+03  0.74165154798E+02 0.  0.
        -11    1    3    3    0    0  0.35835506993E+01 -0.77205438764E+01 -0.10326085669E+02  0.13381953468E+02  0.00000000000E+00 0.  1.
         12    1    3    3    0    0 -0.32821197392E+02  0.13271015594E+03 -0.44027912388E+03  0.46101510106E+03  0.00000000000E+00 0. -1.
         13    1    5    5    0    0 -0.38050852833E+02 -0.36535497227E+01  0.10014822078E+03  0.10719553140E+03  0.00000000000E+00 0. -1.
        -14    1    5    5    0    0 -0.22805921889E+02 -0.57482492327E+02  0.41481506127E+02  0.74465175404E+02  0.00000000000E+00 0.  1.
          5    1    4    4  501    0  0.31208560125E+02 -0.40877483544E+02 -0.66771959198E+02  0.84385483474E+02  0.41800000000E+01 0. -1.
         -5    1    4    4    0  501  0.58885861290E+02 -0.22976086465E+02  0.53624272267E+02  0.82996868527E+02  0.41800000000E+01 0. -1.
</event>
<event>
11    1  0.7157190E-009  0.1312297E+03  0.7561462E-02  0.1117767E+00
         22   -1    0    0    0    0  0.00000000000E+00  0.00000000000E+00  0.22066776739E+04  0.22066776739E+04  0.00000000000E+00 0.  1.
         22   -1    0    0    0    0 -0.00000000000E+00 -0.00000000000E+00 -0.90640289820E+02  0.90640289820E+02  0.00000000000E+00 0. -1.
        -24    2    1    2    0    0  0.83933935761E+01 -0.18917614987E+02 -0.61858829299E+02  0.10358986975E+03  0.80473729502E+02 0.  0.
         25    2    1    2    0    0 -0.44275009617E+02  0.29053544667E+02  0.69952915909E+03  0.71259462067E+03  0.12508262892E+03 0.  0.
         24    2    1    2    0    0  0.35881616041E+02 -0.10135929680E+02  0.14783670543E+04  0.14811334733E+04  0.82443866262E+02 0.  0.
        -13    1    5    5    0    0  0.34034757257E+02 -0.34217720793E+02  0.13247928585E+04  0.13256716543E+04  0.00000000000E+00 0.  1.
         14    1    5    5    0    0  0.18468587845E+01  0.24081791113E+02  0.15357419580E+03  0.15546181900E+03  0.00000000000E+00 0. -1.
         11    1    3    3    0    0  0.34730396254E+01 -0.24457919335E+02 -0.80141632963E+02  0.83862584962E+02  0.00000000000E+00 0. -1.
        -12    1    3    3    0    0  0.49203539507E+01  0.55403043481E+01  0.18282803664E+02  0.19727284788E+02  0.00000000000E+00 0.  1.
          5    1    4    4  501    0  0.22675291363E+02  0.74495292171E+00  0.24506239402E+02  0.33656380716E+02  0.41800000000E+01 0. -1.
         -5    1    4    4    0  501 -0.66950300981E+02  0.28308591745E+02  0.67502291968E+03  0.67893823995E+03  0.41800000000E+01 0. -1.
</event>
<event>
11    1  0.7157190E-009  0.1354976E+03  0.7561462E-02  0.1112693E+00
         22   -1    0    0    0    0  0.00000000000E+00  0.00000000000E+00  0.19620136198E+04  0.19620136198E+04  0.00000000000E+00 0. -1.
         22   -1    0    0    0    0 -0.00000000000E+00 -0.00000000000E+00 -0.27366998968E+03  0.27366998968E+03  0.00000000000E+00 0. -1.
        -24    2    1    2    0    0  0.26804914645E+02  0.18982132598E+02 -0.24238907892E+03  0.25785909580E+03  0.81608963381E+02 0.  0.
         25    2    1    2    0    0 -0.77015952074E+02 -0.24182892110E+02  0.22683016693E+03  0.27132441118E+03  0.12509493327E+03 0.  0.
         24    2    1    2    0    0  0.50211037428E+02  0.52007595125E+01  0.17039025422E+04  0.17065001025E+04  0.79438848585E+02 0.  0.
        -11    1    5    5    0    0 -0.17030607365E+02  0.11650042126E+02  0.71260764394E+03  0.71290631872E+03  0.00000000000E+00 0.  1.
         12    1    5    5    0    0  0.67241644793E+02 -0.64492826139E+01  0.99129489821E+03  0.99359378382E+03  0.00000000000E+00 0. -1.
         13    1    3    3    0    0  0.35658592913E+02 -0.93568180552E+00 -0.23007593095E+03  0.23282470821E+03  0.00000000000E+00 0. -1.
        -14    1    3    3    0    0 -0.88536782673E+01  0.19917814403E+02 -0.12313147962E+02  0.25034387594E+02  0.00000000000E+00 0.  1.
          5    1    4    4  501    0  0.28806599614E+02 -0.24013698946E+02  0.95022879139E+02  0.10224137068E+03  0.41800000000E+01 0. -1.
         -5    1    4    4    0  501 -0.10582255169E+03 -0.16919316386E+00  0.13180728779E+03  0.16908304050E+03  0.41800000000E+01 0. -1.
</event>
<event>
11    1  0.7157190E-009  0.1519075E+03  0.7561462E-02  0.1094945E+00
         22   -1    0    0    0    0  0.00000000000E+00  0.00000000000E+00  0.46981758634E+04  0.46981758634E+04  0.00000000000E+00 0. -1.
         22   -1    0    0    0    0 -0.00000000000E+00 -0.00000000000E+00 -0.71046725201E+03  0.71046725201E+03  0.00000000000E+00 0.  1.
         24    2    1    2    0    0 -0.12911351854E+02 -0.16346323552E+02 -0.69286083301E+03  0.69808080199E+03  0.82624251216E+02 0.  0.
         25    2    1    2    0    0  0.90278127472E+02 -0.21072442287E+02  0.41308012439E+03  0.44144789516E+03  0.12508743680E+03 0.  0.
        -24    2    1    2    0    0 -0.77366775617E+02  0.37418765839E+02  0.42674893200E+04  0.42691144182E+04  0.80542149478E+02 0.  0.
        -13    1    3    3    0    0 -0.44199155255E+02 -0.27405344516E+02 -0.41576962598E+03  0.41900954658E+03  0.00000000000E+00 0.  1.
         14    1    3    3    0    0  0.31287803401E+02  0.11059020964E+02 -0.27709120702E+03  0.27907125541E+03  0.00000000000E+00 0. -1.
         11    1    5    5    0    0 -0.78686941579E+02  0.15389053091E+02  0.21259181526E+04  0.21274295404E+04  0.00000000000E+00 0. -1.
        -12    1    5    5    0    0  0.13201659615E+01  0.22029712748E+02  0.21415711673E+04  0.21416848778E+04  0.00000000000E+00 0.  1.
          5    1    4    4  501    0  0.64742463360E+01  0.52893611287E+01  0.29011815689E+03  0.29026868685E+03  0.41800000000E+01 0. -1.
         -5    1    4    4    0  501  0.83803881136E+02 -0.26361803416E+02  0.12296196750E+03  0.15117920831E+03  0.41800000000E+01 0. -1.
</event>
<event>
11    1  0.7157190E-009  0.1442610E+03  0.7561462E-02  0.1102891E+00
         22   -1    0    0    0    0  0.00000000000E+00  0.00000000000E+00  0.47669245077E+03  0.47669245077E+03  0.00000000000E+00 0.  1.
         22   -1    0    0    0    0 -0.00000000000E+00 -0.00000000000E+00 -0.24340168242E+04  0.24340168242E+04  0.00000000000E+00 0.  1.
         24    2    1    2    0    0 -0.69130146674E+02 -0.19621815563E+02 -0.23935370117E+04  0.23958449905E+04  0.76745028800E+02 0.  0.
         25    2    1    2    0    0  0.68714703337E+02  0.20740599563E+02  0.11750557207E+03  0.18602896672E+03  0.12508930437E+03 0.  0.
        -24    2    1    2    0    0  0.41544333728E+00 -0.11187840008E+01  0.31870706621E+03  0.32883531772E+03  0.80975600356E+02 0.  0.
        -11    1    3    3    0    0 -0.77890478117E+02 -0.15149321684E+02 -0.23439029032E+04  0.23452456690E+04  0.00000000000E+00 0.  1.
         12    1    3    3    0    0  0.87603314430E+01 -0.44724938783E+01 -0.49634108481E+02  0.50599321470E+02  0.00000000000E+00 0. -1.
         11    1    5    5    0    0  0.44779674778E+01 -0.24248590080E+02  0.28529902766E+02  0.37709437352E+02  0.00000000000E+00 0. -1.
        -12    1    5    5    0    0 -0.40625241405E+01  0.23129806080E+02  0.29017716345E+03  0.29112588036E+03  0.00000000000E+00 0.  1.
          5    1    4    4  501    0  0.82760421098E+02  0.51821094167E+02  0.11592976073E+03  0.15163078488E+03  0.41800000000E+01 0. -1.
         -5    1    4    4    0  501 -0.14045717761E+02 -0.31080494603E+02  0.15758113347E+01  0.34398181835E+02  0.41800000000E+01 0. -1.
</event>
<event>
11    1  0.7157190E-009  0.1448573E+03  0.7561462E-02  0.1102252E+00
         22   -1    0    0    0    0  0.00000000000E+00  0.00000000000E+00  0.93792885674E+03  0.93792885674E+03  0.00000000000E+00 0.  1.
         22   -1    0    0    0    0 -0.00000000000E+00 -0.00000000000E+00 -0.25778437400E+03  0.25778437400E+03  0.00000000000E+00 0.  1.
         24    2    1    2    0    0 -0.69096861073E+02 -0.58130825201E+02 -0.11834437091E+03  0.16935133349E+03  0.80752182498E+02 0.  0.
         25    2    1    2    0    0  0.28234147184E+02  0.37102955405E+02 -0.70062886221E+02  0.15076353701E+03  0.12508812773E+03 0.  0.
        -24    2    1    2    0    0  0.40862713889E+02  0.21027869796E+02  0.86855173987E+03  0.87559836024E+03  0.10088821006E+03 0.  0.
        -11    1    3    3    0    0 -0.24771671684E+02 -0.44015806704E+02 -0.11140314188E+03  0.12231797488E+03  0.00000000000E+00 0.  1.
         12    1    3    3    0    0 -0.44325189389E+02 -0.14115018497E+02 -0.69412290349E+01  0.47033358609E+02  0.00000000000E+00 0. -1.
         11    1    5    5    0    0  0.48308716897E+02  0.48802609891E+02  0.37676573582E+03  0.38297238353E+03  0.00000000000E+00 0. -1.
        -12    1    5    5    0    0 -0.74460030079E+01 -0.27774740095E+02  0.49178600406E+03  0.49262597672E+03  0.00000000000E+00 0.  1.
          5    1    4    4  501    0 -0.21269143193E+01 -0.44396364871E+02 -0.12413164387E+02  0.46337026538E+02  0.41800000000E+01 0. -1.
         -5    1    4    4    0  501  0.30361061503E+02  0.81499320276E+02 -0.57649721833E+02  0.10442651047E+03  0.41800000000E+01 0. -1.
</event>
<event>
11    1  0.7157190E-009  0.1309721E+03  0.7561462E-02  0.1118080E+00
         22   -1    0    0    0    0  0.00000000000E+00  0.00000000000E+00  0.18204329300E+04  0.18204329300E+04  0.00000000000E+00 0.  1.
         22   -1    0    0    0    0 -0.00000000000E+00 -0.00000000000E+00 -0.21024736656E+04  0.21024736656E+04  0.00000000000E+00 0. -1.
         24    2    1    2    0    0  0.37923576005E+02 -0.81963537022E+01 -0.20930378366E+04  0.20949444814E+04  0.80496066969E+02 0.  0.
         25    2    1    2    0    0 -0.41165160616E+02  0.90015118453E+01  0.59675956710E+03  0.61118366337E+03  0.12509153363E+03 0.  0.
        -24    2    1    2    0    0  0.32415846107E+01 -0.80515814310E+00  0.12142375339E+04  0.12167784509E+04  0.78522950438E+02 0.  0.
        -13    1    3    3    0    0 -0.21610879521E+02  0.82960828459E+01 -0.32274601271E+03  0.32357509766E+03  0.00000000000E+00 0.  1.
         14    1    3    3    0    0  0.59534455526E+02 -0.16492436548E+02 -0.17702918239E+04  0.17713693837E+04  0.00000000000E+00 0. -1.
         11    1    5    5    0    0  0.98836536628E+01 -0.88313973578E+01  0.33959853234E+02  0.36454791464E+02  0.00000000000E+00 0. -1.
        -12    1    5    5    0    0 -0.66420690521E+01  0.80262392147E+01  0.11802776806E+04  0.11803236594E+04  0.00000000000E+00 0.  1.
          5    1    4    4  501    0  0.18671059548E+02  0.46468169742E+02  0.37674887962E+03  0.38008563503E+03  0.41800000000E+01 0. -1.
         -5    1    4    4    0  501 -0.59836220163E+02 -0.37466657897E+02  0.22001068748E+03  0.23109802834E+03  0.41800000000E+01 0. -1.
</event>
<event>
11    1  0.7157190E-009  0.1417135E+03  0.7561462E-02  0.1105660E+00
         22   -1    0    0    0    0  0.00000000000E+00  0.00000000000E+00  0.13452540190E+04  0.13452540190E+04  0.00000000000E+00 0.  1.
         22   -1    0    0    0    0 -0.00000000000E+00 -0.00000000000E+00 -0.36003753106E+03  0.36003753106E+03  0.00000000000E+00 0.  1.
        -24    2    1    2    0    0 -0.58684676498E+02  0.31989884734E+02 -0.33423327695E+03  0.35034545884E+03  0.81011191347E+02 0.  0.
         25    2    1    2    0    0  0.77411496800E+02  0.27732107124E+02  0.35881734806E+03  0.38879230661E+03  0.12509180150E+03 0.  0.
         24    2    1    2    0    0 -0.18726820303E+02 -0.59721991858E+02  0.96063241685E+03  0.96615378463E+03  0.81982224577E+02 0.  0.
        -11    1    5    5    0    0 -0.46618454936E+02 -0.52915046223E+02  0.78809713163E+03  0.79124608772E+03  0.00000000000E+00 0.  1.
         12    1    5    5    0    0  0.27891634633E+02 -0.68069456358E+01  0.17253528522E+03  0.17490769691E+03  0.00000000000E+00 0. -1.
         13    1    3    3    0    0 -0.68382063565E+02  0.30613058301E+02 -0.16948541457E+03  0.18530669634E+03  0.00000000000E+00 0. -1.
        -14    1    3    3    0    0  0.96973870671E+01  0.13768264332E+01 -0.16474786239E+03  0.16503876250E+03  0.00000000000E+00 0.  1.
          5    1    4    4  501    0  0.47173471088E+02  0.25668882423E+02  0.36598343274E+02  0.65124028052E+02  0.41800000000E+01 0.  1.
         -5    1    4    4    0  501  0.30238025713E+02  0.20632247014E+01  0.32221900479E+03  0.32366827855E+03  0.41800000000E+01 0.  1.
</event>
<event>
11    1  0.7157190E-009  0.1559503E+03  0.7561462E-02  0.1090949E+00
         22   -1    0    0    0    0  0.00000000000E+00  0.00000000000E+00  0.25556773514E+03  0.25556773514E+03  0.00000000000E+00 0.  1.
         22   -1    0    0    0    0 -0.00000000000E+00 -0.00000000000E+00 -0.11421719508E+04  0.11421719508E+04  0.00000000000E+00 0. -1.
        -24    2    1    2    0    0  0.45652801962E+02  0.77471711807E+02 -0.98542012634E+03  0.99257574410E+03  0.77895686129E+02 0.  0.
         25    2    1    2    0    0 -0.87618800391E+02 -0.13629081258E+03 -0.59851855680E+02  0.21326427256E+03  0.12508863077E+03 0.  0.
         24    2    1    2    0    0  0.41965998429E+02  0.58819100773E+02  0.15866776638E+03  0.19189966927E+03  0.80182238284E+02 0.  0.
        -11    1    5    5    0    0  0.62057550465E+01  0.30959160219E+02  0.13890286040E+03  0.14244643072E+03  0.00000000000E+00 0.  1.
         12    1    5    5    0    0  0.35760243383E+02  0.27859940554E+02  0.19764905982E+02  0.49453238548E+02  0.00000000000E+00 0. -1.
         11    1    3    3    0    0  0.14536085287E+02 -0.19669193541E+01 -0.46322108764E+03  0.46345327983E+03  0.00000000000E+00 0. -1.
        -12    1    3    3    0    0  0.31116716674E+02  0.79438631161E+02 -0.52219903870E+03  0.52912246427E+03  0.00000000000E+00 0.  1.
          5    1    4    4  501    0 -0.75526094489E+02 -0.17321762537E+02 -0.51878313448E+02  0.93343806502E+02  0.41800000000E+01 0.  1.
         -5    1    4    4    0  501 -0.12092705902E+02 -0.11896905004E+03 -0.79735422311E+01  0.11992046606E+03  0.41800000000E+01 0.  1.
</event>
<event>
11    1  0.7157190E-009  0.2301318E+03  0.7561462E-02  0.1035050E+00
         22   -1    0    0    0    0  0.00000000000E+00  0.00000000000E+00  0.14474445770E+04  0.14474445770E+04  0.00000000000E+00 0. -1.
         22   -1    0    0    0    0 -0.00000000000E+00 -0.00000000000E+00 -0.15842235727E+04  0.15842235727E+04  0.00000000000E+00 0.  1.
        -24    2    1    2    0    0  0.17067128307E+03  0.89304552389E+02 -0.15190364214E+04  0.15333476034E+04  0.81112473237E+02 0.  0.
         25    2    1    2    0    0 -0.20143599957E+03 -0.76883320699E+02  0.22065126307E+03  0.33289896636E+03  0.12508890832E+03 0.  0.
         24    2    1    2    0    0  0.30764716497E+02 -0.12421231690E+02  0.11616061626E+04  0.11654215800E+04  0.88191991729E+02 0.  0.
        -13    1    5    5    0    0  0.84753035335E+01  0.23467637111E+02  0.10323168158E+03  0.10620424117E+03  0.00000000000E+00 0.  1.
         14    1    5    5    0    0  0.22289412964E+02 -0.35888868801E+02  0.10583744810E+04  0.10592173389E+04  0.00000000000E+00 0. -1.
         13    1    3    3    0    0  0.28317045885E+02  0.37075025247E+02 -0.18799843690E+03  0.19370034812E+03  0.00000000000E+00 0. -1.
        -14    1    3    3    0    0  0.14235423719E+03  0.52229527141E+02 -0.13310379845E+04  0.13396472553E+04  0.00000000000E+00 0.  1.
          5    1    4    4  501    0 -0.83209063504E+02 -0.97846796810E+02  0.10236040976E+03  0.16429506925E+03  0.41800000000E+01 0. -1.
         -5    1    4    4    0  501 -0.11822693607E+03  0.20963476111E+02  0.11829085331E+03  0.16860389711E+03  0.41800000000E+01 0. -1.
</event>
<event>
11    1  0.7157190E-009  0.1296816E+03  0.7561462E-02  0.1119661E+00
         22   -1    0    0    0    0  0.00000000000E+00  0.00000000000E+00  0.32419739323E+03  0.32419739323E+03  0.00000000000E+00 0.  1.
         22   -1    0    0    0    0 -0.00000000000E+00 -0.00000000000E+00 -0.12729997513E+04  0.12729997513E+04  0.00000000000E+00 0. -1.
         24    2    1    2    0    0 -0.16338341381E+02  0.27954930186E+02 -0.11706945627E+04  0.11738793181E+04  0.80115383380E+02 0.  0.
         25    2    1    2    0    0 -0.76128420882E+01 -0.50815229978E+00 -0.51796637652E+02  0.13560132038E+03  0.12508642146E+03 0.  0.
        -24    2    1    2    0    0  0.23951183469E+02 -0.27446777886E+02  0.27368884235E+03  0.28771650606E+03  0.80921076508E+02 0.  0.
        -11    1    3    3    0    0 -0.21297854077E+02  0.30832609853E+02 -0.22008399484E+03  0.22325145733E+03  0.00000000000E+00 0.  1.
         12    1    3    3    0    0  0.49595126968E+01 -0.28776796677E+01 -0.95061056789E+03  0.95062786072E+03  0.00000000000E+00 0. -1.
         11    1    5    5    0    0  0.13739815121E+02  0.90750693586E+01  0.62660503694E+01  0.17618251635E+02  0.00000000000E+00 0. -1.
        -12    1    5    5    0    0  0.10211368348E+02 -0.36521847244E+02  0.26742279198E+03  0.27009825442E+03  0.00000000000E+00 0.  1.
          5    1    4    4  501    0 -0.98204326048E+01  0.54381050590E+02  0.60137780265E+01  0.55743856038E+02  0.41800000000E+01 0.  1.
         -5    1    4    4    0  501  0.22075905166E+01 -0.54889202890E+02 -0.57810415678E+02  0.79857464339E+02  0.41800000000E+01 0.  1.
</event>
<event>
11    1  0.7157190E-009  0.3268854E+03  0.7561462E-02  0.9894138E-01
         22   -1    0    0    0    0  0.00000000000E+00  0.00000000000E+00  0.68533512322E+03  0.68533512322E+03  0.00000000000E+00 0.  1.
         22   -1    0    0    0    0 -0.00000000000E+00 -0.00000000000E+00 -0.11728293277E+04  0.11728293277E+04  0.00000000000E+00 0. -1.
         24    2    1    2    0    0 -0.29577493910E+03 -0.53426762469E+01 -0.63460817943E+03  0.70471348513E+03  0.79888647077E+02 0.  0.
         25    2    1    2    0    0  0.31062311212E+03  0.39938069485E+02 -0.44304115166E+03  0.55678868698E+03  0.12508562152E+03 0.  0.
        -24    2    1    2    0    0 -0.14848173025E+02 -0.34595393239E+02  0.59015512659E+03  0.59666227883E+03  0.79407128570E+02 0.  0.
        -11    1    3    3    0    0 -0.14593736562E+03 -0.42585499071E+02 -0.31511344883E+03  0.34986815381E+03  0.00000000000E+00 0.  1.
         12    1    3    3    0    0 -0.14983757348E+03  0.37242822824E+02 -0.31949473060E+03  0.35484533132E+03  0.00000000000E+00 0. -1.
         11    1    5    5    0    0 -0.63405181614E+01 -0.40595926689E+02  0.12891140239E+03  0.13530107575E+03  0.00000000000E+00 0. -1.
        -12    1    5    5    0    0 -0.85076548637E+01  0.60005334502E+01  0.46124372420E+03  0.46136120308E+03  0.00000000000E+00 0.  1.
          5    1    4    4  501    0  0.17467630006E+03  0.13943574371E+02 -0.14256064855E+03  0.22593637154E+03  0.41800000000E+01 0. -1.
         -5    1    4    4    0  501  0.13594681206E+03  0.25994495114E+02 -0.30048050311E+03  0.33085231545E+03  0.41800000000E+01 0. -1.
</event>
<event>
11    1  0.7157190E-009  0.1897617E+03  0.7561462E-02  0.1062009E+00
         22   -1    0    0    0    0  0.00000000000E+00  0.00000000000E+00  0.10246575713E+03  0.10246575713E+03  0.00000000000E+00 0. -1.
         22   -1    0    0    0    0 -0.00000000000E+00 -0.00000000000E+00 -0.23665123373E+04  0.23665123373E+04  0.00000000000E+00 0.  1.
         24    2    1    2    0    0  0.80927869688E+01  0.36376156945E+01 -0.18274294695E+04  0.18291361951E+04  0.78498592261E+02 0.  0.
         25    2    1    2    0    0 -0.14369729565E+03  0.36984657388E+02 -0.42638986232E+03  0.46847965638E+03  0.12509235023E+03 0.  0.
        -24    2    1    2    0    0  0.13560450868E+03 -0.40622273082E+02 -0.10227248376E+02  0.17136224292E+03  0.96029525901E+02 0.  0.
        -11    1    3    3    0    0 -0.23210957462E+02 -0.15896410547E+02 -0.13462986841E+04  0.13465925855E+04  0.00000000000E+00 0.  1.
         12    1    3    3    0    0  0.31303744431E+02  0.19534026241E+02 -0.48113078533E+03  0.48254360963E+03  0.00000000000E+00 0. -1.
         11    1    5    5    0    0  0.88450884244E+02  0.14505133270E+02  0.21515191017E+02  0.92178420790E+02  0.00000000000E+00 0. -1.
        -12    1    5    5    0    0  0.47153624434E+02 -0.55127406352E+02 -0.31742439393E+02  0.79183822129E+02  0.00000000000E+00 0.  1.
          5    1    4    4  501    0 -0.34842319018E+02 -0.45291194991E+02 -0.11512611462E+03  0.12859538952E+03  0.41800000000E+01 0.  1.
         -5    1    4    4    0  501 -0.10885497663E+03  0.82275852378E+02 -0.31126374770E+03  0.33988426686E+03  0.41800000000E+01 0.  1.
</event>
<event>
11    1  0.7157190E-009  0.1665072E+03  0.7561462E-02  0.1081112E+00
         22   -1    0    0    0    0  0.00000000000E+00  0.00000000000E+00  0.22421164508E+04  0.22421164508E+04  0.00000000000E+00 0. -1.
         22   -1    0    0    0    0 -0.00000000000E+00 -0.00000000000E+00 -0.43066305870E+02  0.43066305870E+02  0.00000000000E+00 0.  1.
         24    2    1    2    0    0  0.14836028092E+02 -0.10588638238E+03  0.10089975005E+03  0.16687222604E+03  0.78952812253E+02 0.  0.
         25    2    1    2    0    0 -0.42691313180E+02  0.12780525749E+03  0.10192533062E+04  0.10357024335E+04  0.12508195941E+03 0.  0.
        -24    2    1    2    0    0  0.27855285088E+02 -0.21918875113E+02  0.10788970887E+04  0.10826080971E+04  0.82249680341E+02 0.  0.
        -13    1    3    3    0    0  0.75481439921E+01 -0.89420789576E+02  0.31393652525E+02  0.95071623027E+02  0.00000000000E+00 0.  1.
         14    1    3    3    0    0  0.72878840999E+01 -0.16465592804E+02  0.69506097521E+02  0.71800603018E+02  0.00000000000E+00 0. -1.
         11    1    5    5    0    0  0.49050446072E+02 -0.18894737233E+02  0.98053563045E+03  0.98194352176E+03  0.00000000000E+00 0. -1.
        -12    1    5    5    0    0 -0.21195160983E+02 -0.30241378796E+01  0.98361458247E+02  0.10066457534E+03  0.00000000000E+00 0.  1.
          5    1    4    4  501    0 -0.38303450931E+02  0.82241631203E+02  0.26656228075E+03  0.28160923666E+03  0.41800000000E+01 0.  1.
         -5    1    4    4    0  501 -0.43878622491E+01  0.45563626291E+02  0.75269102545E+03  0.75409319687E+03  0.41800000000E+01 0.  1.
</event>
<event>
11    1  0.7157190E-009  0.1385443E+03  0.7561462E-02  0.1109195E+00
         22   -1    0    0    0    0  0.00000000000E+00  0.00000000000E+00  0.27105524083E+03  0.27105524083E+03  0.00000000000E+00 0.  1.
         22   -1    0    0    0    0 -0.00000000000E+00 -0.00000000000E+00 -0.12852645094E+04  0.12852645094E+04  0.00000000000E+00 0.  1.
        -24    2    1    2    0    0  0.59580675546E+02  0.52077895318E+01 -0.12393284949E+04  0.12432018383E+04  0.77709166792E+02 0.  0.
         25    2    1    2    0    0 -0.35785976507E+02  0.36994951274E+01  0.16256559187E+03  0.20825379942E+03  0.12509097063E+03 0.  0.
         24    2    1    2    0    0 -0.23794699039E+02 -0.89072846592E+01  0.62553634419E+02  0.10486411251E+03  0.80237132871E+02 0.  0.
        -13    1    5    5    0    0 -0.10655729444E+02  0.34179513239E+02  0.42461682000E+02  0.55540779015E+02  0.00000000000E+00 0.  1.
         14    1    5    5    0    0 -0.13138969595E+02 -0.43086797899E+02  0.20091952418E+02  0.49323333496E+02  0.00000000000E+00 0. -1.
         13    1    3    3    0    0 -0.71894649978E+01 -0.17445817193E+02 -0.53962166112E+03  0.53995146272E+03  0.00000000000E+00 0. -1.
        -14    1    3    3    0    0  0.66770140544E+02  0.22653606725E+02 -0.69970683374E+03  0.70325037558E+03  0.00000000000E+00 0.  1.
          5    1    4    4  501    0 -0.67096691589E+02 -0.14707868662E+00  0.33098150548E+02  0.74932954193E+02  0.41800000000E+01 0.  1.
         -5    1    4    4    0  501  0.31310715082E+02  0.38465738140E+01  0.12946744132E+03  0.13332084523E+03  0.41800000000E+01 0.  1.
</event>
<event>
11    1  0.7157190E-009  0.1461260E+03  0.7561462E-02  0.1100904E+00
         22   -1    0    0    0    0  0.00000000000E+00  0.00000000000E+00  0.63551027784E+03  0.63551027784E+03  0.00000000000E+00 0. -1.
         22   -1    0    0    0    0 -0.00000000000E+00 -0.00000000000E+00 -0.11291799182E+03  0.11291799182E+03  0.00000000000E+00 0. -1.
        -24    2    1    2    0    0  0.41592585988E+02  0.61898695509E+02 -0.35801307306E+02  0.11449520939E+03  0.79158244379E+02 0.  0.
         25    2    1    2    0    0 -0.46961557731E+02 -0.63829400155E+02  0.12712098237E+03  0.19517922535E+03  0.12512236259E+03 0.  0.
         24    2    1    2    0    0  0.53689717424E+01  0.19307046458E+01  0.43127261095E+03  0.43875383492E+03  0.80475519427E+02 0.  0.
        -13    1    5    5    0    0  0.18875168804E+02  0.80454148167E+01  0.25588767286E+02  0.32799172370E+02  0.00000000000E+00 0.  1.
         14    1    5    5    0    0 -0.13506197061E+02 -0.61147101708E+01  0.40568384366E+03  0.40595466255E+03  0.00000000000E+00 0. -1.
         11    1    3    3    0    0  0.34202193647E+02  0.53878594905E+02 -0.60224377406E+02  0.87747755943E+02  0.00000000000E+00 0. -1.
        -12    1    3    3    0    0  0.73903923411E+01  0.80201006045E+01  0.24423070100E+02  0.26747453445E+02  0.00000000000E+00 0.  1.
          5    1    4    4  501    0 -0.71911183996E+01 -0.94591809388E+02  0.99990146357E+02  0.13789425063E+03  0.41800000000E+01 0. -1.
         -5    1    4    4    0  501 -0.39770439331E+02  0.30762409233E+02  0.27130836014E+02  0.57284974725E+02  0.41800000000E+01 0. -1.
</event>
<event>
11    1  0.7157190E-009  0.1352223E+03  0.7561462E-02  0.1113014E+00
         22   -1    0    0    0    0  0.00000000000E+00  0.00000000000E+00  0.29198466948E+04  0.29198466948E+04  0.00000000000E+00 0.  1.
         22   -1    0    0    0    0 -0.00000000000E+00 -0.00000000000E+00 -0.21171509333E+03  0.21171509333E+03  0.00000000000E+00 0. -1.
        -24    2    1    2    0    0 -0.28514437285E+02 -0.11321387949E+02 -0.18938615445E+03  0.20825731334E+03  0.81010777694E+02 0.  0.
         25    2    1    2    0    0  0.72017499538E+02 -0.13272281828E+02  0.42618427094E+03  0.45015953380E+03  0.12509156394E+03 0.  0.
         24    2    1    2    0    0 -0.43503062253E+02  0.24593669777E+02  0.24713334850E+04  0.24731449410E+04  0.80370020384E+02 0.  0.
        -11    1    5    5    0    0  0.55233840347E+01 -0.20337322621E+02  0.10980886672E+04  0.10982908702E+04  0.00000000000E+00 0.  1.
         12    1    5    5    0    0 -0.49026446288E+02  0.44930992398E+02  0.13732448178E+04  0.13748540708E+04  0.00000000000E+00 0. -1.
         11    1    3    3    0    0 -0.38830272450E+02 -0.29816871227E+02 -0.17716765735E+03  0.18380754794E+03  0.00000000000E+00 0. -1.
        -12    1    3    3    0    0  0.10315835165E+02  0.18495483278E+02 -0.12218497105E+02  0.24449765404E+02  0.00000000000E+00 0.  1.
          5    1    4    4  501    0  0.77086109043E+02 -0.23066960384E+02  0.12482902369E+03  0.14857358589E+03  0.41800000000E+01 0.  1.
         -5    1    4    4    0  501 -0.50686095047E+01  0.97946785568E+01  0.30135524725E+03  0.30158594791E+03  0.41800000000E+01 0.  1.
</event>
<event>
11    1  0.7157190E-009  0.1654827E+03  0.7561462E-02  0.1082031E+00
         22   -1    0    0    0    0  0.00000000000E+00  0.00000000000E+00  0.66634954563E+03  0.66634954563E+03  0.00000000000E+00 0.  1.
         22   -1    0    0    0    0 -0.00000000000E+00 -0.00000000000E+00 -0.69882540356E+03  0.69882540356E+03  0.00000000000E+00 0. -1.
         24    2    1    2    0    0  0.53606530330E+02 -0.92069371092E+02 -0.58346604517E+03  0.59873189312E+03  0.81834129690E+02 0.  0.
         25    2    1    2    0    0 -0.81215798318E+02  0.98754369447E+02 -0.27904617163E+02  0.18103762611E+03  0.12509005967E+03 0.  0.
        -24    2    1    2    0    0  0.27609267988E+02 -0.66849983552E+01  0.57889480440E+03  0.58540542996E+03  0.82300437319E+02 0.  0.
        -11    1    3    3    0    0 -0.48030716090E+01 -0.48658810554E+02 -0.11987279250E+03  0.12946132906E+03  0.00000000000E+00 0.  1.
         12    1    3    3    0    0  0.58409601939E+02 -0.43410560538E+02 -0.46359325267E+03  0.46927056406E+03  0.00000000000E+00 0. -1.
         11    1    5    5    0    0  0.72581139904E+01 -0.29292043552E+02  0.78715147473E+02  0.84301710990E+02  0.00000000000E+00 0. -1.
        -12    1    5    5    0    0  0.20351153998E+02  0.22607045196E+02  0.50017965693E+03  0.50110371897E+03  0.00000000000E+00 0.  1.
          5    1    4    4  501    0 -0.11051670772E+03  0.90212237238E+02 -0.52862968121E+01  0.14282019383E+03  0.41800000000E+01 0. -1.
         -5    1    4    4    0  501  0.29300909404E+02  0.85421322093E+01 -0.22618320351E+02  0.38217432280E+02  0.41800000000E+01 0. -1.
</event>
<event>
11    1  0.7157190E-009  0.1426150E+03  0.7561462E-02  0.1104673E+00
         22   -1    0    0    0    0  0.00000000000E+00  0.00000000000E+00  0.21983005365E+03  0.21983005365E+03  0.00000000000E+00 0.  1.
         22   -1    0    0    0    0 -0.00000000000E+00 -0.00000000000E+00 -0.63540435235E+03  0.63540435235E+03  0.00000000000E+00 0. -1.
         24    2    1    2    0    0  0.46285492367E+02 -0.35919205030E+02 -0.29798514208E+03  0.31389246850E+03  0.79377583661E+02 0.  0.
         25    2    1    2    0    0 -0.74584386687E+02  0.53671218606E+02 -0.30288644106E+03  0.34033774112E+03  0.12508457700E+03 0.  0.
        -24    2    1    2    0    0  0.28298894319E+02 -0.17752013576E+02  0.18529728445E+03  0.20100419637E+03  0.70367904119E+02 0.  0.
        -11    1    3    3    0    0  0.73343067620E+01  0.10050532452E+02 -0.29758639635E+01  0.12793006863E+02  0.00000000000E+00 0.  1.
         12    1    3    3    0    0  0.38951185605E+02 -0.45969737483E+02 -0.29500927812E+03  0.30109946164E+03  0.00000000000E+00 0. -1.
         13    1    5    5    0    0  0.98109689547E+00 -0.35676990666E-01 -0.64438586676E+01  0.65182158981E+01  0.00000000000E+00 0. -1.
        -14    1    5    5    0    0  0.27317797424E+02 -0.17716336585E+02  0.19174114312E+03  0.19448598047E+03  0.00000000000E+00 0.  1.
          5    1    4    4  501    0 -0.43335086445E+02  0.45196916925E+02 -0.37823648840E+02  0.73272039881E+02  0.41800000000E+01 0.  1.
         -5    1    4    4    0  501 -0.31249300241E+02  0.84743016807E+01 -0.26506279222E+03  0.26706570124E+03  0.41800000000E+01 0.  1.
</event>
<event>
11    1  0.7157190E-009  0.2507900E+03  0.7561462E-02  0.1023479E+00
         22   -1    0    0    0    0  0.00000000000E+00  0.00000000000E+00  0.69804965286E+03  0.69804965286E+03  0.00000000000E+00 0.  1.
         22   -1    0    0    0    0 -0.00000000000E+00 -0.00000000000E+00 -0.80879975508E+03  0.80879975508E+03  0.00000000000E+00 0. -1.
        -24    2    1    2    0    0  0.21832174450E+03 -0.56424747588E+02 -0.68045588357E+03  0.72131522237E+03  0.80170470104E+02 0.  0.
         25    2    1    2    0    0 -0.18079473225E+03 -0.93092089692E+02  0.58922562357E+02  0.24590913782E+03  0.12508622360E+03 0.  0.
         24    2    1    2    0    0 -0.37527012251E+02  0.14951683728E+03  0.51078321900E+03  0.53962504775E+03  0.80821618852E+02 0.  0.
        -11    1    5    5    0    0  0.16788381435E+02  0.96698362714E+02  0.27712853727E+03  0.29399430142E+03  0.00000000000E+00 0.  1.
         12    1    5    5    0    0 -0.54315393686E+02  0.52818474566E+02  0.23365468173E+03  0.24563074633E+03  0.00000000000E+00 0. -1.
         11    1    3    3    0    0  0.21841100977E+03 -0.39848208897E+02 -0.64583206209E+03  0.68292774242E+03  0.00000000000E+00 0. -1.
        -12    1    3    3    0    0 -0.89265268183E-01 -0.16576538691E+02 -0.34623821477E+02  0.38387479950E+02  0.00000000000E+00 0.  1.
          5    1    4    4  501    0 -0.10043414655E+03 -0.11729031112E+03  0.32824368822E+02  0.15792069675E+03  0.41800000000E+01 0. -1.
         -5    1    4    4    0  501 -0.80360585705E+02  0.24198221428E+02  0.26098193536E+02  0.87988441064E+02  0.41800000000E+01 0. -1.
</event>
<event>
11    1  0.7157190E-009  0.1321254E+03  0.7561462E-02  0.1116685E+00
         22   -1    0    0    0    0  0.00000000000E+00  0.00000000000E+00  0.61874949906E+02  0.61874949906E+02  0.00000000000E+00 0. -1.
         22   -1    0    0    0    0 -0.00000000000E+00 -0.00000000000E+00 -0.14839281087E+04  0.14839281087E+04  0.00000000000E+00 0. -1.
         24    2    1    2    0    0  0.41640026827E+02  0.11213086716E+02 -0.10990293764E+04  0.11023981195E+04  0.74541388208E+02 0.  0.
         25    2    1    2    0    0 -0.37075566903E+02 -0.92697787722E+01 -0.33772736598E+03  0.36217228120E+03  0.12509380912E+03 0.  0.
        -24    2    1    2    0    0 -0.45644599237E+01 -0.19433079439E+01  0.14703583590E+02  0.81232657892E+02  0.79736682886E+02 0.  0.
        -13    1    3    3    0    0 -0.14275541210E+02  0.30907707259E+01 -0.57124146149E+02  0.58961953951E+02  0.00000000000E+00 0.  1.
         14    1    3    3    0    0  0.55915568037E+02  0.81223159902E+01 -0.10419052303E+04  0.10434361656E+04  0.00000000000E+00 0. -1.
         13    1    5    5    0    0  0.28966142419E+02  0.17718694209E+02 -0.97282268908E+01  0.35321776987E+02  0.00000000000E+00 0. -1.
        -14    1    5    5    0    0 -0.33530602342E+02 -0.19662002153E+02  0.24431810481E+02  0.45910880905E+02  0.00000000000E+00 0.  1.
          5    1    4    4  501    0 -0.20602482116E+02 -0.65877913613E+02 -0.21703275450E+03  0.22778290255E+03  0.41800000000E+01 0. -1.
         -5    1    4    4    0  501 -0.16473084787E+02  0.56608134841E+02 -0.12069461148E+03  0.13438937865E+03  0.41800000000E+01 0. -1.
</event>
<event>
11    1  0.7157190E-009  0.1418118E+03  0.7561462E-02  0.1105552E+00
         22   -1    0    0    0    0  0.00000000000E+00  0.00000000000E+00  0.87769597748E+03  0.87769597748E+03  0.00000000000E+00 0. -1.
         22   -1    0    0    0    0 -0.00000000000E+00 -0.00000000000E+00 -0.81942373531E+02  0.81942373531E+02  0.00000000000E+00 0.  1.
        -24    2    1    2    0    0 -0.45958372634E+02  0.51100022089E+02 -0.16886992554E+02  0.10716786689E+03  0.80476064165E+02 0.  0.
         25    2    1    2    0    0 -0.40457852823E+02 -0.29511322486E+02  0.38607098547E+03  0.40890793415E+03  0.12508851577E+03 0.  0.
         24    2    1    2    0    0  0.86416225457E+02 -0.21588699603E+02  0.42656961103E+03  0.44356254997E+03  0.82778419338E+02 0.  0.
        -11    1    5    5    0    0  0.61777936825E+02 -0.35744742826E+02  0.15655837625E+03  0.17206023740E+03  0.00000000000E+00 0.  1.
         12    1    5    5    0    0  0.24638288631E+02  0.14156043223E+02  0.27001123478E+03  0.27150231257E+03  0.00000000000E+00 0. -1.
         13    1    3    3    0    0  0.30996081913E+01 -0.13223126365E+02 -0.22279049143E+02  0.26092425578E+02  0.00000000000E+00 0. -1.
        -14    1    3    3    0    0 -0.49057980825E+02  0.64323148454E+02  0.53920565893E+01  0.81075441312E+02  0.00000000000E+00 0.  1.
          5    1    4    4  501    0 -0.49931852167E+02 -0.31602097117E+02  0.39223077868E+03  0.39667913803E+03  0.41800000000E+01 0. -1.
         -5    1    4    4    0  501  0.94739993438E+01  0.20907746305E+01 -0.61597932116E+01  0.12228796119E+02  0.41800000000E+01 0. -1.
</event>
<event>
11    1  0.7157190E-009  0.1524415E+03  0.7561462E-02  0.1094410E+00
         22   -1    0    0    0    0  0.00000000000E+00  0.00000000000E+00  0.67564397910E+02  0.67564397910E+02  0.00000000000E+00 0. -1.
         22   -1    0    0    0    0 -0.00000000000E+00 -0.00000000000E+00 -0.65392033051E+03  0.65392033051E+03  0.00000000000E+00 0.  1.
         24    2    1    2    0    0  0.54647071669E+02  0.65774207845E+02 -0.34050082260E+03  0.35959241504E+03  0.77803251223E+02 0.  0.
         25    2    1    2    0    0 -0.44570024082E+02 -0.80830537763E+02 -0.22865406937E+03  0.27649792167E+03  0.12509338259E+03 0.  0.
        -24    2    1    2    0    0 -0.10077047587E+02  0.15056329918E+02 -0.17201040636E+02  0.85394391718E+02  0.81658351558E+02 0.  0.
        -13    1    3    3    0    0 -0.20076343240E+02  0.12099244399E+02 -0.61642898450E+02  0.65949209261E+02  0.00000000000E+00 0.  1.
         14    1    3    3    0    0  0.74723414909E+02  0.53674963446E+02 -0.27885792415E+03  0.29364320577E+03  0.00000000000E+00 0. -1.
         11    1    5    5    0    0 -0.39436948805E+02  0.30379888070E+02 -0.15867748623E+02  0.52249363409E+02  0.00000000000E+00 0. -1.
        -12    1    5    5    0    0  0.29359901219E+02 -0.15323558153E+02 -0.13332920133E+01  0.33145028309E+02  0.00000000000E+00 0.  1.
          5    1    4    4  501    0 -0.52938229324E+01 -0.70446010275E+02 -0.22456682864E+03  0.23545360021E+03  0.41800000000E+01 0.  1.
         -5    1    4    4    0  501 -0.39276201149E+02 -0.10384527488E+02 -0.40872407308E+01  0.41044321467E+02  0.41800000000E+01 0.  1.
</event>
<event>
11    1  0.7157190E-009  0.1541557E+03  0.7561462E-02  0.1092707E+00
         22   -1    0    0    0    0  0.00000000000E+00  0.00000000000E+00  0.16967056516E+03  0.16967056516E+03  0.00000000000E+00 0. -1.
         22   -1    0    0    0    0 -0.00000000000E+00 -0.00000000000E+00 -0.12283036931E+04  0.12283036931E+04  0.00000000000E+00 0. -1.
         24    2    1    2    0    0 -0.42520661729E+02  0.10438563763E+02 -0.98432898059E+03  0.98866052878E+03  0.81419462363E+02 0.  0.
         25    2    1    2    0    0  0.80393937176E+02 -0.88777710578E+02 -0.18102177535E+03  0.25052141955E+03  0.12508969370E+03 0.  0.
        -24    2    1    2    0    0 -0.37873275446E+02  0.78339146814E+02  0.10671762798E+03  0.15879230997E+03  0.79088170206E+02 0.  0.
        -13    1    3    3    0    0  0.73722173515E+01  0.35715327632E+02 -0.40391354903E+03  0.40555651802E+03  0.00000000000E+00 0.  1.
         14    1    3    3    0    0 -0.49892879081E+02 -0.25276763868E+02 -0.58041543156E+03  0.58310401077E+03  0.00000000000E+00 0. -1.
         13    1    5    5    0    0 -0.26596121985E+02  0.91739436510E+02  0.71009415481E+02  0.11902022938E+03  0.00000000000E+00 0. -1.
        -14    1    5    5    0    0 -0.11277153461E+02 -0.13400289695E+02  0.35708212496E+02  0.39772080581E+02  0.00000000000E+00 0.  1.
          5    1    4    4  501    0  0.65050117633E+02 -0.84041041085E+02 -0.48376887525E+02  0.11684267216E+03  0.41800000000E+01 0. -1.
         -5    1    4    4    0  501  0.15343819543E+02 -0.47366694925E+01 -0.13264488783E+03  0.13367874739E+03  0.41800000000E+01 0. -1.
</event>
<event>
11    1  0.7157190E-009  0.1772521E+03  0.7561462E-02  0.1071887E+00
         22   -1    0    0    0    0  0.00000000000E+00  0.00000000000E+00  0.20149862418E+04  0.20149862418E+04  0.00000000000E+00 0.  1.
         22   -1    0    0    0    0 -0.00000000000E+00 -0.00000000000E+00 -0.72717780096E+02  0.72717780096E+02  0.00000000000E+00 0.  1.
        -24    2    1    2    0    0 -0.12191482149E+03 -0.29806210403E+02  0.78130397103E+02  0.16850711577E+03  0.80861951726E+02 0.  0.
         25    2    1    2    0    0  0.11697141841E+03  0.49158838163E+02  0.27276881816E+03  0.32580597388E+03  0.12509116820E+03 0.  0.
         24    2    1    2    0    0  0.49434030820E+01 -0.19352627760E+02  0.15913692465E+04  0.15933909323E+04  0.77715011483E+02 0.  0.
        -13    1    5    5    0    0  0.14646196621E+01 -0.49457913244E+02  0.90241764304E+03  0.90377310911E+03  0.00000000000E+00 0.  1.
         14    1    5    5    0    0  0.34787834199E+01  0.30105285484E+02  0.68895160342E+03  0.68961782315E+03  0.00000000000E+00 0. -1.
         13    1    3    3    0    0 -0.68847674307E+02 -0.11923381978E+02  0.87239694019E+02  0.11177179209E+03  0.00000000000E+00 0. -1.
        -14    1    3    3    0    0 -0.53067147181E+02 -0.17882828425E+02 -0.91092969166E+01  0.56735323676E+02  0.00000000000E+00 0.  1.
          5    1    4    4  501    0  0.51292444116E+01 -0.14556454353E+02 -0.72761974415E+01  0.17567440359E+02  0.41800000000E+01 0. -1.
         -5    1    4    4    0  501  0.11184217399E+03  0.63715292516E+02  0.28004501560E+03  0.30823853352E+03  0.41800000000E+01 0. -1.
</event>
<event>
11    1  0.7157190E-009  0.2038212E+03  0.7561462E-02  0.1051854E+00
         22   -1    0    0    0    0  0.00000000000E+00  0.00000000000E+00  0.88575245455E+03  0.88575245455E+03  0.00000000000E+00 0. -1.
         22   -1    0    0    0    0 -0.00000000000E+00 -0.00000000000E+00 -0.44206825976E+03  0.44206825976E+03  0.00000000000E+00 0.  1.
        -24    2    1    2    0    0 -0.16329172356E+03  0.49033384872E+00 -0.39518958582E+03  0.43526973547E+03  0.81366494757E+02 0.  0.
         25    2    1    2    0    0  0.12137268360E+03  0.22615552203E+02  0.31093260617E+03  0.35716842668E+03  0.12508959952E+03 0.  0.
         24    2    1    2    0    0  0.41919039953E+02 -0.23105886052E+02  0.52794117444E+03  0.53538255216E+03  0.74976700436E+02 0.  0.
        -13    1    5    5    0    0 -0.63301043937E+01 -0.34832497321E+02  0.14618944777E+03  0.15041518451E+03  0.00000000000E+00 0.  1.
         14    1    5    5    0    0  0.48249144347E+02  0.11726611269E+02  0.38175172667E+03  0.38496736765E+03  0.00000000000E+00 0. -1.
         13    1    3    3    0    0 -0.61957844149E+02 -0.22382415377E+02 -0.81318206504E+02  0.10465370361E+03  0.00000000000E+00 0. -1.
        -14    1    3    3    0    0 -0.10133387941E+03  0.22872749226E+02 -0.31387137932E+03  0.33061603187E+03  0.00000000000E+00 0.  1.
          5    1    4    4  501    0  0.75796932429E+01  0.27583982017E+02  0.18528417105E+03  0.18752606287E+03  0.41800000000E+01 0. -1.
         -5    1    4    4    0  501  0.11379299036E+03 -0.49684298141E+01  0.12564843513E+03  0.16964236381E+03  0.41800000000E+01 0. -1.
</event>
<event>
11    1  0.7157190E-009  0.1411097E+03  0.7561462E-02  0.1106326E+00
         22   -1    0    0    0    0  0.00000000000E+00  0.00000000000E+00  0.31805040276E+03  0.31805040276E+03  0.00000000000E+00 0.  1.
         22   -1    0    0    0    0 -0.00000000000E+00 -0.00000000000E+00 -0.86500035756E+03  0.86500035756E+03  0.00000000000E+00 0.  1.
        -24    2    1    2    0    0  0.47530283797E+01  0.24928194207E+02 -0.81393787285E+03  0.81833696170E+03  0.80848722147E+02 0.  0.
         25    2    1    2    0    0  0.24381631783E+02 -0.74778592108E+02  0.14948240249E+03  0.21019142109E+03  0.12509653487E+03 0.  0.
         24    2    1    2    0    0 -0.29134660162E+02  0.49850397901E+02  0.11750551555E+03  0.15452237754E+03  0.82071483371E+02 0.  0.
        -13    1    5    5    0    0 -0.21454041173E+02 -0.49367327640E+01  0.90162563873E+02  0.92811287768E+02  0.00000000000E+00 0.  1.
         14    1    5    5    0    0 -0.76806189889E+01  0.54787130665E+02  0.27342951677E+02  0.61711089773E+02  0.00000000000E+00 0. -1.
         11    1    3    3    0    0  0.21061733037E+02  0.35066728488E+02 -0.20211839138E+03  0.20621618797E+03  0.00000000000E+00 0. -1.
        -12    1    3    3    0    0 -0.16308704657E+02 -0.10138534280E+02 -0.61181948147E+03  0.61212077373E+03  0.00000000000E+00 0.  1.
          5    1    4    4  501    0  0.55193257128E+02 -0.56682855807E+02  0.28860403138E+02  0.84318663677E+02  0.41800000000E+01 0. -1.
         -5    1    4    4    0  501 -0.30811625346E+02 -0.18095736301E+02  0.12062199936E+03  0.12587275741E+03  0.41800000000E+01 0. -1.
</event>
<event>
11    1  0.7157190E-009  0.1435200E+03  0.7561462E-02  0.1103690E+00
         22   -1    0    0    0    0  0.00000000000E+00  0.00000000000E+00  0.86767613067E+03  0.86767613067E+03  0.00000000000E+00 0.  1.
         22   -1    0    0    0    0 -0.00000000000E+00 -0.00000000000E+00 -0.79157916385E+03  0.79157916385E+03  0.00000000000E+00 0. -1.
        -24    2    1    2    0    0  0.38027475841E+02 -0.59320478010E+02 -0.75637305982E+03  0.76411822064E+03  0.82531457423E+02 0.  0.
         25    2    1    2    0    0  0.15539937808E+02  0.86921186243E+02  0.18608585805E+03  0.24097882196E+03  0.12508422675E+03 0.  0.
         24    2    1    2    0    0 -0.53567413649E+02 -0.27600708233E+02  0.64638416859E+03  0.65415825192E+03  0.80493839800E+02 0.  0.
        -11    1    5    5    0    0 -0.54823502406E+02  0.14949064766E+02  0.41747904141E+03  0.42132866146E+03  0.00000000000E+00 0.  1.
         12    1    5    5    0    0  0.12560887574E+01 -0.42549772998E+02  0.22890512718E+03  0.23282959045E+03  0.00000000000E+00 0. -1.
         13    1    3    3    0    0  0.30942302658E+02 -0.54982889609E+02 -0.75216376893E+03  0.75480519310E+03  0.00000000000E+00 0. -1.
        -14    1    3    3    0    0  0.70851731830E+01 -0.43375884011E+01 -0.42092908929E+01  0.93130275416E+01  0.00000000000E+00 0.  1.
          5    1    4    4  501    0 -0.21252602971E+02  0.61517601771E+02  0.18489173826E+03  0.19605742969E+03  0.41800000000E+01 0. -1.
         -5    1    4    4    0  501  0.36792540779E+02  0.25403584472E+02  0.11941197891E+01  0.44921392265E+02  0.41800000000E+01 0. -1.
</event>
<event>
11    1  0.8876514E-009  0.1636005E+03  0.7561462E-02  0.1083739E+00
         22   -1    0    0    0    0  0.00000000000E+00  0.00000000000E+00  0.13653932150E+04  0.13653932150E+04  0.00000000000E+00 0. -1.
         22   -1    0    0    0    0 -0.00000000000E+00 -0.00000000000E+00 -0.46887004628E+03  0.46887004628E+03  0.00000000000E+00 0. -1.
         24    2    1    2    0    0  0.93136713184E+02 -0.46732500472E+00 -0.41318768711E+03  0.43079818347E+03  0.78666030555E+02 0.  0.
         25    2    1    2    0    0  0.82198621565E+01  0.48565692540E+02  0.61803920505E+02  0.14796364161E+03  0.12508925623E+03 0.  0.
        -24    2    1    2    0    0 -0.10135657534E+03 -0.48098367535E+02  0.12479069354E+04  0.12555014362E+04  0.80159395842E+02 0.  0.
        -11    1    3    3    0    0  0.19167507356E-01 -0.13383228595E+02 -0.97653509181E+01  0.16567234337E+02  0.00000000000E+00 0.  1.
         12    1    3    3    0    0  0.93117545677E+02  0.12915903590E+02 -0.40342233619E+03  0.41423094913E+03  0.00000000000E+00 0. -1.
         11    1    5    5    0    0 -0.87852200946E+02 -0.45191656453E+02  0.65272662737E+03  0.66016084791E+03  0.00000000000E+00 0. -1.
        -12    1    5    5    0    0 -0.13504374395E+02 -0.29067110821E+01  0.59518030800E+03  0.59534058834E+03  0.00000000000E+00 0.  1.
          5    1    4    4  501    0 -0.24395359333E+02 -0.19724106064E+02  0.64794373245E+02  0.72110728198E+02  0.41800000000E+01 0. -1.
         -5    1    4    4    0  501  0.32615221490E+02  0.68289798604E+02 -0.29904527403E+01  0.75852913416E+02  0.41800000000E+01 0. -1.
</event>
<event>
11    1  0.7157190E-009  0.1942142E+03  0.7561462E-02  0.1058692E+00
         22   -1    0    0    0    0  0.00000000000E+00  0.00000000000E+00  0.12061082564E+04  0.12061082564E+04  0.00000000000E+00 0.  1.
         22   -1    0    0    0    0 -0.00000000000E+00 -0.00000000000E+00 -0.89491109173E+02  0.89491109173E+02  0.00000000000E+00 0.  1.
         24    2    1    2    0    0  0.27565716273E+02  0.25298551990E+01  0.35757753562E+01  0.83839317482E+02  0.79056790382E+02 0.  0.
         25    2    1    2    0    0 -0.37678237095E+01  0.14515012053E+03  0.17845476031E+03  0.26186484956E+03  0.12507735197E+03 0.  0.
        -24    2    1    2    0    0 -0.23797892563E+02 -0.14767997573E+03  0.93458661160E+03  0.94989519856E+03  0.80455197133E+02 0.  0.
        -13    1    3    3    0    0  0.73492466211E+01  0.19705088672E+02 -0.32712054155E+02  0.38889335717E+02  0.00000000000E+00 0.  1.
         14    1    3    3    0    0  0.20216469652E+02 -0.17175233473E+02  0.36287829511E+02  0.44949981765E+02  0.00000000000E+00 0. -1.
         13    1    5    5    0    0  0.15664478604E+02 -0.24248883219E+02  0.34650352943E+03  0.34770401225E+03  0.00000000000E+00 0. -1.
        -14    1    5    5    0    0 -0.39462371168E+02 -0.12343109251E+03  0.58808308216E+03  0.60219118630E+03  0.00000000000E+00 0.  1.
          5    1    4    4  501    0  0.46965980048E+02  0.77389924959E+02  0.14449697102E+03  0.17056333369E+03  0.41800000000E+01 0. -1.
         -5    1    4    4    0  501 -0.50733803758E+02  0.67760195568E+02  0.33957789288E+02  0.91301515872E+02  0.41800000000E+01 0. -1.
</event>
<event>
11    1  0.7157190E-009  0.1338944E+03  0.7561462E-02  0.1114575E+00
         22   -1    0    0    0    0  0.00000000000E+00  0.00000000000E+00  0.18570522303E+04  0.18570522303E+04  0.00000000000E+00 0. -1.
         22   -1    0    0    0    0 -0.00000000000E+00 -0.00000000000E+00 -0.57852115298E+03  0.57852115298E+03  0.00000000000E+00 0.  1.
        -24    2    1    2    0    0 -0.43964051087E+00 -0.45294349940E+02 -0.40684546195E+03  0.41691439375E+03  0.79010191683E+02 0.  0.
         25    2    1    2    0    0  0.14479070315E+02  0.61878644319E+02 -0.13597002628E+03  0.19537901953E+03  0.12508598293E+03 0.  0.
         24    2    1    2    0    0 -0.14039429804E+02 -0.16584294379E+02  0.18213465655E+04  0.18232799699E+04  0.81082628996E+02 0.  0.
        -11    1    5    5    0    0 -0.37766202637E+02  0.10806353697E+02  0.54261122504E+03  0.54403125359E+03  0.00000000000E+00 0.  1.
         12    1    5    5    0    0  0.23726772833E+02 -0.27390648076E+02  0.12787353405E+04  0.12792487164E+04  0.00000000000E+00 0. -1.
         11    1    3    3    0    0  0.22799172575E+02 -0.30558645630E+02 -0.76991169236E+02  0.85914336599E+02  0.00000000000E+00 0. -1.
        -12    1    3    3    0    0 -0.23238813085E+02 -0.14735704310E+02 -0.32985429271E+03  0.33100005715E+03  0.00000000000E+00 0.  1.
          5    1    4    4  501    0  0.18035287077E+02 -0.10151605752E+02 -0.11941510906E+03  0.12126733835E+03  0.41800000000E+01 0.  1.
         -5    1    4    4    0  501 -0.35562167620E+01  0.72030250071E+02 -0.16554917221E+02  0.74111681178E+02  0.41800000000E+01 0.  1.
</event>
<event>
11    1  0.7157190E-009  0.2487372E+03  0.7561462E-02  0.1024574E+00
         22   -1    0    0    0    0  0.00000000000E+00  0.00000000000E+00  0.13232378585E+03  0.13232378585E+03  0.00000000000E+00 0.  1.
         22   -1    0    0    0    0 -0.00000000000E+00 -0.00000000000E+00 -0.12565332584E+04  0.12565332584E+04  0.00000000000E+00 0. -1.
        -24    2    1    2    0    0  0.54838364964E+02 -0.81203276552E+02 -0.65357350684E+03  0.66571298225E+03  0.80088872523E+02 0.  0.
         25    2    1    2    0    0  0.88708378440E+02  0.23218639983E+03 -0.40315351984E+03  0.48985742004E+03  0.12509128962E+03 0.  0.
         24    2    1    2    0    0 -0.14354674340E+03 -0.15098312328E+03 -0.67482445875E+02  0.23328664196E+03  0.80418939066E+02 0.  0.
        -11    1    5    5    0    0 -0.99561468755E+02 -0.78976406977E+02 -0.30459134575E+01  0.12711819897E+03  0.00000000000E+00 0.  1.
         12    1    5    5    0    0 -0.43985274649E+02 -0.72006716302E+02 -0.64436532418E+02  0.10616844300E+03  0.00000000000E+00 0. -1.
         13    1    3    3    0    0  0.69330165795E+02 -0.86645711786E+02 -0.56435241615E+03  0.57515893532E+03  0.00000000000E+00 0. -1.
        -14    1    3    3    0    0 -0.14491800831E+02  0.54424352345E+01 -0.89221090690E+02  0.90554046936E+02  0.00000000000E+00 0.  1.
          5    1    4    4  501    0  0.57414818419E+02  0.51291494040E+02 -0.50232426493E+02  0.92021996318E+02  0.41800000000E+01 0.  1.
         -5    1    4    4    0  501  0.31293560021E+02  0.18089490579E+03 -0.35292109335E+03  0.39783542373E+03  0.41800000000E+01 0.  1.
</event>
<event>
11    1  0.7157190E-009  0.1556100E+03  0.7561462E-02  0.1091280E+00
         22   -1    0    0    0    0  0.00000000000E+00  0.00000000000E+00  0.20668779603E+04  0.20668779603E+04  0.00000000000E+00 0. -1.
         22   -1    0    0    0    0 -0.00000000000E+00 -0.00000000000E+00 -0.19392606569E+04  0.19392606569E+04  0.00000000000E+00 0. -1.
        -24    2    1    2    0    0 -0.57340534274E+02 -0.96234270605E+02 -0.12977176190E+04  0.13050206553E+04  0.80367407847E+02 0.  0.
         25    2    1    2    0    0 -0.35320203933E+01  0.60414326295E+02 -0.62891788460E+03  0.64408686937E+03  0.12509126163E+03 0.  0.
         24    2    1    2    0    0  0.60872554667E+02  0.35819944310E+02  0.20542528070E+04  0.20570310925E+04  0.80210871046E+02 0.  0.
        -11    1    5    5    0    0  0.55116396662E+02 -0.10501264841E+02  0.83358365124E+03  0.83546980637E+03  0.00000000000E+00 0.  1.
         12    1    5    5    0    0  0.57561580053E+01  0.46321209151E+02  0.12206691558E+04  0.12215612861E+04  0.00000000000E+00 0. -1.
         13    1    3    3    0    0 -0.36890320726E+02 -0.46048696803E+02 -0.10397246210E+04  0.10413974581E+04  0.00000000000E+00 0. -1.
        -14    1    3    3    0    0 -0.20450213548E+02 -0.50185573802E+02 -0.25799299803E+03  0.26362319717E+03  0.00000000000E+00 0.  1.
          5    1    4    4  501    0 -0.38313771413E+02 -0.21866490124E+02 -0.13349154241E+03  0.14065401795E+03  0.41800000000E+01 0. -1.
         -5    1    4    4    0  501  0.34781751019E+02  0.82280816419E+02 -0.49542634218E+03  0.50343285142E+03  0.41800000000E+01 0. -1.
</event>
<event>
11    1  0.7157190E-009  0.1550728E+03  0.7561462E-02  0.1091805E+00
         22   -1    0    0    0    0  0.00000000000E+00  0.00000000000E+00  0.34084911774E+03  0.34084911774E+03  0.00000000000E+00 0. -1.
         22   -1    0    0    0    0 -0.00000000000E+00 -0.00000000000E+00 -0.11274765323E+04  0.11274765323E+04  0.00000000000E+00 0.  1.
        -24    2    1    2    0    0 -0.53251961602E+02  0.17438140080E+02 -0.78013686137E+03  0.78630347968E+03  0.80745151827E+02 0.  0.
         25    2    1    2    0    0  0.73045409158E+02 -0.10586111089E+03 -0.30797961889E+03  0.35643407827E+03  0.12510635437E+03 0.  0.
         24    2    1    2    0    0 -0.19793447556E+02  0.88422970810E+02  0.30148906571E+03  0.32558809207E+03  0.83075547700E+02 0.  0.
        -11    1    5    5    0    0 -0.17910784266E+02 -0.11513573587E+02  0.76243315499E+02  0.79160607173E+02  0.00000000000E+00 0.  1.
         12    1    5    5    0    0 -0.18826632904E+01  0.99936544397E+02  0.22524575021E+03  0.24642748490E+03  0.00000000000E+00 0. -1.
         13    1    3    3    0    0  0.12517496097E+02 -0.67341704003E+01 -0.33566069235E+02  0.36451581083E+02  0.00000000000E+00 0. -1.
        -14    1    3    3    0    0 -0.65769457700E+02  0.24172310480E+02 -0.74657079214E+03  0.74985189860E+03  0.00000000000E+00 0.  1.
          5    1    4    4  501    0 -0.34634436767E+02 -0.32501399013E+02 -0.63961160464E+02  0.79777111980E+02  0.41800000000E+01 0. -1.
         -5    1    4    4    0  501  0.10767984593E+03 -0.73359711876E+02 -0.24401845843E+03  0.27665696629E+03  0.41800000000E+01 0. -1.
</event>
<event>
11    1  0.7157190E-009  0.1609694E+03  0.7561462E-02  0.1086169E+00
         22   -1    0    0    0    0  0.00000000000E+00  0.00000000000E+00  0.10482877730E+04  0.10482877730E+04  0.00000000000E+00 0.  1.
         22   -1    0    0    0    0 -0.00000000000E+00 -0.00000000000E+00 -0.32258075250E+03  0.32258075250E+03  0.00000000000E+00 0. -1.
         24    2    1    2    0    0  0.21196621989E+02 -0.45122176561E+01 -0.24279465500E+03  0.25472244495E+03  0.73923085504E+02 0.  0.
         25    2    1    2    0    0 -0.11760692414E+03 -0.22680744787E+02  0.38532222347E+02  0.17741975468E+03  0.12508889800E+03 0.  0.
        -24    2    1    2    0    0  0.96410302152E+02  0.27192962443E+02  0.92996945315E+03  0.93872632586E+03  0.79558327692E+02 0.  0.
        -13    1    3    3    0    0 -0.24095422861E+02 -0.28568453238E+00 -0.38458571931E+02  0.45384278925E+02  0.00000000000E+00 0.  1.
         14    1    3    3    0    0  0.45292044851E+02 -0.42265331237E+01 -0.20433608307E+03  0.20933816602E+03  0.00000000000E+00 0. -1.
         11    1    5    5    0    0 -0.49255735314E+01  0.16955897036E+02  0.53037277293E+02  0.55899163693E+02  0.00000000000E+00 0. -1.
        -12    1    5    5    0    0  0.10133587568E+03  0.10237065407E+02  0.87693217585E+03  0.88282716216E+03  0.00000000000E+00 0.  1.
          5    1    4    4  501    0 -0.10825222639E+03  0.21214033846E+02  0.61991480461E+02  0.12660567049E+03  0.41800000000E+01 0. -1.
         -5    1    4    4    0  501 -0.93546977534E+01 -0.43894778633E+02 -0.23459258114E+02  0.50814084195E+02  0.41800000000E+01 0. -1.
</event>
<event>
11    1  0.7157190E-009  0.1327532E+03  0.7561462E-02  0.1115932E+00
         22   -1    0    0    0    0  0.00000000000E+00  0.00000000000E+00  0.10695467381E+04  0.10695467381E+04  0.00000000000E+00 0.  1.
         22   -1    0    0    0    0 -0.00000000000E+00 -0.00000000000E+00 -0.10442401373E+04  0.10442401373E+04  0.00000000000E+00 0.  1.
        -24    2    1    2    0    0  0.20170942668E+02 -0.39805021100E+02 -0.10144390034E+04  0.10184463153E+04  0.78454438237E+02 0.  0.
         25    2    1    2    0    0  0.22956952468E+01  0.35388518006E+02  0.13768342586E+03  0.18937155428E+03  0.12508893792E+03 0.  0.
         24    2    1    2    0    0 -0.22466637915E+02  0.44165030940E+01  0.90206217834E+03  0.90596900592E+03  0.80866623333E+02 0.  0.
        -11    1    5    5    0    0 -0.30834622497E+02  0.83172649897E+01  0.89094853492E+03  0.89152074722E+03  0.00000000000E+00 0.  1.
         12    1    5    5    0    0  0.83679845820E+01 -0.39007618957E+01  0.11113643415E+02  0.14448258694E+02  0.00000000000E+00 0. -1.
         13    1    3    3    0    0 -0.24347393912E+01  0.23187486604E+02 -0.25363380569E+03  0.25470315051E+03  0.00000000000E+00 0. -1.
        -14    1    3    3    0    0  0.22605682059E+02 -0.62992507704E+02 -0.76080519767E+03  0.76374316474E+03  0.00000000000E+00 0.  1.
          5    1    4    4  501    0  0.35505712021E+01 -0.44309687568E+02  0.24659261869E+02  0.51004966073E+02  0.41800000000E+01 0. -1.
         -5    1    4    4    0  501 -0.12548759553E+01  0.79698205574E+02  0.11302416399E+03  0.13836658820E+03  0.41800000000E+01 0. -1.
</event>
<event>
11    1  0.7157190E-009  0.1376803E+03  0.7561462E-02  0.1110177E+00
         22   -1    0    0    0    0  0.00000000000E+00  0.00000000000E+00  0.97024818923E+02  0.97024818923E+02  0.00000000000E+00 0. -1.
         22   -1    0    0    0    0 -0.00000000000E+00 -0.00000000000E+00 -0.23159457567E+04  0.23159457567E+04  0.00000000000E+00 0.  1.
         24    2    1    2    0    0 -0.34261590546E+02  0.47425145406E+02 -0.20614128090E+04  0.20638020708E+04  0.80207338952E+02 0.  0.
         25    2    1    2    0    0  0.15131798569E+02 -0.40470320053E+02 -0.21193233497E+03  0.24986061700E+03  0.12509274636E+03 0.  0.
        -24    2    1    2    0    0  0.19129791976E+02 -0.69548253528E+01  0.54424206224E+02  0.99307887813E+02  0.80534115888E+02 0.  0.
        -11    1    3    3    0    0 -0.47238467046E+02  0.87441250964E+01 -0.63862867118E+03  0.64043306609E+03  0.00000000000E+00 0.  1.
         12    1    3    3    0    0  0.12976876501E+02  0.38681020309E+02 -0.14227841378E+04  0.14233690047E+04  0.00000000000E+00 0. -1.
         13    1    5    5    0    0  0.43856590729E+02  0.10987495960E+02  0.51632842545E+02  0.68629993787E+02  0.00000000000E+00 0. -1.
        -14    1    5    5    0    0 -0.24726798753E+02 -0.17942321313E+02  0.27913636793E+01  0.30677894026E+02  0.00000000000E+00 0.  1.
          5    1    4    4  501    0  0.38958179271E+02 -0.56707092554E+02 -0.20958944090E+03  0.22063236438E+03  0.41800000000E+01 0. -1.
         -5    1    4    4    0  501 -0.23826380701E+02  0.16236772501E+02 -0.23428940713E+01  0.29228252620E+02  0.41800000000E+01 0. -1.
</event>
<event>
11    1  0.7157190E-009  0.1598034E+03  0.7561462E-02  0.1087262E+00
         22   -1    0    0    0    0  0.00000000000E+00  0.00000000000E+00  0.13053553395E+04  0.13053553395E+04  0.00000000000E+00 0.  1.
         22   -1    0    0    0    0 -0.00000000000E+00 -0.00000000000E+00 -0.79559267451E+03  0.79559267451E+03  0.00000000000E+00 0.  1.
         24    2    1    2    0    0 -0.10029264179E+03 -0.37786025984E+01 -0.76718499851E+03  0.77788433680E+03  0.80363721054E+02 0.  0.
         25    2    1    2    0    0  0.47878657425E+02  0.68083019334E+02  0.26335256767E+03  0.30319952623E+03  0.12509082480E+03 0.  0.
        -24    2    1    2    0    0  0.52413984367E+02 -0.64304416736E+02  0.10135950958E+04  0.10198641509E+04  0.76587103219E+02 0.  0.
        -13    1    3    3    0    0 -0.75360498116E+02 -0.30247018992E+02 -0.65349717256E+03  0.65852307582E+03  0.00000000000E+00 0.  1.
         14    1    3    3    0    0 -0.24932143676E+02  0.26468416394E+02 -0.11368782595E+03  0.11936126098E+03  0.00000000000E+00 0. -1.
         13    1    5    5    0    0  0.27983407997E+02 -0.52043320905E+02  0.30100890051E+03  0.30675386968E+03  0.00000000000E+00 0. -1.
        -14    1    5    5    0    0  0.24430576370E+02 -0.12261095830E+02  0.71258619529E+03  0.71311028127E+03  0.00000000000E+00 0.  1.
          5    1    4    4  501    0  0.59276278280E+02  0.13310937242E+02  0.39879692949E+02  0.72792310903E+02  0.41800000000E+01 0.  1.
         -5    1    4    4    0  501 -0.11397620855E+02  0.54772082092E+02  0.22347287472E+03  0.23040721533E+03  0.41800000000E+01 0.  1.
</event>
<event>
11    1  0.7157190E-009  0.2021718E+03  0.7561462E-02  0.1052998E+00
         22   -1    0    0    0    0  0.00000000000E+00  0.00000000000E+00  0.60945923202E+03  0.60945923202E+03  0.00000000000E+00 0. -1.
         22   -1    0    0    0    0 -0.00000000000E+00 -0.00000000000E+00 -0.58981416525E+03  0.58981416525E+03  0.00000000000E+00 0. -1.
         24    2    1    2    0    0 -0.14898240579E+03 -0.64717257664E+02 -0.39966233395E+03  0.43882803307E+03  0.80349117978E+02 0.  0.
         25    2    1    2    0    0  0.13740839737E+03  0.56307734912E+02 -0.11134092003E+03  0.22382124648E+03  0.12509005246E+03 0.  0.
        -24    2    1    2    0    0  0.11574008412E+02  0.84095227525E+01  0.53064832075E+03  0.53662411772E+03  0.78569241145E+02 0.  0.
        -13    1    3    3    0    0 -0.49982603418E+02 -0.61634256654E+02 -0.21675786581E+03  0.23082680657E+03  0.00000000000E+00 0.  1.
         14    1    3    3    0    0 -0.98999802368E+02 -0.30830010098E+01 -0.18290446813E+03  0.20800122650E+03  0.00000000000E+00 0. -1.
         11    1    5    5    0    0  0.25527562497E+02  0.19730532152E+01  0.51118553716E+03  0.51182634046E+03  0.00000000000E+00 0. -1.
        -12    1    5    5    0    0 -0.13953554086E+02  0.64364695374E+01  0.19462783590E+02  0.24797777255E+02  0.00000000000E+00 0.  1.
          5    1    4    4  501    0  0.11561036935E+03  0.25746146977E+02 -0.13915526180E+02  0.11933036435E+03  0.41800000000E+01 0.  1.
         -5    1    4    4    0  501  0.21798028022E+02  0.30561587935E+02 -0.97425393849E+02  0.10449088214E+03  0.41800000000E+01 0.  1.
</event>
<event>
11    1  0.8215447E-009  0.1704665E+03  0.7561462E-02  0.1077626E+00
         22   -1    0    0    0    0  0.00000000000E+00  0.00000000000E+00  0.10362378122E+04  0.10362378122E+04  0.00000000000E+00 0. -1.
         22   -1    0    0    0    0 -0.00000000000E+00 -0.00000000000E+00 -0.42315400022E+04  0.42315400022E+04  0.00000000000E+00 0. -1.
        -24    2    1    2    0    0 -0.22807408006E+02  0.33244755204E+02 -0.29855942227E+04  0.29869181326E+04  0.79257026494E+02 0.  0.
         25    2    1    2    0    0  0.12655403251E+03  0.18157037243E+02 -0.12340889321E+04  0.12469841149E+04  0.12509312304E+03 0.  0.
         24    2    1    2    0    0 -0.10374662451E+03 -0.51401792447E+02  0.10243809648E+04  0.10338755670E+04  0.78337861130E+02 0.  0.
        -13    1    5    5    0    0  0.16453176636E+01  0.12899286122E+02  0.48379472823E+02  0.50096627065E+02  0.00000000000E+00 0.  1.
         14    1    5    5    0    0 -0.10539194217E+03 -0.64301078570E+02  0.97600149200E+03  0.98377893989E+03  0.00000000000E+00 0. -1.
         13    1    3    3    0    0 -0.37226985521E+02  0.14405057828E+02 -0.27129483065E+04  0.27132419479E+04  0.00000000000E+00 0. -1.
        -14    1    3    3    0    0  0.14419577515E+02  0.18839697376E+02 -0.27264591625E+03  0.27367618468E+03  0.00000000000E+00 0.  1.
          5    1    4    4  501    0  0.14816427514E+03 -0.23671440019E+01 -0.10594547203E+04  0.10697756926E+04  0.41800000000E+01 0.  1.
         -5    1    4    4    0  501 -0.21610242631E+02  0.20524181245E+02 -0.17463421177E+03  0.17720842227E+03  0.41800000000E+01 0.  1.
</event>
<event>
11    1  0.7157190E-009  0.1464922E+03  0.7561462E-02  0.1100518E+00
         22   -1    0    0    0    0  0.00000000000E+00  0.00000000000E+00  0.28791701548E+04  0.28791701548E+04  0.00000000000E+00 0. -1.
         22   -1    0    0    0    0 -0.00000000000E+00 -0.00000000000E+00 -0.47283113862E+02  0.47283113862E+02  0.00000000000E+00 0.  1.
        -24    2    1    2    0    0 -0.74876839319E+02 -0.18674047650E+02  0.38989852347E+02  0.11856320452E+03  0.81128070101E+02 0.  0.
         25    2    1    2    0    0  0.62598658614E+02  0.26727552741E+02  0.75141166988E+03  0.76478756565E+03  0.12509024261E+03 0.  0.
         24    2    1    2    0    0  0.12278180705E+02 -0.80535050914E+01  0.20414855187E+04  0.20431024985E+04  0.79931743337E+02 0.  0.
        -13    1    5    5    0    0  0.22884431887E+01 -0.42116076414E+02  0.80153665003E+03  0.80264562679E+03  0.00000000000E+00 0.  1.
         14    1    5    5    0    0  0.99897375167E+01  0.34062571323E+02  0.12399488686E+04  0.12404568717E+04  0.00000000000E+00 0. -1.
         11    1    3    3    0    0  0.53621859135E+01 -0.10703506400E+02  0.35929242055E+02  0.37871209668E+02  0.00000000000E+00 0. -1.
        -12    1    3    3    0    0 -0.80239025233E+02 -0.79705412500E+01  0.30606102915E+01  0.80691994854E+02  0.00000000000E+00 0.  1.
          5    1    4    4  501    0  0.76876174700E+02  0.60237204361E+02  0.41374549324E+03  0.42513676929E+03  0.41800000000E+01 0. -1.
         -5    1    4    4    0  501 -0.14277516086E+02 -0.33509651620E+02  0.33766617664E+03  0.33965079635E+03  0.41800000000E+01 0. -1.
</event>
<event>
11    1  0.7157190E-009  0.1626374E+03  0.7561462E-02  0.1084623E+00
         22   -1    0    0    0    0  0.00000000000E+00  0.00000000000E+00  0.13499657822E+03  0.13499657822E+03  0.00000000000E+00 0. -1.
         22   -1    0    0    0    0 -0.00000000000E+00 -0.00000000000E+00 -0.14611296840E+04  0.14611296840E+04  0.00000000000E+00 0. -1.
        -24    2    1    2    0    0  0.98247586954E+02 -0.17151742951E+02 -0.10367856051E+04  0.10446956472E+04  0.80733102108E+02 0.  0.
         25    2    1    2    0    0 -0.11835095137E+03  0.45936968945E+02 -0.38142308555E+03  0.42100872520E+03  0.12509046207E+03 0.  0.
         24    2    1    2    0    0  0.20103364413E+02 -0.28785225995E+02  0.92075584848E+02  0.13042188981E+03  0.85435481619E+02 0.  0.
        -13    1    5    5    0    0  0.72851991197E+00 -0.29296027200E+02 -0.64513019226E+01  0.30006786690E+02  0.00000000000E+00 0.  1.
         14    1    5    5    0    0  0.19374844501E+02  0.51080120506E+00  0.98526886771E+02  0.10041510312E+03  0.00000000000E+00 0. -1.
         11    1    3    3    0    0  0.80706575478E+02 -0.44410146317E+02 -0.86390816624E+03  0.86880557786E+03  0.00000000000E+00 0. -1.
        -12    1    3    3    0    0  0.17541011477E+02  0.27258403367E+02 -0.17287743883E+03  0.17589006934E+03  0.00000000000E+00 0.  1.
          5    1    4    4  501    0 -0.93054929946E+01  0.55910299164E+02 -0.20999668268E+03  0.21755144883E+03  0.41800000000E+01 0. -1.
         -5    1    4    4    0  501 -0.10904545837E+03 -0.99733302187E+01 -0.17142640287E+03  0.20345727637E+03  0.41800000000E+01 0. -1.
</event>
<event>
11    1  0.7157190E-009  0.1923425E+03  0.7561462E-02  0.1060075E+00
         22   -1    0    0    0    0  0.00000000000E+00  0.00000000000E+00  0.15761560646E+04  0.15761560646E+04  0.00000000000E+00 0. -1.
         22   -1    0    0    0    0 -0.00000000000E+00 -0.00000000000E+00 -0.12554925745E+03  0.12554925745E+03  0.00000000000E+00 0. -1.
        -24    2    1    2    0    0 -0.96343683124E+01  0.14775103531E+03 -0.44462185586E+02  0.17426799057E+03  0.80431692151E+02 0.  0.
         25    2    1    2    0    0 -0.42406612680E+02 -0.12934154329E+03  0.61896839917E+03  0.64598381273E+03  0.12508257877E+03 0.  0.
         24    2    1    2    0    0  0.52040980993E+02 -0.18409492025E+02  0.87610059356E+03  0.88145351875E+03  0.79755141362E+02 0.  0.
        -11    1    5    5    0    0  0.27508444173E+02  0.79183794134E+00  0.77421838049E+02  0.82167405430E+02  0.00000000000E+00 0.  1.
         12    1    5    5    0    0  0.24532536820E+02 -0.19201329967E+02  0.79867875551E+03  0.79928611332E+03  0.00000000000E+00 0. -1.
         11    1    3    3    0    0 -0.87826735952E+01  0.15798454406E+03 -0.41494179358E+02  0.16357878358E+03  0.00000000000E+00 0. -1.
        -12    1    3    3    0    0 -0.85169471724E+00 -0.10233508746E+02 -0.29680062281E+01  0.10689206992E+02  0.00000000000E+00 0.  1.
          5    1    4    4  501    0 -0.74446388835E+02 -0.30277964407E+02  0.28407389914E+03  0.29525323455E+03  0.41800000000E+01 0. -1.
         -5    1    4    4    0  501  0.32039776155E+02 -0.99063578881E+02  0.33489450004E+03  0.35073057818E+03  0.41800000000E+01 0. -1.
</event>
<event>
11    1  0.1017987E-008  0.1949367E+03  0.7561462E-02  0.1058163E+00
         22   -1    0    0    0    0  0.00000000000E+00  0.00000000000E+00  0.69397500097E+03  0.69397500097E+03  0.00000000000E+00 0. -1.
         22   -1    0    0    0    0 -0.00000000000E+00 -0.00000000000E+00 -0.43975460702E+03  0.43975460702E+03  0.00000000000E+00 0.  1.
        -24    2    1    2    0    0  0.14697418341E+02 -0.18258685216E+02 -0.15480245840E+03  0.17620418742E+03  0.80837620243E+02 0.  0.
         25    2    1    2    0    0 -0.22692820947E+02  0.16676769575E+03 -0.22119183694E+03  0.30479589272E+03  0.12509308141E+03 0.  0.
         24    2    1    2    0    0  0.79954026063E+01 -0.14850901054E+03  0.63021468929E+03  0.65272952785E+03  0.82258308169E+02 0.  0.
        -11    1    5    5    0    0 -0.20855779164E+02 -0.81590203156E+02  0.21023648365E+03  0.22647583499E+03  0.00000000000E+00 0.  1.
         12    1    5    5    0    0  0.28851181770E+02 -0.66918807383E+02  0.41997820564E+03  0.42625369286E+03  0.00000000000E+00 0. -1.
         13    1    3    3    0    0  0.16394841891E+02  0.68905976033E+01  0.15327540357E+01  0.17849944282E+02  0.00000000000E+00 0. -1.
        -14    1    3    3    0    0 -0.16974235501E+01 -0.25149282819E+02 -0.15633521243E+03  0.15835424314E+03  0.00000000000E+00 0.  1.
          5    1    4    4  501    0 -0.19978967981E+01  0.11928763046E+03 -0.56446508069E+02  0.13205003236E+03  0.41800000000E+01 0. -1.
         -5    1    4    4    0  501 -0.20694924149E+02  0.47480065294E+02 -0.16474532887E+03  0.17274586036E+03  0.41800000000E+01 0. -1.
</event>
<event>
11    1  0.7157190E-009  0.1940325E+03  0.7561462E-02  0.1058826E+00
         22   -1    0    0    0    0  0.00000000000E+00  0.00000000000E+00  0.43233098478E+04  0.43233098478E+04  0.00000000000E+00 0.  1.
         22   -1    0    0    0    0 -0.00000000000E+00 -0.00000000000E+00 -0.25709669359E+03  0.25709669359E+03  0.00000000000E+00 0.  1.
         24    2    1    2    0    0 -0.83704516759E+02 -0.89895915980E+02 -0.18839799899E+03  0.23855431120E+03  0.79540125310E+02 0.  0.
         25    2    1    2    0    0  0.95745469318E+02  0.23374739077E+03  0.43287652709E+03  0.51656185873E+03  0.12509607748E+03 0.  0.
        -24    2    1    2    0    0 -0.12040952559E+02 -0.14385147479E+03  0.38217346261E+04  0.38252903714E+04  0.79703464301E+02 0.  0.
        -13    1    3    3    0    0 -0.85932716572E+02 -0.10206888431E+03 -0.17756327814E+03  0.22210629587E+03  0.00000000000E+00 0.  1.
         14    1    3    3    0    0  0.22281998127E+01  0.12172968332E+02 -0.10834720851E+02  0.16448015331E+02  0.00000000000E+00 0. -1.
         11    1    5    5    0    0 -0.25555254508E+02 -0.14711076128E+03  0.33086236745E+04  0.33119911332E+04  0.00000000000E+00 0. -1.
        -12    1    5    5    0    0  0.13514301949E+02  0.32592864866E+01  0.51311095159E+03  0.51329923821E+03  0.00000000000E+00 0.  1.
          5    1    4    4  501    0 -0.46892219846E+01  0.19107022888E+01 -0.67947065958E+01  0.94488107072E+01  0.41800000000E+01 0.  1.
         -5    1    4    4    0  501  0.10043469130E+03  0.23183668848E+03  0.43967123368E+03  0.50711304802E+03  0.41800000000E+01 0.  1.
</event>
<event>
11    1  0.7157190E-009  0.2896849E+03  0.7561462E-02  0.1004654E+00
         22   -1    0    0    0    0  0.00000000000E+00  0.00000000000E+00  0.27174065111E+03  0.27174065111E+03  0.00000000000E+00 0. -1.
         22   -1    0    0    0    0 -0.00000000000E+00 -0.00000000000E+00 -0.10873712127E+04  0.10873712127E+04  0.00000000000E+00 0. -1.
        -24    2    1    2    0    0  0.24341696816E+03 -0.49815408506E+02 -0.61102552587E+03  0.66448902699E+03  0.80374612957E+02 0.  0.
         25    2    1    2    0    0 -0.27899595678E+03  0.74017207836E+02 -0.38257136425E+03  0.49530059425E+03  0.12507813144E+03 0.  0.
         24    2    1    2    0    0  0.35578988621E+02 -0.24201799330E+02  0.17796632856E+03  0.19932224255E+03  0.78776587581E+02 0.  0.
        -13    1    5    5    0    0  0.57173871569E+01  0.22717694760E+02  0.16794072267E+02  0.28824001013E+02  0.00000000000E+00 0.  1.
         14    1    5    5    0    0  0.29861601464E+02 -0.46919494090E+02  0.16117225629E+03  0.17049824154E+03  0.00000000000E+00 0. -1.
         13    1    3    3    0    0  0.23631745646E+03 -0.52019399376E+02 -0.61087450673E+03  0.65705374294E+03  0.00000000000E+00 0. -1.
        -14    1    3    3    0    0  0.70995116980E+01  0.22039908695E+01 -0.15101914330E+00  0.74352840487E+01  0.00000000000E+00 0.  1.
          5    1    4    4  501    0 -0.11377666262E+03 -0.19429900663E+02 -0.20522994189E+03  0.23549830455E+03  0.41800000000E+01 0.  1.
         -5    1    4    4    0  501 -0.16521929416E+03  0.93447108500E+02 -0.17734142236E+03  0.25980228970E+03  0.41800000000E+01 0.  1.
</event>
<event>
11    1  0.7157190E-009  0.2215906E+03  0.7561462E-02  0.1040226E+00
         22   -1    0    0    0    0  0.00000000000E+00  0.00000000000E+00  0.14596676440E+04  0.14596676440E+04  0.00000000000E+00 0. -1.
         22   -1    0    0    0    0 -0.00000000000E+00 -0.00000000000E+00 -0.21677257296E+04  0.21677257296E+04  0.00000000000E+00 0. -1.
        -24    2    1    2    0    0  0.76106888917E+02  0.16697070702E+03 -0.21040974990E+04  0.21136310397E+04  0.80860443180E+02 0.  0.
         25    2    1    2    0    0 -0.10261645932E+03 -0.12868094056E+03  0.12970067052E+03  0.24404596278E+03  0.12508895166E+03 0.  0.
         24    2    1    2    0    0  0.26509570404E+02 -0.38289766466E+02  0.12663387429E+04  0.12697163711E+04  0.79981171639E+02 0.  0.
        -11    1    5    5    0    0 -0.33333897027E+01  0.44726579847E+01  0.56155876112E+01  0.79152372407E+01  0.00000000000E+00 0.  1.
         12    1    5    5    0    0  0.29842960107E+02 -0.42762424451E+02  0.12607231552E+04  0.12618011338E+04  0.00000000000E+00 0. -1.
         11    1    3    3    0    0  0.67982525683E+02  0.17242338395E+03 -0.20660100102E+04  0.20743068263E+04  0.00000000000E+00 0. -1.
        -12    1    3    3    0    0  0.81243632341E+01 -0.54526769280E+01 -0.38087488757E+02  0.39324213450E+02  0.00000000000E+00 0.  1.
          5    1    4    4  501    0  0.16344417310E+02 -0.67538674804E+02  0.24405677186E+02  0.73768028646E+02  0.41800000000E+01 0. -1.
         -5    1    4    4    0  501 -0.11896087663E+03 -0.61142265752E+02  0.10529499334E+03  0.17027793413E+03  0.41800000000E+01 0. -1.
</event>
<event>
11    1  0.7157190E-009  0.2614011E+03  0.7561462E-02  0.1017995E+00
         22   -1    0    0    0    0  0.00000000000E+00  0.00000000000E+00  0.47993919324E+03  0.47993919324E+03  0.00000000000E+00 0.  1.
         22   -1    0    0    0    0 -0.00000000000E+00 -0.00000000000E+00 -0.26233227030E+04  0.26233227030E+04  0.00000000000E+00 0.  1.
        -24    2    1    2    0    0 -0.17555647041E+03  0.15067105243E+03 -0.25602019568E+04  0.25718920492E+04  0.80453793742E+02 0.  0.
         25    2    1    2    0    0  0.11055326572E+03 -0.11448511458E+03  0.18388839086E+03  0.27347696074E+03  0.12508333917E+03 0.  0.
         24    2    1    2    0    0  0.65003204697E+02 -0.36185937846E+02  0.23293005622E+03  0.25789288624E+03  0.81960301137E+02 0.  0.
        -13    1    5    5    0    0  0.14474024805E+02 -0.52084967003E+02  0.15045434022E+03  0.15987135351E+03  0.00000000000E+00 0.  1.
         14    1    5    5    0    0  0.50529179892E+02  0.15899029157E+02  0.82475716002E+02  0.98021532730E+02  0.00000000000E+00 0. -1.
         13    1    3    3    0    0 -0.81722606764E+02  0.21316927316E+02 -0.79649207157E+03  0.80095731217E+03  0.00000000000E+00 0. -1.
        -14    1    3    3    0    0 -0.93833863650E+02  0.12935412511E+03 -0.17637098852E+04  0.17709347371E+04  0.00000000000E+00 0.  1.
          5    1    4    4  501    0  0.75544662981E+02 -0.29698560070E+02  0.17066303600E+02  0.83052583908E+02  0.41800000000E+01 0. -1.
         -5    1    4    4    0  501  0.35008602736E+02 -0.84786554512E+02  0.16682208726E+03  0.19042437683E+03  0.41800000000E+01 0. -1.
</event>
<event>
11    1  0.7157190E-009  0.1390409E+03  0.7561462E-02  0.1108634E+00
         22   -1    0    0    0    0  0.00000000000E+00  0.00000000000E+00  0.40617240673E+03  0.40617240673E+03  0.00000000000E+00 0. -1.
         22   -1    0    0    0    0 -0.00000000000E+00 -0.00000000000E+00 -0.22291900681E+03  0.22291900681E+03  0.00000000000E+00 0.  1.
         24    2    1    2    0    0 -0.43391640623E+02  0.41142135635E+02 -0.17231178644E+03  0.19964890022E+03  0.81196193326E+02 0.  0.
         25    2    1    2    0    0  0.52972355428E+02 -0.50027731661E+02  0.15547985013E+03  0.21244012327E+03  0.12509187745E+03 0.  0.
        -24    2    1    2    0    0 -0.95807148053E+01  0.88855960258E+01  0.20008533623E+03  0.21700239005E+03  0.82976813649E+02 0.  0.
        -11    1    3    3    0    0 -0.26988944954E+02  0.30919254748E+02 -0.17534559896E+03  0.18008465381E+03  0.00000000000E+00 0.  1.
         12    1    3    3    0    0 -0.16402695669E+02  0.10222880887E+02  0.30338125222E+01  0.19564246402E+02  0.00000000000E+00 0. -1.
         11    1    5    5    0    0 -0.41232060218E+02 -0.15434568548E+02  0.10093384270E+03  0.11011788818E+03  0.00000000000E+00 0. -1.
        -12    1    5    5    0    0  0.31651345412E+02  0.24320164574E+02  0.99151493529E+02  0.10688450187E+03  0.00000000000E+00 0.  1.
          5    1    4    4  501    0 -0.11560262588E+02 -0.68648058630E+02  0.11322220169E+03  0.13297719722E+03  0.41800000000E+01 0.  1.
         -5    1    4    4    0  501  0.64532618017E+02  0.18620326968E+02  0.42257648433E+02  0.79462926045E+02  0.41800000000E+01 0.  1.
</event>
<event>
11    1  0.7157190E-009  0.3303132E+03  0.7561462E-02  0.9881200E-01
         22   -1    0    0    0    0  0.00000000000E+00  0.00000000000E+00  0.22599861886E+03  0.22599861886E+03  0.00000000000E+00 0.  1.
         22   -1    0    0    0    0 -0.00000000000E+00 -0.00000000000E+00 -0.92421594322E+03  0.92421594322E+03  0.00000000000E+00 0. -1.
        -24    2    1    2    0    0 -0.14709114189E+03  0.17131753054E+03 -0.77483988842E+03  0.81113071821E+03  0.81059786807E+02 0.  0.
         25    2    1    2    0    0  0.77249513048E+02 -0.41630337559E+02 -0.60269933741E+01  0.15292045774E+03  0.12509104475E+03 0.  0.
         24    2    1    2    0    0  0.69841628837E+02 -0.12968719299E+03  0.82649557435E+02  0.18616338613E+03  0.78289436383E+02 0.  0.
        -11    1    5    5    0    0  0.73956077344E+02 -0.62783548568E+02  0.32014223317E+02  0.10215765190E+03  0.00000000000E+00 0.  1.
         12    1    5    5    0    0 -0.41144485076E+01 -0.66903644417E+02  0.50635334118E+02  0.84005734233E+02  0.00000000000E+00 0. -1.
         11    1    3    3    0    0 -0.14841863658E+03  0.13366782965E+03 -0.68944696016E+03  0.71779683145E+03  0.00000000000E+00 0. -1.
        -12    1    3    3    0    0  0.13274946983E+01  0.37649700897E+02 -0.85392928259E+02  0.93333886753E+02  0.00000000000E+00 0.  1.
          5    1    4    4  501    0 -0.18643666247E+02 -0.35896880313E+02  0.29685379825E+02  0.50347457560E+02  0.41800000000E+01 0.  1.
         -5    1    4    4    0  501  0.95893179296E+02 -0.57334572453E+01 -0.35712373199E+02  0.10257300018E+03  0.41800000000E+01 0.  1.
</event>
<event>
11    1  0.7157190E-009  0.3525960E+03  0.7561462E-02  0.9801010E-01
         22   -1    0    0    0    0  0.00000000000E+00  0.00000000000E+00  0.15359528822E+04  0.15359528822E+04  0.00000000000E+00 0.  1.
         22   -1    0    0    0    0 -0.00000000000E+00 -0.00000000000E+00 -0.95286728525E+03  0.95286728525E+03  0.00000000000E+00 0. -1.
         24    2    1    2    0    0  0.36737415258E+02  0.12609169050E+03 -0.71324402532E+03  0.72987827808E+03  0.82197986929E+02 0.  0.
         25    2    1    2    0    0 -0.11299837221E+03  0.20535852675E+03 -0.12613236770E+03  0.29410472147E+03  0.12508979325E+03 0.  0.
        -24    2    1    2    0    0  0.76260956956E+02 -0.33145021725E+03  0.14224619900E+04  0.14648371680E+04  0.81699666535E+02 0.  0.
        -11    1    3    3    0    0  0.43918372519E+02  0.36998214444E+02 -0.17278196752E+03  0.18207498350E+03  0.00000000000E+00 0.  1.
         12    1    3    3    0    0 -0.71809572605E+01  0.89093476056E+02 -0.54046205780E+03  0.54780329457E+03  0.00000000000E+00 0. -1.
         11    1    5    5    0    0  0.11703061513E+02 -0.70723050530E+02  0.18159060198E+03  0.19522770872E+03  0.00000000000E+00 0. -1.
        -12    1    5    5    0    0  0.64557895442E+02 -0.26072716672E+03  0.12408713880E+04  0.12696094592E+04  0.00000000000E+00 0.  1.
          5    1    4    4  501    0 -0.85715965766E+02  0.34783042670E+02 -0.37486489702E+02  0.99898929698E+02  0.41800000000E+01 0. -1.
         -5    1    4    4    0  501 -0.27282406447E+02  0.17057548408E+03 -0.88645877994E+02  0.19420579177E+03  0.41800000000E+01 0. -1.
</event>
<event>
11    1  0.7157190E-009  0.1486039E+03  0.7561462E-02  0.1098314E+00
         22   -1    0    0    0    0  0.00000000000E+00  0.00000000000E+00  0.78405972891E+03  0.78405972891E+03  0.00000000000E+00 0. -1.
         22   -1    0    0    0    0 -0.00000000000E+00 -0.00000000000E+00 -0.26417636616E+03  0.26417636616E+03  0.00000000000E+00 0. -1.
         24    2    1    2    0    0 -0.20957932410E+02 -0.30313768740E+02 -0.18057878612E+03  0.20079976135E+03  0.79710016024E+02 0.  0.
         25    2    1    2    0    0  0.48664661316E+02  0.10206524756E+03  0.39845932704E+02  0.17326438313E+03  0.12508910459E+03 0.  0.
        -24    2    1    2    0    0 -0.27706728906E+02 -0.71751478823E+02  0.66061621617E+03  0.67417195059E+03  0.11035441244E+03 0.  0.
        -13    1    3    3    0    0 -0.37413070052E+01 -0.25870867359E+02 -0.80418353595E+01  0.27349045175E+02  0.00000000000E+00 0.  1.
         14    1    3    3    0    0 -0.17216625405E+02 -0.44429013806E+01 -0.17253695076E+03  0.17345071617E+03  0.00000000000E+00 0. -1.
         13    1    5    5    0    0  0.28421262552E+02 -0.53162701867E+02  0.48802153087E+03  0.49173067387E+03  0.00000000000E+00 0. -1.
        -14    1    5    5    0    0 -0.56127991458E+02 -0.18588776956E+02  0.17259468531E+03  0.18244127672E+03  0.00000000000E+00 0.  1.
          5    1    4    4  501    0  0.20361815453E+02  0.12736433332E+03  0.21253052992E+02  0.13078777310E+03  0.41800000000E+01 0.  1.
         -5    1    4    4    0  501  0.28302845863E+02 -0.25299085755E+02  0.18592879712E+02  0.42476610034E+02  0.41800000000E+01 0.  1.
</event>
<event>
11    1  0.7157190E-009  0.1682257E+03  0.7561462E-02  0.1079586E+00
         22   -1    0    0    0    0  0.00000000000E+00  0.00000000000E+00  0.71476606880E+03  0.71476606880E+03  0.00000000000E+00 0. -1.
         22   -1    0    0    0    0 -0.00000000000E+00 -0.00000000000E+00 -0.84783559764E+02  0.84783559764E+02  0.00000000000E+00 0. -1.
         24    2    1    2    0    0  0.91111035829E+01  0.41306490175E+02  0.15567678894E+02  0.93300417739E+02  0.81690739898E+02 0.  0.
         25    2    1    2    0    0  0.10544253612E+03 -0.28140923535E+02  0.16045276757E+03  0.23087275227E+03  0.12508835725E+03 0.  0.
        -24    2    1    2    0    0 -0.11455363970E+03 -0.13165566639E+02  0.45396206258E+03  0.47537645855E+03  0.81273332496E+02 0.  0.
        -11    1    3    3    0    0  0.35139858940E+02 -0.56698006261E+01  0.17281396087E+02  0.39567701174E+02  0.00000000000E+00 0.  1.
         12    1    3    3    0    0 -0.26028755357E+02  0.46976290801E+02 -0.17137171935E+01  0.53732716565E+02  0.00000000000E+00 0. -1.
         11    1    5    5    0    0 -0.71463603141E+02 -0.10019259364E+02  0.39896387538E+03  0.40543754881E+03  0.00000000000E+00 0. -1.
        -12    1    5    5    0    0 -0.43090036564E+02 -0.31463072753E+01  0.54998187198E+02  0.69938909740E+02  0.00000000000E+00 0.  1.
          5    1    4    4  501    0  0.12356008051E+03 -0.33197973593E+02  0.16709309573E+03  0.21049174327E+03  0.41800000000E+01 0.  1.
         -5    1    4    4    0  501 -0.18117544384E+02  0.50570500579E+01 -0.66403281608E+01  0.20381009000E+02  0.41800000000E+01 0.  1.
</event>
<event>
11    1  0.7157190E-009  0.1627177E+03  0.7561462E-02  0.1084549E+00
         22   -1    0    0    0    0  0.00000000000E+00  0.00000000000E+00  0.27213181151E+03  0.27213181151E+03  0.00000000000E+00 0. -1.
         22   -1    0    0    0    0 -0.00000000000E+00 -0.00000000000E+00 -0.36930526871E+03  0.36930526871E+03  0.00000000000E+00 0.  1.
         24    2    1    2    0    0 -0.14752489388E+02  0.34860684573E+02 -0.17101229209E+03  0.19315841913E+03  0.81437507084E+02 0.  0.
         25    2    1    2    0    0  0.44853719849E+02 -0.13008231520E+03 -0.11438719873E+03  0.21832274904E+03  0.12508847511E+03 0.  0.
        -24    2    1    2    0    0 -0.30101230461E+02  0.95221630624E+02  0.18822603362E+03  0.22995591206E+03  0.86472184792E+02 0.  0.
        -11    1    3    3    0    0 -0.79855510488E+01 -0.16285563273E+02 -0.42933247384E+01  0.18639239094E+02  0.00000000000E+00 0.  1.
         12    1    3    3    0    0 -0.67669383394E+01  0.51146247846E+02 -0.16671896736E+03  0.17451918003E+03  0.00000000000E+00 0. -1.
         13    1    5    5    0    0 -0.14866231852E+02  0.84211659634E+02  0.19253523020E+03  0.21067136335E+03  0.00000000000E+00 0. -1.
        -14    1    5    5    0    0 -0.15234998610E+02  0.11009970990E+02 -0.43091965737E+01  0.19284548710E+02  0.00000000000E+00 0.  1.
          5    1    4    4  501    0 -0.40665225885E+02 -0.25225340235E+02 -0.46601350479E+02  0.66926352453E+02  0.41800000000E+01 0.  1.
         -5    1    4    4    0  501  0.85518945734E+02 -0.10485697496E+03 -0.67785848249E+02  0.15139639659E+03  0.41800000000E+01 0.  1.
</event>
<event>
11    1  0.1591304E-008  0.2013695E+03  0.7561462E-02  0.1053559E+00
         22   -1    0    0    0    0  0.00000000000E+00  0.00000000000E+00  0.49498423540E+03  0.49498423540E+03  0.00000000000E+00 0. -1.
         22   -1    0    0    0    0 -0.00000000000E+00 -0.00000000000E+00 -0.22052432324E+04  0.22052432324E+04  0.00000000000E+00 0. -1.
         24    2    1    2    0    0  0.24823655889E+02  0.26523460536E+02 -0.12568544159E+04  0.12598891126E+04  0.79484875417E+02 0.  0.
         25    2    1    2    0    0 -0.18218027316E+03 -0.29161774356E+02 -0.91760926945E+03  0.94429569541E+03  0.12509007943E+03 0.  0.
        -24    2    1    2    0    0  0.15735661727E+03  0.26383138196E+01  0.46420468834E+03  0.49604265982E+03  0.76185707207E+02 0.  0.
        -13    1    3    3    0    0  0.31961649805E+02 -0.17476720617E+02 -0.33870293950E+03  0.34065622561E+03  0.00000000000E+00 0.  1.
         14    1    3    3    0    0 -0.71379939166E+01  0.44000181154E+02 -0.91815147637E+03  0.91923288695E+03  0.00000000000E+00 0. -1.
         13    1    5    5    0    0  0.12306998838E+03  0.40782837453E+01  0.43117198030E+03  0.44841067230E+03  0.00000000000E+00 0. -1.
        -14    1    5    5    0    0  0.34286628892E+02 -0.14399699257E+01  0.33032708038E+02  0.47631987513E+02  0.00000000000E+00 0.  1.
          5    1    4    4  501    0 -0.10050227020E+03  0.14788971844E+01 -0.22838213411E+03  0.24955713781E+03  0.41800000000E+01 0.  1.
         -5    1    4    4    0  501 -0.81678002957E+02 -0.30640671540E+02 -0.68922713535E+03  0.69473855760E+03  0.41800000000E+01 0.  1.
</event>
<event>
11    1  0.7157190E-009  0.1504548E+03  0.7561462E-02  0.1096415E+00
         22   -1    0    0    0    0  0.00000000000E+00  0.00000000000E+00  0.22533911339E+03  0.22533911339E+03  0.00000000000E+00 0.  1.
         22   -1    0    0    0    0 -0.00000000000E+00 -0.00000000000E+00 -0.90669497482E+03  0.90669497482E+03  0.00000000000E+00 0. -1.
         24    2    1    2    0    0  0.12254650674E+02  0.80873453373E+02 -0.78072703314E+03  0.78905440171E+03  0.79884020084E+02 0.  0.
         25    2    1    2    0    0 -0.16299344347E+02 -0.11044072810E+03 -0.45821830913E+02  0.17380122853E+03  0.12507759111E+03 0.  0.
        -24    2    1    2    0    0  0.40446936730E+01  0.29567274731E+02  0.14519300263E+03  0.16917845797E+03  0.81546056590E+02 0.  0.
        -13    1    3    3    0    0  0.60071038132E+01 -0.12864994375E+02 -0.22457314276E+03  0.22502153192E+03  0.00000000000E+00 0.  1.
         14    1    3    3    0    0  0.62475468608E+01  0.93738447749E+02 -0.55615389038E+03  0.56403286980E+03  0.00000000000E+00 0. -1.
         11    1    5    5    0    0  0.35092915471E+02  0.25108688762E+01  0.28014611390E+02  0.44973721550E+02  0.00000000000E+00 0. -1.
        -12    1    5    5    0    0 -0.31048221798E+02  0.27056405855E+02  0.11717839124E+03  0.12420473642E+03  0.00000000000E+00 0.  1.
          5    1    4    4  501    0 -0.58565103360E+02 -0.27729294237E+02  0.94771877279E+01  0.65620687116E+02  0.41800000000E+01 0.  1.
         -5    1    4    4    0  501  0.42265759013E+02 -0.82711433868E+02 -0.55299018641E+02  0.10818054141E+03  0.41800000000E+01 0.  1.
</event>
<event>
11    1  0.7157190E-009  0.1793299E+03  0.7561462E-02  0.1070186E+00
         22   -1    0    0    0    0  0.00000000000E+00  0.00000000000E+00  0.18401049045E+03  0.18401049045E+03  0.00000000000E+00 0.  1.
         22   -1    0    0    0    0 -0.00000000000E+00 -0.00000000000E+00 -0.12800036037E+04  0.12800036037E+04  0.00000000000E+00 0.  1.
         24    2    1    2    0    0  0.10475731225E+03  0.73526574486E+02 -0.11623845306E+04  0.11721615981E+04  0.80279284419E+02 0.  0.
         25    2    1    2    0    0 -0.12935954463E+03 -0.56795030963E+02  0.59648476275E+01  0.18879438477E+03  0.12509265759E+03 0.  0.
        -24    2    1    2    0    0  0.24602232379E+02 -0.16731543523E+02  0.60426569678E+02  0.10305811131E+03  0.78002497376E+02 0.  0.
        -11    1    3    3    0    0  0.28010491177E+02  0.49831950442E+00 -0.54759566621E+03  0.54831181785E+03  0.00000000000E+00 0.  1.
         12    1    3    3    0    0  0.76746821078E+02  0.73028254981E+02 -0.61478886436E+03  0.62384978024E+03  0.00000000000E+00 0. -1.
         11    1    5    5    0    0  0.12665995518E+02  0.19226644505E+01 -0.17701996057E+02  0.21851424335E+02  0.00000000000E+00 0. -1.
        -12    1    5    5    0    0  0.11936236861E+02 -0.18654207974E+02  0.78128565735E+02  0.81206686975E+02  0.00000000000E+00 0.  1.
          5    1    4    4  501    0 -0.92916024453E+02 -0.37507242221E+02  0.62893696502E+02  0.11837765954E+03  0.41800000000E+01 0.  1.
         -5    1    4    4    0  501 -0.36443520181E+02 -0.19287788741E+02 -0.56928848874E+02  0.70416725228E+02  0.41800000000E+01 0.  1.
</event>
<event>
11    1  0.7157190E-009  0.1380384E+03  0.7561462E-02  0.1109769E+00
         22   -1    0    0    0    0  0.00000000000E+00  0.00000000000E+00  0.38360399743E+04  0.38360399743E+04  0.00000000000E+00 0.  1.
         22   -1    0    0    0    0 -0.00000000000E+00 -0.00000000000E+00 -0.70560886583E+02  0.70560886583E+02  0.00000000000E+00 0. -1.
        -24    2    1    2    0    0  0.17649428788E+02  0.10752327248E+02 -0.40188436762E+02  0.91524883687E+02  0.79590068518E+02 0.  0.
         25    2    1    2    0    0 -0.40632113274E+02 -0.60535145092E+02  0.13958383761E+04  0.14033269498E+04  0.12508510466E+03 0.  0.
         24    2    1    2    0    0  0.22982684486E+02  0.49782817844E+02  0.24098291484E+04  0.24117490274E+04  0.79058927722E+02 0.  0.
        -13    1    5    5    0    0  0.38590046808E+02  0.27093266741E+02  0.21397543143E+04  0.21402737587E+04  0.00000000000E+00 0.  1.
         14    1    5    5    0    0 -0.15607362322E+02  0.22689551103E+02  0.27007483411E+03  0.27147526869E+03  0.00000000000E+00 0. -1.
         11    1    3    3    0    0  0.46720688315E+02  0.13562183023E+01 -0.39125113241E+02  0.60954380735E+02  0.00000000000E+00 0. -1.
        -12    1    3    3    0    0 -0.29071259527E+02  0.93961089453E+01 -0.10633235219E+01  0.30570502952E+02  0.00000000000E+00 0.  1.
          5    1    4    4  501    0 -0.11861956301E+02 -0.96696059041E+02  0.87084142833E+03  0.87628368667E+03  0.41800000000E+01 0. -1.
         -5    1    4    4    0  501 -0.28770156973E+02  0.36160913950E+02  0.52499694775E+03  0.52704326310E+03  0.41800000000E+01 0. -1.
</event>
<event>
11    1  0.7157190E-009  0.3399062E+03  0.7561462E-02  0.9845870E-01
         22   -1    0    0    0    0  0.00000000000E+00  0.00000000000E+00  0.20627622648E+04  0.20627622648E+04  0.00000000000E+00 0. -1.
         22   -1    0    0    0    0 -0.00000000000E+00 -0.00000000000E+00 -0.87411278319E+03  0.87411278319E+03  0.00000000000E+00 0.  1.
         24    2    1    2    0    0  0.36736429677E+02  0.15233314500E+02 -0.76875358099E+03  0.77351668174E+03  0.75923445128E+02 0.  0.
         25    2    1    2    0    0  0.28449556277E+03 -0.29257376179E+02  0.19187861895E+03  0.36641412330E+03  0.12509270981E+03 0.  0.
        -24    2    1    2    0    0 -0.32123199245E+03  0.14024061679E+02  0.17655244437E+04  0.17969442430E+04  0.92441245248E+02 0.  0.
        -11    1    3    3    0    0  0.56599098704E+02  0.21094166080E+02 -0.66359519494E+03  0.66633850599E+03  0.00000000000E+00 0.  1.
         12    1    3    3    0    0 -0.19862669027E+02 -0.58608515800E+01 -0.10515838604E+03  0.10717817575E+03  0.00000000000E+00 0. -1.
         11    1    5    5    0    0 -0.17439547993E+03  0.33810132054E+01  0.11981625017E+04  0.12107925484E+04  0.00000000000E+00 0. -1.
        -12    1    5    5    0    0 -0.14683651252E+03  0.10643048473E+02  0.56736194197E+03  0.58615169460E+03  0.00000000000E+00 0.  1.
          5    1    4    4  501    0  0.20075033339E+03  0.46477290886E+01  0.66003874141E+02  0.21141495108E+03  0.41800000000E+01 0. -1.
         -5    1    4    4    0  501  0.83745229390E+02 -0.33905105268E+02  0.12587474480E+03  0.15499917222E+03  0.41800000000E+01 0. -1.
</event>
<event>
11    1  0.7157190E-009  0.1466456E+03  0.7561462E-02  0.1100356E+00
         22   -1    0    0    0    0  0.00000000000E+00  0.00000000000E+00  0.12766227497E+04  0.12766227497E+04  0.00000000000E+00 0. -1.
         22   -1    0    0    0    0 -0.00000000000E+00 -0.00000000000E+00 -0.60894639881E+03  0.60894639881E+03  0.00000000000E+00 0.  1.
         24    2    1    2    0    0  0.53774703938E+02 -0.53910367458E+02 -0.51776215593E+03  0.52936708269E+03  0.79710799887E+02 0.  0.
         25    2    1    2    0    0 -0.82529886025E+02  0.31478365067E+02 -0.13757001007E+02  0.15374918939E+03  0.12508992209E+03 0.  0.
        -24    2    1    2    0    0  0.28755182087E+02  0.22432002392E+02  0.11991955078E+04  0.12024528764E+04  0.80579146271E+02 0.  0.
        -11    1    3    3    0    0  0.72251388798E+02 -0.29875920793E+02 -0.41166527636E+03  0.41902402507E+03  0.00000000000E+00 0.  1.
         12    1    3    3    0    0 -0.18476684861E+02 -0.24034446665E+02 -0.10609687957E+03  0.11034305762E+03  0.00000000000E+00 0. -1.
         11    1    5    5    0    0  0.40045000498E+02 -0.91294061322E+01  0.96467780496E+03  0.96555176739E+03  0.00000000000E+00 0. -1.
        -12    1    5    5    0    0 -0.11289818411E+02  0.31561408524E+02  0.23451770285E+03  0.23690110902E+03  0.00000000000E+00 0.  1.
          5    1    4    4  501    0 -0.65147494304E+02  0.77561799223E+02  0.33763905249E+01  0.10143422068E+03  0.41800000000E+01 0. -1.
         -5    1    4    4    0  501 -0.17382391721E+02 -0.46083434156E+02 -0.17133391532E+02  0.52314968708E+02  0.41800000000E+01 0. -1.
</event>
<event>
11    1  0.7157190E-009  0.1316077E+03  0.7561462E-02  0.1117309E+00
         22   -1    0    0    0    0  0.00000000000E+00  0.00000000000E+00  0.35922955727E+03  0.35922955727E+03  0.00000000000E+00 0.  1.
         22   -1    0    0    0    0 -0.00000000000E+00 -0.00000000000E+00 -0.30001380018E+03  0.30001380018E+03  0.00000000000E+00 0. -1.
        -24    2    1    2    0    0 -0.22429313660E+02 -0.34888469093E+02 -0.24244596608E+03  0.25859739257E+03  0.79826597003E+02 0.  0.
         25    2    1    2    0    0  0.12925942667E+02 -0.11858198643E+02  0.57117576369E+02  0.13861134945E+03  0.12507194649E+03 0.  0.
         24    2    1    2    0    0  0.95033709932E+01  0.46746667736E+02  0.24454414680E+03  0.26203461543E+03  0.81146379723E+02 0.  0.
        -11    1    5    5    0    0 -0.76282871439E+01 -0.20550029144E+02  0.89568919347E+02  0.92212178022E+02  0.00000000000E+00 0.  1.
         12    1    5    5    0    0  0.17131658137E+02  0.67296696880E+02  0.15497522746E+03  0.16982243741E+03  0.00000000000E+00 0. -1.
         13    1    3    3    0    0 -0.37237373259E+02 -0.50318091766E+02 -0.21425684402E+03  0.22321408453E+03  0.00000000000E+00 0. -1.
        -14    1    3    3    0    0  0.14808059599E+02  0.15429622673E+02 -0.28189122060E+02  0.35383308034E+02  0.00000000000E+00 0.  1.
          5    1    4    4  501    0 -0.30586890583E+02 -0.55220139087E+02  0.18428529890E+02  0.65893131283E+02  0.41800000000E+01 0.  1.
         -5    1    4    4    0  501  0.43512833251E+02  0.43361940443E+02  0.38689046479E+02  0.72718218171E+02  0.41800000000E+01 0.  1.
</event>
<event>
11    1  0.7157190E-009  0.1275574E+03  0.7561462E-02  0.1122307E+00
         22   -1    0    0    0    0  0.00000000000E+00  0.00000000000E+00  0.31691251810E+03  0.31691251810E+03  0.00000000000E+00 0.  1.
         22   -1    0    0    0    0 -0.00000000000E+00 -0.00000000000E+00 -0.29991021946E+03  0.29991021946E+03  0.00000000000E+00 0. -1.
         24    2    1    2    0    0  0.16921765756E+02 -0.18763522409E+02 -0.25652986656E+03  0.27049796416E+03  0.81994879401E+02 0.  0.
         25    2    1    2    0    0 -0.10015740372E+02 -0.13992821467E+02  0.16655344248E+03  0.20901001577E+03  0.12509605663E+03 0.  0.
        -24    2    1    2    0    0 -0.69060253833E+01  0.32756343876E+02  0.10697872272E+03  0.13731475762E+03  0.79310934261E+02 0.  0.
        -13    1    3    3    0    0 -0.38083663246E+01  0.24668914418E+02 -0.16697959865E+03  0.16883496486E+03  0.00000000000E+00 0.  1.
         14    1    3    3    0    0  0.20730132080E+02 -0.43432436827E+02 -0.89550267914E+02  0.10166299931E+03  0.00000000000E+00 0. -1.
         13    1    5    5    0    0 -0.29867628440E+02  0.49400045528E+02  0.71717353976E+02  0.92064209051E+02  0.00000000000E+00 0. -1.
        -14    1    5    5    0    0  0.22961603057E+02 -0.16643701652E+02  0.35261368746E+02  0.45250548565E+02  0.00000000000E+00 0.  1.
          5    1    4    4  501    0  0.56082979450E+02  0.29513234369E+01  0.58953100550E+02  0.81528837588E+02  0.41800000000E+01 0.  1.
         -5    1    4    4    0  501 -0.66098719823E+02 -0.16944144904E+02  0.10760034193E+03  0.12748117819E+03  0.41800000000E+01 0.  1.
</event>
<event>
11    1  0.7157190E-009  0.2181331E+03  0.7561462E-02  0.1042393E+00
         22   -1    0    0    0    0  0.00000000000E+00  0.00000000000E+00  0.52271934106E+03  0.52271934106E+03  0.00000000000E+00 0. -1.
         22   -1    0    0    0    0 -0.00000000000E+00 -0.00000000000E+00 -0.38125060209E+03  0.38125060209E+03  0.00000000000E+00 0.  1.
        -24    2    1    2    0    0  0.13958643823E+03  0.10385877125E+03 -0.25609391220E+03  0.31912047511E+03  0.77348352711E+02 0.  0.
         25    2    1    2    0    0 -0.16663085814E+03 -0.11585462602E+03  0.73153343754E+02  0.24937047410E+03  0.12508430915E+03 0.  0.
         24    2    1    2    0    0  0.27044419909E+02  0.11995854769E+02  0.32440930741E+03  0.33547899393E+03  0.80183885244E+02 0.  0.
        -11    1    5    5    0    0  0.30361103547E+02  0.11412077248E+02  0.42080175893E+02  0.53129778080E+02  0.00000000000E+00 0.  1.
         12    1    5    5    0    0 -0.33166836379E+01  0.58377752073E+00  0.28232913152E+03  0.28234921585E+03  0.00000000000E+00 0. -1.
         11    1    3    3    0    0  0.79679523553E+02  0.19112478318E+02 -0.14865435222E+03  0.16974165586E+03  0.00000000000E+00 0. -1.
        -12    1    3    3    0    0  0.59906914682E+02  0.84746292931E+02 -0.10743955998E+03  0.14937881925E+03  0.00000000000E+00 0.  1.
          5    1    4    4  501    0  0.13495591480E+02 -0.21320495285E+02 -0.12668556715E+02  0.28542236035E+02  0.41800000000E+01 0. -1.
         -5    1    4    4    0  501 -0.18012644962E+03 -0.94534130733E+02  0.85821900469E+02  0.22082823807E+03  0.41800000000E+01 0. -1.
</event>
<event>
11    1  0.7157190E-009  0.1358617E+03  0.7561462E-02  0.1112270E+00
         22   -1    0    0    0    0  0.00000000000E+00  0.00000000000E+00  0.13348882715E+04  0.13348882715E+04  0.00000000000E+00 0. -1.
         22   -1    0    0    0    0 -0.00000000000E+00 -0.00000000000E+00 -0.20732296104E+03  0.20732296104E+03  0.00000000000E+00 0.  1.
         24    2    1    2    0    0 -0.21603749591E+02 -0.16347625294E+02 -0.27861208304E+02  0.90676884654E+02  0.81927307006E+02 0.  0.
         25    2    1    2    0    0  0.49808818907E+02  0.60885488553E+02 -0.10893194090E+03  0.18357766914E+03  0.12508649688E+03 0.  0.
        -24    2    1    2    0    0 -0.28205069316E+02 -0.44537863260E+02  0.12643584597E+04  0.12679566788E+04  0.79578121618E+02 0.  0.
        -13    1    3    3    0    0 -0.21210697167E+02 -0.22745883394E+01 -0.55609858929E+02  0.59561093312E+02  0.00000000000E+00 0.  1.
         14    1    3    3    0    0 -0.39305242436E+00 -0.14073036954E+02  0.27748650625E+02  0.31115791342E+02  0.00000000000E+00 0. -1.
         11    1    5    5    0    0  0.21514962912E+02 -0.40130473258E+02  0.59558238338E+03  0.59732045328E+03  0.00000000000E+00 0. -1.
        -12    1    5    5    0    0 -0.49720032228E+02 -0.44073900015E+01  0.66877607633E+03  0.67063622550E+03  0.00000000000E+00 0.  1.
          5    1    4    4  501    0  0.44666394099E+02 -0.29526073696E+02 -0.60129973595E+02  0.80622341285E+02  0.41800000000E+01 0.  1.
         -5    1    4    4    0  501  0.51424248087E+01  0.90411562250E+02 -0.48801967306E+02  0.10295532786E+03  0.41800000000E+01 0.  1.
</event>
<event>
11    1  0.7157190E-009  0.1804321E+03  0.7561462E-02  0.1069294E+00
         22   -1    0    0    0    0  0.00000000000E+00  0.00000000000E+00  0.12275532344E+04  0.12275532344E+04  0.00000000000E+00 0. -1.
         22   -1    0    0    0    0 -0.00000000000E+00 -0.00000000000E+00 -0.18415712866E+03  0.18415712866E+03  0.00000000000E+00 0. -1.
        -24    2    1    2    0    0 -0.12704816112E+03  0.55821655941E+02 -0.11646374712E+03  0.19826075247E+03  0.80537128465E+02 0.  0.
         25    2    1    2    0    0  0.86411079012E+02  0.39328923784E+01  0.21863146305E+03  0.26631721797E+03  0.12507118665E+03 0.  0.
         24    2    1    2    0    0  0.40637082103E+02 -0.59754548320E+02  0.94122838976E+03  0.94713239258E+03  0.76986420226E+02 0.  0.
        -11    1    5    5    0    0 -0.19058758004E+02 -0.14591882318E+02  0.11261019701E+03  0.11513998331E+03  0.00000000000E+00 0.  1.
         12    1    5    5    0    0  0.59695840107E+02 -0.45162666002E+02  0.82861819275E+03  0.83199240927E+03  0.00000000000E+00 0. -1.
         13    1    3    3    0    0 -0.74691715361E+02  0.20200112531E+02 -0.11016563426E+03  0.13462304358E+03  0.00000000000E+00 0. -1.
        -14    1    3    3    0    0 -0.52356445754E+02  0.35621543410E+02 -0.62981128529E+01  0.63637708887E+02  0.00000000000E+00 0.  1.
          5    1    4    4  501    0  0.11281792507E+03 -0.16252281891E+02  0.19281133615E+03  0.22402166108E+03  0.41800000000E+01 0.  1.
         -5    1    4    4    0  501 -0.26406846062E+02  0.20185174269E+02  0.25820126905E+02  0.42295556890E+02  0.41800000000E+01 0.  1.
</event>
<event>
11    1  0.7157190E-009  0.1536382E+03  0.7561462E-02  0.1093218E+00
         22   -1    0    0    0    0  0.00000000000E+00  0.00000000000E+00  0.19686567873E+04  0.19686567873E+04  0.00000000000E+00 0. -1.
         22   -1    0    0    0    0 -0.00000000000E+00 -0.00000000000E+00 -0.62621017977E+02  0.62621017977E+02  0.00000000000E+00 0.  1.
         24    2    1    2    0    0 -0.38210525172E+02  0.13115264031E+02 -0.64714307191E+01  0.89597442901E+02  0.79710526120E+02 0.  0.
         25    2    1    2    0    0 -0.26999761866E+02 -0.78180050913E+02  0.45933431606E+03  0.48320746534E+03  0.12514125280E+03 0.  0.
        -24    2    1    2    0    0  0.65210287039E+02  0.65064786882E+02  0.14531728840E+04  0.14584728971E+04  0.83342381826E+02 0.  0.
        -11    1    3    3    0    0 -0.42069761616E+02 -0.12422285785E+02 -0.31208594363E+02  0.53834509273E+02  0.00000000000E+00 0.  1.
         12    1    3    3    0    0  0.38592364443E+01  0.25537549816E+02  0.24737163644E+02  0.35762933628E+02  0.00000000000E+00 0. -1.
         11    1    5    5    0    0  0.50248065897E+02  0.28106632316E+02  0.12554701552E+04  0.12567896250E+04  0.00000000000E+00 0. -1.
        -12    1    5    5    0    0  0.14962221141E+02  0.36958154566E+02  0.19770272882E+03  0.20168327208E+03  0.00000000000E+00 0.  1.
          5    1    4    4  501    0  0.42114157137E+01 -0.16380962138E+01 -0.71516347929E+01  0.94359769886E+01  0.41800000000E+01 0. -1.
         -5    1    4    4    0  501 -0.31211177580E+02 -0.76541954699E+02  0.46648595085E+03  0.47377148835E+03  0.41800000000E+01 0. -1.
</event>
<event>
11    1  0.7157190E-009  0.1682322E+03  0.7561462E-02  0.1079580E+00
         22   -1    0    0    0    0  0.00000000000E+00  0.00000000000E+00  0.32245431307E+03  0.32245431307E+03  0.00000000000E+00 0.  1.
         22   -1    0    0    0    0 -0.00000000000E+00 -0.00000000000E+00 -0.28352030694E+03  0.28352030694E+03  0.00000000000E+00 0.  1.
        -24    2    1    2    0    0  0.17475378661E+02  0.70279463479E+02 -0.17496105397E+03  0.20562499026E+03  0.80160304175E+02 0.  0.
         25    2    1    2    0    0 -0.10979228749E+03 -0.10790917143E+03  0.77377525640E+02  0.21291586626E+03  0.12508856446E+03 0.  0.
         24    2    1    2    0    0  0.92316908834E+02  0.37629707948E+02  0.13651753446E+03  0.18743376349E+03  0.80968956411E+02 0.  0.
        -13    1    5    5    0    0  0.10559661159E+03  0.25999612824E+02  0.12760371529E+03  0.16765838005E+03  0.00000000000E+00 0.  1.
         14    1    5    5    0    0 -0.13279702753E+02  0.11630095123E+02  0.89138191744E+01  0.19775383437E+02  0.00000000000E+00 0. -1.
         13    1    3    3    0    0 -0.11678490784E+02  0.15997292660E+02  0.34122222489E+00  0.19809516704E+02  0.00000000000E+00 0. -1.
        -14    1    3    3    0    0  0.29153869444E+02  0.54282170819E+02 -0.17530227620E+03  0.18581547356E+03  0.00000000000E+00 0.  1.
          5    1    4    4  501    0 -0.38247512714E+02 -0.22198273603E+02  0.90114083289E+02  0.10046718861E+03  0.41800000000E+01 0. -1.
         -5    1    4    4    0  501 -0.71544774781E+02 -0.85710897824E+02 -0.12736557649E+02  0.11244867765E+03  0.41800000000E+01 0. -1.
</event>
<event>
11    1  0.7157190E-009  0.1437306E+03  0.7561462E-02  0.1103463E+00
         22   -1    0    0    0    0  0.00000000000E+00  0.00000000000E+00  0.34678162379E+03  0.34678162379E+03  0.00000000000E+00 0.  1.
         22   -1    0    0    0    0 -0.00000000000E+00 -0.00000000000E+00 -0.32302248458E+03  0.32302248458E+03  0.00000000000E+00 0. -1.
         24    2    1    2    0    0 -0.30421226685E+02  0.45994287167E+02 -0.19123742059E+03  0.21454687838E+03  0.80110464388E+02 0.  0.
         25    2    1    2    0    0  0.32524539839E+02 -0.11264979102E+03 -0.42789656041E+02  0.17670959047E+03  0.12508998197E+03 0.  0.
        -24    2    1    2    0    0 -0.21033131540E+01  0.66655503856E+02  0.25778621583E+03  0.27854763953E+03  0.81778201817E+02 0.  0.
        -11    1    3    3    0    0 -0.26123457966E+01 -0.35704189349E+00  0.78348551447E+01  0.82666065960E+01  0.00000000000E+00 0.  1.
         12    1    3    3    0    0 -0.27808880889E+02  0.46351329060E+02 -0.19907227573E+03  0.20628027178E+03  0.00000000000E+00 0. -1.
         13    1    5    5    0    0 -0.34175854129E+02  0.28708853431E+02  0.18575946450E+03  0.19104650199E+03  0.00000000000E+00 0. -1.
        -14    1    5    5    0    0  0.32072540975E+02  0.37946650425E+02  0.72026751332E+02  0.87501137539E+02  0.00000000000E+00 0.  1.
          5    1    4    4  501    0  0.78229746739E+02 -0.91938817607E+02 -0.25338208532E+02  0.12341854265E+03  0.41800000000E+01 0.  1.
         -5    1    4    4    0  501 -0.45705206900E+02 -0.20710973415E+02 -0.17451447509E+02  0.53291047820E+02  0.41800000000E+01 0.  1.
</event>
<event>
11    1  0.7157190E-009  0.2015153E+03  0.7561462E-02  0.1053457E+00
         22   -1    0    0    0    0  0.00000000000E+00  0.00000000000E+00  0.13783560648E+04  0.13783560648E+04  0.00000000000E+00 0. -1.
         22   -1    0    0    0    0 -0.00000000000E+00 -0.00000000000E+00 -0.12688769024E+04  0.12688769024E+04  0.00000000000E+00 0. -1.
        -24    2    1    2    0    0  0.66401693273E+02  0.15895375596E+03 -0.10102941236E+04  0.10280771315E+04  0.81073366116E+02 0.  0.
         25    2    1    2    0    0 -0.44003221598E+02 -0.10325499257E+03 -0.21932953505E+03  0.27631720687E+03  0.12509147399E+03 0.  0.
         24    2    1    2    0    0 -0.22398471675E+02 -0.55698763390E+02  0.13391028212E+04  0.13428386288E+04  0.80094778529E+02 0.  0.
        -11    1    5    5    0    0 -0.29332020059E+01 -0.57817006130E+02  0.47511273479E+03  0.47862670279E+03  0.00000000000E+00 0.  1.
         12    1    5    5    0    0 -0.19465269669E+02  0.21182427406E+01  0.86399008640E+03  0.86421192602E+03  0.00000000000E+00 0. -1.
         13    1    3    3    0    0  0.49188445487E+02  0.87184583796E+02 -0.77609012051E+03  0.78251934799E+03  0.00000000000E+00 0. -1.
        -14    1    3    3    0    0  0.17213247786E+02  0.71769172163E+02 -0.23420400313E+03  0.24555778354E+03  0.00000000000E+00 0.  1.
          5    1    4    4  501    0 -0.17386773685E+02 -0.42735706883E+02  0.90516617557E+00  0.46335000462E+02  0.41800000000E+01 0. -1.
         -5    1    4    4    0  501 -0.26616447913E+02 -0.60519285685E+02 -0.22023470122E+03  0.22998220640E+03  0.41800000000E+01 0. -1.
</event>
<event>
11    1  0.7157190E-009  0.1633215E+03  0.7561462E-02  0.1083994E+00
         22   -1    0    0    0    0  0.00000000000E+00  0.00000000000E+00  0.38824026876E+03  0.38824026876E+03  0.00000000000E+00 0. -1.
         22   -1    0    0    0    0 -0.00000000000E+00 -0.00000000000E+00 -0.99935001836E+03  0.99935001836E+03  0.00000000000E+00 0. -1.
         24    2    1    2    0    0  0.21841642878E+02  0.27846203456E+01 -0.94086725832E+03  0.94472886757E+03  0.82441639745E+02 0.  0.
         25    2    1    2    0    0 -0.34600831226E+02  0.10106166666E+03  0.17720988018E+03  0.24178676092E+03  0.12508724209E+03 0.  0.
        -24    2    1    2    0    0  0.12759188348E+02 -0.10384628701E+03  0.15254762854E+03  0.20107465862E+03  0.78825066792E+02 0.  0.
        -13    1    3    3    0    0  0.25709665311E+01  0.40801637767E+02 -0.36385668821E+03  0.36614624547E+03  0.00000000000E+00 0.  1.
         14    1    3    3    0    0  0.19270676347E+02 -0.38017017421E+02 -0.57701057011E+03  0.57858262210E+03  0.00000000000E+00 0. -1.
         11    1    5    5    0    0  0.45137935926E+02 -0.75303327646E+02  0.99968275725E+02  0.13304766276E+03  0.00000000000E+00 0. -1.
        -12    1    5    5    0    0 -0.32378747578E+02 -0.28542959360E+02  0.52579352812E+02  0.68026995861E+02  0.00000000000E+00 0.  1.
          5    1    4    4  501    0 -0.41739424331E+02  0.15561706039E+02 -0.12600364554E+00  0.44741865352E+02  0.41800000000E+01 0. -1.
         -5    1    4    4    0  501  0.71385931046E+01  0.85499960622E+02  0.17733588383E+03  0.19704489557E+03  0.41800000000E+01 0. -1.
</event>
<event>
11    1  0.7157190E-009  0.1769305E+03  0.7561462E-02  0.1072153E+00
         22   -1    0    0    0    0  0.00000000000E+00  0.00000000000E+00  0.56535471780E+03  0.56535471780E+03  0.00000000000E+00 0.  1.
         22   -1    0    0    0    0 -0.00000000000E+00 -0.00000000000E+00 -0.23003469369E+03  0.23003469369E+03  0.00000000000E+00 0.  1.
         24    2    1    2    0    0 -0.46686834142E+01  0.41729855590E+02 -0.16245638774E+03  0.18686184365E+03  0.82231947817E+02 0.  0.
         25    2    1    2    0    0  0.12425506340E+03 -0.61681064158E+02  0.18292724931E+03  0.26144350585E+03  0.12508578557E+03 0.  0.
        -24    2    1    2    0    0 -0.11958637999E+03  0.19951208568E+02  0.31484916253E+03  0.34708406199E+03  0.81476364294E+02 0.  0.
        -13    1    3    3    0    0  0.37506035046E+02  0.31139225569E+02 -0.81504736223E+02  0.94970395707E+02  0.00000000000E+00 0.  1.
         14    1    3    3    0    0 -0.42174718461E+02  0.10590630021E+02 -0.80951651521E+02  0.91891447946E+02  0.00000000000E+00 0. -1.
         13    1    5    5    0    0 -0.28292837458E+02  0.20257727456E+02  0.24072292551E+02  0.42312355663E+02  0.00000000000E+00 0. -1.
        -14    1    5    5    0    0 -0.91293542531E+02 -0.30651888779E+00  0.29077686998E+03  0.30477170633E+03  0.00000000000E+00 0.  1.
          5    1    4    4  501    0  0.10094443227E+03  0.17410239193E+02  0.83607935216E+02  0.13229003767E+03  0.41800000000E+01 0.  1.
         -5    1    4    4    0  501  0.23310631129E+02 -0.79091303351E+02  0.99319314099E+02  0.12915346818E+03  0.41800000000E+01 0.  1.
</event>
<event>
11    1  0.7157190E-009  0.1348693E+03  0.7561462E-02  0.1113427E+00
         22   -1    0    0    0    0  0.00000000000E+00  0.00000000000E+00  0.62092833477E+03  0.62092833477E+03  0.00000000000E+00 0.  1.
         22   -1    0    0    0    0 -0.00000000000E+00 -0.00000000000E+00 -0.33261610242E+03  0.33261610242E+03  0.00000000000E+00 0.  1.
        -24    2    1    2    0    0  0.38789047604E+02 -0.30663161782E+02 -0.23703444903E+03  0.25490901096E+03  0.79677187032E+02 0.  0.
         25    2    1    2    0    0 -0.46349416505E+02  0.32665749124E+02 -0.27271948700E+02  0.14002061040E+03  0.12508674021E+03 0.  0.
         24    2    1    2    0    0  0.75603689004E+01 -0.20025873426E+01  0.55261863007E+03  0.55861481583E+03  0.81252646876E+02 0.  0.
        -11    1    5    5    0    0  0.42550180760E+02  0.11550541416E+02  0.30389945933E+03  0.30708112002E+03  0.00000000000E+00 0.  1.
         12    1    5    5    0    0 -0.34989811860E+02 -0.13553128758E+02  0.24871917075E+03  0.25153369581E+03  0.00000000000E+00 0. -1.
         13    1    3    3    0    0  0.47220247211E+02  0.22163316566E+00 -0.67495728510E+02  0.82373990040E+02  0.00000000000E+00 0. -1.
        -14    1    3    3    0    0 -0.84311996072E+01 -0.30884794947E+02 -0.16953872052E+03  0.17253502092E+03  0.00000000000E+00 0.  1.
          5    1    4    4  501    0 -0.28530182933E+01  0.27877332282E+02  0.46320715062E+02  0.54298861981E+02  0.41800000000E+01 0.  1.
         -5    1    4    4    0  501 -0.43496398211E+02  0.47884168422E+01 -0.73592663762E+02  0.85721748423E+02  0.41800000000E+01 0.  1.
</event>
<event>
11    1  0.7157190E-009  0.1386291E+03  0.7561462E-02  0.1109099E+00
         22   -1    0    0    0    0  0.00000000000E+00  0.00000000000E+00  0.93922339352E+03  0.93922339352E+03  0.00000000000E+00 0. -1.
         22   -1    0    0    0    0 -0.00000000000E+00 -0.00000000000E+00 -0.11792374321E+03  0.11792374321E+03  0.00000000000E+00 0.  1.
         24    2    1    2    0    0  0.72912029534E+02  0.70737676691E+00 -0.68934184450E+02  0.11750170436E+03  0.61139711392E+02 0.  0.
         25    2    1    2    0    0 -0.10471025908E+02 -0.32651866898E+02  0.18322183274E+03  0.22448624316E+03  0.12509215236E+03 0.  0.
        -24    2    1    2    0    0 -0.62441003626E+02  0.31944490131E+02  0.70701200203E+03  0.71515918921E+03  0.81653937523E+02 0.  0.
        -11    1    3    3    0    0  0.47344587227E+02  0.29776599326E+02 -0.46662517692E+02  0.72839181520E+02  0.00000000000E+00 0.  1.
         12    1    3    3    0    0  0.25567442306E+02 -0.29069222559E+02 -0.22271666758E+02  0.44662522840E+02  0.00000000000E+00 0. -1.
         13    1    5    5    0    0 -0.14629231500E+02  0.19133511985E+02  0.55005788668E+03  0.55058494748E+03  0.00000000000E+00 0. -1.
        -14    1    5    5    0    0 -0.47811772126E+02  0.12810978146E+02  0.15695411535E+03  0.16457424173E+03  0.00000000000E+00 0.  1.
          5    1    4    4  501    0 -0.14320427688E+02 -0.92989571432E+01  0.19632615476E+03  0.19711158437E+03  0.41800000000E+01 0. -1.
         -5    1    4    4    0  501  0.38494017803E+01 -0.23352909755E+02 -0.13104322020E+02  0.27374658787E+02  0.41800000000E+01 0. -1.
</event>
<event>
11    1  0.7157190E-009  0.1435808E+03  0.7561462E-02  0.1103624E+00
         22   -1    0    0    0    0  0.00000000000E+00  0.00000000000E+00  0.14588034165E+03  0.14588034165E+03  0.00000000000E+00 0. -1.
         22   -1    0    0    0    0 -0.00000000000E+00 -0.00000000000E+00 -0.90888036277E+03  0.90888036277E+03  0.00000000000E+00 0.  1.
        -24    2    1    2    0    0 -0.23807939579E+02  0.56071519005E+00 -0.49902909951E+03  0.50604152694E+03  0.80503741797E+02 0.  0.
         25    2    1    2    0    0  0.58591478442E+02  0.59883550308E+02 -0.36559324296E+03  0.39538093509E+03  0.12509461857E+03 0.  0.
         24    2    1    2    0    0 -0.34783538863E+02 -0.60444265498E+02  0.10162232135E+03  0.15333824239E+03  0.91225635515E+02 0.  0.
        -13    1    5    5    0    0  0.17823742169E+02 -0.15899950683E+01 -0.68691351523E+01  0.19167652098E+02  0.00000000000E+00 0.  1.
         14    1    5    5    0    0 -0.52607281032E+02 -0.58854270430E+02  0.10849145650E+03  0.13417059029E+03  0.00000000000E+00 0. -1.
         13    1    3    3    0    0  0.16046384728E+02 -0.28140620522E+02 -0.14186950223E+03  0.14552091481E+03  0.00000000000E+00 0. -1.
        -14    1    3    3    0    0 -0.39854324307E+02  0.28701335712E+02 -0.35715959728E+03  0.36052061213E+03  0.00000000000E+00 0.  1.
          5    1    4    4  501    0  0.55543832762E+02  0.11922756302E+02 -0.49013179032E+02  0.75146747065E+02  0.41800000000E+01 0.  1.
         -5    1    4    4    0  501  0.30476456807E+01  0.47960794006E+02 -0.31658006393E+03  0.32023418803E+03  0.41800000000E+01 0.  1.
</event>
<event>
11    1  0.7157190E-009  0.1560573E+03  0.7561462E-02  0.1090845E+00
         22   -1    0    0    0    0  0.00000000000E+00  0.00000000000E+00  0.30765506606E+04  0.30765506606E+04  0.00000000000E+00 0.  1.
         22   -1    0    0    0    0 -0.00000000000E+00 -0.00000000000E+00 -0.12060607232E+04  0.12060607232E+04  0.00000000000E+00 0. -1.
         24    2    1    2    0    0  0.41154275509E+02 -0.17688175397E+02 -0.11217371198E+04  0.11255488805E+04  0.80991175256E+02 0.  0.
         25    2    1    2    0    0 -0.11709695535E+03  0.70693312179E+02  0.24765640516E+02  0.18700587251E+03  0.12509443657E+03 0.  0.
        -24    2    1    2    0    0  0.75942679843E+02 -0.53005136783E+02  0.29674614167E+04  0.29700566308E+04  0.82657701361E+02 0.  0.
        -13    1    3    3    0    0  0.28070597000E+02  0.28890372011E+02 -0.35301762015E+03  0.35530839020E+03  0.00000000000E+00 0.  1.
         14    1    3    3    0    0  0.13083678509E+02 -0.46578547407E+02 -0.76871949965E+03  0.77024049027E+03  0.00000000000E+00 0. -1.
         11    1    5    5    0    0 -0.10594109439E+02  0.10057667731E+02  0.20447043264E+03  0.20499158436E+03  0.00000000000E+00 0. -1.
        -12    1    5    5    0    0  0.86536789282E+02 -0.63062804514E+02  0.27629909841E+04  0.27650650465E+04  0.00000000000E+00 0.  1.
          5    1    4    4  501    0 -0.12852246338E+03  0.19700297556E+02  0.26772589527E+01  0.13011827479E+03  0.41800000000E+01 0. -1.
         -5    1    4    4    0  501  0.11425508032E+02  0.50993014623E+02  0.22088381563E+02  0.56887597719E+02  0.41800000000E+01 0. -1.
</event>
<event>
11    1  0.7157190E-009  0.1428626E+03  0.7561462E-02  0.1104403E+00
         22   -1    0    0    0    0  0.00000000000E+00  0.00000000000E+00  0.23074917620E+03  0.23074917620E+03  0.00000000000E+00 0.  1.
         22   -1    0    0    0    0 -0.00000000000E+00 -0.00000000000E+00 -0.60773830566E+03  0.60773830566E+03  0.00000000000E+00 0.  1.
        -24    2    1    2    0    0 -0.45808120478E+02  0.18850772179E+02 -0.39403978572E+03  0.40558327205E+03  0.82320728394E+02 0.  0.
         25    2    1    2    0    0  0.11094935511E+03 -0.28971789103E+02 -0.15761727604E+03  0.23160204679E+03  0.12508868217E+03 0.  0.
         24    2    1    2    0    0 -0.65141234631E+02  0.10121016924E+02  0.17466793231E+03  0.20130216302E+03  0.75285183315E+02 0.  0.
        -13    1    5    5    0    0 -0.75918488752E+02 -0.10138400377E+02  0.12518592479E+03  0.14675803168E+03  0.00000000000E+00 0.  1.
         14    1    5    5    0    0  0.10777254121E+02  0.20259417301E+02  0.49482007513E+02  0.54544131337E+02  0.00000000000E+00 0. -1.
         13    1    3    3    0    0 -0.33717365146E+02  0.51133544835E+02 -0.26840928014E+03  0.27530899329E+03  0.00000000000E+00 0. -1.
        -14    1    3    3    0    0 -0.12090755332E+02 -0.32282772656E+02 -0.12563050558E+03  0.13027427876E+03  0.00000000000E+00 0.  1.
          5    1    4    4  501    0 -0.27246308800E+02 -0.13103816557E+02 -0.29165814734E+02  0.42215974473E+02  0.41800000000E+01 0.  1.
         -5    1    4    4    0  501  0.13819566391E+03 -0.15867972545E+02 -0.12845146131E+03  0.18938607232E+03  0.41800000000E+01 0.  1.
</event>
<event>
11    1  0.7157190E-009  0.1674530E+03  0.7561462E-02  0.1080270E+00
         22   -1    0    0    0    0  0.00000000000E+00  0.00000000000E+00  0.55108784010E+03  0.55108784010E+03  0.00000000000E+00 0. -1.
         22   -1    0    0    0    0 -0.00000000000E+00 -0.00000000000E+00 -0.43276142660E+03  0.43276142660E+03  0.00000000000E+00 0. -1.
         24    2    1    2    0    0 -0.38343000569E+02 -0.10041741653E+03 -0.32563031473E+03  0.35213611616E+03  0.80068091005E+02 0.  0.
         25    2    1    2    0    0  0.60066748683E+02  0.12667225923E+03  0.88561789359E+01  0.18809454947E+03  0.12508897665E+03 0.  0.
        -24    2    1    2    0    0 -0.21723748114E+02 -0.26254842705E+02  0.43510054929E+03  0.44361860107E+03  0.79521929196E+02 0.  0.
        -11    1    3    3    0    0 -0.32856282674E+02  0.31981464370E+00 -0.90299211774E+02  0.96091546140E+02  0.00000000000E+00 0.  1.
         12    1    3    3    0    0 -0.54867178946E+01 -0.10073723117E+03 -0.23533110296E+03  0.25604457002E+03  0.00000000000E+00 0. -1.
         13    1    5    5    0    0 -0.23240039527E+02 -0.24078078021E+02  0.43823580002E+03  0.43951162635E+03  0.00000000000E+00 0. -1.
        -14    1    5    5    0    0  0.15162914126E+01 -0.21767646841E+01 -0.31352507332E+01  0.41069747136E+01  0.00000000000E+00 0.  1.
          5    1    4    4  501    0  0.67039285760E+02  0.10251382339E+03 -0.43348273742E+02  0.12999959638E+03  0.41800000000E+01 0.  1.
         -5    1    4    4    0  501 -0.69725370770E+01  0.24158435838E+02  0.52204452678E+02  0.58094953093E+02  0.41800000000E+01 0.  1.
</event>
<event>
11    1  0.7157190E-009  0.1765923E+03  0.7561462E-02  0.1072433E+00
         22   -1    0    0    0    0  0.00000000000E+00  0.00000000000E+00  0.32432137282E+03  0.32432137282E+03  0.00000000000E+00 0.  1.
         22   -1    0    0    0    0 -0.00000000000E+00 -0.00000000000E+00 -0.12140711159E+04  0.12140711159E+04  0.00000000000E+00 0. -1.
        -24    2    1    2    0    0  0.10505901458E+02  0.28070955082E+02 -0.97498139758E+03  0.97874543817E+03  0.80346466090E+02 0.  0.
         25    2    1    2    0    0 -0.13095600611E+03  0.29229607381E+01 -0.18071447800E+03  0.25585728479E+03  0.12508880200E+03 0.  0.
         24    2    1    2    0    0  0.12045010465E+03 -0.30993915820E+02  0.26594613252E+03  0.30378976574E+03  0.78051430726E+02 0.  0.
        -11    1    5    5    0    0  0.81757993743E+02  0.18686302384E+02  0.15208355714E+03  0.17367485653E+03  0.00000000000E+00 0.  1.
         12    1    5    5    0    0  0.38692110907E+02 -0.49680218204E+02  0.11386257539E+03  0.13011490922E+03  0.00000000000E+00 0. -1.
         11    1    3    3    0    0  0.26252079882E+02  0.50711450575E+02 -0.58076332815E+03  0.58356393500E+03  0.00000000000E+00 0. -1.
        -12    1    3    3    0    0 -0.15746178424E+02 -0.22640495493E+02 -0.39421806944E+03  0.39518150316E+03  0.00000000000E+00 0.  1.
          5    1    4    4  501    0 -0.11320558983E+03 -0.47908693385E+02 -0.14908283426E+03  0.19327160252E+03  0.41800000000E+01 0.  1.
         -5    1    4    4    0  501 -0.17750416278E+02  0.50831654123E+02 -0.31631643740E+02  0.62585682266E+02  0.41800000000E+01 0.  1.
</event>
<event>
11    1  0.7157190E-009  0.1770184E+03  0.7561462E-02  0.1072080E+00
         22   -1    0    0    0    0  0.00000000000E+00  0.00000000000E+00  0.92290987796E+03  0.92290987796E+03  0.00000000000E+00 0. -1.
         22   -1    0    0    0    0 -0.00000000000E+00 -0.00000000000E+00 -0.11130594993E+04  0.11130594993E+04  0.00000000000E+00 0.  1.
        -24    2    1    2    0    0  0.30994592283E+02 -0.10135324677E+03 -0.47296271573E+03  0.49096694263E+03  0.78241056408E+02 0.  0.
         25    2    1    2    0    0 -0.10178538900E+03  0.13433095154E+03 -0.61003087005E+03  0.64512757275E+03  0.12508738047E+03 0.  0.
         24    2    1    2    0    0  0.70790796716E+02 -0.32977704770E+02  0.89284396442E+03  0.89987486189E+03  0.80657029119E+02 0.  0.
        -11    1    5    5    0    0  0.30590728150E+01 -0.33018425009E+02  0.13510756436E+03  0.13911731834E+03  0.00000000000E+00 0.  1.
         12    1    5    5    0    0  0.67731723901E+02  0.40720239157E-01  0.75773640006E+03  0.76075754355E+03  0.00000000000E+00 0. -1.
         13    1    3    3    0    0  0.67834224717E+01  0.11211233787E+02 -0.22647955212E+02  0.26165558636E+02  0.00000000000E+00 0. -1.
        -14    1    3    3    0    0  0.24211169811E+02 -0.11256448056E+03 -0.45031476051E+03  0.46480138400E+03  0.00000000000E+00 0.  1.
          5    1    4    4  501    0  0.22601284101E+02  0.14393043022E+01 -0.12384949406E+03  0.12597245421E+03  0.41800000000E+01 0.  1.
         -5    1    4    4    0  501 -0.12438667310E+03  0.13289164724E+03 -0.48618137599E+03  0.51915511855E+03  0.41800000000E+01 0.  1.
</event>
<event>
11    1  0.7157190E-009  0.1501103E+03  0.7561462E-02  0.1096766E+00
         22   -1    0    0    0    0  0.00000000000E+00  0.00000000000E+00  0.55452098607E+03  0.55452098607E+03  0.00000000000E+00 0.  1.
         22   -1    0    0    0    0 -0.00000000000E+00 -0.00000000000E+00 -0.98078179805E+03  0.98078179805E+03  0.00000000000E+00 0.  1.
         24    2    1    2    0    0 -0.20379775977E+02  0.26323213736E+02 -0.76504378949E+03  0.76962978641E+03  0.77004944262E+02 0.  0.
         25    2    1    2    0    0  0.91846863665E+02 -0.66620145427E+02 -0.17250755036E+03  0.24141397463E+03  0.12509101517E+03 0.  0.
        -24    2    1    2    0    0 -0.71467087688E+02  0.40296931691E+02  0.51129052787E+03  0.52425902307E+03  0.81842116639E+02 0.  0.
        -13    1    3    3    0    0  0.13936093321E+02  0.42824555523E+02 -0.46614357763E+03  0.46831398892E+03  0.00000000000E+00 0.  1.
         14    1    3    3    0    0 -0.34315869298E+02 -0.16501341786E+02 -0.29890021186E+03  0.30131579749E+03  0.00000000000E+00 0. -1.
         13    1    5    5    0    0  0.10670516249E+02  0.31047774412E+02  0.16572418588E+03  0.16894475428E+03  0.00000000000E+00 0. -1.
        -14    1    5    5    0    0 -0.82137603936E+02  0.92491572788E+01  0.34556634199E+03  0.35531426879E+03  0.00000000000E+00 0.  1.
          5    1    4    4  501    0  0.12117437782E+03 -0.43956591639E+02 -0.15012304561E+03  0.19791365039E+03  0.41800000000E+01 0. -1.
         -5    1    4    4    0  501 -0.29327514151E+02 -0.22663553788E+02 -0.22384504744E+02  0.43500324243E+02  0.41800000000E+01 0. -1.
</event>
<event>
11    1  0.7157190E-009  0.1344964E+03  0.7561462E-02  0.1113865E+00
         22   -1    0    0    0    0  0.00000000000E+00  0.00000000000E+00  0.63090060636E+03  0.63090060636E+03  0.00000000000E+00 0.  1.
         22   -1    0    0    0    0 -0.00000000000E+00 -0.00000000000E+00 -0.14208425439E+04  0.14208425439E+04  0.00000000000E+00 0.  1.
         24    2    1    2    0    0  0.31552823424E+02 -0.18787768687E+02 -0.13717802187E+04  0.13742922159E+04  0.74495405803E+02 0.  0.
         25    2    1    2    0    0 -0.58562925288E+02 -0.22251481920E+02  0.69830273076E+02  0.15636156457E+03  0.12509167506E+03 0.  0.
        -24    2    1    2    0    0  0.27010101865E+02  0.41039250606E+02  0.51200800809E+03  0.52108936973E+03  0.83475536546E+02 0.  0.
        -11    1    3    3    0    0  0.48490513404E+01 -0.13657441652E+02 -0.12205975627E+04  0.12206835991E+04  0.00000000000E+00 0.  1.
         12    1    3    3    0    0  0.26703772083E+02 -0.51303270350E+01 -0.15118265594E+03  0.15360861680E+03  0.00000000000E+00 0. -1.
         11    1    5    5    0    0  0.29152204102E+02  0.50821091858E+01  0.53254666772E+02  0.60924037709E+02  0.00000000000E+00 0. -1.
        -12    1    5    5    0    0 -0.21421022376E+01  0.35957141421E+02  0.45875334132E+03  0.46016533202E+03  0.00000000000E+00 0.  1.
          5    1    4    4  501    0 -0.27944206530E+02 -0.44586375563E+02 -0.21803738215E+02  0.57111285790E+02  0.41800000000E+01 0.  1.
         -5    1    4    4    0  501 -0.30618718759E+02  0.22334893643E+02  0.91634011291E+02  0.99250278779E+02  0.41800000000E+01 0.  1.
</event>
<event>
11    1  0.7157190E-009  0.1385881E+03  0.7561462E-02  0.1109145E+00
         22   -1    0    0    0    0  0.00000000000E+00  0.00000000000E+00  0.52412549839E+03  0.52412549839E+03  0.00000000000E+00 0.  1.
         22   -1    0    0    0    0 -0.00000000000E+00 -0.00000000000E+00 -0.10001399328E+03  0.10001399328E+03  0.00000000000E+00 0. -1.
         24    2    1    2    0    0 -0.44767654424E+02 -0.24535675647E+02 -0.65303102895E+01  0.96070711145E+02  0.81122095174E+02 0.  0.
         25    2    1    2    0    0  0.24130580063E+02  0.78851358960E+02  0.94236398485E+02  0.17699945593E+03  0.12509391230E+03 0.  0.
        -24    2    1    2    0    0  0.20637074361E+02 -0.54315683313E+02  0.33640541691E+03  0.35106932460E+03  0.81883965807E+02 0.  0.
        -11    1    3    3    0    0 -0.23874717865E+02 -0.26229446625E+02  0.34824771616E+02  0.49706646854E+02  0.00000000000E+00 0.  1.
         12    1    3    3    0    0 -0.20892936559E+02  0.16937709775E+01 -0.41355081905E+02  0.46364064291E+02  0.00000000000E+00 0. -1.
         13    1    5    5    0    0  0.48681868272E+01 -0.45184670831E+00  0.23593419359E+03  0.23598484510E+03  0.00000000000E+00 0. -1.
        -14    1    5    5    0    0  0.15768887534E+02 -0.53863836604E+02  0.10047122332E+03  0.11508447950E+03  0.00000000000E+00 0.  1.
          5    1    4    4  501    0  0.41141617965E+02  0.10748815925E+03  0.81527601676E+02  0.14110478143E+03  0.41800000000E+01 0.  1.
         -5    1    4    4    0  501 -0.17011037901E+02 -0.28636800287E+02  0.12708796809E+02  0.35894674500E+02  0.41800000000E+01 0.  1.
</event>
<event>
11    1  0.7157190E-009  0.2168410E+03  0.7561462E-02  0.1043215E+00
         22   -1    0    0    0    0  0.00000000000E+00  0.00000000000E+00  0.75890551504E+03  0.75890551504E+03  0.00000000000E+00 0. -1.
         22   -1    0    0    0    0 -0.00000000000E+00 -0.00000000000E+00 -0.36130680170E+03  0.36130680170E+03  0.00000000000E+00 0. -1.
        -24    2    1    2    0    0  0.13283891453E+02 -0.36012289290E+02 -0.28348730842E+03  0.29666366140E+03  0.78555249405E+02 0.  0.
         25    2    1    2    0    0  0.14567840836E+03 -0.57654233706E+02  0.13534110546E+03  0.24189353258E+03  0.12509619080E+03 0.  0.
         24    2    1    2    0    0 -0.15896229981E+03  0.93666522997E+02  0.54574491630E+03  0.58165512276E+03  0.80266667308E+02 0.  0.
        -13    1    5    5    0    0 -0.88373589224E+02  0.73795410494E+02  0.22633689459E+03  0.25393708618E+03  0.00000000000E+00 0.  1.
         14    1    5    5    0    0 -0.70588710586E+02  0.19871112503E+02  0.31940802170E+03  0.32771803658E+03  0.00000000000E+00 0. -1.
         11    1    3    3    0    0  0.35462165121E+02 -0.46986758490E+02 -0.23457040433E+03  0.24184415481E+03  0.00000000000E+00 0. -1.
        -12    1    3    3    0    0 -0.22178273669E+02  0.10974469200E+02 -0.48916904087E+02  0.54819506588E+02  0.00000000000E+00 0.  1.
          5    1    4    4  501    0  0.12805494351E+03 -0.66661433877E+02  0.15626770876E+03  0.21278835618E+03  0.41800000000E+01 0. -1.
         -5    1    4    4    0  501  0.17623464845E+02  0.90072001709E+01 -0.20926603296E+02  0.29105176405E+02  0.41800000000E+01 0. -1.
</event>
<event>
11    1  0.7157190E-009  0.1375926E+03  0.7561462E-02  0.1110277E+00
         22   -1    0    0    0    0  0.00000000000E+00  0.00000000000E+00  0.58589670515E+02  0.58589670515E+02  0.00000000000E+00 0.  1.
         22   -1    0    0    0    0 -0.00000000000E+00 -0.00000000000E+00 -0.85384776016E+03  0.85384776016E+03  0.00000000000E+00 0. -1.
        -24    2    1    2    0    0  0.34475010625E+02  0.47947898754E+02 -0.56473342709E+03  0.57354057791E+03  0.80854334989E+02 0.  0.
         25    2    1    2    0    0 -0.42636766901E+02 -0.29796454239E+02 -0.21538457092E+03  0.25444792085E+03  0.12509000141E+03 0.  0.
         24    2    1    2    0    0  0.81617562754E+01 -0.18151444515E+02 -0.15140091632E+02  0.84448931919E+02  0.80661704198E+02 0.  0.
        -11    1    5    5    0    0  0.38722239422E+02  0.29831304083E+01  0.93510991843E+01  0.39946889101E+02  0.00000000000E+00 0.  1.
         12    1    5    5    0    0 -0.30560483146E+02 -0.21134574923E+02 -0.24491190817E+02  0.44502042818E+02  0.00000000000E+00 0. -1.
         13    1    3    3    0    0  0.60258337099E+02  0.24251382955E+02 -0.35165736432E+03  0.35760606629E+03  0.00000000000E+00 0. -1.
        -14    1    3    3    0    0 -0.25783326473E+02  0.23696515799E+02 -0.21307606277E+03  0.21593451162E+03  0.00000000000E+00 0.  1.
          5    1    4    4  501    0  0.30005355238E+02 -0.49939895795E+02 -0.11339023702E+03  0.12755051073E+03  0.41800000000E+01 0.  1.
         -5    1    4    4    0  501 -0.72642122139E+02  0.20143441555E+02 -0.10199433391E+03  0.12689741012E+03  0.41800000000E+01 0.  1.
</event>
<event>
11    1  0.7157190E-009  0.1628845E+03  0.7561462E-02  0.1084395E+00
         22   -1    0    0    0    0  0.00000000000E+00  0.00000000000E+00  0.18848277901E+04  0.18848277901E+04  0.00000000000E+00 0.  1.
         22   -1    0    0    0    0 -0.00000000000E+00 -0.00000000000E+00 -0.15635533088E+03  0.15635533088E+03  0.00000000000E+00 0.  1.
        -24    2    1    2    0    0 -0.50815875362E+02 -0.21859815956E+02 -0.70768510507E+02  0.12629830515E+03  0.88786119761E+02 0.  0.
         25    2    1    2    0    0  0.14507479577E+01  0.11397742410E+03  0.74689845679E+02  0.18498525769E+03  0.12509202469E+03 0.  0.
         24    2    1    2    0    0  0.49365127404E+02 -0.92117608146E+02  0.17245511240E+04  0.17298995581E+04  0.86909908670E+02 0.  0.
        -11    1    5    5    0    0  0.57762946832E+02 -0.87668536948E+02  0.17042864449E+04  0.17075170912E+04  0.00000000000E+00 0.  1.
         12    1    5    5    0    0 -0.83978194285E+01 -0.44490711985E+01  0.20264679118E+02  0.22382466920E+02  0.00000000000E+00 0. -1.
         11    1    3    3    0    0  0.15004839138E+02 -0.15987416914E+02  0.81274007025E+01  0.23383698153E+02  0.00000000000E+00 0. -1.
        -12    1    3    3    0    0 -0.65820714500E+02 -0.58723990427E+01 -0.78895911210E+02  0.10291460700E+03  0.00000000000E+00 0.  1.
          5    1    4    4  501    0  0.41006454022E+02  0.58026818209E+02 -0.14295048192E+02  0.72597945603E+02  0.41800000000E+01 0.  1.
         -5    1    4    4    0  501 -0.39555706064E+02  0.55950605894E+02  0.88984893871E+02  0.11238731209E+03  0.41800000000E+01 0.  1.
</event>
<event>
11    1  0.7157190E-009  0.1357518E+03  0.7561462E-02  0.1112397E+00
         22   -1    0    0    0    0  0.00000000000E+00  0.00000000000E+00  0.67968747526E+03  0.67968747526E+03  0.00000000000E+00 0. -1.
         22   -1    0    0    0    0 -0.00000000000E+00 -0.00000000000E+00 -0.19093635332E+03  0.19093635332E+03  0.00000000000E+00 0. -1.
        -24    2    1    2    0    0 -0.48982746648E+02 -0.80913657008E+01 -0.10900127769E+03  0.14598327499E+03  0.83456925239E+02 0.  0.
         25    2    1    2    0    0  0.68156411596E+02 -0.56964485554E+01  0.23723315432E+02  0.14452655162E+03  0.12508949780E+03 0.  0.
         24    2    1    2    0    0 -0.19173664948E+02  0.13787814256E+02  0.57402908420E+03  0.58011400197E+03  0.80406047839E+02 0.  0.
        -13    1    5    5    0    0  0.85685652884E+01  0.16604697332E+02  0.29816544436E+02  0.35187534820E+02  0.00000000000E+00 0.  1.
         14    1    5    5    0    0 -0.27742230237E+02 -0.28168830756E+01  0.54421253976E+03  0.54492646715E+03  0.00000000000E+00 0. -1.
         11    1    3    3    0    0  0.13208195631E+02 -0.12035203766E+02 -0.70508118272E+02  0.72737179652E+02  0.00000000000E+00 0. -1.
        -12    1    3    3    0    0 -0.62190942279E+02  0.39438380648E+01 -0.38493159423E+02  0.73246095340E+02  0.00000000000E+00 0.  1.
          5    1    4    4  501    0  0.73712818495E+02 -0.45156882331E+02 -0.16104103875E+02  0.88031461387E+02  0.41800000000E+01 0. -1.
         -5    1    4    4    0  501 -0.55564068990E+01  0.39460433776E+02  0.39827419307E+02  0.56495090230E+02  0.41800000000E+01 0. -1.
</event>
<event>
11    1  0.7157190E-009  0.1392980E+03  0.7561462E-02  0.1108345E+00
         22   -1    0    0    0    0  0.00000000000E+00  0.00000000000E+00  0.58588331366E+03  0.58588331366E+03  0.00000000000E+00 0.  1.
         22   -1    0    0    0    0 -0.00000000000E+00 -0.00000000000E+00 -0.15490204260E+03  0.15490204260E+03  0.00000000000E+00 0.  1.
         24    2    1    2    0    0  0.29657851609E+02  0.54128046261E+02 -0.81630606991E+02  0.13011651215E+03  0.80357433896E+02 0.  0.
         25    2    1    2    0    0 -0.64593271777E+01 -0.63086635853E+02  0.64174289446E+02  0.15423318141E+03  0.12509151966E+03 0.  0.
        -24    2    1    2    0    0 -0.23198524431E+02  0.89585895923E+01  0.44843758861E+03  0.45643566270E+03  0.81356102692E+02 0.  0.
        -13    1    3    3    0    0  0.12728916116E+02  0.66861373660E+02 -0.84758569457E+02  0.10870365076E+03  0.00000000000E+00 0.  1.
         14    1    3    3    0    0  0.16928935492E+02 -0.12733327399E+02  0.31279624651E+01  0.21412861386E+02  0.00000000000E+00 0. -1.
         13    1    5    5    0    0  0.11930120384E+02  0.20298142152E+02  0.40615296191E+02  0.46946188684E+02  0.00000000000E+00 0. -1.
        -14    1    5    5    0    0 -0.35128644815E+02 -0.11339552560E+02  0.40782229242E+03  0.40948947402E+03  0.00000000000E+00 0.  1.
          5    1    4    4  501    0 -0.14635739181E+01 -0.72975672510E+02  0.95772892336E+02  0.12048863072E+03  0.41800000000E+01 0. -1.
         -5    1    4    4    0  501 -0.49957532595E+01  0.98890366570E+01 -0.31598602890E+02  0.33744550690E+02  0.41800000000E+01 0. -1.
</event>
<event>
11    1  0.7157190E-009  0.1782139E+03  0.7561462E-02  0.1071097E+00
         22   -1    0    0    0    0  0.00000000000E+00  0.00000000000E+00  0.30217628410E+03  0.30217628410E+03  0.00000000000E+00 0. -1.
         22   -1    0    0    0    0 -0.00000000000E+00 -0.00000000000E+00 -0.25629553039E+04  0.25629553039E+04  0.00000000000E+00 0. -1.
        -24    2    1    2    0    0  0.47990732414E+02 -0.95981256087E+01 -0.16790380135E+04  0.16816604834E+04  0.80113021299E+02 0.  0.
         25    2    1    2    0    0 -0.10692698808E+03  0.12125215347E+03 -0.85114608961E+03  0.87534734573E+03  0.12509134386E+03 0.  0.
         24    2    1    2    0    0  0.58936255668E+02 -0.11165402786E+03  0.26940508333E+03  0.30812375887E+03  0.80131440062E+02 0.  0.
        -13    1    5    5    0    0 -0.29795598630E+01  0.31660269494E+01  0.68151481534E+02  0.68290013464E+02  0.00000000000E+00 0.  1.
         14    1    5    5    0    0  0.61915815531E+02 -0.11482005481E+03  0.20125360179E+03  0.23983374540E+03  0.00000000000E+00 0. -1.
         11    1    3    3    0    0  0.29790406774E+02 -0.37934180766E+02 -0.54724025420E+03  0.54936178081E+03  0.00000000000E+00 0. -1.
        -12    1    3    3    0    0  0.18200325640E+02  0.28336055157E+02 -0.11317977593E+04  0.11322987026E+04  0.00000000000E+00 0.  1.
          5    1    4    4  501    0 -0.76751969717E+02  0.94051514242E+02 -0.80334450912E+03  0.81247549188E+03  0.41800000000E+01 0.  1.
         -5    1    4    4    0  501 -0.30175018365E+02  0.27200639229E+02 -0.47801580496E+02  0.62871853844E+02  0.41800000000E+01 0.  1.
</event>
<event>
11    1  0.7157190E-009  0.1363262E+03  0.7561462E-02  0.1111732E+00
         22   -1    0    0    0    0  0.00000000000E+00  0.00000000000E+00  0.65123019003E+03  0.65123019003E+03  0.00000000000E+00 0. -1.
         22   -1    0    0    0    0 -0.00000000000E+00 -0.00000000000E+00 -0.34917885506E+03  0.34917885506E+03  0.00000000000E+00 0.  1.
         24    2    1    2    0    0 -0.25945191951E+02  0.45456052403E+02 -0.23866262291E+03  0.25726078501E+03  0.80522408336E+02 0.  0.
         25    2    1    2    0    0  0.43506969056E+02 -0.49040025825E+02 -0.47636700096E+02  0.14904027975E+03  0.12508384908E+03 0.  0.
        -24    2    1    2    0    0 -0.17561777106E+02  0.35839734214E+01  0.58835065798E+03  0.59410798033E+03  0.80539025714E+02 0.  0.
        -11    1    3    3    0    0  0.11828812954E+02  0.49873608479E+01 -0.16302179647E+03  0.16352645263E+03  0.00000000000E+00 0.  1.
         12    1    3    3    0    0 -0.37774004905E+02  0.40468691556E+02 -0.75640826435E+02  0.93734332379E+02  0.00000000000E+00 0. -1.
         13    1    5    5    0    0 -0.26201898296E+02 -0.40322950718E+01  0.57804531532E+03  0.57865290584E+03  0.00000000000E+00 0. -1.
        -14    1    5    5    0    0  0.86401211910E+01  0.76162684932E+01  0.10305342659E+02  0.15455074483E+02  0.00000000000E+00 0.  1.
          5    1    4    4  501    0  0.27048735739E+02 -0.91484417141E+02 -0.33273886577E+02  0.10112198877E+03  0.41800000000E+01 0. -1.
         -5    1    4    4    0  501  0.16458233317E+02  0.42444391316E+02 -0.14362813520E+02  0.47918290979E+02  0.41800000000E+01 0. -1.
</event>
<event>
11    1  0.7157190E-009  0.1569320E+03  0.7561462E-02  0.1089999E+00
         22   -1    0    0    0    0  0.00000000000E+00  0.00000000000E+00  0.10056836493E+03  0.10056836493E+03  0.00000000000E+00 0.  1.
         22   -1    0    0    0    0 -0.00000000000E+00 -0.00000000000E+00 -0.16556316328E+04  0.16556316328E+04  0.00000000000E+00 0.  1.
        -24    2    1    2    0    0 -0.46805214592E+02 -0.77079241062E+02 -0.13010850928E+04  0.13067009940E+04  0.80703973774E+02 0.  0.
         25    2    1    2    0    0  0.28917371482E+02  0.15863235833E+03 -0.26280707009E+03  0.33273877267E+03  0.12508834983E+03 0.  0.
         24    2    1    2    0    0  0.17887843110E+02 -0.81553117271E+02  0.88288950680E+01  0.11676023106E+03  0.81142567755E+02 0.  0.
        -13    1    5    5    0    0 -0.53300307159E+01 -0.83721075344E+02  0.25970842800E+02  0.87818633330E+02  0.00000000000E+00 0.  1.
         14    1    5    5    0    0  0.23217873826E+02  0.21679580735E+01 -0.17141947732E+02  0.28941597732E+02  0.00000000000E+00 0. -1.
         11    1    3    3    0    0 -0.60245391385E+02 -0.26165827696E+02 -0.58314066743E+03  0.58682808022E+03  0.00000000000E+00 0. -1.
        -12    1    3    3    0    0  0.13440176792E+02 -0.50913413367E+02 -0.71794442540E+03  0.71987291376E+03  0.00000000000E+00 0.  1.
          5    1    4    4  501    0 -0.41591390229E+02  0.88760144847E+02 -0.17263881031E+03  0.19856947973E+03  0.41800000000E+01 0.  1.
         -5    1    4    4    0  501  0.70508761711E+02  0.69872213486E+02 -0.90168259780E+02  0.13416929294E+03  0.41800000000E+01 0.  1.
</event>
<event>
11    1  0.7157190E-009  0.1761349E+03  0.7561462E-02  0.1072813E+00
         22   -1    0    0    0    0  0.00000000000E+00  0.00000000000E+00  0.87437423644E+02  0.87437423644E+02  0.00000000000E+00 0. -1.
         22   -1    0    0    0    0 -0.00000000000E+00 -0.00000000000E+00 -0.16241192217E+04  0.16241192217E+04  0.00000000000E+00 0. -1.
        -24    2    1    2    0    0 -0.39438910474E+02 -0.75514781406E+02 -0.12151834861E+04  0.12209556530E+04  0.82485706885E+02 0.  0.
         25    2    1    2    0    0  0.96554761285E+02  0.16083469552E+03 -0.26189918862E+03  0.34557302223E+03  0.12505561755E+03 0.  0.
         24    2    1    2    0    0 -0.57115850811E+02 -0.85319914119E+02 -0.59599123264E+02  0.14502797004E+03  0.83302751705E+02 0.  0.
        -11    1    5    5    0    0 -0.67378202182E+02 -0.51734789129E+02 -0.68123205112E+02  0.10889022734E+03  0.00000000000E+00 0.  1.
         12    1    5    5    0    0  0.10262351371E+02 -0.33585124989E+02  0.85240818481E+01  0.36137742702E+02  0.00000000000E+00 0. -1.
         13    1    3    3    0    0 -0.27274903530E+02 -0.92149224944E+02 -0.90492626126E+03  0.91001480117E+03  0.00000000000E+00 0. -1.
        -14    1    3    3    0    0 -0.12164006944E+02  0.16634443538E+02 -0.31025722488E+03  0.31094085188E+03  0.00000000000E+00 0.  1.
          5    1    4    4  501    0  0.11822307113E+02  0.63257213406E+02 -0.14015680274E+02  0.65993588226E+02  0.41800000000E+01 0.  1.
         -5    1    4    4    0  501  0.84732454172E+02  0.97577482119E+02 -0.24788350835E+03  0.27957943400E+03  0.41800000000E+01 0.  1.
</event>
<event>
11    1  0.7157190E-009  0.1334901E+03  0.7561462E-02  0.1115054E+00
         22   -1    0    0    0    0  0.00000000000E+00  0.00000000000E+00  0.74748377771E+03  0.74748377771E+03  0.00000000000E+00 0. -1.
         22   -1    0    0    0    0 -0.00000000000E+00 -0.00000000000E+00 -0.12660954886E+03  0.12660954886E+03  0.00000000000E+00 0.  1.
         24    2    1    2    0    0  0.30539755160E+02 -0.31752901912E+02 -0.87538492490E+02  0.12474580738E+03  0.77185525621E+02 0.  0.
         25    2    1    2    0    0 -0.23771049178E+01 -0.18303414407E+02  0.24734170154E+03  0.27778964432E+03  0.12509397894E+03 0.  0.
        -24    2    1    2    0    0 -0.28162650243E+02  0.50056316319E+02  0.46107101980E+03  0.47155787487E+03  0.80508225556E+02 0.  0.
        -13    1    3    3    0    0  0.33045451206E+02  0.72788337149E+01 -0.77200445941E+02  0.84290522119E+02  0.00000000000E+00 0.  1.
         14    1    3    3    0    0 -0.25056960458E+01 -0.39031735627E+02 -0.10338046549E+02  0.40455285256E+02  0.00000000000E+00 0. -1.
         11    1    5    5    0    0 -0.40101209943E+02  0.28623255073E+02  0.42552246041E+03  0.42836522044E+03  0.00000000000E+00 0. -1.
        -12    1    5    5    0    0  0.11938559700E+02  0.21433061246E+02  0.35548559389E+02  0.43192654430E+02  0.00000000000E+00 0.  1.
          5    1    4    4  501    0 -0.30111973513E+02 -0.14371563760E+02  0.52345845444E+01  0.34031545206E+02  0.41800000000E+01 0. -1.
         -5    1    4    4    0  501  0.27734868595E+02 -0.39318506474E+01  0.24210711700E+03  0.24375809912E+03  0.41800000000E+01 0. -1.
</event>
<event>
11    1  0.7157190E-009  0.1296932E+03  0.7561462E-02  0.1119646E+00
         22   -1    0    0    0    0  0.00000000000E+00  0.00000000000E+00  0.13977490143E+04  0.13977490143E+04  0.00000000000E+00 0. -1.
         22   -1    0    0    0    0 -0.00000000000E+00 -0.00000000000E+00 -0.97340437757E+02  0.97340437757E+02  0.00000000000E+00 0.  1.
         24    2    1    2    0    0 -0.56954603700E+00  0.34917740320E+02 -0.47830652861E+02  0.10104834330E+03  0.81874436543E+02 0.  0.
         25    2    1    2    0    0 -0.58717041825E+01 -0.29412506164E+02  0.16882595711E+03  0.21224860322E+03  0.12509074046E+03 0.  0.
        -24    2    1    2    0    0  0.64412502195E+01 -0.55052341559E+01  0.11794132723E+04  0.11817925056E+04  0.74471887032E+02 0.  0.
        -13    1    3    3    0    0  0.11518706666E+02  0.31831361506E+01 -0.62806869433E+02  0.63933682883E+02  0.00000000000E+00 0.  1.
         14    1    3    3    0    0 -0.12088252703E+02  0.31734604170E+02  0.14976216572E+02  0.37114660419E+02  0.00000000000E+00 0. -1.
         13    1    5    5    0    0  0.18123660022E+01  0.76465380753E+01  0.11392660255E+04  0.11392931278E+04  0.00000000000E+00 0. -1.
        -14    1    5    5    0    0  0.46288842173E+01 -0.13151772231E+02  0.40147246867E+02  0.42499377795E+02  0.00000000000E+00 0.  1.
          5    1    4    4  501    0 -0.34077145786E+02  0.86930101023E+00 -0.39193242691E+01  0.34566472945E+02  0.41800000000E+01 0.  1.
         -5    1    4    4    0  501  0.28205441603E+02 -0.30281807175E+02  0.17274528138E+03  0.17768213028E+03  0.41800000000E+01 0.  1.
</event>
<event>
11    1  0.7157190E-009  0.1323191E+03  0.7561462E-02  0.1116452E+00
         22   -1    0    0    0    0  0.00000000000E+00  0.00000000000E+00  0.12657601762E+03  0.12657601762E+03  0.00000000000E+00 0.  1.
         22   -1    0    0    0    0 -0.00000000000E+00 -0.00000000000E+00 -0.30998183940E+04  0.30998183940E+04  0.00000000000E+00 0. -1.
         24    2    1    2    0    0  0.21672049257E+02  0.42761871809E+02 -0.20917554222E+04  0.20938674825E+04  0.80882831998E+02 0.  0.
         25    2    1    2    0    0  0.13799442938E+02 -0.31794987673E+02 -0.98625979573E+03  0.99476514247E+03  0.12509179882E+03 0.  0.
        -24    2    1    2    0    0 -0.35471492195E+02 -0.10966884137E+02  0.10477284162E+03  0.13776178658E+03  0.81378511877E+02 0.  0.
        -11    1    3    3    0    0  0.10835716208E+00 -0.31481271076E+00 -0.15434348289E+04  0.15434348648E+04  0.00000000000E+00 0.  1.
         12    1    3    3    0    0  0.21563692095E+02  0.43076684520E+02 -0.54832059334E+03  0.55043261772E+03  0.00000000000E+00 0. -1.
         11    1    5    5    0    0 -0.34721213705E+02 -0.41361043525E+02  0.43437314446E+02  0.69304392998E+02  0.00000000000E+00 0. -1.
        -12    1    5    5    0    0 -0.75027848999E+00  0.30394159388E+02  0.61335527175E+02  0.68457393586E+02  0.00000000000E+00 0.  1.
          5    1    4    4  501    0  0.81712342797E+01 -0.65971030228E+02 -0.28667654976E+03  0.29431252518E+03  0.41800000000E+01 0. -1.
         -5    1    4    4    0  501  0.56282086584E+01  0.34176042555E+02 -0.69958324597E+03  0.70045261729E+03  0.41800000000E+01 0. -1.
</event>
<event>
11    1  0.7157190E-009  0.1550652E+03  0.7561462E-02  0.1091813E+00
         22   -1    0    0    0    0  0.00000000000E+00  0.00000000000E+00  0.42087202107E+03  0.42087202107E+03  0.00000000000E+00 0.  1.
         22   -1    0    0    0    0 -0.00000000000E+00 -0.00000000000E+00 -0.15367934003E+03  0.15367934003E+03  0.00000000000E+00 0. -1.
         24    2    1    2    0    0 -0.52780689559E+02 -0.13574412727E+02 -0.49338101438E+02  0.10800578293E+03  0.79126070424E+02 0.  0.
         25    2    1    2    0    0  0.13346835730E+03 -0.57605635440E+01  0.74077328569E+02  0.19743705286E+03  0.12508778014E+03 0.  0.
        -24    2    1    2    0    0 -0.80687667736E+02  0.19334976271E+02  0.24245345391E+03  0.26910852532E+03  0.82166781936E+02 0.  0.
        -13    1    3    3    0    0 -0.55176201464E+02 -0.39948028359E+02 -0.26696186883E+02  0.73163820101E+02  0.00000000000E+00 0.  1.
         14    1    3    3    0    0  0.23955119046E+01  0.26373615632E+02 -0.22641914554E+02  0.34841962824E+02  0.00000000000E+00 0. -1.
         11    1    5    5    0    0 -0.70494190396E+02  0.47478399548E+02  0.19850628608E+03  0.21593604358E+03  0.00000000000E+00 0. -1.
        -12    1    5    5    0    0 -0.10193477340E+02 -0.28143423276E+02  0.43947167829E+02  0.53172481738E+02  0.00000000000E+00 0.  1.
          5    1    4    4  501    0  0.14061388503E+03 -0.39854195656E+02  0.70036120228E+02  0.16212079482E+03  0.41800000000E+01 0. -1.
         -5    1    4    4    0  501 -0.71455277359E+01  0.34093632112E+02  0.40412083409E+01  0.35316258042E+02  0.41800000000E+01 0. -1.
</event>
<event>
11    1  0.7157190E-009  0.1561841E+03  0.7561462E-02  0.1090722E+00
         22   -1    0    0    0    0  0.00000000000E+00  0.00000000000E+00  0.21986446325E+03  0.21986446325E+03  0.00000000000E+00 0.  1.
         22   -1    0    0    0    0 -0.00000000000E+00 -0.00000000000E+00 -0.35792728984E+04  0.35792728984E+04  0.00000000000E+00 0.  1.
         24    2    1    2    0    0 -0.47285008647E+02 -0.68007414929E+02 -0.34616311145E+04  0.34635500559E+04  0.80175655876E+02 0.  0.
         25    2    1    2    0    0 -0.41202703720E+02 -0.20226533173E+00 -0.41089872295E+02  0.13795792250E+03  0.12508519925E+03 0.  0.
        -24    2    1    2    0    0  0.88487712367E+02  0.68209680260E+02  0.14331255166E+03  0.19762938330E+03  0.77693307031E+02 0.  0.
        -11    1    3    3    0    0 -0.31779890087E+02 -0.84558358357E+02 -0.30032602612E+04  0.30046184905E+04  0.00000000000E+00 0.  1.
         12    1    3    3    0    0 -0.15505118560E+02  0.16550943429E+02 -0.45837085337E+03  0.45893156532E+03  0.00000000000E+00 0. -1.
         13    1    5    5    0    0  0.60166613843E+02  0.68802270234E+02  0.14249719321E+03  0.16929035378E+03  0.00000000000E+00 0. -1.
        -14    1    5    5    0    0  0.28321098524E+02 -0.59258997393E+00  0.81535845175E+00  0.28339029515E+02  0.00000000000E+00 0.  1.
          5    1    4    4  501    0 -0.33822552965E+02 -0.67701428306E+00  0.42193777655E+02  0.54242148835E+02  0.41800000000E+01 0.  1.
         -5    1    4    4    0  501 -0.73801507541E+01  0.47474895133E+00 -0.83283649951E+02  0.83715773668E+02  0.41800000000E+01 0.  1.
</event>
<event>
11    1  0.7157190E-009  0.1915011E+03  0.7561462E-02  0.1060702E+00
         22   -1    0    0    0    0  0.00000000000E+00  0.00000000000E+00  0.74745594484E+03  0.74745594484E+03  0.00000000000E+00 0.  1.
         22   -1    0    0    0    0 -0.00000000000E+00 -0.00000000000E+00 -0.31455246580E+03  0.31455246580E+03  0.00000000000E+00 0. -1.
        -24    2    1    2    0    0  0.77140346721E+02  0.31940882271E+02 -0.16457056761E+03  0.20528111422E+03  0.89922250180E+02 0.  0.
         25    2    1    2    0    0 -0.64798930248E+02 -0.17415420529E+03 -0.13203401815E+02  0.22438804012E+03  0.12508826543E+03 0.  0.
         24    2    1    2    0    0 -0.12341416473E+02  0.14221332302E+03  0.61067744847E+03  0.63233925630E+03  0.80926195933E+02 0.  0.
        -13    1    5    5    0    0  0.21322815019E+02  0.98774197371E+02  0.48095631230E+03  0.49145699593E+03  0.00000000000E+00 0.  1.
         14    1    5    5    0    0 -0.33664231492E+02  0.43439125647E+02  0.12972113617E+03  0.14088226037E+03  0.00000000000E+00 0. -1.
         13    1    3    3    0    0  0.43263915858E+02 -0.38421262629E+01 -0.14649012774E+03  0.15279360548E+03  0.00000000000E+00 0. -1.
        -14    1    3    3    0    0  0.33876430864E+02  0.35783008534E+02 -0.18080439874E+02  0.52487508741E+02  0.00000000000E+00 0.  1.
          5    1    4    4  501    0 -0.97585471199E+02 -0.13096202483E+03 -0.32692704939E+02  0.16661410953E+03  0.41800000000E+01 0.  1.
         -5    1    4    4    0  501  0.32786540951E+02 -0.43192180454E+02  0.19489303125E+02  0.57773930593E+02  0.41800000000E+01 0.  1.
</event>
<event>
11    1  0.7157190E-009  0.1452712E+03  0.7561462E-02  0.1101811E+00
         22   -1    0    0    0    0  0.00000000000E+00  0.00000000000E+00  0.11357984511E+04  0.11357984511E+04  0.00000000000E+00 0.  1.
         22   -1    0    0    0    0 -0.00000000000E+00 -0.00000000000E+00 -0.29615734687E+03  0.29615734687E+03  0.00000000000E+00 0. -1.
        -24    2    1    2    0    0  0.98894473773E+01 -0.72897300384E+02 -0.26070833247E+03  0.28299675402E+03  0.81893287856E+02 0.  0.
         25    2    1    2    0    0  0.20922685572E+02  0.84701997302E+02  0.23998681196E+03  0.28434243332E+03  0.12507902442E+03 0.  0.
         24    2    1    2    0    0 -0.30812132949E+02 -0.11804696918E+02  0.86036262477E+03  0.86461661067E+03  0.79052507419E+02 0.  0.
        -11    1    5    5    0    0 -0.40047331795E+02 -0.36629383168E+01  0.83897715713E+03  0.83994040032E+03  0.00000000000E+00 0.  1.
         12    1    5    5    0    0  0.92351988458E+01 -0.81417586009E+01  0.21385467637E+02  0.24676210343E+02  0.00000000000E+00 0. -1.
         11    1    3    3    0    0  0.44240741815E+02 -0.31166815343E+02 -0.10414493493E+03  0.11736601334E+03  0.00000000000E+00 0. -1.
        -12    1    3    3    0    0 -0.34351294438E+02 -0.41730485040E+02 -0.15656339754E+03  0.16563074068E+03  0.00000000000E+00 0.  1.
          5    1    4    4  501    0  0.36959085479E+02 -0.14075013451E+02  0.12830952846E+03  0.13433126031E+03  0.41800000000E+01 0. -1.
         -5    1    4    4    0  501 -0.16036399907E+02  0.98777010752E+02  0.11167728350E+03  0.15001117300E+03  0.41800000000E+01 0. -1.
</event>
<event>
11    1  0.7157190E-009  0.1645158E+03  0.7561462E-02  0.1082905E+00
         22   -1    0    0    0    0  0.00000000000E+00  0.00000000000E+00  0.38702181564E+03  0.38702181564E+03  0.00000000000E+00 0. -1.
         22   -1    0    0    0    0 -0.00000000000E+00 -0.00000000000E+00 -0.26819897939E+03  0.26819897939E+03  0.00000000000E+00 0. -1.
         24    2    1    2    0    0  0.25265300322E+02 -0.26389043904E+02 -0.19070787913E+03  0.21245289806E+03  0.86209174078E+02 0.  0.
         25    2    1    2    0    0 -0.11129416631E+03 -0.33083012244E+02  0.10918015211E+03  0.20260432184E+03  0.12508928195E+03 0.  0.
        -24    2    1    2    0    0  0.86028865991E+02  0.59472056147E+02  0.20035056327E+03  0.24016357513E+03  0.81242251118E+02 0.  0.
        -13    1    3    3    0    0 -0.17488964075E+02 -0.36094901977E+02 -0.44943941611E+02  0.60238390588E+02  0.00000000000E+00 0.  1.
         14    1    3    3    0    0  0.42754264397E+02  0.97058580734E+01 -0.14576393752E+03  0.15221450748E+03  0.00000000000E+00 0. -1.
         11    1    5    5    0    0  0.66471082819E+02  0.72932098736E+02  0.19033753991E+03  0.21439653676E+03  0.00000000000E+00 0. -1.
        -12    1    5    5    0    0  0.19557783172E+02 -0.13460042588E+02  0.10013023364E+02  0.25767038363E+02  0.00000000000E+00 0.  1.
          5    1    4    4  501    0 -0.13538887499E+03 -0.40708695120E+02  0.10608565964E+03  0.17680210664E+03  0.41800000000E+01 0.  1.
         -5    1    4    4    0  501  0.24094708680E+02  0.76256828766E+01  0.30944924763E+01  0.25802215203E+02  0.41800000000E+01 0.  1.
</event>
<event>
11    1  0.7157190E-009  0.1721268E+03  0.7561462E-02  0.1076196E+00
         22   -1    0    0    0    0  0.00000000000E+00  0.00000000000E+00  0.67463507543E+03  0.67463507543E+03  0.00000000000E+00 0. -1.
         22   -1    0    0    0    0 -0.00000000000E+00 -0.00000000000E+00 -0.12761954606E+04  0.12761954606E+04  0.00000000000E+00 0. -1.
         24    2    1    2    0    0  0.56893066932E+02 -0.10404267922E+03 -0.11624920393E+04  0.11714279744E+04  0.82426073295E+02 0.  0.
         25    2    1    2    0    0 -0.48938627011E+02  0.10209413424E+03 -0.39780928704E+02  0.17334527385E+03  0.12509140745E+03 0.  0.
        -24    2    1    2    0    0 -0.79544399206E+01  0.19485449776E+01  0.60071258284E+03  0.60605728780E+03  0.79892170952E+02 0.  0.
        -13    1    3    3    0    0  0.51224077558E+02 -0.88598484828E+02 -0.59783768901E+03  0.60653400567E+03  0.00000000000E+00 0.  1.
         14    1    3    3    0    0  0.56689893735E+01 -0.15444194394E+02 -0.56465435031E+03  0.56489396872E+03  0.00000000000E+00 0. -1.
         13    1    5    5    0    0  0.17835333266E+02 -0.29179574974E+02  0.39040365918E+03  0.39189866523E+03  0.00000000000E+00 0. -1.
        -14    1    5    5    0    0 -0.25789773187E+02  0.31128119951E+02  0.21030892366E+03  0.21415862258E+03  0.00000000000E+00 0.  1.
          5    1    4    4  501    0  0.15397162551E+02  0.90492464286E+02  0.80417002746E+01  0.92239362804E+02  0.41800000000E+01 0.  1.
         -5    1    4    4    0  501 -0.64335789562E+02  0.11601669958E+02 -0.47822628978E+02  0.81105911047E+02  0.41800000000E+01 0.  1.
</event>
<event>
11    1  0.7157190E-009  0.1682510E+03  0.7561462E-02  0.1079564E+00
         22   -1    0    0    0    0  0.00000000000E+00  0.00000000000E+00  0.64592102449E+03  0.64592102449E+03  0.00000000000E+00 0. -1.
         22   -1    0    0    0    0 -0.00000000000E+00 -0.00000000000E+00 -0.36201567436E+03  0.36201567436E+03  0.00000000000E+00 0. -1.
         24    2    1    2    0    0  0.21884251404E+02 -0.11613420340E+02 -0.29643898474E+03  0.30831763769E+03  0.81054932274E+02 0.  0.
         25    2    1    2    0    0  0.65063384484E+02  0.85272244425E+02  0.86085213549E+02  0.18591223317E+03  0.12509234501E+03 0.  0.
        -24    2    1    2    0    0 -0.86947635888E+02 -0.73658824085E+02  0.49425912132E+03  0.51370682799E+03  0.81345635139E+02 0.  0.
        -13    1    3    3    0    0  0.45284247430E+02  0.18689038947E+01 -0.97089887553E+02  0.10714757175E+03  0.00000000000E+00 0.  1.
         14    1    3    3    0    0 -0.23399996026E+02 -0.13482324235E+02 -0.19934909719E+03  0.20117006594E+03  0.00000000000E+00 0. -1.
         13    1    5    5    0    0 -0.61761919735E+02 -0.90598452372E+02  0.38465116325E+03  0.39997391377E+03  0.00000000000E+00 0. -1.
        -14    1    5    5    0    0 -0.25185716153E+02  0.16939628287E+02  0.10960795807E+03  0.11373291422E+03  0.00000000000E+00 0.  1.
          5    1    4    4  501    0 -0.26966988391E+02  0.62783087655E+02  0.23892511919E+02  0.72506958867E+02  0.41800000000E+01 0.  1.
         -5    1    4    4    0  501  0.92030372875E+02  0.22489156770E+02  0.62192701630E+02  0.11340527430E+03  0.41800000000E+01 0.  1.
</event>
<event>
11    1  0.7157190E-009  0.1416910E+03  0.7561462E-02  0.1105685E+00
         22   -1    0    0    0    0  0.00000000000E+00  0.00000000000E+00  0.31445036653E+03  0.31445036653E+03  0.00000000000E+00 0. -1.
         22   -1    0    0    0    0 -0.00000000000E+00 -0.00000000000E+00 -0.22738545740E+03  0.22738545740E+03  0.00000000000E+00 0.  1.
         24    2    1    2    0    0 -0.16326044672E+02 -0.54835230962E+02 -0.11178730831E+03  0.14959951850E+03  0.81302960260E+02 0.  0.
         25    2    1    2    0    0  0.36292605295E+02  0.98020070671E+02 -0.10125353924E+02  0.16332548001E+03  0.12509037603E+03 0.  0.
        -24    2    1    2    0    0 -0.19966560623E+02 -0.43184839709E+02  0.20897757136E+03  0.22891082541E+03  0.80404892484E+02 0.  0.
        -11    1    3    3    0    0 -0.30093398145E+02 -0.52917464973E+02 -0.32315868877E+02  0.68921593803E+02  0.00000000000E+00 0.  1.
         12    1    3    3    0    0  0.13767353473E+02 -0.19177659885E+01 -0.79471439429E+02  0.80677924694E+02  0.00000000000E+00 0. -1.
         13    1    5    5    0    0 -0.49162720554E+02 -0.21816517101E+02  0.15375792040E+03  0.16289392744E+03  0.00000000000E+00 0. -1.
        -14    1    5    5    0    0  0.29196159931E+02 -0.21368322608E+02  0.55219650957E+02  0.66016897970E+02  0.00000000000E+00 0.  1.
          5    1    4    4  501    0  0.67583867823E+02  0.81904880864E+02 -0.43323016481E+02  0.11476212292E+03  0.41800000000E+01 0.  1.
         -5    1    4    4    0  501 -0.31291262528E+02  0.16115189807E+02  0.33197662557E+02  0.48563357095E+02  0.41800000000E+01 0.  1.
</event>
<event>
11    1  0.1006946E-008  0.1626042E+03  0.7561462E-02  0.1084653E+00
         22   -1    0    0    0    0  0.00000000000E+00  0.00000000000E+00  0.15374367561E+04  0.15374367561E+04  0.00000000000E+00 0.  1.
         22   -1    0    0    0    0 -0.00000000000E+00 -0.00000000000E+00 -0.11166984726E+04  0.11166984726E+04  0.00000000000E+00 0. -1.
         24    2    1    2    0    0 -0.56256643416E+02 -0.40918416555E+02 -0.86732806488E+03  0.87365657729E+03  0.78604810119E+02 0.  0.
         25    2    1    2    0    0  0.15688559376E+03  0.17336677781E+02 -0.20164792349E+03  0.28499593532E+03  0.12508856132E+03 0.  0.
        -24    2    1    2    0    0 -0.10062895035E+03  0.23581738774E+02  0.14897142719E+04  0.14954827160E+04  0.80855785829E+02 0.  0.
        -13    1    3    3    0    0 -0.55795112789E+02 -0.11667175159E+02 -0.28780233817E+03  0.29339291648E+03  0.00000000000E+00 0.  1.
         14    1    3    3    0    0 -0.46153062731E+00 -0.29251241396E+02 -0.57952572671E+03  0.58026366081E+03  0.00000000000E+00 0. -1.
         11    1    5    5    0    0 -0.64181098177E+02  0.15347271101E+02  0.42320615584E+03  0.42832021017E+03  0.00000000000E+00 0. -1.
        -12    1    5    5    0    0 -0.36447852169E+02  0.82344676729E+01  0.10665081160E+04  0.10671625059E+04  0.00000000000E+00 0.  1.
          5    1    4    4  501    0 -0.11605833498E+02 -0.12071806976E+02  0.37638097638E+01  0.17665292491E+02  0.41800000000E+01 0. -1.
         -5    1    4    4    0  501  0.16849142726E+03  0.29408484758E+02 -0.20541173325E+03  0.26733064282E+03  0.41800000000E+01 0. -1.
</event>
<event>
11    1  0.7157190E-009  0.1379456E+03  0.7561462E-02  0.1109874E+00
         22   -1    0    0    0    0  0.00000000000E+00  0.00000000000E+00  0.57221381665E+03  0.57221381665E+03  0.00000000000E+00 0.  1.
         22   -1    0    0    0    0 -0.00000000000E+00 -0.00000000000E+00 -0.17699786723E+03  0.17699786723E+03  0.00000000000E+00 0. -1.
        -24    2    1    2    0    0 -0.60436551846E+02 -0.18824889700E+02 -0.56997400256E+02  0.11743726266E+03  0.80844627237E+02 0.  0.
         25    2    1    2    0    0  0.47415190626E+02  0.13304779229E+02 -0.34081231847E+02  0.13868828718E+03  0.12509073980E+03 0.  0.
         24    2    1    2    0    0  0.13021361220E+02  0.55201104710E+01  0.48629458153E+03  0.49308613405E+03  0.80321155967E+02 0.  0.
        -13    1    5    5    0    0 -0.11333659388E+02 -0.12650481255E+02  0.41790283330E+03  0.41824785067E+03  0.00000000000E+00 0.  1.
         14    1    5    5    0    0  0.24355020609E+02  0.18170591726E+02  0.68391748227E+02  0.74838283372E+02  0.00000000000E+00 0. -1.
         11    1    3    3    0    0 -0.23072333601E+02 -0.73900702284E+01 -0.71704208143E+02  0.75686453088E+02  0.00000000000E+00 0. -1.
        -12    1    3    3    0    0 -0.37364218245E+02 -0.11434819472E+02  0.14706807886E+02  0.41750809568E+02  0.00000000000E+00 0.  1.
          5    1    4    4  501    0  0.75071194381E+02 -0.29357114639E+02 -0.34232362965E+02  0.87674691217E+02  0.41800000000E+01 0. -1.
         -5    1    4    4    0  501 -0.27656003755E+02  0.42661893868E+02  0.15113111867E+00  0.51013595960E+02  0.41800000000E+01 0. -1.
</event>
<event>
11    1  0.7157190E-009  0.1684646E+03  0.7561462E-02  0.1079376E+00
         22   -1    0    0    0    0  0.00000000000E+00  0.00000000000E+00  0.18924958768E+04  0.18924958768E+04  0.00000000000E+00 0.  1.
         22   -1    0    0    0    0 -0.00000000000E+00 -0.00000000000E+00 -0.20116014603E+04  0.20116014603E+04  0.00000000000E+00 0. -1.
        -24    2    1    2    0    0  0.20086389193E+02  0.56385518124E+02 -0.19522419551E+04  0.19548123158E+04  0.80372563766E+02 0.  0.
         25    2    1    2    0    0 -0.13134705675E+03 -0.41778678032E+02  0.10131838866E+03  0.21191465936E+03  0.12507957353E+03 0.  0.
         24    2    1    2    0    0  0.11126066755E+03 -0.14606840092E+02  0.17318179829E+04  0.17373703620E+04  0.81669779857E+02 0.  0.
        -11    1    5    5    0    0  0.92858387801E+02 -0.39753861666E+02  0.15099441400E+04  0.15133189867E+04  0.00000000000E+00 0.  1.
         12    1    5    5    0    0  0.18402279754E+02  0.25147021574E+02  0.22187384298E+03  0.22405137534E+03  0.00000000000E+00 0. -1.
         13    1    3    3    0    0 -0.17289054962E+02  0.23550114817E+02 -0.14075276560E+04  0.14078308214E+04  0.00000000000E+00 0. -1.
        -14    1    3    3    0    0  0.37375444154E+02  0.32835403306E+02 -0.54471429915E+03  0.54698149441E+03  0.00000000000E+00 0.  1.
          5    1    4    4  501    0 -0.95981943608E+01  0.32864919845E+02  0.48669043696E+02  0.59652129096E+02  0.41800000000E+01 0. -1.
         -5    1    4    4    0  501 -0.12174886239E+03 -0.74643597877E+02  0.52649344968E+02  0.15226253026E+03  0.41800000000E+01 0. -1.
</event>
<event>
11    1  0.7157190E-009  0.2376725E+03  0.7561462E-02  0.1030679E+00
         22   -1    0    0    0    0  0.00000000000E+00  0.00000000000E+00  0.26203889180E+03  0.26203889180E+03  0.00000000000E+00 0.  1.
         22   -1    0    0    0    0 -0.00000000000E+00 -0.00000000000E+00 -0.11606089723E+04  0.11606089723E+04  0.00000000000E+00 0. -1.
        -24    2    1    2    0    0 -0.39685991121E+02 -0.18823003620E+01 -0.79674657148E+03  0.80193223613E+03  0.81924912150E+02 0.  0.
         25    2    1    2    0    0 -0.16843646796E+03 -0.47085613487E+01 -0.26942385497E+03  0.34151099921E+03  0.12509010619E+03 0.  0.
         24    2    1    2    0    0  0.20812245908E+03  0.65908617107E+01  0.16760034600E+03  0.27920462872E+03  0.80665676005E+02 0.  0.
        -11    1    5    5    0    0  0.12843794880E+03 -0.33415003398E+02  0.84574873926E+02  0.15737146642E+03  0.00000000000E+00 0.  1.
         12    1    5    5    0    0  0.79684510286E+02  0.40005865109E+02  0.83025472078E+02  0.12183316230E+03  0.00000000000E+00 0. -1.
         11    1    3    3    0    0  0.82261616328E+01  0.19876405794E+02 -0.50633641054E+03  0.50679315493E+03  0.00000000000E+00 0. -1.
        -12    1    3    3    0    0 -0.47912152754E+02 -0.21758706156E+02 -0.29041016094E+03  0.29513908120E+03  0.00000000000E+00 0.  1.
          5    1    4    4  501    0 -0.13512385168E+03 -0.47008642028E+02 -0.13543926098E+03  0.19705210867E+03  0.41800000000E+01 0. -1.
         -5    1    4    4    0  501 -0.33312616285E+02  0.42300080679E+02 -0.13398459399E+03  0.14445889054E+03  0.41800000000E+01 0. -1.
</event>
<event>
11    1  0.7157190E-009  0.1443056E+03  0.7561462E-02  0.1102844E+00
         22   -1    0    0    0    0  0.00000000000E+00  0.00000000000E+00  0.76770347739E+03  0.76770347739E+03  0.00000000000E+00 0.  1.
         22   -1    0    0    0    0 -0.00000000000E+00 -0.00000000000E+00 -0.55585045573E+03  0.55585045573E+03  0.00000000000E+00 0. -1.
        -24    2    1    2    0    0  0.63595814393E+02 -0.30520971261E+02 -0.45407164697E+03  0.46820900875E+03  0.89792304765E+02 0.  0.
         25    2    1    2    0    0 -0.57878117754E+02  0.73889131125E+02 -0.24219070898E+02  0.15825159880E+03  0.12509006721E+03 0.  0.
         24    2    1    2    0    0 -0.57176966383E+01 -0.43368159864E+02  0.69014373953E+03  0.69709332558E+03  0.87904687067E+02 0.  0.
        -11    1    5    5    0    0 -0.26529143343E+02 -0.60854783037E+02  0.37951349222E+03  0.38527599308E+03  0.00000000000E+00 0.  1.
         12    1    5    5    0    0  0.20811446704E+02  0.17486623173E+02  0.31063024731E+03  0.31181733250E+03  0.00000000000E+00 0. -1.
         13    1    3    3    0    0  0.74622493211E+02 -0.49396668082E+01 -0.40442163817E+03  0.41127822483E+03  0.00000000000E+00 0. -1.
        -14    1    3    3    0    0 -0.11026678818E+02 -0.25581304453E+02 -0.49650008797E+02  0.56930783912E+02  0.00000000000E+00 0.  1.
          5    1    4    4  501    0 -0.37985701629E+02  0.20662512865E+02  0.48994037459E+02  0.65480845082E+02  0.41800000000E+01 0.  1.
         -5    1    4    4    0  501 -0.19892416125E+02  0.53226618260E+02 -0.73213108356E+02  0.92770753721E+02  0.41800000000E+01 0.  1.
</event>
<event>
11    1  0.7157190E-009  0.1451829E+03  0.7561462E-02  0.1101905E+00
         22   -1    0    0    0    0  0.00000000000E+00  0.00000000000E+00  0.61288108887E+03  0.61288108887E+03  0.00000000000E+00 0. -1.
         22   -1    0    0    0    0 -0.00000000000E+00 -0.00000000000E+00 -0.56907583223E+03  0.56907583223E+03  0.00000000000E+00 0.  1.
        -24    2    1    2    0    0 -0.24313965193E+02 -0.28313415786E+02 -0.52770399428E+03  0.53508836849E+03  0.80344496398E+02 0.  0.
         25    2    1    2    0    0  0.90491446209E+02  0.44567237770E+02  0.17788755737E+03  0.23971985744E+03  0.12508671578E+03 0.  0.
         24    2    1    2    0    0 -0.66177481017E+02 -0.16253821984E+02  0.39362169356E+03  0.40714869517E+03  0.78666235561E+02 0.  0.
        -13    1    5    5    0    0 -0.45555543342E+02  0.22504344925E+02  0.12449742938E+03  0.13446695874E+03  0.00000000000E+00 0.  1.
         14    1    5    5    0    0 -0.20621937674E+02 -0.38758166909E+02  0.26912426418E+03  0.27268173643E+03  0.00000000000E+00 0. -1.
         11    1    3    3    0    0  0.15375046645E+02 -0.18564817233E+02 -0.48650108036E+02  0.54294359838E+02  0.00000000000E+00 0. -1.
        -12    1    3    3    0    0 -0.39689011838E+02 -0.97485985526E+01 -0.47905388624E+03  0.48079400865E+03  0.00000000000E+00 0.  1.
          5    1    4    4  501    0 -0.29450299608E+01 -0.19436585730E+02 -0.83059040813E+01  0.21746597640E+02  0.41800000000E+01 0. -1.
         -5    1    4    4    0  501  0.93436476170E+02  0.64003823500E+02  0.18619346145E+03  0.21797325980E+03  0.41800000000E+01 0. -1.
</event>
<event>
11    1  0.7157190E-009  0.1476915E+03  0.7561462E-02  0.1099261E+00
         22   -1    0    0    0    0  0.00000000000E+00  0.00000000000E+00  0.11292958603E+03  0.11292958603E+03  0.00000000000E+00 0. -1.
         22   -1    0    0    0    0 -0.00000000000E+00 -0.00000000000E+00 -0.23705004512E+04  0.23705004512E+04  0.00000000000E+00 0.  1.
         24    2    1    2    0    0  0.16335853306E+02  0.57158607885E+02 -0.18387341251E+04  0.18418264630E+04  0.88586513517E+02 0.  0.
         25    2    1    2    0    0  0.20018127598E+02  0.16404539287E+02 -0.48990483793E+03  0.50628523434E+03  0.12509258150E+03 0.  0.
        -24    2    1    2    0    0 -0.36353980904E+02 -0.73563147172E+02  0.71068097894E+02  0.13531833987E+03  0.80791274382E+02 0.  0.
        -13    1    3    3    0    0  0.13367699000E+02  0.59675478611E+02 -0.18361205378E+04  0.18371386685E+04  0.00000000000E+00 0.  1.
         14    1    3    3    0    0  0.29681543069E+01 -0.25168707262E+01 -0.26135873256E+01  0.46877944654E+01  0.00000000000E+00 0. -1.
         13    1    5    5    0    0 -0.52200977721E+02 -0.71807417432E+02  0.77770127597E+02  0.11802304868E+03  0.00000000000E+00 0. -1.
        -14    1    5    5    0    0  0.15846996817E+02 -0.17557297405E+01 -0.67020297036E+01  0.17295291185E+02  0.00000000000E+00 0.  1.
          5    1    4    4  501    0 -0.15399567802E+02 -0.47627557823E+02 -0.13872870743E+03  0.14754205373E+03  0.41800000000E+01 0. -1.
         -5    1    4    4    0  501  0.35417695399E+02  0.64032097111E+02 -0.35117613049E+03  0.35874318061E+03  0.41800000000E+01 0. -1.
</event>
<event>
11    1  0.7157190E-009  0.1738599E+03  0.7561462E-02  0.1074721E+00
         22   -1    0    0    0    0  0.00000000000E+00  0.00000000000E+00  0.53647208281E+03  0.53647208281E+03  0.00000000000E+00 0.  1.
         22   -1    0    0    0    0 -0.00000000000E+00 -0.00000000000E+00 -0.50099863221E+03  0.50099863221E+03  0.00000000000E+00 0.  1.
         24    2    1    2    0    0 -0.74437760719E+02  0.10130266213E+03 -0.43518351122E+03  0.46044533922E+03  0.82595474445E+02 0.  0.
         25    2    1    2    0    0  0.49100594325E+02 -0.58875162941E+02  0.65613375918E+02  0.16069742691E+03  0.12506556178E+03 0.  0.
        -24    2    1    2    0    0  0.25337166393E+02 -0.42427499189E+02  0.40504358590E+03  0.41632794889E+03  0.82623179912E+02 0.  0.
        -11    1    3    3    0    0  0.37798006634E+01  0.63161962625E+02 -0.17416613927E+03  0.18530397859E+03  0.00000000000E+00 0.  1.
         12    1    3    3    0    0 -0.78217561382E+02  0.38140699505E+02 -0.26101737195E+03  0.27514136063E+03  0.00000000000E+00 0. -1.
         11    1    5    5    0    0 -0.25794608092E+02 -0.10340157198E+02  0.61044758728E+02  0.67072671228E+02  0.00000000000E+00 0. -1.
        -12    1    5    5    0    0  0.51131774485E+02 -0.32087341991E+02  0.34399882717E+03  0.34925527766E+03  0.00000000000E+00 0.  1.
          5    1    4    4  501    0  0.91488896983E+02 -0.39096961083E+02  0.47950057106E+02  0.11052362197E+03  0.41800000000E+01 0. -1.
         -5    1    4    4    0  501 -0.42388302657E+02 -0.19778201858E+02  0.17663318812E+02  0.50173804942E+02  0.41800000000E+01 0. -1.
</event>
<event>
11    1  0.7157190E-009  0.1791896E+03  0.7561462E-02  0.1070300E+00
         22   -1    0    0    0    0  0.00000000000E+00  0.00000000000E+00  0.38168044710E+03  0.38168044710E+03  0.00000000000E+00 0.  1.
         22   -1    0    0    0    0 -0.00000000000E+00 -0.00000000000E+00 -0.89473256866E+03  0.89473256866E+03  0.00000000000E+00 0. -1.
         24    2    1    2    0    0 -0.23663520855E+02 -0.12572717693E+03 -0.73963116428E+03  0.75486451367E+03  0.79993059678E+02 0.  0.
         25    2    1    2    0    0  0.11853440730E+03  0.10873823632E+03 -0.56849765450E+02  0.21155084118E+03  0.12508977904E+03 0.  0.
        -24    2    1    2    0    0 -0.94870886443E+02  0.16988940617E+02  0.28342880816E+03  0.30999766091E+03  0.80483235999E+02 0.  0.
        -11    1    3    3    0    0  0.10991064733E+02 -0.41084893801E+02 -0.42746417430E+03  0.42957466442E+03  0.00000000000E+00 0.  1.
         12    1    3    3    0    0 -0.34654585588E+02 -0.84642283133E+02 -0.31216698998E+03  0.32528984926E+03  0.00000000000E+00 0. -1.
         13    1    5    5    0    0 -0.35668490519E+02  0.26720976422E+02  0.42047932762E+02  0.61272183300E+02  0.00000000000E+00 0. -1.
        -14    1    5    5    0    0 -0.59202395924E+02 -0.97320358047E+01  0.24138087540E+03  0.24872547761E+03  0.00000000000E+00 0.  1.
          5    1    4    4  501    0  0.14754061281E+02  0.97954186599E+02 -0.23017009529E+02  0.10178388932E+03  0.41800000000E+01 0. -1.
         -5    1    4    4    0  501  0.10378034602E+03  0.10784049718E+02 -0.33832755921E+02  0.10976695186E+03  0.41800000000E+01 0. -1.
</event>
<event>
11    1  0.7157190E-009  0.1731012E+03  0.7561462E-02  0.1075364E+00
         22   -1    0    0    0    0  0.00000000000E+00  0.00000000000E+00  0.12021811686E+04  0.12021811686E+04  0.00000000000E+00 0.  1.
         22   -1    0    0    0    0 -0.00000000000E+00 -0.00000000000E+00 -0.11527631873E+04  0.11527631873E+04  0.00000000000E+00 0. -1.
         24    2    1    2    0    0 -0.11318371991E+03 -0.39494028232E+02 -0.10595605744E+04  0.10692603607E+04  0.79238724639E+02 0.  0.
         25    2    1    2    0    0  0.12262343282E+03 -0.19254643014E+01  0.22471846649E+01  0.17519395636E+03  0.12509060243E+03 0.  0.
        -24    2    1    2    0    0 -0.94397129125E+01  0.41419492534E+02  0.11067313710E+04  0.11104900389E+04  0.80802947837E+02 0.  0.
        -11    1    3    3    0    0  0.55530878216E+01 -0.37142118456E+01 -0.26468851548E+03  0.26477281276E+03  0.00000000000E+00 0.  1.
         12    1    3    3    0    0 -0.11873680773E+03 -0.35779816387E+02 -0.79487205888E+03  0.80448754792E+03  0.00000000000E+00 0. -1.
         13    1    5    5    0    0 -0.27269237854E+02  0.14123328252E+02  0.14548136434E+03  0.14868727956E+03  0.00000000000E+00 0. -1.
        -14    1    5    5    0    0  0.17829524942E+02  0.27296164282E+02  0.96125000666E+03  0.96180275932E+03  0.00000000000E+00 0.  1.
          5    1    4    4  501    0  0.71363611143E+02  0.39284525774E+01  0.63010093897E+02  0.95372648427E+02  0.41800000000E+01 0. -1.
         -5    1    4    4    0  501  0.51259821680E+02 -0.58539168789E+01 -0.60762909232E+02  0.79821307932E+02  0.41800000000E+01 0. -1.
</event>
<event>
11    1  0.7157190E-009  0.1421076E+03  0.7561462E-02  0.1105228E+00
         22   -1    0    0    0    0  0.00000000000E+00  0.00000000000E+00  0.47080968623E+03  0.47080968623E+03  0.00000000000E+00 0.  1.
         22   -1    0    0    0    0 -0.00000000000E+00 -0.00000000000E+00 -0.38385905481E+03  0.38385905481E+03  0.00000000000E+00 0.  1.
         24    2    1    2    0    0  0.30310442072E+02 -0.62430525661E+02 -0.33472641946E+03  0.34973068641E+03  0.73847706115E+02 0.  0.
         25    2    1    2    0    0 -0.69085686165E+01  0.37143550208E+02  0.81888012635E+02  0.15420922424E+03  0.12508983406E+03 0.  0.
        -24    2    1    2    0    0 -0.23401873455E+02  0.25286975453E+02  0.33978903825E+03  0.35072883039E+03  0.79793753792E+02 0.  0.
        -11    1    3    3    0    0 -0.69418242490E+01 -0.46824825301E+02 -0.26463404864E+03  0.26883439677E+03  0.00000000000E+00 0.  1.
         12    1    3    3    0    0  0.37252266321E+02 -0.15605700360E+02 -0.70092370821E+02  0.80896289637E+02  0.00000000000E+00 0. -1.
         11    1    5    5    0    0 -0.25486632749E+02 -0.22420848008E+02  0.85446022713E+02  0.91941751516E+02  0.00000000000E+00 0. -1.
        -12    1    5    5    0    0  0.20847592943E+01  0.47707823461E+02  0.25434301553E+03  0.25878707887E+03  0.00000000000E+00 0.  1.
          5    1    4    4  501    0 -0.60794371615E+02  0.44753091322E+02  0.54051298955E+02  0.92939819893E+02  0.41800000000E+01 0. -1.
         -5    1    4    4    0  501  0.53885802999E+02 -0.76095411138E+01  0.27836713680E+02  0.61269404349E+02  0.41800000000E+01 0. -1.
</event>
<event>
11    1  0.7157190E-009  0.1845840E+03  0.7561462E-02  0.1065994E+00
         22   -1    0    0    0    0  0.00000000000E+00  0.00000000000E+00  0.97904337482E+03  0.97904337482E+03  0.00000000000E+00 0.  1.
         22   -1    0    0    0    0 -0.00000000000E+00 -0.00000000000E+00 -0.75120163731E+03  0.75120163731E+03  0.00000000000E+00 0.  1.
         24    2    1    2    0    0  0.16155671108E+02 -0.13851368592E+03 -0.65240896803E+03  0.67202141563E+03  0.80797738823E+02 0.  0.
         25    2    1    2    0    0 -0.13661823345E+03  0.64837530818E+02  0.41178432167E+02  0.20052798707E+03  0.12508942085E+03 0.  0.
        -24    2    1    2    0    0  0.12046256234E+03  0.73676155105E+02  0.83907227338E+03  0.85769560943E+03  0.10798182128E+03 0.  0.
        -13    1    3    3    0    0  0.79424924034E+00 -0.36958052026E+02 -0.36393933368E+03  0.36581192852E+03  0.00000000000E+00 0.  1.
         14    1    3    3    0    0  0.15361421868E+02 -0.10155563390E+03 -0.28846963435E+03  0.30620948711E+03  0.00000000000E+00 0. -1.
         13    1    5    5    0    0 -0.11558518534E+02  0.10727683290E+01  0.22898728076E+03  0.22928132269E+03  0.00000000000E+00 0. -1.
        -14    1    5    5    0    0  0.13202108087E+03  0.72603386776E+02  0.61008499262E+03  0.62841428675E+03  0.00000000000E+00 0.  1.
          5    1    4    4  501    0 -0.12255137707E+03  0.71212043597E+01 -0.82909099760E+01  0.12310874527E+03  0.41800000000E+01 0.  1.
         -5    1    4    4    0  501 -0.14066856374E+02  0.57716326458E+02  0.49469342143E+02  0.77419241795E+02  0.41800000000E+01 0.  1.
</event>
<event>
11    1  0.7157190E-009  0.1458560E+03  0.7561462E-02  0.1101190E+00
         22   -1    0    0    0    0  0.00000000000E+00  0.00000000000E+00  0.50661187763E+03  0.50661187763E+03  0.00000000000E+00 0. -1.
         22   -1    0    0    0    0 -0.00000000000E+00 -0.00000000000E+00 -0.10295720958E+04  0.10295720958E+04  0.00000000000E+00 0.  1.
         24    2    1    2    0    0 -0.83823943529E+01 -0.74146523246E+02 -0.95977281599E+03  0.96604329828E+03  0.80671087729E+02 0.  0.
         25    2    1    2    0    0 -0.77070554604E+01  0.88160786431E+02  0.31797191990E+02  0.15649293347E+03  0.12508898368E+03 0.  0.
        -24    2    1    2    0    0  0.16089449813E+02 -0.14014263185E+02  0.40501540588E+03  0.41364774164E+03  0.81312392634E+02 0.  0.
        -11    1    3    3    0    0 -0.17995728114E+02 -0.58611101608E+02 -0.92248708184E+03  0.92452232187E+03  0.00000000000E+00 0.  1.
         12    1    3    3    0    0  0.96133337615E+01 -0.15535421638E+02 -0.37285734143E+02  0.41520976410E+02  0.00000000000E+00 0. -1.
         11    1    5    5    0    0 -0.20818694385E+02 -0.11684418201E+02  0.32059225751E+03  0.32147992043E+03  0.00000000000E+00 0. -1.
        -12    1    5    5    0    0  0.36908144198E+02 -0.23298449840E+01  0.84423148365E+02  0.92167821205E+02  0.00000000000E+00 0.  1.
          5    1    4    4  501    0  0.49933557362E+02  0.73113638183E+02 -0.42119848263E+00  0.88637543103E+02  0.41800000000E+01 0.  1.
         -5    1    4    4    0  501 -0.57640612822E+02  0.15047148248E+02  0.32218390472E+02  0.67855390365E+02  0.41800000000E+01 0.  1.
</event>
<event>
11    1  0.7157190E-009  0.1404418E+03  0.7561462E-02  0.1107066E+00
         22   -1    0    0    0    0  0.00000000000E+00  0.00000000000E+00  0.32291994102E+04  0.32291994102E+04  0.00000000000E+00 0.  1.
         22   -1    0    0    0    0 -0.00000000000E+00 -0.00000000000E+00 -0.29192766016E+03  0.29192766016E+03  0.00000000000E+00 0.  1.
        -24    2    1    2    0    0  0.94508989265E+01  0.64852521115E+02 -0.20554201559E+03  0.22977342654E+03  0.79076787918E+02 0.  0.
         25    2    1    2    0    0 -0.91698442769E+01 -0.12795212910E+03  0.35922705719E+02  0.18273740736E+03  0.12508671343E+03 0.  0.
         24    2    1    2    0    0 -0.28105464951E+00  0.63099607987E+02  0.31068910599E+04  0.31086162365E+04  0.82104859231E+02 0.  0.
        -11    1    5    5    0    0 -0.56342008420E+01  0.41263215126E+02  0.29307761220E+04  0.29310720009E+04  0.00000000000E+00 0.  1.
         12    1    5    5    0    0  0.53531461925E+01  0.21836392861E+02  0.17611493794E+03  0.17754423560E+03  0.00000000000E+00 0. -1.
         11    1    3    3    0    0 -0.26953761253E+01  0.30319625885E+02 -0.11869271020E+02  0.32671460953E+02  0.00000000000E+00 0. -1.
        -12    1    3    3    0    0  0.12146275052E+02  0.34532895230E+02 -0.19367274457E+03  0.19710196559E+03  0.00000000000E+00 0.  1.
          5    1    4    4  501    0  0.39029019427E+02 -0.12056921718E+03  0.95823843148E+01  0.12715932910E+03  0.41800000000E+01 0. -1.
         -5    1    4    4    0  501 -0.48198863704E+02 -0.73829119219E+01  0.26340321405E+02  0.55578078255E+02  0.41800000000E+01 0. -1.
</event>
<event>
11    1  0.7157190E-009  0.1312271E+03  0.7561462E-02  0.1117770E+00
         22   -1    0    0    0    0  0.00000000000E+00  0.00000000000E+00  0.15434824926E+04  0.15434824926E+04  0.00000000000E+00 0. -1.
         22   -1    0    0    0    0 -0.00000000000E+00 -0.00000000000E+00 -0.16983964746E+03  0.16983964746E+03  0.00000000000E+00 0. -1.
         24    2    1    2    0    0  0.16842375919E+02  0.11704807710E+02 -0.69461589264E+02  0.10826160929E+03  0.80467356820E+02 0.  0.
         25    2    1    2    0    0 -0.14732325849E+02  0.28116943461E+02 -0.27249075272E+02  0.13190038778E+03  0.12509035238E+03 0.  0.
        -24    2    1    2    0    0 -0.21100500698E+01 -0.39821751171E+02  0.14703535096E+04  0.14731601429E+04  0.81677042584E+02 0.  0.
        -13    1    3    3    0    0 -0.19376361869E+02 -0.21725750047E+02 -0.94564476421E+01  0.30608430479E+02  0.00000000000E+00 0.  1.
         14    1    3    3    0    0  0.36218737788E+02  0.33430557757E+02 -0.60005141622E+02  0.77653178814E+02  0.00000000000E+00 0. -1.
         11    1    5    5    0    0 -0.30691045599E+02 -0.23179190869E+02  0.31585374538E+03  0.31818674335E+03  0.00000000000E+00 0. -1.
        -12    1    5    5    0    0  0.28580995529E+02 -0.16642560302E+02  0.11544997643E+04  0.11549733996E+04  0.00000000000E+00 0.  1.
          5    1    4    4  501    0  0.52307573700E+01  0.46736146720E+02 -0.67933171993E+02  0.82728571182E+02  0.41800000000E+01 0.  1.
         -5    1    4    4    0  501 -0.19963083219E+02 -0.18619203259E+02  0.40684096720E+02  0.49171816598E+02  0.41800000000E+01 0.  1.
</event>
<event>
11    1  0.7157190E-009  0.1283453E+03  0.7561462E-02  0.1121319E+00
         22   -1    0    0    0    0  0.00000000000E+00  0.00000000000E+00  0.23803413304E+03  0.23803413304E+03  0.00000000000E+00 0.  1.
         22   -1    0    0    0    0 -0.00000000000E+00 -0.00000000000E+00 -0.71256071209E+03  0.71256071209E+03  0.00000000000E+00 0. -1.
        -24    2    1    2    0    0  0.23472488810E+02 -0.17254776046E+02 -0.64306720628E+03  0.64852656717E+03  0.78756533090E+02 0.  0.
         25    2    1    2    0    0 -0.15656906817E+02  0.61745419828E+01  0.10485612185E+02  0.12667065116E+03  0.12510892096E+03 0.  0.
         24    2    1    2    0    0 -0.78155819933E+01  0.11080234063E+02  0.15805501504E+03  0.17539762680E+03  0.74827032550E+02 0.  0.
        -13    1    5    5    0    0  0.62400396465E+00 -0.31729393514E+02  0.55244716596E+02  0.63711243164E+02  0.00000000000E+00 0.  1.
         14    1    5    5    0    0 -0.84395859580E+01  0.42809627577E+02  0.10281029844E+03  0.11168638364E+03  0.00000000000E+00 0. -1.
         13    1    3    3    0    0 -0.25651824541E+02 -0.21459682826E+02 -0.31584941390E+03  0.31761515448E+03  0.00000000000E+00 0. -1.
        -14    1    3    3    0    0  0.49124313351E+02  0.42049067800E+01 -0.32721779237E+03  0.33091141269E+03  0.00000000000E+00 0.  1.
          5    1    4    4  501    0 -0.49609962569E+02  0.36528570163E+02 -0.27137715903E+02  0.67449335421E+02  0.41800000000E+01 0.  1.
         -5    1    4    4    0  501  0.33953055752E+02 -0.30354028180E+02  0.37623328088E+02  0.59221315741E+02  0.41800000000E+01 0.  1.
</event>
<event>
11    1  0.7157190E-009  0.1281334E+03  0.7561462E-02  0.1121584E+00
         22   -1    0    0    0    0  0.00000000000E+00  0.00000000000E+00  0.87191923941E+03  0.87191923941E+03  0.00000000000E+00 0. -1.
         22   -1    0    0    0    0 -0.00000000000E+00 -0.00000000000E+00 -0.19988579852E+04  0.19988579852E+04  0.00000000000E+00 0. -1.
         24    2    1    2    0    0 -0.34169465016E+01 -0.28396954751E+02 -0.19174029840E+04  0.19193355227E+04  0.81219350695E+02 0.  0.
         25    2    1    2    0    0  0.79367716532E+01 -0.60452392863E+01 -0.28004526700E+02  0.12852927408E+03  0.12504392635E+03 0.  0.
        -24    2    1    2    0    0 -0.45198251516E+01  0.34442194037E+02  0.81846876491E+03  0.82291242788E+03  0.78019556983E+02 0.  0.
        -11    1    3    3    0    0  0.26930634544E+02 -0.32150606106E+02 -0.55229169006E+03  0.55388178473E+03  0.00000000000E+00 0.  1.
         12    1    3    3    0    0 -0.30347581045E+02  0.37536513551E+01 -0.13651112940E+04  0.13654537379E+04  0.00000000000E+00 0. -1.
         11    1    5    5    0    0  0.10054357749E+02  0.54331596750E+02  0.41088918150E+03  0.41458766502E+03  0.00000000000E+00 0. -1.
        -12    1    5    5    0    0 -0.14574182900E+02 -0.19889402713E+02  0.40757958341E+03  0.40832476285E+03  0.00000000000E+00 0.  1.
          5    1    4    4  501    0  0.57556957708E+01 -0.25248286137E+02 -0.73974201513E+02  0.78487316658E+02  0.41800000000E+01 0.  1.
         -5    1    4    4    0  501  0.21810758824E+01  0.19203046850E+02  0.45969674813E+02  0.50041957424E+02  0.41800000000E+01 0.  1.
</event>
<event>
11    1  0.7157190E-009  0.1575580E+03  0.7561462E-02  0.1089397E+00
         22   -1    0    0    0    0  0.00000000000E+00  0.00000000000E+00  0.41664597995E+03  0.41664597995E+03  0.00000000000E+00 0.  1.
         22   -1    0    0    0    0 -0.00000000000E+00 -0.00000000000E+00 -0.26515844170E+04  0.26515844170E+04  0.00000000000E+00 0.  1.
        -24    2    1    2    0    0 -0.40333690101E+02  0.56568444923E+02 -0.24333156556E+04  0.24356171141E+04  0.79867710067E+02 0.  0.
         25    2    1    2    0    0  0.13425806233E+03 -0.51974416829E+02 -0.16327338356E+03  0.25106349458E+03  0.12509241873E+03 0.  0.
         24    2    1    2    0    0 -0.93924372227E+02 -0.45940280940E+01  0.36165060209E+03  0.38154978831E+03  0.77111543699E+02 0.  0.
        -13    1    5    5    0    0  0.37841194940E+00  0.58641657524E+01  0.14396939290E+03  0.14408927000E+03  0.00000000000E+00 0.  1.
         14    1    5    5    0    0 -0.94302784176E+02 -0.10458193846E+02  0.21768120919E+03  0.23746051831E+03  0.00000000000E+00 0. -1.
         13    1    3    3    0    0 -0.45461250871E+02  0.36772035735E+02 -0.78500987560E+03  0.78718448456E+03  0.00000000000E+00 0. -1.
        -14    1    3    3    0    0  0.51275607698E+01  0.19796409187E+02 -0.16483057800E+04  0.16484326295E+04  0.00000000000E+00 0.  1.
          5    1    4    4  501    0  0.11400920154E+03 -0.89650094109E+02 -0.14235252181E+03  0.20326571348E+03  0.41800000000E+01 0.  1.
         -5    1    4    4    0  501  0.20248860788E+02  0.37675677280E+02 -0.20920861753E+02  0.47797781101E+02  0.41800000000E+01 0.  1.
</event>
<event>
11    1  0.7157190E-009  0.1467429E+03  0.7561462E-02  0.1100254E+00
         22   -1    0    0    0    0  0.00000000000E+00  0.00000000000E+00  0.51584834413E+03  0.51584834413E+03  0.00000000000E+00 0.  1.
         22   -1    0    0    0    0 -0.00000000000E+00 -0.00000000000E+00 -0.64162891118E+03  0.64162891118E+03  0.00000000000E+00 0. -1.
         24    2    1    2    0    0  0.63845572403E+02 -0.93705372028E+01 -0.60047774029E+03  0.60931231739E+03  0.80770783459E+02 0.  0.
         25    2    1    2    0    0 -0.58242427474E+02 -0.68905796851E+02  0.21225941578E+03  0.26237792923E+03  0.12509168222E+03 0.  0.
        -24    2    1    2    0    0 -0.56031449287E+01  0.78276334054E+02  0.26243775745E+03  0.28578700869E+03  0.81498822647E+02 0.  0.
        -13    1    3    3    0    0  0.33157338307E+02 -0.42612715862E+02 -0.40975910654E+03  0.41330107432E+03  0.00000000000E+00 0.  1.
         14    1    3    3    0    0  0.30688234096E+02  0.33242178659E+02 -0.19071863375E+03  0.19601124307E+03  0.00000000000E+00 0. -1.
         13    1    5    5    0    0  0.25917258634E+02  0.62600303122E+01  0.12165879207E+03  0.12454619209E+03  0.00000000000E+00 0. -1.
        -14    1    5    5    0    0 -0.31520403562E+02  0.72016303741E+02  0.14077896538E+03  0.16124081660E+03  0.00000000000E+00 0.  1.
          5    1    4    4  501    0 -0.92025332654E+02 -0.74840294486E+02  0.17609315555E+03  0.21235819588E+03  0.41800000000E+01 0.  1.
         -5    1    4    4    0  501  0.33782905180E+02  0.59344976353E+01  0.36166260239E+02  0.50019733348E+02  0.41800000000E+01 0.  1.
</event>
<event>
11    1  0.7157190E-009  0.1574148E+03  0.7561462E-02  0.1089534E+00
         22   -1    0    0    0    0  0.00000000000E+00  0.00000000000E+00  0.65084990748E+03  0.65084990748E+03  0.00000000000E+00 0. -1.
         22   -1    0    0    0    0 -0.00000000000E+00 -0.00000000000E+00 -0.51392561554E+03  0.51392561554E+03  0.00000000000E+00 0.  1.
         24    2    1    2    0    0 -0.73590723776E+02 -0.13082402280E+01 -0.44092555553E+03  0.45419088799E+03  0.80353662584E+02 0.  0.
         25    2    1    2    0    0  0.15723897927E+03 -0.25082330065E+02  0.11497267734E+03  0.23285145818E+03  0.12509142719E+03 0.  0.
        -24    2    1    2    0    0 -0.83648255498E+02  0.26390570293E+02  0.46287717013E+03  0.47773317685E+03  0.79247844026E+02 0.  0.
        -11    1    3    3    0    0 -0.77264237607E+02  0.17402656562E+02 -0.41201690368E+03  0.41955994063E+03  0.00000000000E+00 0.  1.
         12    1    3    3    0    0  0.36735138316E+01 -0.18710896790E+02 -0.28908651857E+02  0.34630947355E+02  0.00000000000E+00 0. -1.
         11    1    5    5    0    0 -0.63591241409E+02 -0.87593465306E+01  0.38134096492E+03  0.38670596538E+03  0.00000000000E+00 0. -1.
        -12    1    5    5    0    0 -0.20057014089E+02  0.35149916823E+02  0.81536205215E+02  0.91027211468E+02  0.00000000000E+00 0.  1.
          5    1    4    4  501    0  0.10104030393E+03 -0.69534259364E+02  0.10271333245E+03  0.16003642494E+03  0.41800000000E+01 0. -1.
         -5    1    4    4    0  501  0.56198675342E+02  0.44451929299E+02  0.12259344896E+02  0.72815033241E+02  0.41800000000E+01 0. -1.
</event>
<event>
11    1  0.7157190E-009  0.1709459E+03  0.7561462E-02  0.1077211E+00
         22   -1    0    0    0    0  0.00000000000E+00  0.00000000000E+00  0.87966230424E+03  0.87966230424E+03  0.00000000000E+00 0.  1.
         22   -1    0    0    0    0 -0.00000000000E+00 -0.00000000000E+00 -0.23442652792E+03  0.23442652792E+03  0.00000000000E+00 0. -1.
         24    2    1    2    0    0  0.11703929122E+03  0.81034820599E+01 -0.18636052313E+03  0.23368004681E+03  0.78180928542E+02 0.  0.
         25    2    1    2    0    0 -0.10462884605E+03 -0.74517432128E+01  0.32179062057E+03  0.36083090033E+03  0.12508801400E+03 0.  0.
        -24    2    1    2    0    0 -0.12410445167E+02 -0.65173884713E+00  0.50980567888E+03  0.51957788501E+03  0.99523386488E+02 0.  0.
        -13    1    3    3    0    0 -0.81569427217E+01 -0.71905311744E+01 -0.32769124637E+01  0.11356830915E+02  0.00000000000E+00 0.  1.
         14    1    3    3    0    0  0.12519623394E+03  0.15294013234E+02 -0.18308361067E+03  0.22232321590E+03  0.00000000000E+00 0. -1.
         13    1    5    5    0    0  0.41523967446E+02 -0.15447975372E+02  0.23465129743E+03  0.23879721775E+03  0.00000000000E+00 0. -1.
        -14    1    5    5    0    0 -0.53934412613E+02  0.14796236525E+02  0.27515438145E+03  0.28078066727E+03  0.00000000000E+00 0.  1.
          5    1    4    4  501    0 -0.13143308922E+03  0.76748238780E+01  0.24912850163E+03  0.28180852115E+03  0.41800000000E+01 0. -1.
         -5    1    4    4    0  501  0.26804243174E+02 -0.15126567091E+02  0.72662118930E+02  0.79022379182E+02  0.41800000000E+01 0. -1.
</event>
<event>
11    1  0.7157190E-009  0.1431338E+03  0.7561462E-02  0.1104109E+00
         22   -1    0    0    0    0  0.00000000000E+00  0.00000000000E+00  0.93752804022E+03  0.93752804022E+03  0.00000000000E+00 0. -1.
         22   -1    0    0    0    0 -0.00000000000E+00 -0.00000000000E+00 -0.48345027371E+03  0.48345027371E+03  0.00000000000E+00 0. -1.
         24    2    1    2    0    0  0.17052404270E+02 -0.32580677084E+02 -0.34483681563E+03  0.35627712267E+03  0.81661947773E+02 0.  0.
         25    2    1    2    0    0 -0.42888725970E+02 -0.32613437079E+02 -0.94060890162E+02  0.16552301713E+03  0.12508932428E+03 0.  0.
        -24    2    1    2    0    0  0.25836321700E+02  0.65194114163E+02  0.89297547230E+03  0.89917817413E+03  0.78729960389E+02 0.  0.
        -11    1    3    3    0    0  0.41526112350E+02 -0.35733298649E+02 -0.14644713137E+03  0.15635871874E+03  0.00000000000E+00 0.  1.
         12    1    3    3    0    0 -0.24473708080E+02  0.31526215647E+01 -0.19838968425E+03  0.19991840393E+03  0.00000000000E+00 0. -1.
         13    1    5    5    0    0  0.57436273888E+01  0.12316428835E+02  0.63184727803E+03  0.63199340696E+03  0.00000000000E+00 0. -1.
        -14    1    5    5    0    0  0.20092694311E+02  0.52877685328E+02  0.26112819426E+03  0.26718476717E+03  0.00000000000E+00 0.  1.
          5    1    4    4  501    0 -0.56960659015E+02 -0.79567087323E+01  0.91592942235E+01  0.58388277590E+02  0.41800000000E+01 0. -1.
         -5    1    4    4    0  501  0.14071933045E+02 -0.24656728347E+02 -0.10322018439E+03  0.10713473954E+03  0.41800000000E+01 0. -1.
</event>
<event>
11    1  0.7157190E-009  0.1277104E+03  0.7561462E-02  0.1122115E+00
         22   -1    0    0    0    0  0.00000000000E+00  0.00000000000E+00  0.27577113824E+03  0.27577113824E+03  0.00000000000E+00 0. -1.
         22   -1    0    0    0    0 -0.00000000000E+00 -0.00000000000E+00 -0.47157399709E+03  0.47157399709E+03  0.00000000000E+00 0. -1.
        -24    2    1    2    0    0 -0.39833883294E+01 -0.95342576660E+01 -0.33197142455E+03  0.34146657234E+03  0.79294538626E+02 0.  0.
         25    2    1    2    0    0 -0.21266854550E+02  0.29736479082E+01 -0.95760163260E+02  0.15899131258E+03  0.12508839644E+03 0.  0.
         24    2    1    2    0    0  0.25250242880E+02  0.65606097578E+01  0.23192872896E+03  0.24688725042E+03  0.80509395306E+02 0.  0.
        -11    1    5    5    0    0  0.53753579323E+01  0.38260033905E+02  0.63314110756E+02  0.74171431752E+02  0.00000000000E+00 0.  1.
         12    1    5    5    0    0  0.19874884948E+02 -0.31699424147E+02  0.16861461821E+03  0.17271581866E+03  0.00000000000E+00 0. -1.
         11    1    3    3    0    0  0.75363789928E+01 -0.22479701834E+02 -0.31885027756E+03  0.31973056391E+03  0.00000000000E+00 0. -1.
        -12    1    3    3    0    0 -0.11519767322E+02  0.12945444168E+02 -0.13121146994E+02  0.21736008426E+02  0.00000000000E+00 0.  1.
          5    1    4    4  501    0  0.11398099653E+02  0.23642851528E+02 -0.11327265398E+03  0.11634890478E+03  0.41800000000E+01 0.  1.
         -5    1    4    4    0  501 -0.32664954203E+02 -0.20669203619E+02  0.17512490721E+02  0.42642407796E+02  0.41800000000E+01 0.  1.
</event>
<event>
11    1  0.7157190E-009  0.1650369E+03  0.7561462E-02  0.1082433E+00
         22   -1    0    0    0    0  0.00000000000E+00  0.00000000000E+00  0.26107185663E+03  0.26107185663E+03  0.00000000000E+00 0.  1.
         22   -1    0    0    0    0 -0.00000000000E+00 -0.00000000000E+00 -0.68529593665E+03  0.68529593665E+03  0.00000000000E+00 0. -1.
        -24    2    1    2    0    0  0.44008800952E+02 -0.10040523110E+03 -0.47729834845E+03  0.49639323151E+03  0.81083548684E+02 0.  0.
         25    2    1    2    0    0 -0.13267934949E+02  0.10289085633E+03 -0.15442913917E+03  0.22418828396E+03  0.12509780665E+03 0.  0.
         24    2    1    2    0    0 -0.30740866002E+02 -0.24856252307E+01  0.20750340760E+03  0.22578627781E+03  0.83490118601E+02 0.  0.
        -11    1    5    5    0    0 -0.21681645435E+02 -0.18781755674E+02  0.14978264151E+02  0.32360415509E+02  0.00000000000E+00 0.  1.
         12    1    5    5    0    0 -0.90592205677E+01  0.16296130443E+02  0.19252514345E+03  0.19342586230E+03  0.00000000000E+00 0. -1.
         13    1    3    3    0    0 -0.10894274948E+02 -0.42483868303E+02 -0.80732017754E+02  0.91876128473E+02  0.00000000000E+00 0. -1.
        -14    1    3    3    0    0  0.54903075900E+02 -0.57921362799E+02 -0.39656633069E+03  0.40451710304E+03  0.00000000000E+00 0.  1.
          5    1    4    4  501    0 -0.76170840180E+01  0.54020769412E+02  0.71996038458E+01  0.55186684919E+02  0.41800000000E+01 0. -1.
         -5    1    4    4    0  501 -0.56508509315E+01  0.48870086921E+02 -0.16162874301E+03  0.16900159905E+03  0.41800000000E+01 0. -1.
</event>
<event>
11    1  0.7157190E-009  0.4536337E+03  0.7561462E-02  0.9503548E-01
         22   -1    0    0    0    0  0.00000000000E+00  0.00000000000E+00  0.81825932987E+03  0.81825932987E+03  0.00000000000E+00 0. -1.
         22   -1    0    0    0    0 -0.00000000000E+00 -0.00000000000E+00 -0.12933798884E+04  0.12933798884E+04  0.00000000000E+00 0. -1.
        -24    2    1    2    0    0 -0.12722749741E+02 -0.16775944351E+03 -0.12228800499E+04  0.12370377199E+04  0.80756453212E+02 0.  0.
         25    2    1    2    0    0 -0.45927965777E+02 -0.40792779901E+02  0.64980677984E+02  0.15376408311E+03  0.12508987094E+03 0.  0.
         24    2    1    2    0    0  0.58650715518E+02  0.20855222341E+03  0.68277881337E+03  0.72083741529E+03  0.80534060949E+02 0.  0.
        -13    1    5    5    0    0  0.41888531493E+02  0.15558144768E+03  0.37599125861E+03  0.40905948527E+03  0.00000000000E+00 0.  1.
         14    1    5    5    0    0  0.16762184025E+02  0.52970775725E+02  0.30678755476E+03  0.31177793002E+03  0.00000000000E+00 0. -1.
         11    1    3    3    0    0  0.19408798681E+02 -0.14699167805E+03 -0.98745014163E+03  0.99851942249E+03  0.00000000000E+00 0. -1.
        -12    1    3    3    0    0 -0.32131548422E+02 -0.20767765453E+02 -0.23542990831E+03  0.23851829743E+03  0.00000000000E+00 0.  1.
          5    1    4    4  501    0 -0.17561060847E+02  0.29511265112E+02  0.69572657604E+02  0.77698987848E+02  0.41800000000E+01 0.  1.
         -5    1    4    4    0  501 -0.28366904930E+02 -0.70304045013E+02 -0.45919796196E+01  0.76065095263E+02  0.41800000000E+01 0.  1.
</event>
<event>
11    1  0.7157190E-009  0.1513314E+03  0.7561462E-02  0.1095526E+00
         22   -1    0    0    0    0  0.00000000000E+00  0.00000000000E+00  0.15322837297E+04  0.15322837297E+04  0.00000000000E+00 0. -1.
         22   -1    0    0    0    0 -0.00000000000E+00 -0.00000000000E+00 -0.70112612742E+03  0.70112612742E+03  0.00000000000E+00 0.  1.
        -24    2    1    2    0    0 -0.33491467240E+02 -0.23561000666E+02 -0.66827057296E+03  0.67455823642E+03  0.82258473767E+02 0.  0.
         25    2    1    2    0    0  0.78441580812E+01 -0.61111675552E+02  0.15586398845E+03  0.20913349895E+03  0.12508824798E+03 0.  0.
         24    2    1    2    0    0  0.25647309158E+02  0.84672676218E+02  0.13435641868E+04  0.13497181217E+04  0.93525598745E+02 0.  0.
        -11    1    5    5    0    0  0.44325375010E+02  0.24263541617E+01  0.47087185489E+03  0.47295975494E+03  0.00000000000E+00 0.  1.
         12    1    5    5    0    0 -0.18678065851E+02  0.82246322056E+02  0.87269233189E+03  0.87675836681E+03  0.00000000000E+00 0. -1.
         11    1    3    3    0    0 -0.30706131455E+02 -0.27506840969E+02 -0.13248159632E+03  0.13874749069E+03  0.00000000000E+00 0. -1.
        -12    1    3    3    0    0 -0.27853357846E+01  0.39458403028E+01 -0.53578897664E+03  0.53581074573E+03  0.00000000000E+00 0.  1.
          5    1    4    4  501    0  0.62324220051E+02 -0.75524195140E+01  0.71413272451E+02  0.95177073540E+02  0.41800000000E+01 0.  1.
         -5    1    4    4    0  501 -0.54480061970E+02 -0.53559256038E+02  0.84450715998E+02  0.11395642541E+03  0.41800000000E+01 0.  1.
</event>
<event>
11    1  0.7157190E-009  0.2032561E+03  0.7561462E-02  0.1052245E+00
         22   -1    0    0    0    0  0.00000000000E+00  0.00000000000E+00  0.62237534628E+02  0.62237534628E+02  0.00000000000E+00 0.  1.
         22   -1    0    0    0    0 -0.00000000000E+00 -0.00000000000E+00 -0.28447650280E+04  0.28447650280E+04  0.00000000000E+00 0.  1.
        -24    2    1    2    0    0  0.14896435385E+01  0.50174076973E+01 -0.22431876987E+04  0.22446376841E+04  0.80497750646E+02 0.  0.
         25    2    1    2    0    0  0.13562367019E+03  0.81682270142E+02 -0.25646407417E+03  0.32632339747E+03  0.12508942892E+03 0.  0.
         24    2    1    2    0    0 -0.13711331373E+03 -0.86699677839E+02 -0.28287572049E+03  0.33604148104E+03  0.81168397787E+02 0.  0.
        -13    1    5    5    0    0 -0.50042611429E+02 -0.30410595873E+02 -0.37177510455E+02  0.69363063539E+02  0.00000000000E+00 0.  1.
         14    1    5    5    0    0 -0.87070702302E+02 -0.56289081967E+02 -0.24569821003E+03  0.26667841750E+03  0.00000000000E+00 0. -1.
         13    1    3    3    0    0  0.35155932463E+02 -0.22153958586E+01 -0.56516518882E+03  0.56626189897E+03  0.00000000000E+00 0. -1.
        -14    1    3    3    0    0 -0.33666288925E+02  0.72328035559E+01 -0.16780225099E+04  0.16783757852E+04  0.00000000000E+00 0.  1.
          5    1    4    4  501    0  0.63800400477E+02 -0.23612664102E+02 -0.12966397302E+03  0.14648640656E+03  0.41800000000E+01 0.  1.
         -5    1    4    4    0  501  0.71823269716E+02  0.10529493424E+03 -0.12680010115E+03  0.17983699092E+03  0.41800000000E+01 0.  1.
</event>
<event>
11    1  0.7157190E-009  0.1877912E+03  0.7561462E-02  0.1063509E+00
         22   -1    0    0    0    0  0.00000000000E+00  0.00000000000E+00  0.15322026772E+03  0.15322026772E+03  0.00000000000E+00 0.  1.
         22   -1    0    0    0    0 -0.00000000000E+00 -0.00000000000E+00 -0.17259331521E+04  0.17259331521E+04  0.00000000000E+00 0. -1.
         24    2    1    2    0    0  0.57739981261E+01 -0.14698458944E+02 -0.12303082942E+04  0.12328900776E+04  0.78166879309E+02 0.  0.
         25    2    1    2    0    0 -0.14255740698E+03  0.40591448138E+02 -0.42284585588E+03  0.46520260616E+03  0.12507824352E+03 0.  0.
        -24    2    1    2    0    0  0.13678340885E+03 -0.25892989194E+02  0.80441265708E+02  0.18106073601E+03  0.83258903845E+02 0.  0.
        -13    1    3    3    0    0 -0.42278384419E+01 -0.33238395402E+02 -0.23682799239E+03  0.23918646184E+03  0.00000000000E+00 0.  1.
         14    1    3    3    0    0  0.10001836568E+02  0.18539936458E+02 -0.99348030179E+03  0.99370361578E+03  0.00000000000E+00 0. -1.
         11    1    5    5    0    0 -0.80818887151E+01 -0.93055389339E+01 -0.35009129574E+01  0.12812742548E+02  0.00000000000E+00 0. -1.
        -12    1    5    5    0    0  0.14486529757E+03 -0.16587450260E+02  0.83942178666E+02  0.16824799346E+03  0.00000000000E+00 0.  1.
          5    1    4    4  501    0 -0.35406159315E+00  0.50582093065E+02 -0.12733963346E+03  0.13708219486E+03  0.41800000000E+01 0.  1.
         -5    1    4    4    0  501 -0.14220334538E+03 -0.99906449262E+01 -0.29550622241E+03  0.32812041130E+03  0.41800000000E+01 0.  1.
</event>
<event>
11    1  0.7157190E-009  0.1347490E+03  0.7561462E-02  0.1113568E+00
         22   -1    0    0    0    0  0.00000000000E+00  0.00000000000E+00  0.75453724297E+03  0.75453724297E+03  0.00000000000E+00 0.  1.
         22   -1    0    0    0    0 -0.00000000000E+00 -0.00000000000E+00 -0.74420243632E+03  0.74420243632E+03  0.00000000000E+00 0. -1.
         24    2    1    2    0    0 -0.36145254710E+00 -0.47538294991E+02 -0.64148849124E+03  0.64874561770E+03  0.84281504190E+02 0.  0.
         25    2    1    2    0    0 -0.24498520920E+01  0.95918341524E+02 -0.30852083917E+02  0.16064054854E+03  0.12508878742E+03 0.  0.
        -24    2    1    2    0    0  0.28113046391E+01 -0.48380046533E+02  0.68267538181E+03  0.68935351305E+03  0.82547299695E+02 0.  0.
        -11    1    3    3    0    0 -0.38434448829E+01  0.22522692047E+02 -0.91861269553E+02  0.94660110762E+02  0.00000000000E+00 0.  1.
         12    1    3    3    0    0  0.34819923358E+01 -0.70060987038E+02 -0.54962722169E+03  0.55408550694E+03  0.00000000000E+00 0. -1.
         11    1    5    5    0    0 -0.21237931300E+02 -0.39728788715E+02  0.16475531258E+03  0.17080321836E+03  0.00000000000E+00 0. -1.
        -12    1    5    5    0    0  0.24049235939E+02 -0.86512578181E+01  0.51792006923E+03  0.51855029469E+03  0.00000000000E+00 0.  1.
          5    1    4    4  501    0  0.20927217516E+02 -0.14993127420E+02 -0.39006424751E+02  0.46922445318E+02  0.41800000000E+01 0. -1.
         -5    1    4    4    0  501 -0.23377069608E+02  0.11091146894E+03  0.81543408339E+01  0.11371810323E+03  0.41800000000E+01 0. -1.
</event>
<event>
11    1  0.7157190E-009  0.1483645E+03  0.7561462E-02  0.1098562E+00
         22   -1    0    0    0    0  0.00000000000E+00  0.00000000000E+00  0.19331152397E+04  0.19331152397E+04  0.00000000000E+00 0. -1.
         22   -1    0    0    0    0 -0.00000000000E+00 -0.00000000000E+00 -0.20465796096E+03  0.20465796096E+03  0.00000000000E+00 0.  1.
        -24    2    1    2    0    0  0.71876515204E+02  0.45570716630E+02 -0.15357416035E+03  0.19299099311E+03  0.80109781178E+02 0.  0.
         25    2    1    2    0    0 -0.56525179717E+02  0.26886749188E+02  0.13517823929E+03  0.19452136357E+03  0.12508961302E+03 0.  0.
         24    2    1    2    0    0 -0.15351335487E+02 -0.72457465818E+02  0.17468531998E+04  0.17502608440E+04  0.80194591047E+02 0.  0.
        -11    1    5    5    0    0 -0.36297328571E+01  0.87420197238E+01  0.74314580306E+03  0.74320608345E+03  0.00000000000E+00 0.  1.
         12    1    5    5    0    0 -0.11721602630E+02 -0.81199485542E+02  0.10037073968E+04  0.10070547605E+04  0.00000000000E+00 0. -1.
         13    1    3    3    0    0  0.55595911232E+02  0.14067903548E+02 -0.30590214966E+02  0.64996711514E+02  0.00000000000E+00 0. -1.
        -14    1    3    3    0    0  0.16280603972E+02  0.31502813082E+02 -0.12298394539E+03  0.12799428159E+03  0.00000000000E+00 0.  1.
          5    1    4    4  501    0 -0.12166565196E+02 -0.20258340984E+02 -0.16789623157E+02  0.29288044213E+02  0.41800000000E+01 0.  1.
         -5    1    4    4    0  501 -0.44358614521E+02  0.47145090172E+02  0.15196786245E+03  0.16523331936E+03  0.41800000000E+01 0.  1.
</event>
<event>
11    1  0.7157190E-009  0.2551611E+03  0.7561462E-02  0.1021185E+00
         22   -1    0    0    0    0  0.00000000000E+00  0.00000000000E+00  0.20364904443E+04  0.20364904443E+04  0.00000000000E+00 0. -1.
         22   -1    0    0    0    0 -0.00000000000E+00 -0.00000000000E+00 -0.25658090170E+03  0.25658090170E+03  0.00000000000E+00 0. -1.
         24    2    1    2    0    0 -0.54307034228E+02  0.49552477440E+02 -0.15561022069E+03  0.18997944189E+03  0.80454618060E+02 0.  0.
         25    2    1    2    0    0 -0.97699452626E+02 -0.21186736533E+03  0.15463520691E+03  0.30658219558E+03  0.12509049481E+03 0.  0.
        -24    2    1    2    0    0  0.15200648685E+03  0.16231488789E+03  0.17808845564E+04  0.17965097086E+04  0.80282219754E+02 0.  0.
        -13    1    3    3    0    0 -0.65535763409E+02  0.27943577090E+02 -0.65993446402E+02  0.97112896951E+02  0.00000000000E+00 0.  1.
         14    1    3    3    0    0  0.11228729181E+02  0.21608900350E+02 -0.89616774293E+02  0.92866544934E+02  0.00000000000E+00 0. -1.
         13    1    5    5    0    0  0.13454427040E+03  0.14752235585E+03  0.17184994789E+04  0.17300593819E+04  0.00000000000E+00 0. -1.
        -14    1    5    5    0    0  0.17462216456E+02  0.14792532037E+02  0.62385077543E+02  0.66450326618E+02  0.00000000000E+00 0.  1.
          5    1    4    4  501    0 -0.45605055435E+02 -0.17945116593E+03  0.16014151627E+03  0.24483733307E+03  0.41800000000E+01 0.  1.
         -5    1    4    4    0  501 -0.52094397192E+02 -0.32416199404E+02 -0.55063093557E+01  0.61744862501E+02  0.41800000000E+01 0.  1.
</event>
<event>
11    1  0.7157190E-009  0.2096652E+03  0.7561462E-02  0.1047892E+00
         22   -1    0    0    0    0  0.00000000000E+00  0.00000000000E+00  0.25457366129E+03  0.25457366129E+03  0.00000000000E+00 0.  1.
         22   -1    0    0    0    0 -0.00000000000E+00 -0.00000000000E+00 -0.19241117116E+04  0.19241117116E+04  0.00000000000E+00 0. -1.
        -24    2    1    2    0    0  0.11313480350E+02 -0.29422067678E+02 -0.16534280418E+04  0.16567897602E+04  0.10066959378E+03 0.  0.
         25    2    1    2    0    0  0.97680401697E+02  0.15443855487E+03 -0.17200940770E+03  0.28040603943E+03  0.12509029741E+03 0.  0.
         24    2    1    2    0    0 -0.10899388205E+03 -0.12501648719E+03  0.15589939918E+03  0.24148957330E+03  0.80646158947E+02 0.  0.
        -13    1    5    5    0    0 -0.76540139423E+02 -0.12924672402E+03  0.13899856266E+03  0.20465509775E+03  0.00000000000E+00 0.  1.
         14    1    5    5    0    0 -0.32453742624E+02  0.42302368280E+01  0.16900836523E+02  0.36834475551E+02  0.00000000000E+00 0. -1.
         11    1    3    3    0    0  0.22541661066E+02 -0.64540455253E+02 -0.11279829991E+04  0.11300527612E+04  0.00000000000E+00 0. -1.
        -12    1    3    3    0    0 -0.11228180716E+02  0.35118387575E+02 -0.52544504276E+03  0.52673699903E+03  0.00000000000E+00 0.  1.
          5    1    4    4  501    0  0.10569078606E+03  0.16465179589E+03 -0.17888195313E+03  0.26513577975E+03  0.41800000000E+01 0. -1.
         -5    1    4    4    0  501 -0.80103843678E+01 -0.10213241023E+02  0.68725454303E+01  0.15270259677E+02  0.41800000000E+01 0. -1.
</event>
<event>
11    1  0.7157190E-009  0.1495820E+03  0.7561462E-02  0.1097307E+00
         22   -1    0    0    0    0  0.00000000000E+00  0.00000000000E+00  0.51471016880E+03  0.51471016880E+03  0.00000000000E+00 0.  1.
         22   -1    0    0    0    0 -0.00000000000E+00 -0.00000000000E+00 -0.65758797165E+03  0.65758797165E+03  0.00000000000E+00 0.  1.
         24    2    1    2    0    0  0.83970936950E+01 -0.16896743116E+02 -0.61007457418E+03  0.61700223844E+03  0.90248352220E+02 0.  0.
         25    2    1    2    0    0 -0.82919587910E+02 -0.16764825813E+02  0.12963125612E+03  0.19901956113E+03  0.12509118956E+03 0.  0.
        -24    2    1    2    0    0  0.74522494215E+02  0.33661568929E+02  0.33756551521E+03  0.35627634087E+03  0.79345136221E+02 0.  0.
        -11    1    3    3    0    0  0.14601772632E+02 -0.38557263242E+01 -0.59796386737E+03  0.59815454949E+03  0.00000000000E+00 0.  1.
         12    1    3    3    0    0 -0.62046789368E+01 -0.13041016792E+02 -0.12110706800E+02  0.18847688953E+02  0.00000000000E+00 0. -1.
         13    1    5    5    0    0  0.23424942659E+02  0.36609744563E+00  0.14604206554E+02  0.27606970406E+02  0.00000000000E+00 0. -1.
        -14    1    5    5    0    0  0.51097551556E+02  0.33295471483E+02  0.32296130865E+03  0.32866937047E+03  0.00000000000E+00 0.  1.
          5    1    4    4  501    0  0.28640623853E+02  0.17858221438E+02  0.25990741829E+02  0.42804117424E+02  0.41800000000E+01 0. -1.
         -5    1    4    4    0  501 -0.11156021176E+03 -0.34623047251E+02  0.10364051429E+03  0.15621544371E+03  0.41800000000E+01 0. -1.
</event>
<event>
11    1  0.7157190E-009  0.1390615E+03  0.7561462E-02  0.1108611E+00
         22   -1    0    0    0    0  0.00000000000E+00  0.00000000000E+00  0.13498909705E+04  0.13498909705E+04  0.00000000000E+00 0. -1.
         22   -1    0    0    0    0 -0.00000000000E+00 -0.00000000000E+00 -0.22126461821E+03  0.22126461821E+03  0.00000000000E+00 0. -1.
        -24    2    1    2    0    0 -0.46648555342E+02  0.18516238715E+02 -0.14037200219E+03  0.16897712275E+03  0.79561486932E+02 0.  0.
         25    2    1    2    0    0 -0.15328192860E+02 -0.12519205128E+02 -0.23227699911E+01  0.12666699921E+03  0.12508976551E+03 0.  0.
         24    2    1    2    0    0  0.61976748202E+02 -0.59970335870E+01  0.12713211245E+04  0.12755114668E+04  0.82431902418E+02 0.  0.
        -11    1    5    5    0    0 -0.17288252210E+02 -0.75214240456E+01  0.12083261935E+03  0.12229463350E+03  0.00000000000E+00 0.  1.
         12    1    5    5    0    0  0.79265000412E+02  0.15243904586E+01  0.11504885052E+04  0.11532168333E+04  0.00000000000E+00 0. -1.
         11    1    3    3    0    0 -0.81435403600E+01 -0.27390794382E+01 -0.12034284467E+03  0.12064916108E+03  0.00000000000E+00 0. -1.
        -12    1    3    3    0    0 -0.38505014982E+02  0.21255318153E+02 -0.20029157521E+02  0.48327961674E+02  0.00000000000E+00 0.  1.
          5    1    4    4  501    0 -0.64456053820E+02  0.18178169843E+02  0.83361404119E+01  0.67616509596E+02  0.41800000000E+01 0. -1.
         -5    1    4    4    0  501  0.49127860960E+02 -0.30697374971E+02 -0.10658910403E+02  0.59050489614E+02  0.41800000000E+01 0. -1.
</event>
<event>
11    1  0.7157190E-009  0.1875400E+03  0.7561462E-02  0.1063702E+00
         22   -1    0    0    0    0  0.00000000000E+00  0.00000000000E+00  0.17295558725E+04  0.17295558725E+04  0.00000000000E+00 0.  1.
         22   -1    0    0    0    0 -0.00000000000E+00 -0.00000000000E+00 -0.34190737239E+03  0.34190737239E+03  0.00000000000E+00 0. -1.
        -24    2    1    2    0    0 -0.13488404860E+03 -0.40930315548E+02 -0.28121694081E+03  0.32367928424E+03  0.76264762165E+02 0.  0.
         25    2    1    2    0    0  0.11359909527E+03  0.63257766404E+02  0.17647074496E+03  0.25237946515E+03  0.12508865313E+03 0.  0.
         24    2    1    2    0    0  0.21284953332E+02 -0.22327450856E+02  0.14923946960E+04  0.14954044955E+04  0.89672249511E+02 0.  0.
        -11    1    5    5    0    0  0.18418636046E+02 -0.52819880624E+02  0.12222134711E+04  0.12234929321E+04  0.00000000000E+00 0.  1.
         12    1    5    5    0    0  0.28663172860E+01  0.30492429768E+02  0.27018122494E+03  0.27191156348E+03  0.00000000000E+00 0. -1.
         13    1    3    3    0    0 -0.10611866493E+03 -0.61197367937E+02 -0.19173402216E+03  0.22752631528E+03  0.00000000000E+00 0. -1.
        -14    1    3    3    0    0 -0.28765383675E+02  0.20267052389E+02 -0.89482918653E+02  0.96152968967E+02  0.00000000000E+00 0.  1.
          5    1    4    4  501    0  0.13792280941E+03  0.70102590757E+02  0.14949854591E+03  0.21518448415E+03  0.41800000000E+01 0.  1.
         -5    1    4    4    0  501 -0.24323714141E+02 -0.68448243524E+01  0.26972199050E+02  0.37194981000E+02  0.41800000000E+01 0.  1.
</event>
<event>
11    1  0.7157190E-009  0.3606818E+03  0.7561462E-02  0.9773468E-01
         22   -1    0    0    0    0  0.00000000000E+00  0.00000000000E+00  0.75174475339E+03  0.75174475339E+03  0.00000000000E+00 0.  1.
         22   -1    0    0    0    0 -0.00000000000E+00 -0.00000000000E+00 -0.44696628956E+03  0.44696628956E+03  0.00000000000E+00 0. -1.
        -24    2    1    2    0    0 -0.14255208859E+03  0.41904070237E+02 -0.38483858235E+03  0.42046750059E+03  0.81333483377E+02 0.  0.
         25    2    1    2    0    0  0.52427934793E+01 -0.27323260539E+02  0.87491133032E+02  0.15516661378E+03  0.12509169526E+03 0.  0.
         24    2    1    2    0    0  0.13730929511E+03 -0.14580809698E+02  0.60212591316E+03  0.62307692858E+03  0.81257621771E+02 0.  0.
        -11    1    5    5    0    0  0.12358231205E+03 -0.43873803661E+01  0.58810504700E+03  0.60096537609E+03  0.00000000000E+00 0.  1.
         12    1    5    5    0    0  0.13726983058E+02 -0.10193429332E+02  0.14020866159E+02  0.22111552485E+02  0.00000000000E+00 0. -1.
         11    1    3    3    0    0 -0.14672311731E+03  0.50788363921E+02 -0.37759002077E+03  0.40826627934E+03  0.00000000000E+00 0. -1.
        -12    1    3    3    0    0  0.41710287190E+01 -0.88842936843E+01 -0.72485615841E+01  0.12201221246E+02  0.00000000000E+00 0.  1.
          5    1    4    4  501    0  0.71779115216E+01 -0.29152934616E+02 -0.26984412380E+02  0.40583825867E+02  0.41800000000E+01 0.  1.
         -5    1    4    4    0  501 -0.19351180423E+01  0.18296740776E+01  0.11447554541E+03  0.11458278792E+03  0.41800000000E+01 0.  1.
</event>
<event>
11    1  0.7157190E-009  0.1384876E+03  0.7561462E-02  0.1109259E+00
         22   -1    0    0    0    0  0.00000000000E+00  0.00000000000E+00  0.10047715505E+04  0.10047715505E+04  0.00000000000E+00 0. -1.
         22   -1    0    0    0    0 -0.00000000000E+00 -0.00000000000E+00 -0.34358376638E+03  0.34358376638E+03  0.00000000000E+00 0.  1.
        -24    2    1    2    0    0  0.53998472128E+02  0.26321561615E+02 -0.29146808485E+03  0.31385947233E+03  0.99726948649E+02 0.  0.
         25    2    1    2    0    0 -0.48457695316E+02 -0.20167294111E+02  0.78490583835E+02  0.15673370544E+03  0.12509921936E+03 0.  0.
         24    2    1    2    0    0 -0.55407768115E+01 -0.61542675034E+01  0.87416528517E+03  0.87776213914E+03  0.78948412857E+02 0.  0.
        -13    1    5    5    0    0  0.35161642897E+02 -0.13449350868E+02  0.45987700943E+03  0.46141531181E+03  0.00000000000E+00 0.  1.
         14    1    5    5    0    0 -0.40702419708E+02  0.72950833650E+01  0.41428827575E+03  0.41634682733E+03  0.00000000000E+00 0. -1.
         13    1    3    3    0    0  0.22831167550E+02 -0.27301484922E+02 -0.34698758407E+02  0.49705503977E+02  0.00000000000E+00 0. -1.
        -14    1    3    3    0    0  0.31167304578E+02  0.53623046536E+02 -0.25676932644E+03  0.26415396835E+03  0.00000000000E+00 0.  1.
          5    1    4    4  501    0 -0.75737108721E+02 -0.22242888154E+02  0.95714976532E+02  0.12413575167E+03  0.41800000000E+01 0.  1.
         -5    1    4    4    0  501  0.27279413404E+02  0.20755940431E+01 -0.17224392698E+02  0.32597953772E+02  0.41800000000E+01 0.  1.
</event>
<event>
11    1  0.7157190E-009  0.1508130E+03  0.7561462E-02  0.1096051E+00
         22   -1    0    0    0    0  0.00000000000E+00  0.00000000000E+00  0.11996530742E+04  0.11996530742E+04  0.00000000000E+00 0.  1.
         22   -1    0    0    0    0 -0.00000000000E+00 -0.00000000000E+00 -0.43099264372E+03  0.43099264372E+03  0.00000000000E+00 0. -1.
         24    2    1    2    0    0  0.17970721586E+02 -0.81932966163E+02 -0.40804087353E+03  0.42442881352E+03  0.81280412764E+02 0.  0.
         25    2    1    2    0    0 -0.17490361423E+02  0.10872347701E+03  0.57512178152E+03  0.59878212776E+03  0.12509302840E+03 0.  0.
        -24    2    1    2    0    0 -0.48036016283E+00 -0.26790510842E+02  0.60157952251E+03  0.60743477665E+03  0.79756653468E+02 0.  0.
        -11    1    3    3    0    0  0.19504024055E+02 -0.30437833882E+01 -0.18762347082E+02  0.27234119036E+02  0.00000000000E+00 0.  1.
         12    1    3    3    0    0 -0.15333024692E+01 -0.78889182775E+02 -0.38927852644E+03  0.39719469448E+03  0.00000000000E+00 0. -1.
         13    1    5    5    0    0 -0.10234916006E+01 -0.48757775948E+02  0.22547319975E+03  0.23068708688E+03  0.00000000000E+00 0. -1.
        -14    1    5    5    0    0  0.54313143773E+00  0.21967265106E+02  0.37610632276E+03  0.37674768977E+03  0.00000000000E+00 0.  1.
          5    1    4    4  501    0  0.29220923239E+01 -0.12506373286E+02  0.33324830901E+01  0.13911356507E+02  0.41800000000E+01 0. -1.
         -5    1    4    4    0  501 -0.20412453747E+02  0.12122985029E+03  0.57178929843E+03  0.58487077125E+03  0.41800000000E+01 0. -1.
</event>
<event>
11    1  0.7157190E-009  0.3395378E+03  0.7561462E-02  0.9847203E-01
         22   -1    0    0    0    0  0.00000000000E+00  0.00000000000E+00  0.41062837859E+03  0.41062837859E+03  0.00000000000E+00 0. -1.
         22   -1    0    0    0    0 -0.00000000000E+00 -0.00000000000E+00 -0.30166841300E+04  0.30166841300E+04  0.00000000000E+00 0.  1.
        -24    2    1    2    0    0  0.93338669518E+02  0.16328543560E+03 -0.23864056689E+04  0.23951725606E+04  0.80903264777E+02 0.  0.
         25    2    1    2    0    0 -0.62062337713E+02  0.17214128955E+03 -0.52534566102E+03  0.57019279042E+03  0.12508955736E+03 0.  0.
         24    2    1    2    0    0 -0.31276331805E+02 -0.33542672515E+03  0.30569557843E+03  0.46194715756E+03  0.80349815326E+02 0.  0.
        -13    1    5    5    0    0 -0.35559462829E+02 -0.67062545490E+02  0.89130684092E+02  0.11707322175E+03  0.00000000000E+00 0.  1.
         14    1    5    5    0    0  0.42831310241E+01 -0.26836417966E+03  0.21656489434E+03  0.34487393581E+03  0.00000000000E+00 0. -1.
         11    1    3    3    0    0 -0.30542705855E+01  0.13734265599E+02 -0.48319053508E+02  0.50325833846E+02  0.00000000000E+00 0. -1.
        -12    1    3    3    0    0  0.96392940104E+02  0.14955117000E+03 -0.23380866153E+04  0.23448467268E+04  0.00000000000E+00 0.  1.
          5    1    4    4  501    0 -0.22506376801E+02 -0.16620324063E+02 -0.80309603525E+02  0.85146209469E+02  0.41800000000E+01 0. -1.
         -5    1    4    4    0  501 -0.39555960912E+02  0.18876161362E+03 -0.44503605750E+03  0.48504658095E+03  0.41800000000E+01 0. -1.
</event>
<event>
11    1  0.7157190E-009  0.1363908E+03  0.7561462E-02  0.1111657E+00
         22   -1    0    0    0    0  0.00000000000E+00  0.00000000000E+00  0.45107842651E+03  0.45107842651E+03  0.00000000000E+00 0. -1.
         22   -1    0    0    0    0 -0.00000000000E+00 -0.00000000000E+00 -0.65574690535E+03  0.65574690535E+03  0.00000000000E+00 0.  1.
        -24    2    1    2    0    0  0.18953605959E+02  0.24754920258E+02 -0.42618941495E+03  0.43466735741E+03  0.79537720138E+02 0.  0.
         25    2    1    2    0    0 -0.72534660879E+02 -0.18625558392E+02 -0.19548594815E+03  0.24387095684E+03  0.12510035656E+03 0.  0.
         24    2    1    2    0    0  0.53581054920E+02 -0.61293618666E+01  0.41700688426E+03  0.42828701761E+03  0.81403497563E+02 0.  0.
        -11    1    5    5    0    0  0.33457237718E+02 -0.28139533984E+02  0.91400222580E+02  0.10131742602E+03  0.00000000000E+00 0.  1.
         12    1    5    5    0    0  0.20123817202E+02  0.22010172118E+02  0.32560666168E+03  0.32696959159E+03  0.00000000000E+00 0. -1.
         13    1    3    3    0    0  0.11112892760E+02  0.30755328971E+02 -0.59901817937E+02  0.68246717414E+02  0.00000000000E+00 0. -1.
        -14    1    3    3    0    0  0.78407131989E+01 -0.60004087122E+01 -0.36628759702E+03  0.36642064000E+03  0.00000000000E+00 0.  1.
          5    1    4    4  501    0 -0.78615744013E+02  0.32552385581E+02 -0.77982820003E+02  0.11549409348E+03  0.41800000000E+01 0. -1.
         -5    1    4    4    0  501  0.60810831340E+01 -0.51177943973E+02 -0.11750312814E+03  0.12837686335E+03  0.41800000000E+01 0. -1.
</event>
<event>
11    1  0.7157190E-009  0.2110627E+03  0.7561462E-02  0.1046965E+00
         22   -1    0    0    0    0  0.00000000000E+00  0.00000000000E+00  0.76431582695E+03  0.76431582695E+03  0.00000000000E+00 0. -1.
         22   -1    0    0    0    0 -0.00000000000E+00 -0.00000000000E+00 -0.66509442121E+03  0.66509442121E+03  0.00000000000E+00 0.  1.
         24    2    1    2    0    0 -0.14341035194E+03 -0.83479581009E+02 -0.56999399298E+03  0.59940671583E+03  0.82824449698E+02 0.  0.
         25    2    1    2    0    0  0.20586700472E+03  0.11489330193E+03  0.16310150617E+03  0.31277993017E+03  0.12508992343E+03 0.  0.
        -24    2    1    2    0    0 -0.62456652776E+02 -0.31413720918E+02  0.50611389255E+03  0.51722360215E+03  0.80506689490E+02 0.  0.
        -11    1    3    3    0    0 -0.69393308340E+02 -0.76789248071E+02 -0.41207563340E+03  0.42487450794E+03  0.00000000000E+00 0.  1.
         12    1    3    3    0    0 -0.74017043602E+02 -0.66903329381E+01 -0.15791835958E+03  0.17453220789E+03  0.00000000000E+00 0. -1.
         11    1    5    5    0    0 -0.47499547047E+02 -0.50648125638E+02  0.45859618802E+03  0.46382313791E+03  0.00000000000E+00 0. -1.
        -12    1    5    5    0    0 -0.14957105729E+02  0.19234404720E+02  0.47517704533E+02  0.53400464238E+02  0.00000000000E+00 0.  1.
          5    1    4    4  501    0  0.21448888382E+02 -0.50802899616E+01 -0.17222992385E+02  0.28283706009E+02  0.41800000000E+01 0.  1.
         -5    1    4    4    0  501  0.18441811634E+03  0.11997359189E+03  0.18032449855E+03  0.28449622416E+03  0.41800000000E+01 0.  1.
</event>
<event>
11    1  0.7157190E-009  0.1396573E+03  0.7561462E-02  0.1107942E+00
         22   -1    0    0    0    0  0.00000000000E+00  0.00000000000E+00  0.17475247746E+03  0.17475247746E+03  0.00000000000E+00 0. -1.
         22   -1    0    0    0    0 -0.00000000000E+00 -0.00000000000E+00 -0.20222053367E+03  0.20222053367E+03  0.00000000000E+00 0. -1.
         24    2    1    2    0    0 -0.82431764565E+01  0.25516684147E+02 -0.77225597695E+02  0.11451791957E+03  0.80196694667E+02 0.  0.
         25    2    1    2    0    0  0.38933517506E+02 -0.71502253224E+02 -0.76020715562E+01  0.14946030130E+03  0.12510874937E+03 0.  0.
        -24    2    1    2    0    0 -0.30690341049E+02  0.45985569078E+02  0.57359613049E+02  0.11299479026E+03  0.80131940078E+02 0.  0.
        -11    1    3    3    0    0 -0.22152077396E+02  0.47906818291E+02 -0.30741002575E+02  0.61080168721E+02  0.00000000000E+00 0.  1.
         12    1    3    3    0    0  0.13908900939E+02 -0.22390134144E+02 -0.46484595120E+02  0.53437750849E+02  0.00000000000E+00 0. -1.
         13    1    5    5    0    0  0.88128207309E+01  0.33651736935E+02  0.62262747772E+02  0.71321490227E+02  0.00000000000E+00 0. -1.
        -14    1    5    5    0    0 -0.39503161780E+02  0.12333832142E+02 -0.49031347232E+01  0.41673300038E+02  0.00000000000E+00 0.  1.
          5    1    4    4  501    0 -0.24672231748E+02 -0.75176374225E+02  0.17001164728E+02  0.81035290233E+02  0.41800000000E+01 0. -1.
         -5    1    4    4    0  501  0.63605749254E+02  0.36741210010E+01 -0.24603236284E+02  0.68425011062E+02  0.41800000000E+01 0. -1.
</event>
<event>
11    1  0.7157190E-009  0.1854208E+03  0.7561462E-02  0.1065340E+00
         22   -1    0    0    0    0  0.00000000000E+00  0.00000000000E+00  0.48625544927E+03  0.48625544927E+03  0.00000000000E+00 0. -1.
         22   -1    0    0    0    0 -0.00000000000E+00 -0.00000000000E+00 -0.72043351332E+03  0.72043351332E+03  0.00000000000E+00 0. -1.
        -24    2    1    2    0    0  0.13693786750E+01 -0.85350121128E+02 -0.52229441862E+03  0.53481799915E+03  0.77151241845E+02 0.  0.
         25    2    1    2    0    0  0.41701446718E+02  0.20873400913E+03 -0.91077745180E+02  0.26315798586E+03  0.12509225646E+03 0.  0.
         24    2    1    2    0    0 -0.43070825393E+02 -0.12338388800E+03  0.37919409975E+03  0.40871297758E+03  0.78609496457E+02 0.  0.
        -13    1    5    5    0    0 -0.35975738679E+02 -0.11854568540E+03  0.24783179040E+03  0.27707026118E+03  0.00000000000E+00 0.  1.
         14    1    5    5    0    0 -0.70950867146E+01 -0.48382026004E+01  0.13136230936E+03  0.13164271639E+03  0.00000000000E+00 0. -1.
         11    1    3    3    0    0  0.32204998885E+02 -0.59252209257E+02 -0.40931655922E+03  0.41483494538E+03  0.00000000000E+00 0. -1.
        -12    1    3    3    0    0 -0.30835620210E+02 -0.26097911871E+02 -0.11297785940E+03  0.11998305377E+03  0.00000000000E+00 0.  1.
          5    1    4    4  501    0  0.44050385818E+02  0.16765546700E+03 -0.12157628753E+03  0.21177124025E+03  0.41800000000E+01 0.  1.
         -5    1    4    4    0  501 -0.23489390996E+01  0.41078542128E+02  0.30498542355E+02  0.51386745607E+02  0.41800000000E+01 0.  1.
</event>
<event>
11    1  0.7157190E-009  0.1846994E+03  0.7561462E-02  0.1065904E+00
         22   -1    0    0    0    0  0.00000000000E+00  0.00000000000E+00  0.80722576697E+03  0.80722576697E+03  0.00000000000E+00 0.  1.
         22   -1    0    0    0    0 -0.00000000000E+00 -0.00000000000E+00 -0.16452445146E+04  0.16452445146E+04  0.00000000000E+00 0. -1.
         24    2    1    2    0    0  0.33247387394E+02 -0.12982968835E+03 -0.15092035638E+04  0.15172798075E+04  0.80507641334E+02 0.  0.
         25    2    1    2    0    0 -0.37423276265E+02  0.17467077503E+03 -0.36942115537E+02  0.22118692233E+03  0.12509417835E+03 0.  0.
        -24    2    1    2    0    0  0.41758888711E+01 -0.44841086675E+02  0.70812693176E+03  0.71400355175E+03  0.79556013795E+02 0.  0.
        -11    1    3    3    0    0  0.47399720539E+02 -0.31317359987E+02 -0.55508793448E+03  0.55798756756E+03  0.00000000000E+00 0.  1.
         12    1    3    3    0    0 -0.14152333145E+02 -0.98512328367E+02 -0.95411562934E+03  0.95929223990E+03  0.00000000000E+00 0. -1.
         13    1    5    5    0    0 -0.31059203892E+02 -0.42141159219E+01  0.14694089510E+03  0.15024666243E+03  0.00000000000E+00 0. -1.
        -14    1    5    5    0    0  0.35235092763E+02 -0.40626970753E+02  0.56118603666E+03  0.56375688933E+03  0.00000000000E+00 0.  1.
          5    1    4    4  501    0 -0.21322717664E+02 -0.13327948624E+02  0.88408103693E+01  0.26980082118E+02  0.41800000000E+01 0.  1.
         -5    1    4    4    0  501 -0.16100558601E+02  0.18799872365E+03 -0.45782925906E+02  0.19420684022E+03  0.41800000000E+01 0.  1.
</event>
<event>
11    1  0.7157190E-009  0.1468408E+03  0.7561462E-02  0.1100151E+00
         22   -1    0    0    0    0  0.00000000000E+00  0.00000000000E+00  0.53262733416E+03  0.53262733416E+03  0.00000000000E+00 0.  1.
         22   -1    0    0    0    0 -0.00000000000E+00 -0.00000000000E+00 -0.19847082187E+03  0.19847082187E+03  0.00000000000E+00 0. -1.
         24    2    1    2    0    0 -0.26891523909E+02  0.67427981748E+02 -0.76442540392E+02  0.13288414063E+03  0.80901458994E+02 0.  0.
         25    2    1    2    0    0  0.22378316883E+02 -0.84263204781E+02 -0.25593700557E+02  0.15460737695E+03  0.12508927513E+03 0.  0.
        -24    2    1    2    0    0  0.45132070262E+01  0.16835223033E+02  0.43619275324E+03  0.44360663845E+03  0.78860243016E+02 0.  0.
        -13    1    3    3    0    0 -0.24440479553E+02  0.10157753360E+02  0.10724754698E+02  0.28557614701E+02  0.00000000000E+00 0.  1.
         14    1    3    3    0    0 -0.24510443555E+01  0.57270228389E+02 -0.87167295090E+02  0.10432652592E+03  0.00000000000E+00 0. -1.
         11    1    5    5    0    0  0.20977015963E+02  0.33432020372E+02  0.11538981869E+03  0.12195304605E+03  0.00000000000E+00 0. -1.
        -12    1    5    5    0    0 -0.16463808937E+02 -0.16596797338E+02  0.32080293455E+03  0.32165359240E+03  0.00000000000E+00 0.  1.
          5    1    4    4  501    0  0.88564830696E+01 -0.10834376818E+03  0.10134610895E+02  0.10925654275E+03  0.41800000000E+01 0.  1.
         -5    1    4    4    0  501  0.13521833813E+02  0.24080563399E+02 -0.35728311452E+02  0.45350834198E+02  0.41800000000E+01 0.  1.
</event>
<event>
11    1  0.7157190E-009  0.1826985E+03  0.7561462E-02  0.1067481E+00
         22   -1    0    0    0    0  0.00000000000E+00  0.00000000000E+00  0.32977828564E+04  0.32977828564E+04  0.00000000000E+00 0.  1.
         22   -1    0    0    0    0 -0.00000000000E+00 -0.00000000000E+00 -0.91162960333E+02  0.91162960333E+02  0.00000000000E+00 0. -1.
        -24    2    1    2    0    0 -0.25434846919E+01  0.13990528239E+03  0.16773814066E+01  0.16016143510E+03  0.77903236967E+02 0.  0.
         25    2    1    2    0    0 -0.12169000742E+03 -0.50968179306E+02  0.95448264008E+03  0.97164360658E+03  0.12509186535E+03 0.  0.
         24    2    1    2    0    0  0.12423349211E+03 -0.88937103088E+02  0.22504598746E+04  0.22571407750E+04  0.82286465782E+02 0.  0.
        -13    1    5    5    0    0  0.10358633315E+03 -0.32875879098E+02  0.16941436706E+04  0.16976259095E+04  0.00000000000E+00 0.  1.
         14    1    5    5    0    0  0.20647158968E+02 -0.56061223990E+02  0.55631620395E+03  0.55951486556E+03  0.00000000000E+00 0. -1.
         11    1    3    3    0    0 -0.30506778604E+02  0.76477240638E+02 -0.24749004960E+02  0.85976421901E+02  0.00000000000E+00 0. -1.
        -12    1    3    3    0    0  0.27963293912E+02  0.63428041756E+02  0.26426386367E+02  0.74185013202E+02  0.00000000000E+00 0.  1.
          5    1    4    4  501    0 -0.38422849414E+02 -0.69147854320E+02  0.66920882327E+03  0.67388104488E+03  0.41800000000E+01 0. -1.
         -5    1    4    4    0  501 -0.83267158008E+02  0.18179675014E+02  0.28527381681E+03  0.29776256169E+03  0.41800000000E+01 0. -1.
</event>
<event>
11    1  0.7157190E-009  0.1283475E+03  0.7561462E-02  0.1121316E+00
         22   -1    0    0    0    0  0.00000000000E+00  0.00000000000E+00  0.14913604514E+03  0.14913604514E+03  0.00000000000E+00 0. -1.
         22   -1    0    0    0    0 -0.00000000000E+00 -0.00000000000E+00 -0.80856655062E+03  0.80856655062E+03  0.00000000000E+00 0.  1.
         24    2    1    2    0    0  0.21490256157E+02 -0.41903682696E+01 -0.50050510006E+03  0.50772367092E+03  0.82453505304E+02 0.  0.
         25    2    1    2    0    0  0.52896947552E+01 -0.85723510580E+01 -0.27705105651E+03  0.30415131599E+03  0.12509703847E+03 0.  0.
        -24    2    1    2    0    0 -0.26779950912E+02  0.12762719328E+02  0.11812565109E+03  0.14582760885E+03  0.80199559109E+02 0.  0.
        -11    1    3    3    0    0  0.37784332484E+02  0.98116776779E+01 -0.46187207531E+03  0.46351886559E+03  0.00000000000E+00 0.  1.
         12    1    3    3    0    0 -0.16294076327E+02 -0.14002045947E+02 -0.38633024743E+02  0.44204805337E+02  0.00000000000E+00 0. -1.
         13    1    5    5    0    0 -0.54085099975E+02  0.15918744865E+02  0.92028457030E+02  0.10792516565E+03  0.00000000000E+00 0. -1.
        -14    1    5    5    0    0  0.27305149062E+02 -0.31560255374E+01  0.26097194060E+02  0.37902443197E+02  0.00000000000E+00 0.  1.
          5    1    4    4  501    0  0.26221867876E+02 -0.28136228395E+02 -0.16604259802E+02  0.42099970864E+02  0.41800000000E+01 0. -1.
         -5    1    4    4    0  501 -0.20932173121E+02  0.19563877337E+02 -0.26044679670E+03  0.26205134512E+03  0.41800000000E+01 0. -1.
</event>
<event>
11    1  0.7157190E-009  0.1529141E+03  0.7561462E-02  0.1093938E+00
         22   -1    0    0    0    0  0.00000000000E+00  0.00000000000E+00  0.25392769709E+03  0.25392769709E+03  0.00000000000E+00 0. -1.
         22   -1    0    0    0    0 -0.00000000000E+00 -0.00000000000E+00 -0.54630930388E+03  0.54630930388E+03  0.00000000000E+00 0. -1.
         24    2    1    2    0    0 -0.79305032667E+02 -0.34678117374E+02 -0.34821727887E+03  0.36765398947E+03  0.80139395079E+02 0.  0.
         25    2    1    2    0    0  0.68985028622E+02  0.70286888534E+02 -0.14369476250E+03  0.21446439684E+03  0.12509041478E+03 0.  0.
        -24    2    1    2    0    0  0.10320004045E+02 -0.35608771161E+02  0.19953043458E+03  0.21811861466E+03  0.79930273805E+02 0.  0.
        -13    1    3    3    0    0 -0.33166910591E+02  0.17568602655E+02 -0.57263918791E+02  0.68467920611E+02  0.00000000000E+00 0.  1.
         14    1    3    3    0    0 -0.46138122076E+02 -0.52246720029E+02 -0.29095336007E+03  0.29918606886E+03  0.00000000000E+00 0. -1.
         13    1    5    5    0    0 -0.10154573163E+02 -0.54882311486E+02  0.16113614130E+03  0.17052870580E+03  0.00000000000E+00 0. -1.
        -14    1    5    5    0    0  0.20474577208E+02  0.19273540325E+02  0.38394293279E+02  0.47589908856E+02  0.00000000000E+00 0.  1.
          5    1    4    4  501    0  0.52292925074E+02  0.90362426695E+02 -0.47635660942E+02  0.11483269031E+03  0.41800000000E+01 0.  1.
         -5    1    4    4    0  501  0.16692103548E+02 -0.20075538161E+02 -0.96059101563E+02  0.99631706532E+02  0.41800000000E+01 0.  1.
</event>
<event>
11    1  0.7157190E-009  0.1732341E+03  0.7561462E-02  0.1075251E+00
         22   -1    0    0    0    0  0.00000000000E+00  0.00000000000E+00  0.15542470328E+04  0.15542470328E+04  0.00000000000E+00 0. -1.
         22   -1    0    0    0    0 -0.00000000000E+00 -0.00000000000E+00 -0.42362846208E+03  0.42362846208E+03  0.00000000000E+00 0.  1.
        -24    2    1    2    0    0 -0.10938052752E+03  0.53153713736E+02 -0.33923308574E+03  0.36912123838E+03  0.79887327403E+02 0.  0.
         25    2    1    2    0    0  0.12066557058E+03  0.85829663068E+01  0.44366306486E+02  0.17958377142E+03  0.12509242412E+03 0.  0.
         24    2    1    2    0    0 -0.11285043063E+02 -0.61736680043E+02  0.14254853500E+04  0.14291704851E+04  0.81123502052E+02 0.  0.
        -13    1    5    5    0    0 -0.10822952635E+02 -0.59587867454E+02  0.49616476741E+03  0.49984730335E+03  0.00000000000E+00 0.  1.
         14    1    5    5    0    0 -0.46209042731E+00 -0.21488125883E+01  0.92932058258E+03  0.92932318175E+03  0.00000000000E+00 0. -1.
         13    1    3    3    0    0 -0.11230860679E+02  0.34073293493E+02 -0.15913651860E+03  0.16313047880E+03  0.00000000000E+00 0. -1.
        -14    1    3    3    0    0 -0.98149666843E+02  0.19080420243E+02 -0.18009656713E+03  0.20599075958E+03  0.00000000000E+00 0.  1.
          5    1    4    4  501    0  0.47060869474E+02 -0.50161916723E+02 -0.11714228315E+02  0.69897345229E+02  0.41800000000E+01 0.  1.
         -5    1    4    4    0  501  0.73604701110E+02  0.58744883030E+02  0.56080534801E+02  0.10968642619E+03  0.41800000000E+01 0.  1.
</event>
<event>
11    1  0.7157190E-009  0.1780404E+03  0.7561462E-02  0.1071239E+00
         22   -1    0    0    0    0  0.00000000000E+00  0.00000000000E+00  0.24966020971E+03  0.24966020971E+03  0.00000000000E+00 0. -1.
         22   -1    0    0    0    0 -0.00000000000E+00 -0.00000000000E+00 -0.71136412014E+03  0.71136412014E+03  0.00000000000E+00 0.  1.
         24    2    1    2    0    0 -0.18587188692E+02  0.11343352985E+03 -0.39007183862E+03  0.41308676003E+03  0.72608420670E+02 0.  0.
         25    2    1    2    0    0  0.70817996053E+02 -0.15343321009E+03 -0.25906315067E+03  0.33364329457E+03  0.12508874230E+03 0.  0.
        -24    2    1    2    0    0 -0.52230807361E+02  0.39999680237E+02  0.18743107885E+03  0.21429427526E+03  0.80396488929E+02 0.  0.
        -13    1    3    3    0    0 -0.13108524468E+02  0.10566559485E+03 -0.38924507742E+03  0.40354526591E+03  0.00000000000E+00 0.  1.
         14    1    3    3    0    0 -0.54786642242E+01  0.77679350046E+01 -0.82676120156E+00  0.95414941179E+01  0.00000000000E+00 0. -1.
         11    1    5    5    0    0 -0.23689311199E+02  0.51727565181E+02  0.16907350374E+03  0.17838938907E+03  0.00000000000E+00 0. -1.
        -12    1    5    5    0    0 -0.28541496162E+02 -0.11727884944E+02  0.18357575113E+02  0.35904886192E+02  0.00000000000E+00 0.  1.
          5    1    4    4  501    0  0.28856130941E+02 -0.13585594630E+03 -0.10847572610E+03  0.17627810412E+03  0.41800000000E+01 0.  1.
         -5    1    4    4    0  501  0.41961865112E+02 -0.17577263785E+02 -0.15058742457E+03  0.15736519045E+03  0.41800000000E+01 0.  1.
</event>
<event>
11    1  0.7157190E-009  0.1637414E+03  0.7561462E-02  0.1083610E+00
         22   -1    0    0    0    0  0.00000000000E+00  0.00000000000E+00  0.33774100957E+04  0.33774100957E+04  0.00000000000E+00 0. -1.
         22   -1    0    0    0    0 -0.00000000000E+00 -0.00000000000E+00 -0.17857625289E+04  0.17857625289E+04  0.00000000000E+00 0. -1.
         24    2    1    2    0    0  0.10366060240E+03 -0.25251305424E+02 -0.15979550249E+04  0.16035691239E+04  0.81182044564E+02 0.  0.
         25    2    1    2    0    0 -0.95532434354E+02  0.15962763538E+01 -0.15096169622E+03  0.21809407617E+03  0.12508636306E+03 0.  0.
        -24    2    1    2    0    0 -0.81281680480E+01  0.23655029070E+02  0.33405642879E+04  0.33415094245E+04  0.75431061799E+02 0.  0.
        -13    1    3    3    0    0  0.46101984656E+01  0.72139253652E+00 -0.35092852788E+01  0.58386145833E+01  0.00000000000E+00 0.  1.
         14    1    3    3    0    0  0.99050403937E+02 -0.25972697961E+02 -0.15944457397E+04  0.15977305093E+04  0.00000000000E+00 0. -1.
         11    1    5    5    0    0 -0.28959753369E+01 -0.25608304746E+02  0.17057870653E+04  0.17059817361E+04  0.00000000000E+00 0. -1.
        -12    1    5    5    0    0 -0.52321927111E+01  0.49263333817E+02  0.16347772226E+04  0.16355276884E+04  0.00000000000E+00 0.  1.
          5    1    4    4  501    0 -0.83896169918E+01 -0.33543096602E+02 -0.11022639146E+03  0.11559781476E+03  0.41800000000E+01 0. -1.
         -5    1    4    4    0  501 -0.87142817362E+02  0.35139372956E+02 -0.40735304754E+02  0.10249626141E+03  0.41800000000E+01 0. -1.
</event>
<event>
11    1  0.7157190E-009  0.1584773E+03  0.7561462E-02  0.1088518E+00
         22   -1    0    0    0    0  0.00000000000E+00  0.00000000000E+00  0.54679080723E+03  0.54679080723E+03  0.00000000000E+00 0.  1.
         22   -1    0    0    0    0 -0.00000000000E+00 -0.00000000000E+00 -0.47576740223E+03  0.47576740223E+03  0.00000000000E+00 0.  1.
         24    2    1    2    0    0  0.27955590328E+02  0.24573929830E+01 -0.13946242192E+03  0.16355981967E+03  0.80712413368E+02 0.  0.
         25    2    1    2    0    0 -0.26285191262E+02 -0.99693246974E+02 -0.29591257162E+03  0.33740467211E+03  0.12509199794E+03 0.  0.
        -24    2    1    2    0    0 -0.16703990654E+01  0.97235853991E+02  0.50639839853E+03  0.52159371767E+03  0.78505202021E+02 0.  0.
        -13    1    3    3    0    0  0.32850742207E+02  0.37371748330E+02 -0.73349441942E+02  0.88633850588E+02  0.00000000000E+00 0.  1.
         14    1    3    3    0    0 -0.48951518790E+01 -0.34914355347E+02 -0.66112979980E+02  0.74925969083E+02  0.00000000000E+00 0. -1.
         11    1    5    5    0    0 -0.18516735942E+02  0.22951618102E+02  0.44030737771E+02  0.52993887875E+02  0.00000000000E+00 0. -1.
        -12    1    5    5    0    0  0.16846336877E+02  0.74284235889E+02  0.46236766076E+03  0.46859982980E+03  0.00000000000E+00 0.  1.
          5    1    4    4  501    0 -0.62033748162E+02 -0.76832434375E+02 -0.26997072052E+03  0.28749447164E+03  0.41800000000E+01 0.  1.
         -5    1    4    4    0  501  0.35748556900E+02 -0.22860812599E+02 -0.25941851097E+02  0.49910200475E+02  0.41800000000E+01 0.  1.
</event>
<event>
11    1  0.7157190E-009  0.1767962E+03  0.7561462E-02  0.1072264E+00
         22   -1    0    0    0    0  0.00000000000E+00  0.00000000000E+00  0.96074031676E+03  0.96074031676E+03  0.00000000000E+00 0.  1.
         22   -1    0    0    0    0 -0.00000000000E+00 -0.00000000000E+00 -0.16294969931E+04  0.16294969931E+04  0.00000000000E+00 0.  1.
        -24    2    1    2    0    0  0.36536735042E+02  0.62271644087E+02 -0.15751934027E+04  0.15786885115E+04  0.76226436448E+02 0.  0.
         25    2    1    2    0    0 -0.15640812612E+03 -0.56449819143E+02  0.19350027922E+03  0.28415197074E+03  0.12509956204E+03 0.  0.
         24    2    1    2    0    0  0.11987139108E+03 -0.58218249436E+01  0.71293644720E+03  0.72739682762E+03  0.80154370062E+02 0.  0.
        -13    1    5    5    0    0  0.10954030912E+03 -0.32507148802E+02  0.52464111274E+03  0.53693956012E+03  0.00000000000E+00 0.  1.
         14    1    5    5    0    0  0.10331081960E+02  0.26685323858E+02  0.18829533445E+03  0.19045726749E+03  0.00000000000E+00 0. -1.
         13    1    3    3    0    0  0.45348988984E+02  0.69940918854E+01 -0.52372974594E+03  0.52573595550E+03  0.00000000000E+00 0. -1.
        -14    1    3    3    0    0 -0.88122539422E+01  0.55277552202E+02 -0.10514636568E+04  0.10529525560E+04  0.00000000000E+00 0.  1.
          5    1    4    4  501    0 -0.41784738791E+02  0.37321623211E+02  0.78854929140E+02  0.96821692841E+02  0.41800000000E+01 0.  1.
         -5    1    4    4    0  501 -0.11462338733E+03 -0.93771442354E+02  0.11464535008E+03  0.18733027790E+03  0.41800000000E+01 0.  1.
</event>
<event>
11    1  0.7157190E-009  0.1921047E+03  0.7561462E-02  0.1060252E+00
         22   -1    0    0    0    0  0.00000000000E+00  0.00000000000E+00  0.28196591332E+03  0.28196591332E+03  0.00000000000E+00 0.  1.
         22   -1    0    0    0    0 -0.00000000000E+00 -0.00000000000E+00 -0.93417133684E+03  0.93417133684E+03  0.00000000000E+00 0. -1.
        -24    2    1    2    0    0 -0.84961102688E+02  0.11314563471E+03 -0.41682495053E+03  0.44683658983E+03  0.76808690963E+02 0.  0.
         25    2    1    2    0    0  0.49489729496E+02 -0.14798716447E+03 -0.47258214936E+03  0.51315768822E+03  0.12508993131E+03 0.  0.
         24    2    1    2    0    0  0.35471373192E+02  0.34841529758E+02  0.23720167637E+03  0.25614297210E+03  0.82900159075E+02 0.  0.
        -11    1    5    5    0    0  0.10986151763E+02 -0.46449953954E+01  0.18834117530E+03  0.18871849360E+03  0.00000000000E+00 0.  1.
         12    1    5    5    0    0  0.24485221429E+02  0.39486525154E+02  0.48860501067E+02  0.67424478505E+02  0.00000000000E+00 0. -1.
         13    1    3    3    0    0 -0.84738342425E+02  0.12391382592E+03 -0.39278901047E+03  0.42049783553E+03  0.00000000000E+00 0. -1.
        -14    1    3    3    0    0 -0.22276026272E+00 -0.10768191216E+02 -0.24035940056E+02  0.26338754309E+02  0.00000000000E+00 0.  1.
          5    1    4    4  501    0  0.54843845142E+02 -0.93840265472E+02 -0.43109836451E+03  0.44460894622E+03  0.41800000000E+01 0.  1.
         -5    1    4    4    0  501 -0.53541156454E+01 -0.54146898993E+02 -0.41483784850E+02  0.68548742005E+02  0.41800000000E+01 0.  1.
</event>
<event>
11    1  0.7157190E-009  0.1378065E+03  0.7561462E-02  0.1110033E+00
         22   -1    0    0    0    0  0.00000000000E+00  0.00000000000E+00  0.10611554574E+04  0.10611554574E+04  0.00000000000E+00 0. -1.
         22   -1    0    0    0    0 -0.00000000000E+00 -0.00000000000E+00 -0.51831779455E+03  0.51831779455E+03  0.00000000000E+00 0. -1.
        -24    2    1    2    0    0 -0.51331557503E+02 -0.27837514716E+02 -0.46564267547E+03  0.47419922300E+03  0.68058400354E+02 0.  0.
         25    2    1    2    0    0  0.50941674941E+02  0.69781253532E+00  0.51339768237E+02  0.14448437785E+03  0.12507766568E+03 0.  0.
         24    2    1    2    0    0  0.38988256123E+00  0.27139702181E+02  0.95714057010E+03  0.96078965111E+03  0.79132593211E+02 0.  0.
        -11    1    5    5    0    0 -0.15909020621E+02  0.10843125167E+01  0.38988285516E+02  0.42123141837E+02  0.00000000000E+00 0.  1.
         12    1    5    5    0    0  0.16298903182E+02  0.26055389664E+02  0.91815228459E+03  0.91866650928E+03  0.00000000000E+00 0. -1.
         13    1    3    3    0    0 -0.66016481972E+02 -0.21507202607E+02 -0.42292742857E+03  0.42858878368E+03  0.00000000000E+00 0. -1.
        -14    1    3    3    0    0  0.14684924470E+02 -0.63303121089E+01 -0.42715246895E+02  0.45610439325E+02  0.00000000000E+00 0.  1.
          5    1    4    4  501    0  0.73065767998E+02 -0.35891048965E+02  0.55577008064E+01  0.81701495012E+02  0.41800000000E+01 0.  1.
         -5    1    4    4    0  501 -0.22124093056E+02  0.36588861500E+02  0.45782067431E+02  0.62782882840E+02  0.41800000000E+01 0.  1.
</event>
<event>
11    1  0.7157190E-009  0.1356517E+03  0.7561462E-02  0.1112513E+00
         22   -1    0    0    0    0  0.00000000000E+00  0.00000000000E+00  0.54781665881E+03  0.54781665881E+03  0.00000000000E+00 0.  1.
         22   -1    0    0    0    0 -0.00000000000E+00 -0.00000000000E+00 -0.74439046694E+03  0.74439046694E+03  0.00000000000E+00 0. -1.
        -24    2    1    2    0    0  0.44251627587E+02  0.13915582687E+02 -0.44819298245E+03  0.45764262646E+03  0.80049822283E+02 0.  0.
         25    2    1    2    0    0 -0.76856377874E+02 -0.10341658095E+02 -0.26901159225E+03  0.30663991751E+03  0.12508776733E+03 0.  0.
         24    2    1    2    0    0  0.32604750287E+02 -0.35739245918E+01  0.52063076656E+03  0.52792458178E+03  0.81068651646E+02 0.  0.
        -11    1    5    5    0    0 -0.10038974658E+01  0.32759085943E+02  0.30138119526E+03  0.30315802872E+03  0.00000000000E+00 0.  1.
         12    1    5    5    0    0  0.33608647753E+02 -0.36333010535E+02  0.21924957130E+03  0.22476655306E+03  0.00000000000E+00 0. -1.
         13    1    3    3    0    0  0.40407736255E+02 -0.22365305200E+02 -0.34726842337E+03  0.35032606225E+03  0.00000000000E+00 0. -1.
        -14    1    3    3    0    0  0.38438913326E+01  0.36280887887E+02 -0.10092455908E+03  0.10731656420E+03  0.00000000000E+00 0.  1.
          5    1    4    4  501    0 -0.83035777699E+02 -0.27459126486E+02 -0.86173014647E+02  0.12285033520E+03  0.41800000000E+01 0.  1.
         -5    1    4    4    0  501  0.61793998248E+01  0.17117468391E+02 -0.18283857760E+03  0.18378958231E+03  0.41800000000E+01 0.  1.
</event>
<event>
11    1  0.7157190E-009  0.1782754E+03  0.7561462E-02  0.1071046E+00
         22   -1    0    0    0    0  0.00000000000E+00  0.00000000000E+00  0.10543983960E+04  0.10543983960E+04  0.00000000000E+00 0. -1.
         22   -1    0    0    0    0 -0.00000000000E+00 -0.00000000000E+00 -0.29723630332E+03  0.29723630332E+03  0.00000000000E+00 0. -1.
         24    2    1    2    0    0 -0.63918914254E+02 -0.40246116737E+02 -0.22610781711E+03  0.25138560304E+03  0.79778436603E+02 0.  0.
         25    2    1    2    0    0  0.14492805442E+03  0.12713239466E+03  0.20242705192E+03  0.30625310744E+03  0.12508983865E+03 0.  0.
        -24    2    1    2    0    0 -0.81009140170E+02 -0.86886277923E+02  0.78084285784E+03  0.79399598881E+03  0.81254879996E+02 0.  0.
        -11    1    3    3    0    0  0.96372869929E+01 -0.34511470489E+02 -0.82082262987E+02  0.89562362591E+02  0.00000000000E+00 0.  1.
         12    1    3    3    0    0 -0.73556201247E+02 -0.57346462473E+01 -0.14402555413E+03  0.16182324045E+03  0.00000000000E+00 0. -1.
         11    1    5    5    0    0 -0.34785164716E+02 -0.36891442854E+02  0.57398318426E+03  0.57621843259E+03  0.00000000000E+00 0. -1.
        -12    1    5    5    0    0 -0.46223975454E+02 -0.49994835069E+02  0.20685967358E+03  0.21777755622E+03  0.00000000000E+00 0.  1.
          5    1    4    4  501    0 -0.70108253683E+01  0.64549934721E+02  0.65416769697E+02  0.92264142018E+02  0.41800000000E+01 0.  1.
         -5    1    4    4    0  501  0.15193887979E+03  0.62582459940E+02  0.13701028223E+03  0.21398896542E+03  0.41800000000E+01 0.  1.
</event>
<event>
11    1  0.7157190E-009  0.2347380E+03  0.7561462E-02  0.1032359E+00
         22   -1    0    0    0    0  0.00000000000E+00  0.00000000000E+00  0.26739013142E+04  0.26739013142E+04  0.00000000000E+00 0.  1.
         22   -1    0    0    0    0 -0.00000000000E+00 -0.00000000000E+00 -0.26281791688E+04  0.26281791688E+04  0.00000000000E+00 0. -1.
        -24    2    1    2    0    0  0.57352227670E+01 -0.61058734599E+01 -0.24381522466E+04  0.24395122260E+04  0.81014498612E+02 0.  0.
         25    2    1    2    0    0 -0.20227455119E+03 -0.21915898798E+02 -0.10780255579E+03  0.26203233093E+03  0.12507697925E+03 0.  0.
         24    2    1    2    0    0  0.19653932842E+03  0.28021772258E+02  0.25916769478E+04  0.26005359260E+04  0.81146615856E+02 0.  0.
        -11    1    5    5    0    0  0.17373612220E+03  0.31098091841E+02  0.18252339538E+04  0.18337476155E+04  0.00000000000E+00 0.  1.
         12    1    5    5    0    0  0.22803206221E+02 -0.30763195831E+01  0.76644299404E+03  0.76678831047E+03  0.00000000000E+00 0. -1.
         13    1    3    3    0    0 -0.34258712765E+02  0.13452750996E+02 -0.10376638661E+04  0.10383163944E+04  0.00000000000E+00 0. -1.
        -14    1    3    3    0    0  0.39993935532E+02 -0.19558624456E+02 -0.14004883805E+04  0.14011958316E+04  0.00000000000E+00 0.  1.
          5    1    4    4  501    0 -0.71237853649E+02 -0.48118091640E+02  0.62547471610E+01  0.86294708978E+02  0.41800000000E+01 0. -1.
         -5    1    4    4    0  501 -0.13103669754E+03  0.26202192842E+02 -0.11405730295E+03  0.17573762195E+03  0.41800000000E+01 0. -1.
</event>
<event>
11    1  0.7157190E-009  0.1255658E+03  0.7561462E-02  0.1124840E+00
         22   -1    0    0    0    0  0.00000000000E+00  0.00000000000E+00  0.24858616632E+04  0.24858616632E+04  0.00000000000E+00 0. -1.
         22   -1    0    0    0    0 -0.00000000000E+00 -0.00000000000E+00 -0.14178328609E+03  0.14178328609E+03  0.00000000000E+00 0.  1.
        -24    2    1    2    0    0 -0.74695557249E+01 -0.33594032438E+01 -0.10411517953E+03  0.13121680254E+03  0.79440536294E+02 0.  0.
         25    2    1    2    0    0 -0.11401921193E+01 -0.38044232484E+01  0.14385786514E+03  0.19067590788E+03  0.12508574183E+03 0.  0.
         24    2    1    2    0    0  0.86097478442E+01  0.71638264921E+01  0.23043356915E+04  0.23057522389E+04  0.80030992148E+02 0.  0.
        -13    1    5    5    0    0 -0.26136194944E+02 -0.10509705050E+02  0.38849035539E+03  0.38951034751E+03  0.00000000000E+00 0.  1.
         14    1    5    5    0    0  0.34745942788E+02  0.17673531542E+02  0.19158453361E+04  0.19162418914E+04  0.00000000000E+00 0. -1.
         11    1    3    3    0    0  0.31273034932E+02 -0.20098589676E+02 -0.41609804345E+02  0.55797238628E+02  0.00000000000E+00 0. -1.
        -12    1    3    3    0    0 -0.38742590657E+02  0.16739186432E+02 -0.62505375188E+02  0.75419563911E+02  0.00000000000E+00 0.  1.
          5    1    4    4  501    0  0.27494823893E+02  0.14911894593E+02  0.15201859839E+03  0.15525932048E+03  0.41800000000E+01 0. -1.
         -5    1    4    4    0  501 -0.28635016012E+02 -0.18716317841E+02 -0.81607332512E+01  0.35416587395E+02  0.41800000000E+01 0. -1.
</event>
<event>
11    1  0.7157190E-009  0.1385326E+03  0.7561462E-02  0.1109208E+00
         22   -1    0    0    0    0  0.00000000000E+00  0.00000000000E+00  0.24565535998E+03  0.24565535998E+03  0.00000000000E+00 0.  1.
         22   -1    0    0    0    0 -0.00000000000E+00 -0.00000000000E+00 -0.16297241810E+04  0.16297241810E+04  0.00000000000E+00 0.  1.
        -24    2    1    2    0    0 -0.24599144328E+02  0.57161012356E+02 -0.14789302840E+04  0.14825373061E+04  0.82520177964E+02 0.  0.
         25    2    1    2    0    0 -0.29181396058E+01 -0.18879505658E+02 -0.10991115378E+03  0.16761153689E+03  0.12509282275E+03 0.  0.
         24    2    1    2    0    0  0.27517283934E+02 -0.38281506697E+02  0.20477261679E+03  0.22523069796E+03  0.81082476823E+02 0.  0.
        -13    1    5    5    0    0  0.41938263143E+02 -0.15781432483E+02  0.18891233704E+03  0.19415391475E+03  0.00000000000E+00 0.  1.
         14    1    5    5    0    0 -0.14420979209E+02 -0.22500074215E+02  0.15860279746E+02  0.31076783209E+02  0.00000000000E+00 0. -1.
         11    1    3    3    0    0 -0.31203165513E+02 -0.11110337646E+02 -0.61335034508E+03  0.61424402557E+03  0.00000000000E+00 0. -1.
        -12    1    3    3    0    0  0.66040211852E+01  0.68271350002E+02 -0.86557993893E+03  0.86829328053E+03  0.00000000000E+00 0.  1.
          5    1    4    4  501    0  0.19066915778E+02  0.48683377164E+02 -0.64713763981E+02  0.83300432999E+02  0.41800000000E+01 0. -1.
         -5    1    4    4    0  501 -0.21985055383E+02 -0.67562882822E+02 -0.45197389798E+02  0.84311103895E+02  0.41800000000E+01 0. -1.
</event>
<event>
11    1  0.7157190E-009  0.1885258E+03  0.7561462E-02  0.1062948E+00
         22   -1    0    0    0    0  0.00000000000E+00  0.00000000000E+00  0.20911933637E+03  0.20911933637E+03  0.00000000000E+00 0.  1.
         22   -1    0    0    0    0 -0.00000000000E+00 -0.00000000000E+00 -0.30220396740E+03  0.30220396740E+03  0.00000000000E+00 0. -1.
         24    2    1    2    0    0 -0.36401553680E+02 -0.85267461863E+02 -0.82709741351E+02  0.14797620264E+03  0.80376875230E+02 0.  0.
         25    2    1    2    0    0  0.41344441796E+02 -0.84810131587E+02 -0.69942911122E+02  0.17158633364E+03  0.12509091809E+03 0.  0.
        -24    2    1    2    0    0 -0.49428881157E+01  0.17007759345E+03  0.59568021445E+02  0.19176076749E+03  0.65368362625E+02 0.  0.
        -13    1    3    3    0    0 -0.59989885875E+02 -0.48690564219E+02 -0.40023676600E+02  0.87014091617E+02  0.00000000000E+00 0.  1.
         14    1    3    3    0    0  0.23588332195E+02 -0.36576897643E+02 -0.42686064751E+02  0.60962111027E+02  0.00000000000E+00 0. -1.
         13    1    5    5    0    0 -0.26447663139E+02  0.13851151012E+03  0.60759841683E+02  0.15354698200E+03  0.00000000000E+00 0. -1.
        -14    1    5    5    0    0  0.21504775023E+02  0.31566083330E+02 -0.11918202375E+01  0.38213785485E+02  0.00000000000E+00 0.  1.
          5    1    4    4  501    0 -0.34082289820E+02 -0.67548770283E+02 -0.16773387685E+02  0.77609650047E+02  0.41800000000E+01 0. -1.
         -5    1    4    4    0  501  0.75426731616E+02 -0.17261361305E+02 -0.53169523437E+02  0.93976683591E+02  0.41800000000E+01 0. -1.
</event>
<event>
11    1  0.7157190E-009  0.2149406E+03  0.7561462E-02  0.1044434E+00
         22   -1    0    0    0    0  0.00000000000E+00  0.00000000000E+00  0.75689774525E+03  0.75689774525E+03  0.00000000000E+00 0.  1.
         22   -1    0    0    0    0 -0.00000000000E+00 -0.00000000000E+00 -0.25551833237E+04  0.25551833237E+04  0.00000000000E+00 0.  1.
         24    2    1    2    0    0  0.17797457714E+02  0.26037955141E+02 -0.24718815363E+04  0.24734309474E+04  0.81655356358E+02 0.  0.
         25    2    1    2    0    0 -0.16630318105E+03  0.65399378357E+02  0.11128418400E+03  0.24488093431E+03  0.12509466681E+03 0.  0.
        -24    2    1    2    0    0  0.14850572334E+03 -0.91437333497E+02  0.56231177384E+03  0.59376918729E+03  0.77152971107E+02 0.  0.
        -13    1    3    3    0    0 -0.28038391302E+02  0.28480166993E+02 -0.91401755743E+03  0.91489090420E+03  0.00000000000E+00 0.  1.
         14    1    3    3    0    0  0.45835849017E+02 -0.24422118523E+01 -0.15578639789E+04  0.15585400432E+04  0.00000000000E+00 0. -1.
         11    1    5    5    0    0  0.34037381427E+02 -0.43396109015E+02  0.91232701068E+02  0.10660755769E+03  0.00000000000E+00 0. -1.
        -12    1    5    5    0    0  0.11446834191E+03 -0.48041224483E+02  0.47107907277E+03  0.48716162960E+03  0.00000000000E+00 0.  1.
          5    1    4    4  501    0  0.59859378746E+01  0.31725232292E+02  0.48465144737E+02  0.58383768897E+02  0.41800000000E+01 0.  1.
         -5    1    4    4    0  501 -0.17228911893E+03  0.33674146065E+02  0.62819039266E+02  0.18649716542E+03  0.41800000000E+01 0.  1.
</event>
<event>
11    1  0.7157190E-009  0.1695586E+03  0.7561462E-02  0.1078416E+00
         22   -1    0    0    0    0  0.00000000000E+00  0.00000000000E+00  0.11785564860E+04  0.11785564860E+04  0.00000000000E+00 0. -1.
         22   -1    0    0    0    0 -0.00000000000E+00 -0.00000000000E+00 -0.14868596747E+04  0.14868596747E+04  0.00000000000E+00 0.  1.
        -24    2    1    2    0    0  0.48112545985E+02 -0.40135292173E+02 -0.14472017267E+04  0.14509512918E+04  0.83313592837E+02 0.  0.
         25    2    1    2    0    0  0.59027889168E+02 -0.20337874905E+02  0.11775843042E+03  0.18279822198E+03  0.12510084400E+03 0.  0.
         24    2    1    2    0    0 -0.10714043515E+03  0.60473167078E+02  0.10211401076E+04  0.10316666469E+04  0.80454174725E+02 0.  0.
        -11    1    5    5    0    0 -0.31452549180E+02  0.47252798919E+02  0.23403818604E+03  0.24082350878E+03  0.00000000000E+00 0.  1.
         12    1    5    5    0    0 -0.75687885973E+02  0.13220368159E+02  0.78710192155E+03  0.79084313813E+03  0.00000000000E+00 0. -1.
         11    1    3    3    0    0  0.14766492284E+02  0.65284462505E+01 -0.49359520121E+02  0.51932958046E+02  0.00000000000E+00 0. -1.
        -12    1    3    3    0    0  0.33346053701E+02 -0.46663738423E+02 -0.13978422066E+04  0.13990183338E+04  0.00000000000E+00 0.  1.
          5    1    4    4  501    0  0.96296312052E+02 -0.19112413987E+02  0.10334201126E+03  0.14260192065E+03  0.41800000000E+01 0. -1.
         -5    1    4    4    0  501 -0.37268422885E+02 -0.12254609177E+01  0.14416419161E+02  0.40196301325E+02  0.41800000000E+01 0. -1.
</event>
<event>
11    1  0.1354687E-008  0.2315589E+03  0.7561462E-02  0.1034209E+00
         22   -1    0    0    0    0  0.00000000000E+00  0.00000000000E+00  0.93540715371E+03  0.93540715371E+03  0.00000000000E+00 0. -1.
         22   -1    0    0    0    0 -0.00000000000E+00 -0.00000000000E+00 -0.20166567173E+04  0.20166567173E+04  0.00000000000E+00 0.  1.
        -24    2    1    2    0    0  0.13139050929E+03  0.18006734563E+02 -0.17415544647E+04  0.17484069065E+04  0.79542748335E+02 0.  0.
         25    2    1    2    0    0  0.65177854344E+02 -0.58584294316E+02 -0.23642657509E+03  0.28146873493E+03  0.12508737386E+03 0.  0.
         24    2    1    2    0    0 -0.19656836363E+03  0.40577559753E+02  0.89673147615E+03  0.92218822961E+03  0.77576611031E+02 0.  0.
        -13    1    5    5    0    0 -0.14023737702E+02 -0.83131592511E+01  0.22623767952E+02  0.27885636306E+02  0.00000000000E+00 0.  1.
         14    1    5    5    0    0 -0.18254462593E+03  0.48890719004E+02  0.87410770820E+03  0.89430259331E+03  0.00000000000E+00 0. -1.
         13    1    3    3    0    0  0.16441117322E+02 -0.22758600595E+02 -0.18960852317E+03  0.19167591476E+03  0.00000000000E+00 0. -1.
        -14    1    3    3    0    0  0.11494939197E+03  0.40765335158E+02 -0.15519459415E+04  0.15567309917E+04  0.00000000000E+00 0.  1.
          5    1    4    4  501    0  0.80393475343E+02  0.11107195765E+02 -0.12404698184E+03  0.14829567350E+03  0.41800000000E+01 0. -1.
         -5    1    4    4    0  501 -0.15215620999E+02 -0.69691490082E+02 -0.11237959325E+03  0.13317306143E+03  0.41800000000E+01 0. -1.
</event>
<event>
11    1  0.7157190E-009  0.1309510E+03  0.7561462E-02  0.1118106E+00
         22   -1    0    0    0    0  0.00000000000E+00  0.00000000000E+00  0.96415758577E+03  0.96415758577E+03  0.00000000000E+00 0. -1.
         22   -1    0    0    0    0 -0.00000000000E+00 -0.00000000000E+00 -0.21661167531E+03  0.21661167531E+03  0.00000000000E+00 0. -1.
        -24    2    1    2    0    0  0.35000808291E+02  0.19234940818E+02 -0.18321325117E+03  0.20382692323E+03  0.79895429785E+02 0.  0.
         25    2    1    2    0    0 -0.21637269674E+02  0.54996124503E+01  0.17147104678E+03  0.21341920095E+03  0.12508804209E+03 0.  0.
         24    2    1    2    0    0 -0.13363538617E+02 -0.24734553268E+02  0.75928811486E+03  0.76352313690E+03  0.75224709589E+02 0.  0.
        -13    1    5    5    0    0 -0.11009855437E+01 -0.46758223607E+02  0.30793819620E+03  0.31146986423E+03  0.00000000000E+00 0.  1.
         14    1    5    5    0    0 -0.12262553074E+02  0.22023670339E+02  0.45134991866E+03  0.45205327268E+03  0.00000000000E+00 0. -1.
         11    1    3    3    0    0  0.30743116581E+02 -0.24661818741E+02 -0.12320343584E+03  0.12935389876E+03  0.00000000000E+00 0. -1.
        -12    1    3    3    0    0  0.42576917101E+01  0.43896759559E+02 -0.60009815327E+02  0.74473024473E+02  0.00000000000E+00 0.  1.
          5    1    4    4  501    0 -0.56153220999E+02 -0.36374628055E+02  0.12504980779E+03  0.14188454680E+03  0.41800000000E+01 0.  1.
         -5    1    4    4    0  501  0.34515951325E+02  0.41874240505E+02  0.46421238992E+02  0.71534654143E+02  0.41800000000E+01 0.  1.
</event>
<event>
11    1  0.7157190E-009  0.1586080E+03  0.7561462E-02  0.1088394E+00
         22   -1    0    0    0    0  0.00000000000E+00  0.00000000000E+00  0.15453658442E+04  0.15453658442E+04  0.00000000000E+00 0.  1.
         22   -1    0    0    0    0 -0.00000000000E+00 -0.00000000000E+00 -0.15998930112E+03  0.15998930112E+03  0.00000000000E+00 0.  1.
         24    2    1    2    0    0  0.86320420869E+02 -0.24360258226E+02 -0.63034632381E+02  0.13631057193E+03  0.81009690162E+02 0.  0.
         25    2    1    2    0    0 -0.13175443462E+03 -0.30344680527E+01  0.82136226966E+02  0.19940501215E+03  0.12509020765E+03 0.  0.
        -24    2    1    2    0    0  0.45434013754E+02  0.27394726279E+02  0.13662749484E+04  0.13696395612E+04  0.79941054727E+02 0.  0.
        -11    1    3    3    0    0  0.34234502542E+02  0.23593558032E+02 -0.48772744425E+02  0.64089295079E+02  0.00000000000E+00 0.  1.
         12    1    3    3    0    0  0.52085918327E+02 -0.47953816258E+02 -0.14261887956E+02  0.72221276849E+02  0.00000000000E+00 0. -1.
         13    1    5    5    0    0 -0.71707991628E+01 -0.19022303888E+02  0.15395152555E+03  0.15528792814E+03  0.00000000000E+00 0. -1.
        -14    1    5    5    0    0  0.52604812917E+02  0.46417030167E+02  0.12123234229E+04  0.12143516331E+04  0.00000000000E+00 0.  1.
          5    1    4    4  501    0 -0.66983235118E+02 -0.40185333193E+02 -0.12040721905E+02  0.79145853806E+02  0.41800000000E+01 0.  1.
         -5    1    4    4    0  501 -0.64771199505E+02  0.37150865141E+02  0.94176948870E+02  0.12025915834E+03  0.41800000000E+01 0.  1.
</event>
<event>
11    1  0.7157190E-009  0.1762526E+03  0.7561462E-02  0.1072715E+00
         22   -1    0    0    0    0  0.00000000000E+00  0.00000000000E+00  0.12347573055E+03  0.12347573055E+03  0.00000000000E+00 0. -1.
         22   -1    0    0    0    0 -0.00000000000E+00 -0.00000000000E+00 -0.18989579039E+04  0.18989579039E+04  0.00000000000E+00 0. -1.
        -24    2    1    2    0    0  0.16968565969E+01  0.29405243640E+02 -0.16121449852E+04  0.16144539613E+04  0.81133174872E+02 0.  0.
         25    2    1    2    0    0  0.99861977761E+02 -0.95063645144E+02 -0.18589405979E+03  0.26308371560E+03  0.12508768411E+03 0.  0.
         24    2    1    2    0    0 -0.10155883436E+03  0.65658401503E+02  0.22556871656E+02  0.14489595758E+03  0.76555885081E+02 0.  0.
        -11    1    5    5    0    0 -0.42149418216E+02  0.13144425873E+02 -0.26655275938E+02  0.51573763900E+02  0.00000000000E+00 0.  1.
         12    1    5    5    0    0 -0.59409416141E+02  0.52513975631E+02  0.49212147594E+02  0.93322193682E+02  0.00000000000E+00 0. -1.
         11    1    3    3    0    0 -0.23403396567E+02  0.40537885071E+02 -0.13624334776E+04  0.13632373307E+04  0.00000000000E+00 0. -1.
        -12    1    3    3    0    0  0.25100253164E+02 -0.11132641430E+02 -0.24971150768E+03  0.25121663059E+03  0.00000000000E+00 0.  1.
          5    1    4    4  501    0  0.11890405452E+03 -0.95881817622E+02 -0.11979404971E+03  0.19416380682E+03  0.41800000000E+01 0.  1.
         -5    1    4    4    0  501 -0.19042076759E+02  0.81817247830E+00 -0.66100010080E+02  0.68919908779E+02  0.41800000000E+01 0.  1.
</event>
<event>
11    1  0.7157190E-009  0.2003393E+03  0.7561462E-02  0.1054284E+00
         22   -1    0    0    0    0  0.00000000000E+00  0.00000000000E+00  0.53325882778E+03  0.53325882778E+03  0.00000000000E+00 0.  1.
         22   -1    0    0    0    0 -0.00000000000E+00 -0.00000000000E+00 -0.17124232536E+03  0.17124232536E+03  0.00000000000E+00 0.  1.
         24    2    1    2    0    0  0.16925858650E+03  0.26014617803E+02 -0.23226062662E+02  0.18982764531E+03  0.78548427696E+02 0.  0.
         25    2    1    2    0    0 -0.11189581589E+03 -0.82450562375E+02  0.10901857731E+03  0.21645422018E+03  0.12509440589E+03 0.  0.
        -24    2    1    2    0    0 -0.57362770611E+02  0.56435944572E+02  0.27622398777E+03  0.29821928766E+03  0.78482793137E+02 0.  0.
        -11    1    3    3    0    0  0.16936878292E+03  0.36590951366E+02 -0.31851678111E+02  0.17617948731E+03  0.00000000000E+00 0.  1.
         12    1    3    3    0    0 -0.11019642286E+00 -0.10576333563E+02  0.86256154485E+01  0.13648157998E+02  0.00000000000E+00 0. -1.
         11    1    5    5    0    0  0.13315847568E+02  0.34442760765E+01  0.82001202337E+01  0.16013019889E+02  0.00000000000E+00 0. -1.
        -12    1    5    5    0    0 -0.70678618179E+02  0.52991668496E+02  0.26802386754E+03  0.28220626777E+03  0.00000000000E+00 0.  1.
          5    1    4    4  501    0 -0.22343336926E+02 -0.47744227151E+02  0.10807289033E+03  0.12031607521E+03  0.41800000000E+01 0. -1.
         -5    1    4    4    0  501 -0.89552478962E+02 -0.34706335223E+02  0.94568698230E+00  0.96138144962E+02  0.41800000000E+01 0. -1.
</event>
<event>
11    1  0.7157190E-009  0.1957892E+03  0.7561462E-02  0.1057542E+00
         22   -1    0    0    0    0  0.00000000000E+00  0.00000000000E+00  0.17090832980E+04  0.17090832980E+04  0.00000000000E+00 0. -1.
         22   -1    0    0    0    0 -0.00000000000E+00 -0.00000000000E+00 -0.14337523854E+04  0.14337523854E+04  0.00000000000E+00 0.  1.
        -24    2    1    2    0    0 -0.46337905215E+02  0.83157799132E+02 -0.14000429904E+04  0.14054141037E+04  0.77498431565E+02 0.  0.
         25    2    1    2    0    0  0.96878988677E+02  0.70873840627E+02  0.27253388255E+03  0.32299927307E+03  0.12508066811E+03 0.  0.
         24    2    1    2    0    0 -0.50541083462E+02 -0.15403163976E+03  0.14028400204E+04  0.14144223067E+04  0.79688089340E+02 0.  0.
        -13    1    5    5    0    0 -0.60919324414E+01  0.66177254686E+01  0.18619153995E+03  0.18640867866E+03  0.00000000000E+00 0.  1.
         14    1    5    5    0    0 -0.44449151021E+02 -0.16064936523E+03  0.12166484805E+04  0.12280136280E+04  0.00000000000E+00 0. -1.
         11    1    3    3    0    0  0.23796313831E+01 -0.13005261408E+02 -0.93284755460E+02  0.94217010519E+02  0.00000000000E+00 0. -1.
        -12    1    3    3    0    0 -0.48717536598E+02  0.96163060541E+02 -0.13067582349E+04  0.13111970931E+04  0.00000000000E+00 0.  1.
          5    1    4    4  501    0  0.30933821748E+02  0.25439675216E+02  0.22748490274E+03  0.23102149635E+03  0.41800000000E+01 0.  1.
         -5    1    4    4    0  501  0.65945166929E+02  0.45434165411E+02  0.45048979811E+02  0.91977776717E+02  0.41800000000E+01 0.  1.
</event>
<event>
11    1  0.7157190E-009  0.1588386E+03  0.7561462E-02  0.1088175E+00
         22   -1    0    0    0    0  0.00000000000E+00  0.00000000000E+00  0.35141340127E+03  0.35141340127E+03  0.00000000000E+00 0. -1.
         22   -1    0    0    0    0 -0.00000000000E+00 -0.00000000000E+00 -0.18041874314E+04  0.18041874314E+04  0.00000000000E+00 0. -1.
        -24    2    1    2    0    0 -0.42139669404E+02 -0.66773360180E+02 -0.15843622417E+04  0.15883918356E+04  0.80935017316E+02 0.  0.
         25    2    1    2    0    0  0.71190922923E+01 -0.29452926710E+02 -0.18486389040E+03  0.22525601366E+03  0.12508979715E+03 0.  0.
         24    2    1    2    0    0  0.35020577111E+02  0.96226286890E+02  0.31645210193E+03  0.34195298347E+03  0.79397550208E+02 0.  0.
        -11    1    5    5    0    0  0.31358304891E+02 -0.31090821430E+00  0.10275193680E+03  0.10743091019E+03  0.00000000000E+00 0.  1.
         12    1    5    5    0    0  0.36622722201E+01  0.96537195104E+02  0.21370016513E+03  0.23452207328E+03  0.00000000000E+00 0. -1.
         11    1    3    3    0    0 -0.32966877817E+02  0.10462038505E+02 -0.57330558920E+03  0.57434795019E+03  0.00000000000E+00 0. -1.
        -12    1    3    3    0    0 -0.91727915864E+01 -0.77235398685E+02 -0.10110566525E+04  0.10140438854E+04  0.00000000000E+00 0.  1.
          5    1    4    4  501    0 -0.32966637001E+02  0.34712911119E+02 -0.43283484136E+02  0.64673934104E+02  0.41800000000E+01 0. -1.
         -5    1    4    4    0  501  0.40085729293E+02 -0.64165837829E+02 -0.14158040626E+03  0.16058207955E+03  0.41800000000E+01 0. -1.
</event>
<event>
11    1  0.7157190E-009  0.1413456E+03  0.7561462E-02  0.1106065E+00
         22   -1    0    0    0    0  0.00000000000E+00  0.00000000000E+00  0.76512629723E+02  0.76512629723E+02  0.00000000000E+00 0. -1.
         22   -1    0    0    0    0 -0.00000000000E+00 -0.00000000000E+00 -0.44350159278E+03  0.44350159278E+03  0.00000000000E+00 0.  1.
        -24    2    1    2    0    0  0.88449348446E+02  0.27117586509E+02 -0.20699875959E+03  0.24082438632E+03  0.81174182080E+02 0.  0.
         25    2    1    2    0    0 -0.10564733167E+02 -0.12902308125E+01 -0.77399216532E+02  0.14748346683E+03  0.12508979170E+03 0.  0.
         24    2    1    2    0    0 -0.77884615279E+02 -0.25827355696E+02 -0.82590986940E+02  0.13170636935E+03  0.61581092918E+02 0.  0.
        -11    1    5    5    0    0 -0.65731774081E+02  0.78569613154E+01 -0.60157924113E+02  0.89450398538E+02  0.00000000000E+00 0.  1.
         12    1    5    5    0    0 -0.12152841198E+02 -0.33684317012E+02 -0.22433062827E+02  0.42255970815E+02  0.00000000000E+00 0. -1.
         11    1    3    3    0    0  0.23685591122E+02 -0.24261050106E+01 -0.20874457615E+01  0.23900850239E+02  0.00000000000E+00 0. -1.
        -12    1    3    3    0    0  0.64763757324E+02  0.29543691519E+02 -0.20491131383E+03  0.21692353608E+03  0.00000000000E+00 0.  1.
          5    1    4    4  501    0 -0.50567957486E+02 -0.41288311468E+02 -0.24297985211E+02  0.69783289357E+02  0.41800000000E+01 0.  1.
         -5    1    4    4    0  501  0.40003224319E+02  0.39998080656E+02 -0.53101231320E+02  0.77700177476E+02  0.41800000000E+01 0.  1.
</event>
<event>
11    1  0.7157190E-009  0.3312183E+03  0.7561462E-02  0.9877812E-01
         22   -1    0    0    0    0  0.00000000000E+00  0.00000000000E+00  0.25986285014E+03  0.25986285014E+03  0.00000000000E+00 0. -1.
         22   -1    0    0    0    0 -0.00000000000E+00 -0.00000000000E+00 -0.32374617720E+03  0.32374617720E+03  0.00000000000E+00 0.  1.
        -24    2    1    2    0    0  0.99568814710E+00 -0.19939893023E+03 -0.12241818133E+03  0.24725815057E+03  0.79934079908E+02 0.  0.
         25    2    1    2    0    0  0.62692410213E+02  0.54294092176E+02  0.56763311849E+02  0.16046607547E+03  0.12509636710E+03 0.  0.
         24    2    1    2    0    0 -0.63688098360E+02  0.14510483805E+03  0.17715424276E+01  0.17588480130E+03  0.76293755097E+02 0.  0.
        -11    1    5    5    0    0 -0.40032801067E+02  0.23010933768E+02  0.19761619585E+02  0.50225987723E+02  0.00000000000E+00 0.  1.
         12    1    5    5    0    0 -0.23655297293E+02  0.12209390428E+03 -0.17990077158E+02  0.12565881358E+03  0.00000000000E+00 0. -1.
         13    1    3    3    0    0 -0.79190577015E+01  0.40349173240E+01  0.13138300368E+01  0.89843298056E+01  0.00000000000E+00 0. -1.
        -14    1    3    3    0    0  0.89147458486E+01 -0.20343384755E+03 -0.12373201137E+03  0.23827382076E+03  0.00000000000E+00 0.  1.
          5    1    4    4  501    0  0.80960749095E+02 -0.10740520168E+02  0.38364617051E+02  0.90328942809E+02  0.41800000000E+01 0.  1.
         -5    1    4    4    0  501 -0.18268338882E+02  0.65034612343E+02  0.18398694798E+02  0.70137132664E+02  0.41800000000E+01 0.  1.
</event>
<event>
11    1  0.7157190E-009  0.1392561E+03  0.7561462E-02  0.1108392E+00
         22   -1    0    0    0    0  0.00000000000E+00  0.00000000000E+00  0.12578471164E+04  0.12578471164E+04  0.00000000000E+00 0.  1.
         22   -1    0    0    0    0 -0.00000000000E+00 -0.00000000000E+00 -0.14551703604E+03  0.14551703604E+03  0.00000000000E+00 0. -1.
         24    2    1    2    0    0 -0.71880359499E+01 -0.63334951462E+02 -0.41775380140E+02  0.11049796237E+03  0.80010207871E+02 0.  0.
         25    2    1    2    0    0  0.40168746822E+02  0.48437129516E+02  0.47207157501E+01  0.14010829017E+03  0.12509342141E+03 0.  0.
        -24    2    1    2    0    0 -0.32980710872E+02  0.14897821945E+02  0.11493847447E+04  0.11527578999E+04  0.80348067506E+02 0.  0.
        -13    1    3    3    0    0  0.15126294783E+02 -0.78733154390E+00  0.16318787412E+02  0.22264938972E+02  0.00000000000E+00 0.  1.
         14    1    3    3    0    0 -0.22314330733E+02 -0.62547619918E+02 -0.58094167552E+02  0.88233023393E+02  0.00000000000E+00 0. -1.
         13    1    5    5    0    0 -0.17760809292E+02 -0.17601487629E+02  0.11220393956E+03  0.11495643856E+03  0.00000000000E+00 0. -1.
        -14    1    5    5    0    0 -0.15219901580E+02  0.32499309574E+02  0.10371808052E+04  0.10378014613E+04  0.00000000000E+00 0.  1.
          5    1    4    4  501    0 -0.22623656552E+02  0.18555490698E+02 -0.45479524292E+02  0.54240165936E+02  0.41800000000E+01 0. -1.
         -5    1    4    4    0  501  0.62792403374E+02  0.29881638818E+02  0.50200240043E+02  0.85868124239E+02  0.41800000000E+01 0. -1.
</event>
<event>
11    1  0.7157190E-009  0.1280693E+03  0.7561462E-02  0.1121664E+00
         22   -1    0    0    0    0  0.00000000000E+00  0.00000000000E+00  0.58312561380E+03  0.58312561380E+03  0.00000000000E+00 0. -1.
         22   -1    0    0    0    0 -0.00000000000E+00 -0.00000000000E+00 -0.17821169610E+04  0.17821169610E+04  0.00000000000E+00 0. -1.
         24    2    1    2    0    0 -0.13791924471E+02  0.53948425054E+02 -0.16598139675E+04  0.16625861963E+04  0.78165233142E+02 0.  0.
         25    2    1    2    0    0  0.36649151671E+02 -0.66454670166E+02 -0.70621191643E+02  0.16246210562E+03  0.12508876668E+03 0.  0.
        -24    2    1    2    0    0 -0.22857227200E+02  0.12506245112E+02  0.53144381193E+03  0.54019427290E+03  0.93265579030E+02 0.  0.
        -13    1    3    3    0    0  0.32107340103E+02  0.29651510350E+02 -0.69005504812E+03  0.69143767816E+03  0.00000000000E+00 0.  1.
         14    1    3    3    0    0 -0.45899264573E+02  0.24296914704E+02 -0.96975891935E+03  0.97114851810E+03  0.00000000000E+00 0. -1.
         13    1    5    5    0    0  0.14691839463E+02  0.33122281377E+02  0.40649154856E+03  0.40810331379E+03  0.00000000000E+00 0. -1.
        -14    1    5    5    0    0 -0.37549066664E+02 -0.20616036265E+02  0.12495226336E+03  0.13209095911E+03  0.00000000000E+00 0.  1.
          5    1    4    4  501    0  0.30070605934E+02 -0.32542433734E+02 -0.10469435044E+03  0.11376128844E+03  0.41800000000E+01 0.  1.
         -5    1    4    4    0  501  0.65785457365E+01 -0.33912236432E+02  0.34073158793E+02  0.48700817180E+02  0.41800000000E+01 0.  1.
</event>
<event>
11    1  0.7157190E-009  0.2039877E+03  0.7561462E-02  0.1051739E+00
         22   -1    0    0    0    0  0.00000000000E+00  0.00000000000E+00  0.11008812160E+04  0.11008812160E+04  0.00000000000E+00 0. -1.
         22   -1    0    0    0    0 -0.00000000000E+00 -0.00000000000E+00 -0.86172357126E+03  0.86172357126E+03  0.00000000000E+00 0. -1.
         24    2    1    2    0    0 -0.27960102108E+02 -0.37759479354E+01 -0.79167469089E+03  0.79393315931E+03  0.52773290236E+02 0.  0.
         25    2    1    2    0    0  0.80468798212E+02  0.15434116924E+03  0.13110137872E+03  0.25126159983E+03  0.12509354914E+03 0.  0.
        -24    2    1    2    0    0 -0.52508696104E+02 -0.15056522131E+03  0.89973095686E+03  0.91741002807E+03  0.81843239451E+02 0.  0.
        -13    1    3    3    0    0 -0.21650836615E+01  0.13890895851E+02 -0.61376083275E+02  0.62965611035E+02  0.00000000000E+00 0.  1.
         14    1    3    3    0    0 -0.25795018446E+02 -0.17666843786E+02 -0.73029860762E+03  0.73096754828E+03  0.00000000000E+00 0. -1.
         13    1    5    5    0    0 -0.35029363432E+02 -0.66416801350E+02  0.62642701308E+03  0.63091128577E+03  0.00000000000E+00 0. -1.
        -14    1    5    5    0    0 -0.17479332673E+02 -0.84148419959E+02  0.27330394378E+03  0.28649874230E+03  0.00000000000E+00 0.  1.
          5    1    4    4  501    0  0.51483642229E+02  0.17160023119E+03  0.10016449630E+03  0.20529881509E+03  0.41800000000E+01 0. -1.
         -5    1    4    4    0  501  0.28985155983E+02 -0.17259061943E+02  0.30936882427E+02  0.45962784737E+02  0.41800000000E+01 0. -1.
</event>
<event>
11    1  0.7157190E-009  0.3074172E+03  0.7561462E-02  0.9971001E-01
         22   -1    0    0    0    0  0.00000000000E+00  0.00000000000E+00  0.12099246763E+04  0.12099246763E+04  0.00000000000E+00 0. -1.
         22   -1    0    0    0    0 -0.00000000000E+00 -0.00000000000E+00 -0.14683791013E+04  0.14683791013E+04  0.00000000000E+00 0.  1.
        -24    2    1    2    0    0  0.31681728530E+02 -0.54188734429E+02 -0.12023792337E+04  0.12066293267E+04  0.79362204152E+02 0.  0.
         25    2    1    2    0    0  0.24932804340E+03  0.15781537305E+02 -0.16481843946E+03  0.32438536706E+03  0.12508884136E+03 0.  0.
         24    2    1    2    0    0 -0.28100977193E+03  0.38407197125E+02  0.11087432482E+04  0.11472890839E+04  0.80740615010E+02 0.  0.
        -11    1    5    5    0    0 -0.21496914196E+02 -0.14812355602E+02  0.56972284622E+02  0.62668687663E+02  0.00000000000E+00 0.  1.
         12    1    5    5    0    0 -0.25951285774E+03  0.53219552727E+02  0.10517709636E+04  0.10846203962E+04  0.00000000000E+00 0. -1.
         11    1    3    3    0    0  0.50010849861E+01 -0.18850176382E+02 -0.54291313191E+02  0.57687838308E+02  0.00000000000E+00 0. -1.
        -12    1    3    3    0    0  0.26680643544E+02 -0.35338558048E+02 -0.11480879205E+04  0.11489414883E+04  0.00000000000E+00 0.  1.
          5    1    4    4  501    0  0.35960348781E+02  0.45485202457E+02 -0.98108595010E+01  0.58955709572E+02  0.41800000000E+01 0.  1.
         -5    1    4    4    0  501  0.21336769462E+03 -0.29703665152E+02 -0.15500757996E+03  0.26542965749E+03  0.41800000000E+01 0.  1.
</event>
<event>
11    1  0.7157190E-009  0.1376668E+03  0.7561462E-02  0.1110192E+00
         22   -1    0    0    0    0  0.00000000000E+00  0.00000000000E+00  0.20592544996E+04  0.20592544996E+04  0.00000000000E+00 0. -1.
         22   -1    0    0    0    0 -0.00000000000E+00 -0.00000000000E+00 -0.37834046808E+03  0.37834046808E+03  0.00000000000E+00 0.  1.
         24    2    1    2    0    0 -0.29909920264E+02  0.46929050847E+02 -0.28689215456E+03  0.30346494265E+03  0.81773613853E+02 0.  0.
         25    2    1    2    0    0 -0.87545565949E+00 -0.85069403792E+02 -0.12307155480E+02  0.15176465064E+03  0.12507387107E+03 0.  0.
        -24    2    1    2    0    0  0.30785375924E+02  0.38140352944E+02  0.19801133416E+04  0.19823653744E+04  0.80753986099E+02 0.  0.
        -13    1    3    3    0    0 -0.42794520767E+02  0.31054401642E+02 -0.27452389603E+03  0.27956951972E+03  0.00000000000E+00 0.  1.
         14    1    3    3    0    0  0.12884600503E+02  0.15874649205E+02 -0.12368258538E+02  0.23895422925E+02  0.00000000000E+00 0. -1.
         13    1    5    5    0    0  0.46243814534E+02  0.43969950356E+01  0.15365114745E+04  0.15372134970E+04  0.00000000000E+00 0. -1.
        -14    1    5    5    0    0 -0.15458438611E+02  0.33743357909E+02  0.44360186705E+03  0.44515187743E+03  0.00000000000E+00 0.  1.
          5    1    4    4  501    0 -0.13156752204E+02 -0.73178119254E+02  0.48229036139E+02  0.88722317334E+02  0.41800000000E+01 0.  1.
         -5    1    4    4    0  501  0.12281296545E+02 -0.11891284538E+02 -0.60536191620E+02  0.63042333305E+02  0.41800000000E+01 0.  1.
</event>
<event>
11    1  0.7157190E-009  0.1592601E+03  0.7561462E-02  0.1087775E+00
         22   -1    0    0    0    0  0.00000000000E+00  0.00000000000E+00  0.12072546559E+04  0.12072546559E+04  0.00000000000E+00 0. -1.
         22   -1    0    0    0    0 -0.00000000000E+00 -0.00000000000E+00 -0.38067841206E+03  0.38067841206E+03  0.00000000000E+00 0.  1.
         24    2    1    2    0    0 -0.30952755971E+02 -0.22643150499E+02 -0.33163264365E+03  0.34298021201E+03  0.78641147797E+02 0.  0.
         25    2    1    2    0    0 -0.53444867798E+02  0.75840347586E+02  0.11382636088E+03  0.19290595737E+03  0.12509258868E+03 0.  0.
        -24    2    1    2    0    0  0.84397623768E+02 -0.53197197087E+02  0.10443825266E+04  0.10520468986E+04  0.78197917196E+02 0.  0.
        -13    1    3    3    0    0 -0.17762607153E+02 -0.46900611435E+02 -0.27972837810E+03  0.28418856958E+03  0.00000000000E+00 0.  1.
         14    1    3    3    0    0 -0.13190148818E+02  0.24257460935E+02 -0.51904265557E+02  0.58791642432E+02  0.00000000000E+00 0. -1.
         13    1    5    5    0    0  0.63679320648E+02 -0.61350082849E+02  0.97884211304E+03  0.98282794568E+03  0.00000000000E+00 0. -1.
        -14    1    5    5    0    0  0.20718303120E+02  0.81528857624E+01  0.65540413578E+02  0.69218952913E+02  0.00000000000E+00 0.  1.
          5    1    4    4  501    0 -0.53088067887E+02  0.21758104859E+02 -0.93811596380E+01  0.58285818473E+02  0.41800000000E+01 0. -1.
         -5    1    4    4    0  501 -0.35679991091E+00  0.54082242728E+02  0.12320752052E+03  0.13462013890E+03  0.41800000000E+01 0. -1.
</event>
<event>
11    1  0.7157190E-009  0.1302599E+03  0.7561462E-02  0.1118950E+00
         22   -1    0    0    0    0  0.00000000000E+00  0.00000000000E+00  0.21014984495E+03  0.21014984495E+03  0.00000000000E+00 0. -1.
         22   -1    0    0    0    0 -0.00000000000E+00 -0.00000000000E+00 -0.37111534582E+03  0.37111534582E+03  0.00000000000E+00 0.  1.
        -24    2    1    2    0    0  0.35216553482E+02  0.90668313297E+01 -0.31197150256E+03  0.32553726805E+03  0.85591362924E+02 0.  0.
         25    2    1    2    0    0 -0.36542611059E+02 -0.14523105565E+01  0.80348583053E+02  0.15310408116E+03  0.12508994061E+03 0.  0.
         24    2    1    2    0    0  0.13260575770E+01 -0.76145207732E+01  0.70657418642E+02  0.10262384157E+03  0.74023257787E+02 0.  0.
        -13    1    5    5    0    0 -0.40404268025E+01 -0.18558491954E+02 -0.97141595008E+01  0.21333250272E+02  0.00000000000E+00 0.  1.
         14    1    5    5    0    0  0.53664843795E+01  0.10943971181E+02  0.80371578143E+02  0.81290591295E+02  0.00000000000E+00 0. -1.
         13    1    3    3    0    0  0.10262908923E+02 -0.15160051474E+02 -0.86846158609E+01  0.20262700040E+02  0.00000000000E+00 0. -1.
        -14    1    3    3    0    0  0.24953644559E+02  0.24226882804E+02 -0.30328688670E+03  0.30527456801E+03  0.00000000000E+00 0.  1.
          5    1    4    4  501    0 -0.31271628375E+02 -0.61909660196E+02  0.43820800706E+02  0.82148985030E+02  0.41800000000E+01 0.  1.
         -5    1    4    4    0  501 -0.52709826835E+01  0.60457349640E+02  0.36527782346E+02  0.70955096132E+02  0.41800000000E+01 0.  1.
</event>
<event>
11    1  0.7157190E-009  0.1507978E+03  0.7561462E-02  0.1096066E+00
         22   -1    0    0    0    0  0.00000000000E+00  0.00000000000E+00  0.45939843147E+03  0.45939843147E+03  0.00000000000E+00 0.  1.
         22   -1    0    0    0    0 -0.00000000000E+00 -0.00000000000E+00 -0.75637903804E+03  0.75637903804E+03  0.00000000000E+00 0.  1.
         24    2    1    2    0    0  0.27681622309E+01 -0.26316935491E+02 -0.60415461191E+03  0.61008823033E+03  0.80651161710E+02 0.  0.
         25    2    1    2    0    0 -0.97888649606E+01  0.10890078932E+03 -0.93023085112E+02  0.19040936630E+03  0.12508888288E+03 0.  0.
        -24    2    1    2    0    0  0.70207027297E+01 -0.82583853830E+02  0.40019709045E+03  0.41527987287E+03  0.73690422936E+02 0.  0.
        -13    1    3    3    0    0 -0.26538414484E+02 -0.39159410191E+02 -0.45996272245E+03  0.46238885463E+03  0.00000000000E+00 0.  1.
         14    1    3    3    0    0  0.29306576715E+02  0.12842474700E+02 -0.14419188946E+03  0.14769937570E+03  0.00000000000E+00 0. -1.
         13    1    5    5    0    0 -0.80958252872E+01  0.97342154403E+01  0.19439802528E+02  0.23199208168E+02  0.00000000000E+00 0. -1.
        -14    1    5    5    0    0  0.15116528017E+02 -0.92318069270E+02  0.38075728792E+03  0.39208066471E+03  0.00000000000E+00 0.  1.
          5    1    4    4  501    0 -0.65885007845E+01  0.13323318167E+03 -0.97280160727E+02  0.16515262975E+03  0.41800000000E+01 0.  1.
         -5    1    4    4    0  501 -0.32003641761E+01 -0.24332392353E+02  0.42570756149E+01  0.25256736553E+02  0.41800000000E+01 0.  1.
</event>
<event>
11    1  0.7157190E-009  0.1373061E+03  0.7561462E-02  0.1110604E+00
         22   -1    0    0    0    0  0.00000000000E+00  0.00000000000E+00  0.36574173401E+02  0.36574173401E+02  0.00000000000E+00 0. -1.
         22   -1    0    0    0    0 -0.00000000000E+00 -0.00000000000E+00 -0.95422608655E+03  0.95422608655E+03  0.00000000000E+00 0. -1.
         24    2    1    2    0    0  0.49784244870E+02 -0.61458927374E+02 -0.36739956355E+03  0.38434367119E+03  0.80510542771E+02 0.  0.
         25    2    1    2    0    0 -0.27777888313E+02 -0.14570295866E+02 -0.38216201252E+03  0.40333360197E+03  0.12508511528E+03 0.  0.
        -24    2    1    2    0    0 -0.22006356556E+02  0.76029223241E+02 -0.16809033707E+03  0.20312298678E+03  0.82096673668E+02 0.  0.
        -13    1    3    3    0    0  0.42110663278E+02  0.27120382507E+00 -0.81293431122E+02  0.91553282064E+02  0.00000000000E+00 0.  1.
         14    1    3    3    0    0  0.76735815919E+01 -0.61730131199E+02 -0.28610613243E+03  0.29279038913E+03  0.00000000000E+00 0. -1.
         13    1    5    5    0    0  0.95344144032E+01  0.59343329933E+02 -0.15299724280E+03  0.16437971946E+03  0.00000000000E+00 0. -1.
        -14    1    5    5    0    0 -0.31540770959E+02  0.16685893308E+02 -0.15093094273E+02  0.38743267324E+02  0.00000000000E+00 0.  1.
          5    1    4    4  501    0  0.38405884584E+02  0.29292245447E+02 -0.12152728758E+03  0.13084113130E+03  0.41800000000E+01 0. -1.
         -5    1    4    4    0  501 -0.66183772898E+02 -0.43862541314E+02 -0.26063472495E+03  0.27249247067E+03  0.41800000000E+01 0. -1.
</event>
<event>
11    1  0.7157190E-009  0.1568863E+03  0.7561462E-02  0.1090043E+00
         22   -1    0    0    0    0  0.00000000000E+00  0.00000000000E+00  0.13055708522E+03  0.13055708522E+03  0.00000000000E+00 0.  1.
         22   -1    0    0    0    0 -0.00000000000E+00 -0.00000000000E+00 -0.11435698073E+04  0.11435698073E+04  0.00000000000E+00 0. -1.
         24    2    1    2    0    0  0.31302758825E+02  0.87184370612E+02 -0.97605476259E+03  0.98373305038E+03  0.80416650235E+02 0.  0.
         25    2    1    2    0    0 -0.81251030681E+02 -0.11331430181E+03 -0.43574431329E+02  0.19232295809E+03  0.12509008019E+03 0.  0.
        -24    2    1    2    0    0  0.49948271856E+02  0.26129931198E+02  0.66164718682E+01  0.98070884020E+02  0.79978230955E+02 0.  0.
        -11    1    3    3    0    0 -0.12804905987E+01 -0.23203615266E+01  0.36774183113E+00  0.26756247573E+01  0.00000000000E+00 0.  1.
         12    1    3    3    0    0  0.32583249424E+02  0.89504732139E+02 -0.97642250443E+03  0.98105742562E+03  0.00000000000E+00 0. -1.
         13    1    5    5    0    0  0.68699755369E+02  0.87468913631E+01  0.15563230734E+02  0.70981537368E+02  0.00000000000E+00 0. -1.
        -14    1    5    5    0    0 -0.18751483512E+02  0.17383039835E+02 -0.89467588659E+01  0.27089346652E+02  0.00000000000E+00 0.  1.
          5    1    4    4  501    0 -0.10337994203E+03 -0.89421071013E+02 -0.66711696036E+02  0.15215604866E+03  0.41800000000E+01 0.  1.
         -5    1    4    4    0  501  0.22128911349E+02 -0.23893230797E+02  0.23137264707E+02  0.40166909435E+02  0.41800000000E+01 0.  1.
</event>
<event>
11    1  0.7157190E-009  0.1311714E+03  0.7561462E-02  0.1117838E+00
         22   -1    0    0    0    0  0.00000000000E+00  0.00000000000E+00  0.14858453575E+03  0.14858453575E+03  0.00000000000E+00 0. -1.
         22   -1    0    0    0    0 -0.00000000000E+00 -0.00000000000E+00 -0.13803809278E+04  0.13803809278E+04  0.00000000000E+00 0. -1.
         24    2    1    2    0    0 -0.10952754601E+02 -0.25085408637E+01 -0.12788319834E+04  0.12814229141E+04  0.80667140859E+02 0.  0.
         25    2    1    2    0    0 -0.30497785041E+02 -0.36633888864E+01 -0.25687648929E+02  0.13134211805E+03  0.12508941345E+03 0.  0.
        -24    2    1    2    0    0  0.41450539642E+02  0.61719297500E+01  0.72723240270E+02  0.11620043133E+03  0.80359384095E+02 0.  0.
        -11    1    3    3    0    0 -0.31640943716E+01  0.90490785932E+01 -0.17020393423E+02  0.19534357139E+02  0.00000000000E+00 0.  1.
         12    1    3    3    0    0 -0.77886602296E+01 -0.11557619457E+02 -0.12618115899E+04  0.12618885570E+04  0.00000000000E+00 0. -1.
         11    1    5    5    0    0 -0.83489322822E+01 -0.26656293060E+02  0.38069499628E+02  0.47218104916E+02  0.00000000000E+00 0. -1.
        -12    1    5    5    0    0  0.49799471924E+02  0.32828222810E+02  0.34653740642E+02  0.68982326412E+02  0.00000000000E+00 0.  1.
          5    1    4    4  501    0 -0.81296620948E+01  0.50004469908E+02  0.22615701746E+02  0.55637045051E+02  0.41800000000E+01 0. -1.
         -5    1    4    4    0  501 -0.22368122946E+02 -0.53667858795E+02 -0.48303350675E+02  0.75705073001E+02  0.41800000000E+01 0. -1.
</event>
<event>
11    1  0.7157190E-009  0.1845190E+03  0.7561462E-02  0.1066045E+00
         22   -1    0    0    0    0  0.00000000000E+00  0.00000000000E+00  0.79091272725E+02  0.79091272725E+02  0.00000000000E+00 0.  1.
         22   -1    0    0    0    0 -0.00000000000E+00 -0.00000000000E+00 -0.25633740313E+04  0.25633740313E+04  0.00000000000E+00 0. -1.
        -24    2    1    2    0    0 -0.34544027091E+02  0.66021082373E+02 -0.21022603363E+04  0.21051043186E+04  0.80084937719E+02 0.  0.
         25    2    1    2    0    0  0.86387931004E+02  0.73131767897E+02 -0.31173069052E+03  0.35445147379E+03  0.12509473913E+03 0.  0.
         24    2    1    2    0    0 -0.51843903913E+02 -0.13915285027E+03 -0.70291731668E+02  0.18290951161E+03  0.80396864276E+02 0.  0.
        -11    1    5    5    0    0  0.55592769687E+00 -0.99884268459E+02 -0.24031202305E+02  0.10273594709E+03  0.00000000000E+00 0.  1.
         12    1    5    5    0    0 -0.52399831610E+02 -0.39268581810E+02 -0.46260529363E+02  0.80173564515E+02  0.00000000000E+00 0. -1.
         13    1    3    3    0    0 -0.12099932520E+02 -0.35606694728E+01 -0.11402508479E+04  0.11403206053E+04  0.00000000000E+00 0. -1.
        -14    1    3    3    0    0 -0.22444094571E+02  0.69581751845E+02 -0.96200948839E+03  0.96478371323E+03  0.00000000000E+00 0.  1.
          5    1    4    4  501    0  0.30883257059E+02 -0.22810406156E+02 -0.22536173926E+02  0.44715117475E+02  0.41800000000E+01 0. -1.
         -5    1    4    4    0  501  0.55504673945E+02  0.95942174053E+02 -0.28919451660E+03  0.30973635631E+03  0.41800000000E+01 0. -1.
</event>
<event>
11    1  0.7157190E-009  0.2077253E+03  0.7561462E-02  0.1049191E+00
         22   -1    0    0    0    0  0.00000000000E+00  0.00000000000E+00  0.15470138022E+04  0.15470138022E+04  0.00000000000E+00 0.  1.
         22   -1    0    0    0    0 -0.00000000000E+00 -0.00000000000E+00 -0.31042398985E+03  0.31042398985E+03  0.00000000000E+00 0. -1.
        -24    2    1    2    0    0 -0.93793374911E+02 -0.48715620004E+00 -0.26421088876E+03  0.29190905537E+03  0.81277723689E+02 0.  0.
         25    2    1    2    0    0 -0.80117735554E+02  0.71012647599E+02  0.25677909257E+03  0.30503167175E+03  0.12508865144E+03 0.  0.
         24    2    1    2    0    0  0.17391111046E+03 -0.70525491399E+02  0.12440216086E+04  0.12604970649E+04  0.77744253145E+02 0.  0.
        -13    1    5    5    0    0  0.11782398394E+03 -0.60483663281E+02  0.62613929365E+03  0.63999310916E+03  0.00000000000E+00 0.  1.
         14    1    5    5    0    0  0.56087126524E+02 -0.10041828118E+02  0.61788231491E+03  0.62050395579E+03  0.00000000000E+00 0. -1.
         11    1    3    3    0    0 -0.10509050311E+03  0.44174987981E+01 -0.25687059720E+03  0.27757166974E+03  0.00000000000E+00 0. -1.
        -12    1    3    3    0    0  0.11297128204E+02 -0.49046549981E+01 -0.73402915649E+01  0.14337385625E+02  0.00000000000E+00 0.  1.
          5    1    4    4  501    0 -0.77721947779E+02  0.57208947472E+02  0.74039612357E+02  0.12170826363E+03  0.41800000000E+01 0. -1.
         -5    1    4    4    0  501 -0.23957877751E+01  0.13803700127E+02  0.18273948021E+03  0.18332340812E+03  0.41800000000E+01 0. -1.
</event>
<event>
11    1  0.7157190E-009  0.1518446E+03  0.7561462E-02  0.1095009E+00
         22   -1    0    0    0    0  0.00000000000E+00  0.00000000000E+00  0.45921946279E+03  0.45921946279E+03  0.00000000000E+00 0. -1.
         22   -1    0    0    0    0 -0.00000000000E+00 -0.00000000000E+00 -0.13557476136E+04  0.13557476136E+04  0.00000000000E+00 0. -1.
        -24    2    1    2    0    0 -0.74981457689E+02  0.43969910877E+02 -0.12749840154E+04  0.12806857845E+04  0.83763159201E+02 0.  0.
         25    2    1    2    0    0  0.38821168498E+02 -0.61764776398E+02 -0.38129139876E+00  0.14480159558E+03  0.12508151731E+03 0.  0.
         24    2    1    2    0    0  0.36160289191E+02  0.17794865521E+02  0.37883715604E+03  0.38947969634E+03  0.80948250817E+02 0.  0.
        -13    1    5    5    0    0 -0.15136036986E+02  0.27968464981E+02  0.79782369919E+02  0.85886909357E+02  0.00000000000E+00 0.  1.
         14    1    5    5    0    0  0.51296326177E+02 -0.10173599460E+02  0.29905478612E+03  0.30359278698E+03  0.00000000000E+00 0. -1.
         11    1    3    3    0    0 -0.88670636044E+02  0.30318223081E+02 -0.11822395442E+04  0.11859477291E+04  0.00000000000E+00 0. -1.
        -12    1    3    3    0    0  0.13689178356E+02  0.13651687796E+02 -0.92744471273E+02  0.94738055370E+02  0.00000000000E+00 0.  1.
          5    1    4    4  501    0  0.70264138101E+02 -0.26419453320E+02 -0.37977053316E+02  0.84230431528E+02  0.41800000000E+01 0. -1.
         -5    1    4    4    0  501 -0.31442969603E+02 -0.35345323078E+02  0.37595761917E+02  0.60571164056E+02  0.41800000000E+01 0. -1.
</event>
<event>
11    1  0.7157190E-009  0.1698199E+03  0.7561462E-02  0.1078189E+00
         22   -1    0    0    0    0  0.00000000000E+00  0.00000000000E+00  0.20864366045E+04  0.20864366045E+04  0.00000000000E+00 0.  1.
         22   -1    0    0    0    0 -0.00000000000E+00 -0.00000000000E+00 -0.87276833842E+02  0.87276833842E+02  0.00000000000E+00 0. -1.
         24    2    1    2    0    0  0.96295516122E+02 -0.69881515659E+02  0.18428990621E+01  0.13920483941E+03  0.72238067408E+02 0.  0.
         25    2    1    2    0    0 -0.47805579649E+02  0.89749491066E+02  0.36015096350E+03  0.39458425525E+03  0.12509066066E+03 0.  0.
        -24    2    1    2    0    0 -0.48489936473E+02 -0.19867975407E+02  0.16371659081E+04  0.16399243436E+04  0.79332414500E+02 0.  0.
        -11    1    3    3    0    0 -0.99690697141E+01  0.18027246147E+01  0.42831050357E+01  0.10998961576E+02  0.00000000000E+00 0.  1.
         12    1    3    3    0    0  0.10626458584E+03 -0.71684240274E+02 -0.24402059735E+01  0.12820587784E+03  0.00000000000E+00 0. -1.
         13    1    5    5    0    0  0.70247531140E+01 -0.30045327007E+02  0.30343620279E+03  0.30500098032E+03  0.00000000000E+00 0. -1.
        -14    1    5    5    0    0 -0.55514689587E+02  0.10177351600E+02  0.13337297053E+04  0.13349233633E+04  0.00000000000E+00 0.  1.
          5    1    4    4  501    0 -0.13597847645E+02  0.48621971368E+02  0.32829962659E+03  0.33218536208E+03  0.41800000000E+01 0.  1.
         -5    1    4    4    0  501 -0.34207732005E+02  0.41127519699E+02  0.31851336910E+02  0.62398893167E+02  0.41800000000E+01 0.  1.
</event>
<event>
11    1  0.7157190E-009  0.1871143E+03  0.7561462E-02  0.1064029E+00
         22   -1    0    0    0    0  0.00000000000E+00  0.00000000000E+00  0.18998147883E+04  0.18998147883E+04  0.00000000000E+00 0.  1.
         22   -1    0    0    0    0 -0.00000000000E+00 -0.00000000000E+00 -0.28900894834E+04  0.28900894834E+04  0.00000000000E+00 0.  1.
        -24    2    1    2    0    0  0.53538672638E+02 -0.12790427027E+03 -0.27731907697E+04  0.27777904233E+04  0.79414727033E+02 0.  0.
         25    2    1    2    0    0 -0.46143743563E+02  0.15273859807E+03 -0.23151030533E+02  0.20406341994E+03  0.12509030630E+03 0.  0.
         24    2    1    2    0    0 -0.73949290753E+01 -0.24834327808E+02  0.18060671051E+04  0.18080504284E+04  0.80601084136E+02 0.  0.
        -13    1    5    5    0    0 -0.20037251323E+02  0.94901304835E+01  0.14378503531E+04  0.14380212765E+04  0.00000000000E+00 0.  1.
         14    1    5    5    0    0  0.12642322248E+02 -0.34324458292E+02  0.36821675206E+03  0.37002915189E+03  0.00000000000E+00 0. -1.
         13    1    3    3    0    0  0.70231418842E+02 -0.88150754123E+02 -0.16986903875E+04  0.17024253406E+04  0.00000000000E+00 0. -1.
        -14    1    3    3    0    0 -0.16692746204E+02 -0.39753516143E+02 -0.10745003822E+04  0.10753650827E+04  0.00000000000E+00 0.  1.
          5    1    4    4  501    0 -0.38244477034E+02  0.10005408202E+03 -0.74033487166E+02  0.13027620264E+03  0.41800000000E+01 0.  1.
         -5    1    4    4    0  501 -0.78992665284E+01  0.52684516052E+02  0.50882456633E+02  0.73787217296E+02  0.41800000000E+01 0.  1.
</event>
<event>
11    1  0.7157190E-009  0.2281702E+03  0.7561462E-02  0.1036217E+00
         22   -1    0    0    0    0  0.00000000000E+00  0.00000000000E+00  0.69119299165E+03  0.69119299165E+03  0.00000000000E+00 0.  1.
         22   -1    0    0    0    0 -0.00000000000E+00 -0.00000000000E+00 -0.25803240167E+03  0.25803240167E+03  0.00000000000E+00 0. -1.
         24    2    1    2    0    0  0.56720584879E+02 -0.18307472260E+03 -0.16651656169E+03  0.26821287023E+03  0.86468489254E+02 0.  0.
         25    2    1    2    0    0 -0.41121695951E+02  0.18081795051E+03  0.32321263274E+03  0.39306420739E+03  0.12508772948E+03 0.  0.
        -24    2    1    2    0    0 -0.15598888928E+02  0.22567720968E+01  0.27646451892E+03  0.28794831570E+03  0.78950515750E+02 0.  0.
        -11    1    3    3    0    0  0.30395731033E+02 -0.27910584545E+02 -0.76464623688E+02  0.86889239095E+02  0.00000000000E+00 0.  1.
         12    1    3    3    0    0  0.26324853846E+02 -0.15516413806E+03 -0.90051937997E+02  0.18132363113E+03  0.00000000000E+00 0. -1.
         11    1    5    5    0    0 -0.10356493596E+02  0.93827051263E+01  0.29397902460E+01  0.14280563076E+02  0.00000000000E+00 0. -1.
        -12    1    5    5    0    0 -0.52423953317E+01 -0.71259330295E+01  0.27352472867E+03  0.27366775263E+03  0.00000000000E+00 0.  1.
          5    1    4    4  501    0  0.94989749186E+01  0.85836231936E+00 -0.77156745774E+01  0.12960375942E+02  0.41800000000E+01 0.  1.
         -5    1    4    4    0  501 -0.50620670870E+02  0.17995958819E+03  0.33092830732E+03  0.38010383145E+03  0.41800000000E+01 0.  1.
</event>
<event>
11    1  0.7157190E-009  0.1499865E+03  0.7561462E-02  0.1096893E+00
         22   -1    0    0    0    0  0.00000000000E+00  0.00000000000E+00  0.11137549717E+04  0.11137549717E+04  0.00000000000E+00 0.  1.
         22   -1    0    0    0    0 -0.00000000000E+00 -0.00000000000E+00 -0.34350218407E+03  0.34350218407E+03  0.00000000000E+00 0.  1.
         24    2    1    2    0    0  0.22240925283E+01 -0.82772797632E+02 -0.31186516675E+03  0.33240649690E+03  0.79861845307E+02 0.  0.
         25    2    1    2    0    0 -0.82223974758E+02  0.77819800849E+02  0.41189491704E+03  0.44510799037E+03  0.12508795696E+03 0.  0.
        -24    2    1    2    0    0  0.79999882229E+02  0.49529967829E+01  0.67022303737E+03  0.67974266853E+03  0.80166465950E+02 0.  0.
        -11    1    3    3    0    0  0.32752770197E+02 -0.18214996247E+02 -0.16362562983E+03  0.16786267239E+03  0.00000000000E+00 0.  1.
         12    1    3    3    0    0 -0.30528677668E+02 -0.64557801385E+02 -0.14823953692E+03  0.16454382451E+03  0.00000000000E+00 0. -1.
         13    1    5    5    0    0 -0.47661446583E+01 -0.67970259341E+01  0.65481698350E+01  0.10573278803E+02  0.00000000000E+00 0. -1.
        -14    1    5    5    0    0  0.84766026888E+02  0.11750022717E+02  0.66367486754E+03  0.66916938973E+03  0.00000000000E+00 0.  1.
          5    1    4    4  501    0 -0.78803682511E+02  0.89386767936E+01  0.11164502727E+03  0.13701096611E+03  0.41800000000E+01 0. -1.
         -5    1    4    4    0  501 -0.34202922467E+01  0.68881124056E+02  0.30024988977E+03  0.30809702426E+03  0.41800000000E+01 0. -1.
</event>
<event>
11    1  0.7157190E-009  0.1268791E+03  0.7561462E-02  0.1123164E+00
         22   -1    0    0    0    0  0.00000000000E+00  0.00000000000E+00  0.17143066220E+04  0.17143066220E+04  0.00000000000E+00 0. -1.
         22   -1    0    0    0    0 -0.00000000000E+00 -0.00000000000E+00 -0.15061063886E+04  0.15061063886E+04  0.00000000000E+00 0. -1.
         24    2    1    2    0    0 -0.10441537667E+02 -0.59919907500E+01 -0.14419374944E+04  0.14441377559E+04  0.78773031370E+02 0.  0.
         25    2    1    2    0    0  0.15795038668E+02 -0.14575452038E+02  0.28907755670E+01  0.12696098252E+03  0.12509519355E+03 0.  0.
        -24    2    1    2    0    0 -0.53535010013E+01  0.20567442788E+02  0.16472469523E+04  0.16493142722E+04  0.79770714229E+02 0.  0.
        -13    1    3    3    0    0 -0.28617716296E+02  0.18918549787E+02 -0.33113264958E+03  0.33290496667E+03  0.00000000000E+00 0.  1.
         14    1    3    3    0    0  0.18176178629E+02 -0.24910540537E+02 -0.11108048449E+04  0.11112327892E+04  0.00000000000E+00 0. -1.
         13    1    5    5    0    0 -0.23777612553E+02 -0.80687967671E+01  0.13314640292E+04  0.13317007703E+04  0.00000000000E+00 0. -1.
        -14    1    5    5    0    0  0.18424111551E+02  0.28636239555E+02  0.31578292306E+03  0.31761350191E+03  0.00000000000E+00 0.  1.
          5    1    4    4  501    0  0.31719836503E+02 -0.34165983951E+02 -0.49824682463E+02  0.68362518018E+02  0.41800000000E+01 0. -1.
         -5    1    4    4    0  501 -0.15924797834E+02  0.19590531913E+02  0.52715458031E+02  0.58598464503E+02  0.41800000000E+01 0. -1.
</event>
<event>
11    1  0.7157190E-009  0.2077458E+03  0.7561462E-02  0.1049177E+00
         22   -1    0    0    0    0  0.00000000000E+00  0.00000000000E+00  0.57461281249E+03  0.57461281249E+03  0.00000000000E+00 0. -1.
         22   -1    0    0    0    0 -0.00000000000E+00 -0.00000000000E+00 -0.46437557052E+03  0.46437557052E+03  0.00000000000E+00 0.  1.
         24    2    1    2    0    0  0.13016272919E+03 -0.11672665875E+03 -0.36571611185E+03  0.41342416750E+03  0.81263884177E+02 0.  0.
         25    2    1    2    0    0 -0.11920368530E+03  0.47758962840E+02  0.49353040607E+02  0.18593984645E+03  0.12508983476E+03 0.  0.
        -24    2    1    2    0    0 -0.10959043889E+02  0.68967695911E+02  0.42660031321E+03  0.43962436906E+03  0.80031961836E+02 0.  0.
        -11    1    3    3    0    0  0.97282228603E+02 -0.11414920798E+03 -0.33997403903E+03  0.37158608814E+03  0.00000000000E+00 0.  1.
         12    1    3    3    0    0  0.32880500590E+02 -0.25774507740E+01 -0.25742072820E+02  0.41838079361E+02  0.00000000000E+00 0. -1.
         11    1    5    5    0    0  0.74974878515E+01  0.28744391797E+02  0.34923034328E+03  0.35049149070E+03  0.00000000000E+00 0. -1.
        -12    1    5    5    0    0 -0.18456531741E+02  0.40223304114E+02  0.77369969935E+02  0.89132878364E+02  0.00000000000E+00 0.  1.
          5    1    4    4  501    0 -0.10329535036E+03  0.87222595640E+02  0.27908262688E+02  0.13810884882E+03  0.41800000000E+01 0. -1.
         -5    1    4    4    0  501 -0.15908334939E+02 -0.39463632799E+02  0.21444777919E+02  0.47830997630E+02  0.41800000000E+01 0. -1.
</event>
<event>
11    1  0.7157190E-009  0.1403551E+03  0.7561462E-02  0.1107163E+00
         22   -1    0    0    0    0  0.00000000000E+00  0.00000000000E+00  0.51122626384E+02  0.51122626384E+02  0.00000000000E+00 0. -1.
         22   -1    0    0    0    0 -0.00000000000E+00 -0.00000000000E+00 -0.14448400370E+04  0.14448400370E+04  0.00000000000E+00 0. -1.
         24    2    1    2    0    0  0.29564822603E+01 -0.25571041997E+02 -0.64504899487E+03  0.65089355780E+03  0.83136026041E+02 0.  0.
         25    2    1    2    0    0 -0.49380564262E+02  0.66854131804E+02 -0.72627276154E+03  0.74163846397E+03  0.12509025551E+03 0.  0.
        -24    2    1    2    0    0  0.46424082002E+02 -0.41283089807E+02 -0.22395654183E+02  0.10343064159E+03  0.79604292594E+02 0.  0.
        -11    1    3    3    0    0 -0.25554184759E+02 -0.35076893808E+01 -0.68129801951E+02  0.72849091672E+02  0.00000000000E+00 0.  1.
         12    1    3    3    0    0  0.28510667020E+02 -0.22063352616E+02 -0.57691919292E+03  0.57804446613E+03  0.00000000000E+00 0. -1.
         11    1    5    5    0    0  0.48595537547E+02 -0.14059864727E+02  0.18830445756E+02  0.53979549396E+02  0.00000000000E+00 0. -1.
        -12    1    5    5    0    0 -0.21714555454E+01 -0.27223225080E+02 -0.41226099938E+02  0.49451092193E+02  0.00000000000E+00 0.  1.
          5    1    4    4  501    0 -0.51420215740E+02 -0.22504013523E+02 -0.37234158271E+03  0.37657163439E+03  0.41800000000E+01 0. -1.
         -5    1    4    4    0  501  0.20396514782E+01  0.89358145327E+02 -0.35393117883E+03  0.36506682958E+03  0.41800000000E+01 0. -1.
</event>
<event>
11    1  0.7157190E-009  0.1820740E+03  0.7561462E-02  0.1067977E+00
         22   -1    0    0    0    0  0.00000000000E+00  0.00000000000E+00  0.84894577069E+03  0.84894577069E+03  0.00000000000E+00 0. -1.
         22   -1    0    0    0    0 -0.00000000000E+00 -0.00000000000E+00 -0.45822079675E+03  0.45822079675E+03  0.00000000000E+00 0.  1.
        -24    2    1    2    0    0  0.30443757329E+02 -0.12005279215E+03 -0.31407434832E+03  0.34724248381E+03  0.81210535203E+02 0.  0.
         25    2    1    2    0    0 -0.37860444397E+02  0.17882619781E+03 -0.25242819662E+02  0.22292595567E+03  0.12508620824E+03 0.  0.
         24    2    1    2    0    0  0.74166870679E+01 -0.58773405663E+02  0.73004214192E+03  0.73699812797E+03  0.81825370137E+02 0.  0.
        -11    1    5    5    0    0 -0.13674406994E+02 -0.17893023213E+02  0.44118515710E+02  0.49533757326E+02  0.00000000000E+00 0.  1.
         12    1    5    5    0    0  0.21091094062E+02 -0.40880382450E+02  0.68592362621E+03  0.68746437064E+03  0.00000000000E+00 0. -1.
         11    1    3    3    0    0 -0.54198805339E+01  0.23859554917E+01  0.21111591844E+01  0.62868817161E+01  0.00000000000E+00 0. -1.
        -12    1    3    3    0    0  0.35863637863E+02 -0.12243874764E+03 -0.31618550750E+03  0.34095560209E+03  0.00000000000E+00 0.  1.
          5    1    4    4  501    0 -0.52369888561E+02  0.23609444918E+02 -0.33727235366E+02  0.66745860716E+02  0.41800000000E+01 0.  1.
         -5    1    4    4    0  501  0.14509444164E+02  0.15521675289E+03  0.84844157042E+01  0.15618009495E+03  0.41800000000E+01 0.  1.
</event>
<event>
11    1  0.7157190E-009  0.1360958E+03  0.7561462E-02  0.1111998E+00
         22   -1    0    0    0    0  0.00000000000E+00  0.00000000000E+00  0.69465215492E+03  0.69465215492E+03  0.00000000000E+00 0. -1.
         22   -1    0    0    0    0 -0.00000000000E+00 -0.00000000000E+00 -0.28738732506E+03  0.28738732506E+03  0.00000000000E+00 0. -1.
        -24    2    1    2    0    0 -0.37797483190E+02  0.24592437833E+02 -0.11219745516E+03  0.14559359507E+03  0.81091234095E+02 0.  0.
         25    2    1    2    0    0  0.67121301957E+02  0.20278091214E+02 -0.12169864783E+03  0.18808129542E+03  0.12509013807E+03 0.  0.
         24    2    1    2    0    0 -0.29323818766E+02 -0.44870529047E+02  0.64116093285E+03  0.64836458949E+03  0.80100239449E+02 0.  0.
        -11    1    5    5    0    0 -0.28696808409E+02 -0.53212658834E+02  0.25335809830E+03  0.26047153366E+03  0.00000000000E+00 0.  1.
         12    1    5    5    0    0 -0.62701035748E+00  0.83421297867E+01  0.38780283456E+03  0.38789305583E+03  0.00000000000E+00 0. -1.
         11    1    3    3    0    0 -0.56944648688E+02  0.36492156443E-01 -0.92889250083E+02  0.10895461040E+03  0.00000000000E+00 0. -1.
        -12    1    3    3    0    0  0.19147165498E+02  0.24555945676E+02 -0.19308205082E+02  0.36638984677E+02  0.00000000000E+00 0.  1.
          5    1    4    4  501    0  0.16617297032E+02 -0.31232635692E+02 -0.10905185809E+03  0.11472311121E+03  0.41800000000E+01 0. -1.
         -5    1    4    4    0  501  0.50504004924E+02  0.51510726906E+02 -0.12646789743E+02  0.73358184210E+02  0.41800000000E+01 0. -1.
</event>
<event>
11    1  0.7157190E-009  0.1509572E+03  0.7561462E-02  0.1095905E+00
         22   -1    0    0    0    0  0.00000000000E+00  0.00000000000E+00  0.11630229477E+03  0.11630229477E+03  0.00000000000E+00 0.  1.
         22   -1    0    0    0    0 -0.00000000000E+00 -0.00000000000E+00 -0.18240458771E+04  0.18240458771E+04  0.00000000000E+00 0. -1.
         24    2    1    2    0    0  0.42466942700E+02 -0.75272614052E+02 -0.11573476671E+04  0.11633671700E+04  0.80623457190E+02 0.  0.
         25    2    1    2    0    0 -0.29686902901E+02  0.73839726020E+02 -0.63896674692E+03  0.65594211831E+03  0.12509173258E+03 0.  0.
        -24    2    1    2    0    0 -0.12780039799E+02  0.14328880321E+01  0.88570831756E+02  0.12103888358E+03  0.81487646402E+02 0.  0.
        -11    1    3    3    0    0  0.23463056958E+02 -0.14372828621E+02 -0.89940195680E+02  0.94054941621E+02  0.00000000000E+00 0.  1.
         12    1    3    3    0    0  0.19003885742E+02 -0.60899785431E+02 -0.10674074715E+04  0.10693122283E+04  0.00000000000E+00 0. -1.
         13    1    5    5    0    0 -0.21739975936E+01 -0.39521163793E+02  0.50176781599E+02  0.63908982661E+02  0.00000000000E+00 0. -1.
        -14    1    5    5    0    0 -0.10606042206E+02  0.40954051825E+02  0.38394050156E+02  0.57129900924E+02  0.00000000000E+00 0.  1.
          5    1    4    4  501    0 -0.73297841965E+02  0.50375988496E+02 -0.51032307843E+03  0.51803226795E+03  0.41800000000E+01 0.  1.
         -5    1    4    4    0  501  0.43610939064E+02  0.23463737524E+02 -0.12864366849E+03  0.13790985036E+03  0.41800000000E+01 0.  1.
</event>
<event>
11    1  0.1106198E-008  0.1823516E+03  0.7561462E-02  0.1067756E+00
         22   -1    0    0    0    0  0.00000000000E+00  0.00000000000E+00  0.18624374550E+04  0.18624374550E+04  0.00000000000E+00 0. -1.
         22   -1    0    0    0    0 -0.00000000000E+00 -0.00000000000E+00 -0.27042243705E+03  0.27042243705E+03  0.00000000000E+00 0. -1.
        -24    2    1    2    0    0 -0.72366784633E+00 -0.17330251501E+02 -0.20738421868E+03  0.21904127551E+03  0.68337434163E+02 0.  0.
         25    2    1    2    0    0  0.43901957558E+02  0.14171354755E+03  0.12153867114E+03  0.22897669652E+03  0.12509423460E+03 0.  0.
         24    2    1    2    0    0 -0.43178289711E+02 -0.12438329605E+03  0.16778605655E+04  0.16848419200E+04  0.78362294300E+02 0.  0.
        -13    1    5    5    0    0 -0.14746223545E+02 -0.10408175206E+02  0.58375104907E+02  0.61101833793E+02  0.00000000000E+00 0.  1.
         14    1    5    5    0    0 -0.28432066166E+02 -0.11397512085E+03  0.16194854606E+04  0.16237400862E+04  0.00000000000E+00 0. -1.
         13    1    3    3    0    0  0.10739360414E+01 -0.96050584137E+01 -0.21035105706E+03  0.21057297474E+03  0.00000000000E+00 0. -1.
        -14    1    3    3    0    0 -0.17976038878E+01 -0.77251930876E+01  0.29668383783E+01  0.84683007705E+01  0.00000000000E+00 0.  1.
          5    1    4    4  501    0 -0.34353603778E+01  0.12033144537E+03  0.12881791809E+03  0.17636038917E+03  0.41800000000E+01 0.  1.
         -5    1    4    4    0  501  0.47337317935E+02  0.21382102180E+02 -0.72792469546E+01  0.52616307350E+02  0.41800000000E+01 0.  1.
</event>
<event>
11    1  0.7157190E-009  0.1275882E+03  0.7561462E-02  0.1122268E+00
         22   -1    0    0    0    0  0.00000000000E+00  0.00000000000E+00  0.52335856301E+02  0.52335856301E+02  0.00000000000E+00 0. -1.
         22   -1    0    0    0    0 -0.00000000000E+00 -0.00000000000E+00 -0.15179140658E+04  0.15179140658E+04  0.00000000000E+00 0.  1.
         24    2    1    2    0    0  0.57989077268E+01 -0.16633271686E+02 -0.12784451198E+04  0.12811126356E+04  0.80730215855E+02 0.  0.
         25    2    1    2    0    0 -0.15366583424E+02  0.34544378061E+02 -0.14774046646E+03  0.19724267708E+03  0.12509189538E+03 0.  0.
        -24    2    1    2    0    0  0.95676756976E+01 -0.17911106375E+02 -0.39392623241E+02  0.91894609400E+02  0.80501505086E+02 0.  0.
        -11    1    3    3    0    0  0.13228984435E+02 -0.11033108070E+02 -0.12627462075E+04  0.12628636981E+04  0.00000000000E+00 0.  1.
         12    1    3    3    0    0 -0.74300767081E+01 -0.56001636156E+01 -0.15698912356E+02  0.18248937547E+02  0.00000000000E+00 0. -1.
         11    1    5    5    0    0  0.42303374538E+02 -0.29457092483E+01 -0.60593723173E+01  0.42836534561E+02  0.00000000000E+00 0. -1.
        -12    1    5    5    0    0 -0.32735698841E+02 -0.14965397127E+02 -0.33333250924E+02  0.49058074839E+02  0.00000000000E+00 0.  1.
          5    1    4    4  501    0  0.34957847153E+02 -0.12436739529E+02 -0.36771936719E+01  0.37519564510E+02  0.41800000000E+01 0.  1.
         -5    1    4    4    0  501 -0.50324430578E+02  0.46981117590E+02 -0.14406327278E+03  0.15972311257E+03  0.41800000000E+01 0.  1.
</event>
<event>
11    1  0.7157190E-009  0.1425815E+03  0.7561462E-02  0.1104709E+00
         22   -1    0    0    0    0  0.00000000000E+00  0.00000000000E+00  0.33574093227E+03  0.33574093227E+03  0.00000000000E+00 0. -1.
         22   -1    0    0    0    0 -0.00000000000E+00 -0.00000000000E+00 -0.27997449510E+03  0.27997449510E+03  0.00000000000E+00 0.  1.
        -24    2    1    2    0    0  0.48703545946E+02  0.25929347920E+02 -0.18352680737E+03  0.20785971464E+03  0.80493512012E+02 0.  0.
         25    2    1    2    0    0 -0.92430599065E+02  0.21966589519E+02  0.24080310836E+02  0.15890866846E+03  0.12508459875E+03 0.  0.
         24    2    1    2    0    0  0.43727053119E+02 -0.47895937439E+02  0.21521293370E+03  0.24894704427E+03  0.10701377491E+03 0.  0.
        -13    1    5    5    0    0  0.22403398273E+02 -0.11967351892E+02 -0.40664983211E+01  0.25722872586E+02  0.00000000000E+00 0.  1.
         14    1    5    5    0    0  0.21323654846E+02 -0.35928585547E+02  0.21927943202E+03  0.22322417168E+03  0.00000000000E+00 0. -1.
         13    1    3    3    0    0  0.34672215994E+02  0.30307008450E+02 -0.33089809308E+02  0.56706373568E+02  0.00000000000E+00 0. -1.
        -14    1    3    3    0    0  0.14031329952E+02 -0.43776605301E+01 -0.15043699806E+03  0.15115334107E+03  0.00000000000E+00 0.  1.
          5    1    4    4  501    0  0.16896945417E+02  0.24730731109E+02 -0.24738689820E+02  0.39071613732E+02  0.41800000000E+01 0. -1.
         -5    1    4    4    0  501 -0.10932754448E+03 -0.27641415905E+01  0.48819000656E+02  0.11983705473E+03  0.41800000000E+01 0. -1.
</event>
<event>
11    1  0.7157190E-009  0.1998923E+03  0.7561462E-02  0.1054600E+00
         22   -1    0    0    0    0  0.00000000000E+00  0.00000000000E+00  0.46834091359E+03  0.46834091359E+03  0.00000000000E+00 0. -1.
         22   -1    0    0    0    0 -0.00000000000E+00 -0.00000000000E+00 -0.80695010680E+03  0.80695010680E+03  0.00000000000E+00 0. -1.
         24    2    1    2    0    0  0.13537213598E+03 -0.57724908367E+02 -0.54299625739E+03  0.57242221121E+03  0.10566206559E+03 0.  0.
         25    2    1    2    0    0 -0.18593981634E+03  0.39746305583E+02 -0.19041215491E+03  0.29674288480E+03  0.12508463868E+03 0.  0.
        -24    2    1    2    0    0  0.50567680358E+02  0.17978602783E+02  0.39479921908E+03  0.40612592438E+03  0.78686228867E+02 0.  0.
        -13    1    3    3    0    0 -0.36058867498E+01 -0.10846104714E+02 -0.16377827234E+01  0.11546546625E+02  0.00000000000E+00 0.  1.
         14    1    3    3    0    0  0.13897802273E+03 -0.46878803653E+02 -0.54135847467E+03  0.56087566459E+03  0.00000000000E+00 0. -1.
         11    1    5    5    0    0  0.13963390634E+02  0.40657903195E+02  0.28431967845E+03  0.28755124921E+03  0.00000000000E+00 0. -1.
        -12    1    5    5    0    0  0.36604289723E+02 -0.22679300411E+02  0.11047954063E+03  0.11857467517E+03  0.00000000000E+00 0.  1.
          5    1    4    4  501    0 -0.87772607127E+02 -0.23208863731E+02 -0.24910288411E+02  0.94237342844E+02  0.41800000000E+01 0.  1.
         -5    1    4    4    0  501 -0.98167209212E+02  0.62955169314E+02 -0.16550186649E+03  0.20250554195E+03  0.41800000000E+01 0.  1.
</event>
<event>
11    1  0.7157190E-009  0.1440944E+03  0.7561462E-02  0.1103071E+00
         22   -1    0    0    0    0  0.00000000000E+00  0.00000000000E+00  0.15830646897E+03  0.15830646897E+03  0.00000000000E+00 0.  1.
         22   -1    0    0    0    0 -0.00000000000E+00 -0.00000000000E+00 -0.52095859336E+03  0.52095859336E+03  0.00000000000E+00 0. -1.
        -24    2    1    2    0    0 -0.68567383903E+02  0.25158765353E+02 -0.38221491621E+03  0.39763344868E+03  0.81790388948E+02 0.  0.
         25    2    1    2    0    0  0.68987255117E+02  0.96135682214E+01 -0.66823572865E+02  0.15800397033E+03  0.12509277631E+03 0.  0.
         24    2    1    2    0    0 -0.41987121391E+00 -0.34772333575E+02  0.86386364685E+02  0.12362764333E+03  0.81313582608E+02 0.  0.
        -13    1    5    5    0    0 -0.30846153965E+02  0.49037622243E+00  0.65865716741E+02  0.72732512160E+02  0.00000000000E+00 0.  1.
         14    1    5    5    0    0  0.30426282751E+02 -0.35262709797E+02  0.20520647944E+02  0.50895131166E+02  0.00000000000E+00 0. -1.
         13    1    3    3    0    0 -0.65026715845E+02  0.49576820587E+02 -0.32847829923E+03  0.33850306938E+03  0.00000000000E+00 0. -1.
        -14    1    3    3    0    0 -0.35406680580E+01 -0.24418055233E+02 -0.53736616979E+02  0.59130379298E+02  0.00000000000E+00 0.  1.
          5    1    4    4  501    0  0.33258424062E+02 -0.41923026025E+02  0.14141859208E+02  0.55507904519E+02  0.41800000000E+01 0. -1.
         -5    1    4    4    0  501  0.35728831055E+02  0.51536594246E+02 -0.80965432073E+02  0.10249606581E+03  0.41800000000E+01 0. -1.
</event>
<event>
11    1  0.7157190E-009  0.1531174E+03  0.7561462E-02  0.1093735E+00
         22   -1    0    0    0    0  0.00000000000E+00  0.00000000000E+00  0.12155006435E+04  0.12155006435E+04  0.00000000000E+00 0. -1.
         22   -1    0    0    0    0 -0.00000000000E+00 -0.00000000000E+00 -0.26588357362E+03  0.26588357362E+03  0.00000000000E+00 0.  1.
        -24    2    1    2    0    0 -0.63266615114E+02 -0.59953185134E+02 -0.20887760357E+03  0.23936723925E+03  0.77908747622E+02 0.  0.
         25    2    1    2    0    0  0.98447935684E+02  0.42119791388E+02  0.13031762052E+03  0.20999026789E+03  0.12508859869E+03 0.  0.
         24    2    1    2    0    0 -0.35181320570E+02  0.17833393747E+02  0.10281770529E+04  0.10320267100E+04  0.79845617935E+02 0.  0.
        -11    1    5    5    0    0 -0.13686431904E+01 -0.46531820900E+01  0.23381973541E+01  0.53844641899E+01  0.00000000000E+00 0.  1.
         12    1    5    5    0    0 -0.33812677379E+02  0.22486575837E+02  0.10258388556E+04  0.10266422458E+04  0.00000000000E+00 0. -1.
         11    1    3    3    0    0 -0.62257287446E+02 -0.69924675723E+01 -0.95346672946E+02  0.11408703907E+03  0.00000000000E+00 0. -1.
        -12    1    3    3    0    0 -0.10093276680E+01 -0.52960717562E+02 -0.11353093062E+03  0.12528020017E+03  0.00000000000E+00 0.  1.
          5    1    4    4  501    0  0.14907984910E+02  0.13065139783E+02  0.11901257484E+03  0.12072452635E+03  0.41800000000E+01 0.  1.
         -5    1    4    4    0  501  0.83539950773E+02  0.29054651605E+02  0.11305045682E+02  0.89265741541E+02  0.41800000000E+01 0.  1.
</event>
<event>
11    1  0.7157190E-009  0.1417378E+03  0.7561462E-02  0.1105633E+00
         22   -1    0    0    0    0  0.00000000000E+00  0.00000000000E+00  0.11732487747E+04  0.11732487747E+04  0.00000000000E+00 0.  1.
         22   -1    0    0    0    0 -0.00000000000E+00 -0.00000000000E+00 -0.99604268607E+03  0.99604268607E+03  0.00000000000E+00 0.  1.
         24    2    1    2    0    0 -0.58211126957E+02  0.28941263230E+02 -0.89729231645E+03  0.90323555328E+03  0.80466337871E+02 0.  0.
         25    2    1    2    0    0  0.10027964921E+03 -0.37458132850E+02 -0.21758739401E+02  0.16607202883E+03  0.12508939307E+03 0.  0.
        -24    2    1    2    0    0 -0.42068522253E+02  0.85168696200E+01  0.10962571445E+04  0.10999838786E+04  0.79639869518E+02 0.  0.
        -13    1    3    3    0    0 -0.15342344498E+02  0.94141839355E-01 -0.66870614316E+03  0.66888212885E+03  0.00000000000E+00 0.  1.
         14    1    3    3    0    0 -0.42868782459E+02  0.28847121390E+02 -0.22858617329E+03  0.23435342443E+03  0.00000000000E+00 0. -1.
         13    1    5    5    0    0  0.11247868068E+02 -0.23809550121E+02  0.23445011567E+03  0.23592428013E+03  0.00000000000E+00 0. -1.
        -14    1    5    5    0    0 -0.53316390321E+02  0.32326419741E+02  0.86180702880E+03  0.86405959851E+03  0.00000000000E+00 0.  1.
          5    1    4    4  501    0  0.11018741704E+03  0.13440103844E+02 -0.25308230069E+02  0.11392928585E+03  0.41800000000E+01 0.  1.
         -5    1    4    4    0  501 -0.99077678277E+01 -0.50898236694E+02  0.35494906679E+01  0.52142742984E+02  0.41800000000E+01 0.  1.
</event>
<event>
11    1  0.7157190E-009  0.1405655E+03  0.7561462E-02  0.1106929E+00
         22   -1    0    0    0    0  0.00000000000E+00  0.00000000000E+00  0.30689952422E+03  0.30689952422E+03  0.00000000000E+00 0. -1.
         22   -1    0    0    0    0 -0.00000000000E+00 -0.00000000000E+00 -0.24095795323E+03  0.24095795323E+03  0.00000000000E+00 0. -1.
         24    2    1    2    0    0  0.75046021734E+01  0.24960348532E+02 -0.15465095139E+03  0.17604121049E+03  0.79964073014E+02 0.  0.
         25    2    1    2    0    0 -0.19642444528E+02 -0.83576087689E+02  0.27811658821E+02  0.15424663390E+03  0.12509095748E+03 0.  0.
        -24    2    1    2    0    0  0.12137842355E+02  0.58615739157E+02  0.19278086356E+03  0.21756963307E+03  0.81172358500E+02 0.  0.
        -13    1    3    3    0    0  0.29726434635E+01  0.53332364563E+02 -0.81441218377E+02  0.97395327248E+02  0.00000000000E+00 0.  1.
         14    1    3    3    0    0  0.45319587100E+01 -0.28372016031E+02 -0.73209733013E+02  0.78645883244E+02  0.00000000000E+00 0. -1.
         13    1    5    5    0    0  0.32216682288E+02  0.69122346252E+02  0.16459264683E+03  0.18140163384E+03  0.00000000000E+00 0. -1.
        -14    1    5    5    0    0 -0.20078839934E+02 -0.10506607095E+02  0.28188216726E+02  0.36167999225E+02  0.00000000000E+00 0.  1.
          5    1    4    4  501    0  0.16853482268E+01 -0.59090496858E+02  0.75761092689E+02  0.96185980179E+02  0.41800000000E+01 0. -1.
         -5    1    4    4    0  501 -0.21327792755E+02 -0.24485590831E+02 -0.47949433868E+02  0.58060653720E+02  0.41800000000E+01 0. -1.
</event>
<event>
11    1  0.7157190E-009  0.1975242E+03  0.7561462E-02  0.1056288E+00
         22   -1    0    0    0    0  0.00000000000E+00  0.00000000000E+00  0.25094066292E+04  0.25094066292E+04  0.00000000000E+00 0. -1.
         22   -1    0    0    0    0 -0.00000000000E+00 -0.00000000000E+00 -0.13863664222E+04  0.13863664222E+04  0.00000000000E+00 0. -1.
         24    2    1    2    0    0  0.14580385445E+03  0.47787385964E+02 -0.13652098666E+04  0.13762294484E+04  0.81652412189E+02 0.  0.
         25    2    1    2    0    0 -0.93188284267E+02 -0.52023396540E+02  0.45228155097E+03  0.48124464599E+03  0.12508923946E+03 0.  0.
        -24    2    1    2    0    0 -0.52615570182E+02  0.42360105754E+01  0.20359685226E+04  0.20382989571E+04  0.81905257317E+02 0.  0.
        -11    1    3    3    0    0  0.52819228672E+02  0.39975855973E+02 -0.31542100249E+03  0.32230164255E+03  0.00000000000E+00 0.  1.
         12    1    3    3    0    0  0.92984625776E+02  0.78115299910E+01 -0.10497888641E+04  0.10539278058E+04  0.00000000000E+00 0. -1.
         11    1    5    5    0    0 -0.82171614326E+01  0.38607251362E+02  0.10402539753E+04  0.10410025815E+04  0.00000000000E+00 0. -1.
        -12    1    5    5    0    0 -0.44398408749E+02 -0.34371240786E+02  0.99571454731E+03  0.99729637552E+03  0.00000000000E+00 0.  1.
          5    1    4    4  501    0 -0.10505415561E+03 -0.27651773763E+02  0.20139447847E+03  0.22886285099E+03  0.41800000000E+01 0. -1.
         -5    1    4    4    0  501  0.11865871343E+02 -0.24371622777E+02  0.25088707250E+03  0.25238179500E+03  0.41800000000E+01 0. -1.
</event>
<event>
11    1  0.7157190E-009  0.1298317E+03  0.7561462E-02  0.1119476E+00
         22   -1    0    0    0    0  0.00000000000E+00  0.00000000000E+00  0.59813054182E+03  0.59813054182E+03  0.00000000000E+00 0.  1.
         22   -1    0    0    0    0 -0.00000000000E+00 -0.00000000000E+00 -0.11740147518E+04  0.11740147518E+04  0.00000000000E+00 0.  1.
        -24    2    1    2    0    0 -0.35087885412E+02  0.85541325269E+00 -0.11185901269E+04  0.11219789721E+04  0.79756192513E+02 0.  0.
         25    2    1    2    0    0  0.17314877548E+02 -0.30584644994E+02  0.34160372160E+02  0.13434902741E+03  0.12508998620E+03 0.  0.
         24    2    1    2    0    0  0.17773007864E+02  0.29729231742E+02  0.50854554481E+03  0.51581729413E+03  0.79051899078E+02 0.  0.
        -11    1    5    5    0    0  0.45102397222E+02  0.40396323846E+01  0.20367669364E+03  0.20864980325E+03  0.00000000000E+00 0.  1.
         12    1    5    5    0    0 -0.27329389358E+02  0.25689599357E+02  0.30486885117E+03  0.30716749088E+03  0.00000000000E+00 0. -1.
         13    1    3    3    0    0 -0.32164364746E+02  0.32849303562E+01 -0.15288261686E+03  0.15626398070E+03  0.00000000000E+00 0. -1.
        -14    1    3    3    0    0 -0.29235206652E+01 -0.24295171035E+01 -0.96570751008E+03  0.96571499137E+03  0.00000000000E+00 0.  1.
          5    1    4    4  501    0  0.12041315626E+02 -0.54315934499E+02 -0.31596876348E+02  0.64117462656E+02  0.41800000000E+01 0.  1.
         -5    1    4    4    0  501  0.52735619218E+01  0.23731289504E+02  0.65757248508E+02  0.70231564757E+02  0.41800000000E+01 0.  1.
</event>
<event>
11    1  0.7157190E-009  0.1612698E+03  0.7561462E-02  0.1085889E+00
         22   -1    0    0    0    0  0.00000000000E+00  0.00000000000E+00  0.12127859372E+04  0.12127859372E+04  0.00000000000E+00 0.  1.
         22   -1    0    0    0    0 -0.00000000000E+00 -0.00000000000E+00 -0.12891125485E+03  0.12891125485E+03  0.00000000000E+00 0.  1.
         24    2    1    2    0    0 -0.71970743146E-01 -0.27365708276E+02 -0.84950303811E+02  0.12165659966E+03  0.82673375124E+02 0.  0.
         25    2    1    2    0    0  0.58782879152E+02  0.10535671269E+03  0.34238525106E+03  0.38396675446E+03  0.12508934644E+03 0.  0.
        -24    2    1    2    0    0 -0.58710908409E+02 -0.77991004417E+02  0.82643973507E+03  0.83607383789E+03  0.80543523469E+02 0.  0.
        -13    1    3    3    0    0 -0.37464962076E+02 -0.69565902831E+01 -0.63265688510E+02  0.73855026060E+02  0.00000000000E+00 0.  1.
         14    1    3    3    0    0  0.37392991333E+02 -0.20409117993E+02 -0.21684615301E+02  0.47801573602E+02  0.00000000000E+00 0. -1.
         11    1    5    5    0    0  0.15195404220E+02 -0.18860260146E+02  0.78021615171E+02  0.81694443851E+02  0.00000000000E+00 0. -1.
        -12    1    5    5    0    0 -0.73906312629E+02 -0.59130744270E+02  0.74841811990E+03  0.75437939404E+03  0.00000000000E+00 0.  1.
          5    1    4    4  501    0  0.25551768259E+01  0.84573972455E+02  0.29648528825E+03  0.30835091096E+03  0.41800000000E+01 0. -1.
         -5    1    4    4    0  501  0.56227702326E+02  0.20782740237E+02  0.45899962816E+02  0.75615843493E+02  0.41800000000E+01 0. -1.
</event>
<event>
11    1  0.7157190E-009  0.1455397E+03  0.7561462E-02  0.1101525E+00
         22   -1    0    0    0    0  0.00000000000E+00  0.00000000000E+00  0.11580897901E+04  0.11580897901E+04  0.00000000000E+00 0. -1.
         22   -1    0    0    0    0 -0.00000000000E+00 -0.00000000000E+00 -0.98107621274E+03  0.98107621274E+03  0.00000000000E+00 0.  1.
         24    2    1    2    0    0 -0.34436169872E+02  0.66529648019E+02 -0.92340669361E+03  0.93004143838E+03  0.81762530807E+02 0.  0.
         25    2    1    2    0    0 -0.35328757871E+02 -0.81019734245E+02  0.62211408281E+02  0.16531716686E+03  0.12508871999E+03 0.  0.
        -24    2    1    2    0    0  0.69764927743E+02  0.14490086226E+02  0.10382088627E+04  0.10438073976E+04  0.81111854785E+02 0.  0.
        -13    1    3    3    0    0 -0.14606541443E+02  0.62172785496E+02 -0.87779505067E+03  0.88011530909E+03  0.00000000000E+00 0.  1.
         14    1    3    3    0    0 -0.19829628429E+02  0.43568625227E+01 -0.45611642934E+02  0.49926129290E+02  0.00000000000E+00 0. -1.
         11    1    5    5    0    0  0.26272467493E+02  0.21316203292E+02  0.84371805665E+03  0.84439610503E+03  0.00000000000E+00 0. -1.
        -12    1    5    5    0    0  0.43492460250E+02 -0.68261170653E+01  0.19449080600E+03  0.19941129254E+03  0.00000000000E+00 0.  1.
          5    1    4    4  501    0 -0.78127158786E+02 -0.28526713194E+02  0.20851287356E+02  0.85847975457E+02  0.41800000000E+01 0.  1.
         -5    1    4    4    0  501  0.42798400915E+02 -0.52493021051E+02  0.41360120925E+02  0.79469191407E+02  0.41800000000E+01 0.  1.
</event>
<event>
11    1  0.7157190E-009  0.2154205E+03  0.7561462E-02  0.1044125E+00
         22   -1    0    0    0    0  0.00000000000E+00  0.00000000000E+00  0.31818191487E+03  0.31818191487E+03  0.00000000000E+00 0. -1.
         22   -1    0    0    0    0 -0.00000000000E+00 -0.00000000000E+00 -0.86673630436E+03  0.86673630436E+03  0.00000000000E+00 0.  1.
         24    2    1    2    0    0  0.24003108215E+02  0.16834229686E+03 -0.63705721909E+03  0.66441243012E+03  0.81772237240E+02 0.  0.
         25    2    1    2    0    0 -0.24841493064E+02 -0.20035025792E+03 -0.13991655213E+03  0.27564734014E+03  0.12508992342E+03 0.  0.
        -24    2    1    2    0    0  0.83838484905E+00  0.32007961051E+02  0.22841938173E+03  0.24485844898E+03  0.82189011594E+02 0.  0.
        -11    1    3    3    0    0 -0.71997926847E+01  0.81929219392E+02 -0.43135090219E+03  0.43912166289E+03  0.00000000000E+00 0.  1.
         12    1    3    3    0    0  0.31202900899E+02  0.86413077473E+02 -0.20570631690E+03  0.22529076722E+03  0.00000000000E+00 0. -1.
         13    1    5    5    0    0  0.29944359383E+02  0.40308999504E+01  0.17661428583E+03  0.17918012940E+03  0.00000000000E+00 0. -1.
        -14    1    5    5    0    0 -0.29105974534E+02  0.27977061101E+02  0.51805095904E+02  0.65678319582E+02  0.00000000000E+00 0.  1.
          5    1    4    4  501    0  0.13391116216E+02 -0.19519257997E+03 -0.99206312884E+02  0.21940562934E+03  0.41800000000E+01 0. -1.
         -5    1    4    4    0  501 -0.38232609280E+02 -0.51576779442E+01 -0.40710239244E+02  0.56241710797E+02  0.41800000000E+01 0. -1.
</event>
<event>
11    1  0.7157190E-009  0.1270952E+03  0.7561462E-02  0.1122890E+00
         22   -1    0    0    0    0  0.00000000000E+00  0.00000000000E+00  0.37975500112E+03  0.37975500112E+03  0.00000000000E+00 0. -1.
         22   -1    0    0    0    0 -0.00000000000E+00 -0.00000000000E+00 -0.50985825694E+03  0.50985825694E+03  0.00000000000E+00 0. -1.
         24    2    1    2    0    0  0.18372427748E+02 -0.12449640856E+02 -0.26617381576E+03  0.27896918040E+03  0.80515611890E+02 0.  0.
         25    2    1    2    0    0 -0.14145166957E+02  0.19891428947E+02 -0.21530384064E+03  0.25019757744E+03  0.12508928519E+03 0.  0.
        -24    2    1    2    0    0 -0.42272607904E+01 -0.74417880905E+01  0.35137440058E+03  0.36044650023E+03  0.79902817213E+02 0.  0.
        -13    1    3    3    0    0  0.26035130802E+02  0.19189618206E+02 -0.45027035682E+02  0.55439186728E+02  0.00000000000E+00 0.  1.
         14    1    3    3    0    0 -0.76627030544E+01 -0.31639259062E+02 -0.22114678007E+03  0.22352999367E+03  0.00000000000E+00 0. -1.
         13    1    5    5    0    0  0.41561149100E+01 -0.15697429302E+01  0.35010451101E+03  0.35013269773E+03  0.00000000000E+00 0. -1.
        -14    1    5    5    0    0 -0.83833757004E+01 -0.58720451602E+01  0.12698895650E+01  0.10313802500E+02  0.00000000000E+00 0.  1.
          5    1    4    4  501    0  0.18535015023E+02 -0.47511851009E+02 -0.70507267682E+02  0.87118711906E+02  0.41800000000E+01 0. -1.
         -5    1    4    4    0  501 -0.32680181980E+02  0.67403279956E+02 -0.14479657296E+03  0.16307886553E+03  0.41800000000E+01 0. -1.
</event>
<event>
11    1  0.7157190E-009  0.1507975E+03  0.7561462E-02  0.1096067E+00
         22   -1    0    0    0    0  0.00000000000E+00  0.00000000000E+00  0.57983877756E+03  0.57983877756E+03  0.00000000000E+00 0. -1.
         22   -1    0    0    0    0 -0.00000000000E+00 -0.00000000000E+00 -0.47390182318E+03  0.47390182318E+03  0.00000000000E+00 0.  1.
        -24    2    1    2    0    0 -0.80092254667E+02 -0.15136189935E+02 -0.40350041946E+03  0.42056749549E+03  0.86142650584E+02 0.  0.
         25    2    1    2    0    0  0.12448848137E+03  0.58871327636E+02  0.10033063670E+03  0.21136955163E+03  0.12509050917E+03 0.  0.
         24    2    1    2    0    0 -0.44396226701E+02 -0.43735137702E+02  0.40910673715E+03  0.42180355363E+03  0.81646360950E+02 0.  0.
        -11    1    5    5    0    0 -0.27259708549E+02  0.37768347481E+01  0.36103496029E+02  0.45396240113E+02  0.00000000000E+00 0.  1.
         12    1    5    5    0    0 -0.17136518152E+02 -0.47511972450E+02  0.37300324112E+03  0.37640731351E+03  0.00000000000E+00 0. -1.
         13    1    3    3    0    0  0.90682672452E+01  0.20431633348E+01 -0.28002573108E+01  0.97082144728E+01  0.00000000000E+00 0. -1.
        -14    1    3    3    0    0 -0.89160521913E+02 -0.17179353270E+02 -0.40070016215E+03  0.41085928101E+03  0.00000000000E+00 0.  1.
          5    1    4    4  501    0  0.11881293131E+03  0.41368410461E+02  0.12692559538E+03  0.17876083798E+03  0.41800000000E+01 0. -1.
         -5    1    4    4    0  501  0.56755500563E+01  0.17502917175E+02 -0.26594958688E+02  0.32608713647E+02  0.41800000000E+01 0. -1.
</event>
<event>
11    1  0.7157190E-009  0.1565153E+03  0.7561462E-02  0.1090401E+00
         22   -1    0    0    0    0  0.00000000000E+00  0.00000000000E+00  0.81248263049E+03  0.81248263049E+03  0.00000000000E+00 0.  1.
         22   -1    0    0    0    0 -0.00000000000E+00 -0.00000000000E+00 -0.80547163252E+03  0.80547163252E+03  0.00000000000E+00 0.  1.
         24    2    1    2    0    0 -0.15595329486E+02  0.91442498539E+02 -0.74560812498E+03  0.75572149689E+03  0.81108322599E+02 0.  0.
         25    2    1    2    0    0  0.38931677514E+02 -0.13346572890E+03  0.11886596711E+03  0.22159729059E+03  0.12508982674E+03 0.  0.
        -24    2    1    2    0    0 -0.23336348028E+02  0.42023230362E+02  0.63375315583E+03  0.64063547553E+03  0.80375449982E+02 0.  0.
        -11    1    3    3    0    0  0.52686745224E+01  0.10026275386E+03 -0.59238691634E+03  0.60083495021E+03  0.00000000000E+00 0.  1.
         12    1    3    3    0    0 -0.20864004009E+02 -0.88202553255E+01 -0.15322120864E+03  0.15488654668E+03  0.00000000000E+00 0. -1.
         11    1    5    5    0    0 -0.16239451227E+01 -0.22858299675E+02  0.10482186989E+03  0.10729754642E+03  0.00000000000E+00 0. -1.
        -12    1    5    5    0    0 -0.21712402905E+02  0.64881530037E+02  0.52893128594E+03  0.53333792911E+03  0.00000000000E+00 0.  1.
          5    1    4    4  501    0  0.25849496309E+02 -0.15420422772E+03  0.11930642165E+03  0.19671968624E+03  0.41800000000E+01 0.  1.
         -5    1    4    4    0  501  0.13082181205E+02  0.20738498817E+02 -0.44045453655E+00  0.24877604355E+02  0.41800000000E+01 0.  1.
</event>
<event>
11    1  0.7157190E-009  0.1515437E+03  0.7561462E-02  0.1095312E+00
         22   -1    0    0    0    0  0.00000000000E+00  0.00000000000E+00  0.23469101046E+04  0.23469101046E+04  0.00000000000E+00 0.  1.
         22   -1    0    0    0    0 -0.00000000000E+00 -0.00000000000E+00 -0.48449892788E+02  0.48449892788E+02  0.00000000000E+00 0.  1.
         24    2    1    2    0    0  0.24448650518E+02 -0.20439422050E+02  0.50058127424E+02  0.97915084753E+02  0.77884794506E+02 0.  0.
         25    2    1    2    0    0 -0.83000648171E+02  0.79631546730E+02  0.29452624922E+03  0.34003446086E+03  0.12508969685E+03 0.  0.
        -24    2    1    2    0    0  0.58551997653E+02 -0.59192124680E+02  0.19538758352E+04  0.19574104518E+04  0.83023210233E+02 0.  0.
        -13    1    3    3    0    0  0.27831196754E+02 -0.45613248066E+02  0.16689963866E+02  0.55979449853E+02  0.00000000000E+00 0.  1.
         14    1    3    3    0    0 -0.33825462361E+01  0.25173826016E+02  0.33368163557E+02  0.41935634901E+02  0.00000000000E+00 0. -1.
         13    1    5    5    0    0 -0.35934680473E+01 -0.44865150249E+01  0.84277036277E+01  0.10201373344E+02  0.00000000000E+00 0. -1.
        -14    1    5    5    0    0  0.62145465700E+02 -0.54705609655E+02  0.19454481316E+04  0.19472090785E+04  0.00000000000E+00 0.  1.
          5    1    4    4  501    0 -0.17191777890E+02 -0.33900542895E+02  0.76593277702E+02  0.85608449493E+02  0.41800000000E+01 0. -1.
         -5    1    4    4    0  501 -0.65808870282E+02  0.11353208962E+03  0.21793297152E+03  0.25442601136E+03  0.41800000000E+01 0. -1.
</event>
<event>
11    1  0.7157190E-009  0.1531981E+03  0.7561462E-02  0.1093655E+00
         22   -1    0    0    0    0  0.00000000000E+00  0.00000000000E+00  0.13579241924E+03  0.13579241924E+03  0.00000000000E+00 0.  1.
         22   -1    0    0    0    0 -0.00000000000E+00 -0.00000000000E+00 -0.83661327760E+03  0.83661327760E+03  0.00000000000E+00 0. -1.
        -24    2    1    2    0    0  0.18893951008E+02 -0.22253055382E+02 -0.66253849077E+03  0.66799781697E+03  0.80072791040E+02 0.  0.
         25    2    1    2    0    0 -0.45564589894E+02 -0.65842878638E+02 -0.87855132141E+02  0.17256189856E+03  0.12509063943E+03 0.  0.
         24    2    1    2    0    0  0.26670638886E+02  0.88095934020E+02  0.49572764553E+02  0.13184598131E+03  0.80334844457E+02 0.  0.
        -13    1    5    5    0    0  0.25738780881E+02  0.10341830813E+03  0.40464643836E+02  0.11399657318E+03  0.00000000000E+00 0.  1.
         14    1    5    5    0    0  0.93185800509E+00 -0.15322374107E+02  0.91081207172E+01  0.17849408130E+02  0.00000000000E+00 0. -1.
         13    1    3    3    0    0  0.17275022176E+01 -0.42868368474E+02 -0.57099311241E+03  0.57260266826E+03  0.00000000000E+00 0. -1.
        -14    1    3    3    0    0  0.17166448790E+02  0.20615313092E+02 -0.91545378356E+02  0.95395148705E+02  0.00000000000E+00 0.  1.
          5    1    4    4  501    0  0.64060453077E+00 -0.49284899681E+02 -0.10842789223E+03  0.11917840377E+03  0.41800000000E+01 0.  1.
         -5    1    4    4    0  501 -0.46205194424E+02 -0.16557978957E+02  0.20572760088E+02  0.53383494795E+02  0.41800000000E+01 0.  1.
</event>
<event>
11    1  0.7157190E-009  0.1347415E+03  0.7561462E-02  0.1113577E+00
         22   -1    0    0    0    0  0.00000000000E+00  0.00000000000E+00  0.15996129793E+04  0.15996129793E+04  0.00000000000E+00 0.  1.
         22   -1    0    0    0    0 -0.00000000000E+00 -0.00000000000E+00 -0.22319647972E+03  0.22319647972E+03  0.00000000000E+00 0.  1.
        -24    2    1    2    0    0  0.31162019686E+02 -0.37140427373E+02 -0.14380791799E+03  0.17020319021E+03  0.77057938348E+02 0.  0.
         25    2    1    2    0    0 -0.50136304177E+02  0.34520368727E+02  0.92102130805E+01  0.13941875034E+03  0.12508978803E+03 0.  0.
         24    2    1    2    0    0  0.18974284492E+02  0.26200586458E+01  0.15110142045E+04  0.15131875185E+04  0.78775958765E+02 0.  0.
        -13    1    5    5    0    0  0.48365770123E+02  0.26901800482E+01  0.11317317595E+04  0.11327679640E+04  0.00000000000E+00 0.  1.
         14    1    5    5    0    0 -0.29391485631E+02 -0.70121402470E-01  0.37928244499E+03  0.38041955447E+03  0.00000000000E+00 0. -1.
         13    1    3    3    0    0 -0.25072165585E+02 -0.30541872699E+01 -0.41707001590E+02  0.48758748227E+02  0.00000000000E+00 0. -1.
        -14    1    3    3    0    0  0.56234185270E+02 -0.34086240103E+02 -0.10210091640E+03  0.12144444198E+03  0.00000000000E+00 0.  1.
          5    1    4    4  501    0 -0.20846429423E+02  0.46464774278E+02  0.60390288107E+02  0.79107573380E+02  0.41800000000E+01 0.  1.
         -5    1    4    4    0  501 -0.29289874755E+02 -0.11944405550E+02 -0.51180075026E+02  0.60311176964E+02  0.41800000000E+01 0.  1.
</event>
<event>
11    1  0.7157190E-009  0.1305593E+03  0.7561462E-02  0.1118584E+00
         22   -1    0    0    0    0  0.00000000000E+00  0.00000000000E+00  0.15696720731E+04  0.15696720731E+04  0.00000000000E+00 0.  1.
         22   -1    0    0    0    0 -0.00000000000E+00 -0.00000000000E+00 -0.22768497963E+03  0.22768497963E+03  0.00000000000E+00 0.  1.
        -24    2    1    2    0    0 -0.37799050767E+02 -0.15656875094E+01 -0.20875533416E+03  0.22713558536E+03  0.81120681576E+02 0.  0.
         25    2    1    2    0    0  0.16203779241E+02 -0.98862894349E+01  0.49217030428E+03  0.50816959002E+03  0.12507766641E+03 0.  0.
         24    2    1    2    0    0  0.21595271526E+02  0.11451976944E+02  0.10585721234E+04  0.10620518774E+04  0.82351358672E+02 0.  0.
        -11    1    5    5    0    0  0.18260409146E+02 -0.29635860680E+02  0.24786711473E+03  0.25029948730E+03  0.00000000000E+00 0.  1.
         12    1    5    5    0    0  0.33348623800E+01  0.41087837624E+02  0.81070500864E+03  0.81175239005E+03  0.00000000000E+00 0. -1.
         13    1    3    3    0    0 -0.11886827041E+01  0.21115438197E+02 -0.16274778553E+03  0.16411616736E+03  0.00000000000E+00 0. -1.
        -14    1    3    3    0    0 -0.36610368063E+02 -0.22681125706E+02 -0.46007548638E+02  0.63019417997E+02  0.00000000000E+00 0.  1.
          5    1    4    4  501    0  0.94426050091E+01 -0.57357422265E+02  0.39966138413E+03  0.40388826554E+03  0.41800000000E+01 0. -1.
         -5    1    4    4    0  501  0.67611742324E+01  0.47471132830E+02  0.92508920148E+02  0.10428132448E+03  0.41800000000E+01 0. -1.
</event>
<event>
11    1  0.7157190E-009  0.1385353E+03  0.7561462E-02  0.1109205E+00
         22   -1    0    0    0    0  0.00000000000E+00  0.00000000000E+00  0.11156364113E+03  0.11156364113E+03  0.00000000000E+00 0.  1.
         22   -1    0    0    0    0 -0.00000000000E+00 -0.00000000000E+00 -0.80790093516E+03  0.80790093516E+03  0.00000000000E+00 0. -1.
         24    2    1    2    0    0  0.26593879016E+02  0.53901499990E+02 -0.67849258617E+03  0.68615355027E+03  0.82715772171E+02 0.  0.
         25    2    1    2    0    0 -0.62188739524E+02 -0.22955365650E+02 -0.59067159836E+00  0.14157193181E+03  0.12509146592E+03 0.  0.
        -24    2    1    2    0    0  0.35594860507E+02 -0.30946134341E+02 -0.17254036264E+02  0.91739094201E+02  0.76770452078E+02 0.  0.
        -13    1    3    3    0    0  0.17676985793E+02 -0.17030880453E+02 -0.88350233679E+02  0.91696731168E+02  0.00000000000E+00 0.  1.
         14    1    3    3    0    0  0.89168932230E+01  0.70932380443E+02 -0.59014235249E+03  0.59445681911E+03  0.00000000000E+00 0. -1.
         11    1    5    5    0    0 -0.15657242187E+02 -0.79541745991E+01  0.18217354100E+02  0.25303954570E+02  0.00000000000E+00 0. -1.
        -12    1    5    5    0    0  0.51252102695E+02 -0.22991959741E+02 -0.35471390364E+02  0.66435139631E+02  0.00000000000E+00 0.  1.
          5    1    4    4  501    0  0.29416980994E+02 -0.38326150727E+02  0.22689761535E+01  0.48547639007E+02  0.41800000000E+01 0. -1.
         -5    1    4    4    0  501 -0.91605720518E+02  0.15370785077E+02 -0.28596477518E+01  0.93024292799E+02  0.41800000000E+01 0. -1.
</event>
<event>
11    1  0.7157190E-009  0.1287200E+03  0.7561462E-02  0.1120852E+00
         22   -1    0    0    0    0  0.00000000000E+00  0.00000000000E+00  0.95740345972E+03  0.95740345972E+03  0.00000000000E+00 0. -1.
         22   -1    0    0    0    0 -0.00000000000E+00 -0.00000000000E+00 -0.92549562512E+03  0.92549562512E+03  0.00000000000E+00 0. -1.
        -24    2    1    2    0    0 -0.30027288490E+01  0.27010362370E+02 -0.80257988348E+03  0.80716032956E+03  0.81453988190E+02 0.  0.
         25    2    1    2    0    0 -0.26456254159E+02 -0.18992578074E+02 -0.83326167279E+02  0.15378837629E+03  0.12508782164E+03 0.  0.
         24    2    1    2    0    0  0.29458983008E+02 -0.80177842962E+01  0.91781388536E+03  0.92195037899E+03  0.81719377188E+02 0.  0.
        -13    1    5    5    0    0  0.43826524362E+02 -0.35296694395E+02  0.56826114933E+03  0.57104058937E+03  0.00000000000E+00 0.  1.
         14    1    5    5    0    0 -0.14367541353E+02  0.27278910099E+02  0.34955273603E+03  0.35090978961E+03  0.00000000000E+00 0. -1.
         13    1    3    3    0    0 -0.35396712866E+02  0.31919825914E+02 -0.60573742009E+03  0.60760976347E+03  0.00000000000E+00 0. -1.
        -14    1    3    3    0    0  0.32393984017E+02 -0.49094635438E+01 -0.19684246339E+03  0.19955056609E+03  0.00000000000E+00 0.  1.
          5    1    4    4  501    0 -0.65107742066E+02 -0.47181411663E+01 -0.55175487371E+01  0.65644456560E+02  0.41800000000E+01 0. -1.
         -5    1    4    4    0  501  0.38651487907E+02 -0.14274436908E+02 -0.77808618541E+02  0.88143919732E+02  0.41800000000E+01 0. -1.
</event>
<event>
11    1  0.7157190E-009  0.1621034E+03  0.7561462E-02  0.1085115E+00
         22   -1    0    0    0    0  0.00000000000E+00  0.00000000000E+00  0.15086276914E+04  0.15086276914E+04  0.00000000000E+00 0. -1.
         22   -1    0    0    0    0 -0.00000000000E+00 -0.00000000000E+00 -0.24885185426E+03  0.24885185426E+03  0.00000000000E+00 0. -1.
        -24    2    1    2    0    0 -0.24549969198E+02 -0.24294861507E+02 -0.21558818228E+03  0.23299048015E+03  0.81322556630E+02 0.  0.
         25    2    1    2    0    0 -0.66645577721E+02 -0.33833812270E+02  0.23335841753E+03  0.27512171419E+03  0.12509774860E+03 0.  0.
         24    2    1    2    0    0  0.91195546919E+02  0.58128673777E+02  0.12420056019E+04  0.12493673513E+04  0.81518666263E+02 0.  0.
        -13    1    5    5    0    0  0.29171834838E+02  0.36115466394E+02  0.20135849190E+03  0.20664115060E+03  0.00000000000E+00 0.  1.
         14    1    5    5    0    0  0.62023712081E+02  0.22013207383E+02  0.10406471100E+04  0.10427262007E+04  0.00000000000E+00 0. -1.
         11    1    3    3    0    0  0.17108487761E+00 -0.19502458939E+02 -0.20458103788E+03  0.20550857947E+03  0.00000000000E+00 0. -1.
        -12    1    3    3    0    0 -0.24721054075E+02 -0.47924025677E+01 -0.11007144396E+02  0.27481900675E+02  0.00000000000E+00 0.  1.
          5    1    4    4  501    0  0.11159726837E+02  0.34339404935E+02  0.30818302209E+02  0.47654741479E+02  0.41800000000E+01 0. -1.
         -5    1    4    4    0  501 -0.77805304558E+02 -0.68173217205E+02  0.20254011532E+03  0.22746697271E+03  0.41800000000E+01 0. -1.
</event>
<event>
11    1  0.7157190E-009  0.1457072E+03  0.7561462E-02  0.1101348E+00
         22   -1    0    0    0    0  0.00000000000E+00  0.00000000000E+00  0.42351805032E+03  0.42351805032E+03  0.00000000000E+00 0.  1.
         22   -1    0    0    0    0 -0.00000000000E+00 -0.00000000000E+00 -0.28353355854E+03  0.28353355854E+03  0.00000000000E+00 0.  1.
         24    2    1    2    0    0  0.32763438116E+02  0.76322015129E+02 -0.16151191747E+03  0.19926774054E+03  0.81994146521E+02 0.  0.
         25    2    1    2    0    0 -0.49975387271E+02 -0.33854140151E+02 -0.47447466366E+02  0.14677371135E+03  0.12509043985E+03 0.  0.
        -24    2    1    2    0    0  0.17211949155E+02 -0.42467874978E+02  0.34894387561E+03  0.36101015697E+03  0.80416002812E+02 0.  0.
        -13    1    3    3    0    0  0.22204944016E+02 -0.13662503200E+02 -0.38237401886E+02  0.46279827522E+02  0.00000000000E+00 0.  1.
         14    1    3    3    0    0  0.10558494100E+02  0.89984518329E+02 -0.12327451558E+03  0.15298791301E+03  0.00000000000E+00 0. -1.
         11    1    5    5    0    0 -0.19669927837E+02  0.97146342002E+01  0.16128202878E+03  0.16276723561E+03  0.00000000000E+00 0. -1.
        -12    1    5    5    0    0  0.36881876992E+02 -0.52182509179E+02  0.18766184683E+03  0.19824292136E+03  0.00000000000E+00 0.  1.
          5    1    4    4  501    0 -0.36842660328E+02  0.35981785847E+02 -0.54674073353E+02  0.75224977433E+02  0.41800000000E+01 0. -1.
         -5    1    4    4    0  501 -0.13132726943E+02 -0.69835925997E+02  0.72266069874E+01  0.71548733919E+02  0.41800000000E+01 0. -1.
</event>
<event>
11    1  0.7157190E-009  0.1470711E+03  0.7561462E-02  0.1099910E+00
         22   -1    0    0    0    0  0.00000000000E+00  0.00000000000E+00  0.17719239784E+04  0.17719239784E+04  0.00000000000E+00 0. -1.
         22   -1    0    0    0    0 -0.00000000000E+00 -0.00000000000E+00 -0.55870707853E+03  0.55870707853E+03  0.00000000000E+00 0.  1.
        -24    2    1    2    0    0 -0.25204677426E+01  0.20879379167E+02 -0.54115685564E+03  0.54753809500E+03  0.80653095696E+02 0.  0.
         25    2    1    2    0    0 -0.60388553738E+01 -0.94380241694E+02  0.49963133050E+03  0.52366425272E+03  0.12509470556E+03 0.  0.
         24    2    1    2    0    0  0.85593231164E+01  0.73500862528E+02  0.12547424250E+04  0.12594287092E+04  0.79413359384E+02 0.  0.
        -13    1    5    5    0    0  0.60250851563E+01 -0.39513546418E+01  0.10267692083E+02  0.12543538391E+02  0.00000000000E+00 0.  1.
         14    1    5    5    0    0  0.25342379601E+01  0.77452217170E+02  0.12444747329E+04  0.12468851708E+04  0.00000000000E+00 0. -1.
         11    1    3    3    0    0  0.15464669928E+02  0.26286918262E+02 -0.74466076629E+02  0.80469588393E+02  0.00000000000E+00 0. -1.
        -12    1    3    3    0    0 -0.17985137671E+02 -0.54075390951E+01 -0.46669077901E+03  0.46706850661E+03  0.00000000000E+00 0.  1.
          5    1    4    4  501    0 -0.17620027450E+02 -0.12254897749E+03  0.43125714349E+03  0.44869690601E+03  0.41800000000E+01 0.  1.
         -5    1    4    4    0  501  0.11581172076E+02  0.28168735797E+02  0.68374187009E+02  0.74967346706E+02  0.41800000000E+01 0.  1.
</event>
<event>
11    1  0.7157190E-009  0.1642855E+03  0.7561462E-02  0.1083114E+00
         22   -1    0    0    0    0  0.00000000000E+00  0.00000000000E+00  0.12458857171E+04  0.12458857171E+04  0.00000000000E+00 0.  1.
         22   -1    0    0    0    0 -0.00000000000E+00 -0.00000000000E+00 -0.24532002081E+04  0.24532002081E+04  0.00000000000E+00 0. -1.
        -24    2    1    2    0    0  0.35173115307E+02 -0.10536725352E+02 -0.24075890009E+04  0.24092569062E+04  0.81767183476E+02 0.  0.
         25    2    1    2    0    0  0.70985512659E+02 -0.18079490505E+02  0.88853045481E+02  0.17001800222E+03  0.12508175887E+03 0.  0.
         24    2    1    2    0    0 -0.10615862797E+03  0.28616215857E+02  0.11114214644E+04  0.11198110168E+04  0.81427879742E+02 0.  0.
        -11    1    5    5    0    0 -0.92576245185E+02  0.20600127554E+02  0.10842806422E+04  0.10884205242E+04  0.00000000000E+00 0.  1.
         12    1    5    5    0    0 -0.13582382781E+02  0.80160883025E+01  0.27140822241E+02  0.31390492599E+02  0.00000000000E+00 0. -1.
         11    1    3    3    0    0  0.53239926630E+02 -0.13822715887E+02 -0.97507752383E+03  0.97662773601E+03  0.00000000000E+00 0. -1.
        -12    1    3    3    0    0 -0.18066811323E+02  0.32859905350E+01 -0.14325114770E+04  0.14326291702E+04  0.00000000000E+00 0.  1.
          5    1    4    4  501    0  0.93929356058E+02  0.77762678812E+00  0.10069904006E+03  0.13777190462E+03  0.41800000000E+01 0.  1.
         -5    1    4    4    0  501 -0.22943843399E+02 -0.18857117293E+02 -0.11845994582E+02  0.32246097596E+02  0.41800000000E+01 0.  1.
</event>
<event>
11    1  0.7157190E-009  0.1669764E+03  0.7561462E-02  0.1080693E+00
         22   -1    0    0    0    0  0.00000000000E+00  0.00000000000E+00  0.66682489561E+03  0.66682489561E+03  0.00000000000E+00 0. -1.
         22   -1    0    0    0    0 -0.00000000000E+00 -0.00000000000E+00 -0.71058488820E+03  0.71058488820E+03  0.00000000000E+00 0. -1.
        -24    2    1    2    0    0  0.96848053912E+01  0.33807837678E+02 -0.64713063237E+03  0.65250048167E+03  0.75776367642E+02 0.  0.
         25    2    1    2    0    0 -0.11832493702E+03 -0.39217702309E+02  0.99584280383E+02  0.20273897928E+03  0.12508895204E+03 0.  0.
         24    2    1    2    0    0  0.10864013163E+03  0.54098646307E+01  0.50378635939E+03  0.52217032286E+03  0.83840356236E+02 0.  0.
        -13    1    5    5    0    0 -0.13893193776E+02 -0.13229275647E+01  0.37739114149E+02  0.40236944558E+02  0.00000000000E+00 0.  1.
         14    1    5    5    0    0  0.12253332541E+03  0.67327921954E+01  0.46604724524E+03  0.48193337831E+03  0.00000000000E+00 0. -1.
         11    1    3    3    0    0  0.14813031381E+02  0.17797199849E+02 -0.62098267112E+03  0.62141422904E+03  0.00000000000E+00 0. -1.
        -12    1    3    3    0    0 -0.51282259901E+01  0.16010637829E+02 -0.26147961248E+02  0.31086252636E+02  0.00000000000E+00 0.  1.
          5    1    4    4  501    0 -0.14928402292E+02  0.18100611781E+02  0.79190634521E+02  0.82698962132E+02  0.41800000000E+01 0.  1.
         -5    1    4    4    0  501 -0.10339653473E+03 -0.57318314090E+02  0.20393645862E+02  0.12004001715E+03  0.41800000000E+01 0.  1.
</event>
<event>
11    1  0.7157190E-009  0.1348686E+03  0.7561462E-02  0.1113428E+00
         22   -1    0    0    0    0  0.00000000000E+00  0.00000000000E+00  0.29837854724E+03  0.29837854724E+03  0.00000000000E+00 0. -1.
         22   -1    0    0    0    0 -0.00000000000E+00 -0.00000000000E+00 -0.16496809241E+03  0.16496809241E+03  0.00000000000E+00 0.  1.
         24    2    1    2    0    0  0.21156063061E+02 -0.12110155345E+02 -0.48177876416E+02  0.96570516649E+02  0.80065735762E+02 0.  0.
         25    2    1    2    0    0  0.31741296703E+02  0.77879443087E+01 -0.30044013482E+02  0.13273409553E+03  0.12509010903E+03 0.  0.
        -24    2    1    2    0    0 -0.52897359764E+02  0.43222110366E+01  0.21163234472E+03  0.23404202747E+03  0.84679449160E+02 0.  0.
        -13    1    3    3    0    0  0.13116484161E+02  0.16963201574E+02 -0.60347385651E+02  0.64043729742E+02  0.00000000000E+00 0.  1.
         14    1    3    3    0    0  0.80395789002E+01 -0.29073356920E+02  0.12169509235E+02  0.32526786907E+02  0.00000000000E+00 0. -1.
         13    1    5    5    0    0 -0.71801534302E+02  0.20790563933E+01  0.11528731061E+03  0.13583426221E+03  0.00000000000E+00 0. -1.
        -14    1    5    5    0    0  0.18904174538E+02  0.22431546433E+01  0.96345034118E+02  0.98207765257E+02  0.00000000000E+00 0.  1.
          5    1    4    4  501    0  0.52165418510E+02 -0.46046091018E+02 -0.52447198594E+01  0.69903167831E+02  0.41800000000E+01 0.  1.
         -5    1    4    4    0  501 -0.20424121808E+02  0.53834035326E+02 -0.24799293623E+02  0.62830927697E+02  0.41800000000E+01 0.  1.
</event>
<event>
11    1  0.7157190E-009  0.1350748E+03  0.7561462E-02  0.1113186E+00
         22   -1    0    0    0    0  0.00000000000E+00  0.00000000000E+00  0.12904319836E+03  0.12904319836E+03  0.00000000000E+00 0. -1.
         22   -1    0    0    0    0 -0.00000000000E+00 -0.00000000000E+00 -0.13056395726E+04  0.13056395726E+04  0.00000000000E+00 0. -1.
         24    2    1    2    0    0 -0.15068832985E+02 -0.44919367618E+02 -0.10453133879E+04  0.10494522704E+04  0.80157156487E+02 0.  0.
         25    2    1    2    0    0  0.24112626612E+02  0.93844636443E+02 -0.21040640409E+03  0.26326304657E+03  0.12509333418E+03 0.  0.
        -24    2    1    2    0    0 -0.90437936265E+01 -0.48925268824E+02  0.79123417690E+02  0.12196745398E+03  0.78358614534E+02 0.  0.
        -11    1    3    3    0    0  0.27302659574E+02  0.37435501271E+01 -0.24601564660E+03  0.24755433294E+03  0.00000000000E+00 0.  1.
         12    1    3    3    0    0 -0.42371492559E+02 -0.48662917745E+02 -0.79929774128E+03  0.80189793750E+03  0.00000000000E+00 0. -1.
         11    1    5    5    0    0 -0.26549925123E+01 -0.46548912545E+02  0.94373904140E+02  0.10526292808E+03  0.00000000000E+00 0. -1.
        -12    1    5    5    0    0 -0.63888011142E+01 -0.23763562791E+01 -0.15250486450E+02  0.16704525908E+02  0.00000000000E+00 0.  1.
          5    1    4    4  501    0  0.74709818490E+02  0.52250200447E+02 -0.13892558738E+03  0.16622103253E+03  0.41800000000E+01 0. -1.
         -5    1    4    4    0  501 -0.50597191879E+02  0.41594435995E+02 -0.71480816708E+02  0.97042014040E+02  0.41800000000E+01 0. -1.
</event>
<event>
11    1  0.7157190E-009  0.1424111E+03  0.7561462E-02  0.1104895E+00
         22   -1    0    0    0    0  0.00000000000E+00  0.00000000000E+00  0.33582014482E+03  0.33582014482E+03  0.00000000000E+00 0. -1.
         22   -1    0    0    0    0 -0.00000000000E+00 -0.00000000000E+00 -0.25901271624E+04  0.25901271624E+04  0.00000000000E+00 0. -1.
         24    2    1    2    0    0 -0.25753900532E+02 -0.55318183479E+02 -0.98467621395E+03  0.99006233713E+03  0.83143371698E+02 0.  0.
         25    2    1    2    0    0  0.31330186288E+02  0.70274713655E+02 -0.15938543746E+04  0.16006053457E+04  0.12508232934E+03 0.  0.
        -24    2    1    2    0    0 -0.55762857562E+01 -0.14956530176E+02  0.32422357098E+03  0.33527962444E+03  0.83885098953E+02 0.  0.
        -11    1    3    3    0    0 -0.47723121703E+02 -0.39491460423E+02 -0.40078803335E+03  0.40554669209E+03  0.00000000000E+00 0.  1.
         12    1    3    3    0    0  0.21969221171E+02 -0.15826723057E+02 -0.58388818060E+03  0.58451564503E+03  0.00000000000E+00 0. -1.
         13    1    5    5    0    0 -0.27291560756E+02 -0.74924285629E+01  0.30200311419E+03  0.30332630409E+03  0.00000000000E+00 0. -1.
        -14    1    5    5    0    0  0.21715275000E+02 -0.74641016131E+01  0.22220456796E+02  0.31953320351E+02  0.00000000000E+00 0.  1.
          5    1    4    4  501    0  0.64510288946E+02  0.40084805564E+02 -0.49337370430E+03  0.49920281801E+03  0.41800000000E+01 0.  1.
         -5    1    4    4    0  501 -0.33180102658E+02  0.30189908091E+02 -0.11004806703E+04  0.11014025277E+04  0.41800000000E+01 0.  1.
</event>
<event>
11    1  0.7157190E-009  0.1854916E+03  0.7561462E-02  0.1065285E+00
         22   -1    0    0    0    0  0.00000000000E+00  0.00000000000E+00  0.79612545529E+03  0.79612545529E+03  0.00000000000E+00 0.  1.
         22   -1    0    0    0    0 -0.00000000000E+00 -0.00000000000E+00 -0.64626607628E+03  0.64626607628E+03  0.00000000000E+00 0.  1.
        -24    2    1    2    0    0 -0.76732215939E+02 -0.10964726491E+03 -0.56168609121E+03  0.58235490505E+03  0.75733841189E+02 0.  0.
         25    2    1    2    0    0  0.16657320067E+03  0.13419075319E+03  0.15992428878E+03  0.29491816662E+03  0.12508859836E+03 0.  0.
         24    2    1    2    0    0 -0.89840984731E+02 -0.24543488275E+02  0.55162118144E+03  0.56511845990E+03  0.79994753252E+02 0.  0.
        -11    1    5    5    0    0 -0.10344655864E+03 -0.29743757924E+02  0.46621612561E+03  0.47848025812E+03  0.00000000000E+00 0.  1.
         12    1    5    5    0    0  0.13605573912E+02  0.52002696498E+01  0.85405055833E+02  0.86638201781E+02  0.00000000000E+00 0. -1.
         11    1    3    3    0    0 -0.12094913129E+02 -0.37505574471E+02 -0.31299502363E+03  0.31546606768E+03  0.00000000000E+00 0. -1.
        -12    1    3    3    0    0 -0.64637302810E+02 -0.72141690442E+02 -0.24869106758E+03  0.26688883737E+03  0.00000000000E+00 0.  1.
          5    1    4    4  501    0  0.62331196286E+02 -0.33337405725E-01  0.93398158308E+02  0.11236488561E+03  0.41800000000E+01 0.  1.
         -5    1    4    4    0  501  0.10424200438E+03  0.13422409059E+03  0.66526130470E+02  0.18255328101E+03  0.41800000000E+01 0.  1.
</event>
<event>
11    1  0.8416752E-009  0.1622142E+03  0.7561462E-02  0.1085013E+00
         22   -1    0    0    0    0  0.00000000000E+00  0.00000000000E+00  0.43212257058E+03  0.43212257058E+03  0.00000000000E+00 0.  1.
         22   -1    0    0    0    0 -0.00000000000E+00 -0.00000000000E+00 -0.25326701693E+04  0.25326701693E+04  0.00000000000E+00 0. -1.
        -24    2    1    2    0    0 -0.25631967307E+02 -0.19325104200E+00 -0.18466925765E+04  0.18485883548E+04  0.79676837897E+02 0.  0.
         25    2    1    2    0    0  0.34822431422E+02 -0.10264528110E+03 -0.66512242226E+03  0.68540749057E+03  0.12508771350E+03 0.  0.
         24    2    1    2    0    0 -0.91904641151E+01  0.10283853214E+03  0.41126740004E+03  0.43079689447E+03  0.76058277804E+02 0.  0.
        -11    1    5    5    0    0 -0.21649026851E+02  0.80936092648E+02  0.18447379361E+03  0.20260777869E+03  0.00000000000E+00 0.  1.
         12    1    5    5    0    0  0.12458562736E+02  0.21902439493E+02  0.22679360644E+03  0.22818911578E+03  0.00000000000E+00 0. -1.
         13    1    3    3    0    0 -0.32975169642E+02  0.16402300240E+01 -0.18295667069E+04  0.18298645817E+04  0.00000000000E+00 0. -1.
        -14    1    3    3    0    0  0.73432023355E+01 -0.18334810660E+01 -0.17125869567E+02  0.18723773172E+02  0.00000000000E+00 0.  1.
          5    1    4    4  501    0 -0.38453502055E+02 -0.29577387862E+01 -0.10970525201E+03  0.11636208471E+03  0.41800000000E+01 0. -1.
         -5    1    4    4    0  501  0.73275933477E+02 -0.99687542313E+02 -0.55541717025E+03  0.56904540586E+03  0.41800000000E+01 0. -1.
</event>
<event>
11    1  0.7948150E-009  0.1939197E+03  0.7561462E-02  0.1058909E+00
         22   -1    0    0    0    0  0.00000000000E+00  0.00000000000E+00  0.12476251790E+04  0.12476251790E+04  0.00000000000E+00 0.  1.
         22   -1    0    0    0    0 -0.00000000000E+00 -0.00000000000E+00 -0.13890300746E+04  0.13890300746E+04  0.00000000000E+00 0.  1.
        -24    2    1    2    0    0  0.37635677952E+02 -0.10992415812E+03 -0.12390914469E+04  0.12468966440E+04  0.76836595120E+02 0.  0.
         25    2    1    2    0    0 -0.14195247655E+02  0.25190387919E+03  0.17072157537E+01  0.28161545059E+03  0.12508908032E+03 0.  0.
         24    2    1    2    0    0 -0.23440430298E+02 -0.14197972108E+03  0.10959793356E+04  0.11081431590E+04  0.78120815980E+02 0.  0.
        -13    1    5    5    0    0 -0.17394457921E+02 -0.14065633894E+03  0.10910883174E+04  0.11002547383E+04  0.00000000000E+00 0.  1.
         14    1    5    5    0    0 -0.60459723764E+01 -0.13233821389E+01  0.48910182052E+01  0.78884207130E+01  0.00000000000E+00 0. -1.
         13    1    3    3    0    0  0.37550477124E+01  0.10015154470E+02 -0.21222848183E+03  0.21249784046E+03  0.00000000000E+00 0. -1.
        -14    1    3    3    0    0  0.33880630240E+02 -0.11993931258E+03 -0.10268629651E+04  0.10343988036E+04  0.00000000000E+00 0.  1.
          5    1    4    4  501    0  0.42437663557E+02  0.86426071196E+02 -0.35586788864E+02  0.10273418619E+03  0.41800000000E+01 0. -1.
         -5    1    4    4    0  501 -0.56632911212E+02  0.16547780800E+03  0.37294004618E+02  0.17888126440E+03  0.41800000000E+01 0. -1.
</event>
<event>
11    1  0.7157190E-009  0.1518981E+03  0.7561462E-02  0.1094955E+00
         22   -1    0    0    0    0  0.00000000000E+00  0.00000000000E+00  0.22969002065E+03  0.22969002065E+03  0.00000000000E+00 0.  1.
         22   -1    0    0    0    0 -0.00000000000E+00 -0.00000000000E+00 -0.44784607081E+03  0.44784607081E+03  0.00000000000E+00 0. -1.
        -24    2    1    2    0    0  0.12764889405E+02 -0.94056611552E+02 -0.31190394472E+03  0.33573953357E+03  0.80170911759E+02 0.  0.
         25    2    1    2    0    0  0.15109199656E+02  0.56922051349E+02 -0.70170117612E+02  0.15504731642E+03  0.12508963618E+03 0.  0.
         24    2    1    2    0    0 -0.27874089062E+02  0.37134560203E+02  0.16391801217E+03  0.18674924148E+03  0.76486757511E+02 0.  0.
        -11    1    5    5    0    0 -0.45788618620E+02  0.14902568571E+02  0.14426111496E+03  0.15208534918E+03  0.00000000000E+00 0.  1.
         12    1    5    5    0    0  0.17914529558E+02  0.22231991632E+02  0.19656897213E+02  0.34663892298E+02  0.00000000000E+00 0. -1.
         11    1    3    3    0    0 -0.17093839600E+02 -0.85419615887E+02 -0.17667313264E+03  0.19698250157E+03  0.00000000000E+00 0. -1.
        -12    1    3    3    0    0  0.29858729005E+02 -0.86369956650E+01 -0.13523081209E+03  0.13875703200E+03  0.00000000000E+00 0.  1.
          5    1    4    4  501    0 -0.36517185973E+02 -0.22363297460E+02 -0.15723769923E+02  0.45807546161E+02  0.41800000000E+01 0.  1.
         -5    1    4    4    0  501  0.51626385630E+02  0.79285348809E+02 -0.54446347688E+02  0.10923977026E+03  0.41800000000E+01 0.  1.
</event>
<event>
11    1  0.7157190E-009  0.1476139E+03  0.7561462E-02  0.1099342E+00
         22   -1    0    0    0    0  0.00000000000E+00  0.00000000000E+00  0.82438359079E+03  0.82438359079E+03  0.00000000000E+00 0.  1.
         22   -1    0    0    0    0 -0.00000000000E+00 -0.00000000000E+00 -0.13301082382E+03  0.13301082382E+03  0.00000000000E+00 0.  1.
        -24    2    1    2    0    0 -0.29250892294E+02  0.81398310430E+02 -0.81323075141E+02  0.14274824739E+03  0.79261087185E+02 0.  0.
         25    2    1    2    0    0 -0.10541107700E+02 -0.12540248545E+02  0.25001579125E+03  0.28004021413E+03  0.12508498260E+03 0.  0.
         24    2    1    2    0    0  0.39791999994E+02 -0.68858061885E+02  0.52268005086E+03  0.53460595310E+03  0.79273284080E+02 0.  0.
        -13    1    5    5    0    0 -0.18645140021E+02 -0.31796507957E+02  0.10616501555E+03  0.11238180320E+03  0.00000000000E+00 0.  1.
         14    1    5    5    0    0  0.58437140015E+02 -0.37061553928E+02  0.41651503531E+03  0.42222414990E+03  0.00000000000E+00 0. -1.
         13    1    3    3    0    0 -0.18454984181E+02  0.55664369352E+02 -0.20204900232E+01  0.58678708545E+02  0.00000000000E+00 0. -1.
        -14    1    3    3    0    0 -0.10795908112E+02  0.25733941078E+02 -0.79302585118E+02  0.84069538846E+02  0.00000000000E+00 0.  1.
          5    1    4    4  501    0 -0.35728851668E+02  0.37883779628E+02  0.50449610577E+02  0.72624838780E+02  0.41800000000E+01 0.  1.
         -5    1    4    4    0  501  0.25187743969E+02 -0.50424028173E+02  0.19956618067E+03  0.20741537535E+03  0.41800000000E+01 0.  1.
</event>
<event>
11    1  0.7157190E-009  0.1331341E+03  0.7561462E-02  0.1115477E+00
         22   -1    0    0    0    0  0.00000000000E+00  0.00000000000E+00  0.11424750133E+03  0.11424750133E+03  0.00000000000E+00 0. -1.
         22   -1    0    0    0    0 -0.00000000000E+00 -0.00000000000E+00 -0.56735022934E+03  0.56735022934E+03  0.00000000000E+00 0. -1.
        -24    2    1    2    0    0  0.46320963033E+02  0.91722289410E-02 -0.45952871807E+03  0.46862160424E+03  0.79334314931E+02 0.  0.
         25    2    1    2    0    0 -0.35333262012E+02  0.45364708120E+01 -0.75669949096E+01  0.13028775843E+03  0.12509445077E+03 0.  0.
         24    2    1    2    0    0 -0.10987701021E+02 -0.45456430409E+01  0.13992984969E+02  0.82688367997E+02  0.80623632573E+02 0.  0.
        -13    1    5    5    0    0  0.10298287508E+02 -0.32436335322E+02 -0.14983447112E+02  0.37184328179E+02  0.00000000000E+00 0.  1.
         14    1    5    5    0    0 -0.21285988530E+02  0.27890692281E+02  0.28976432081E+02  0.45504039818E+02  0.00000000000E+00 0. -1.
         13    1    3    3    0    0  0.22900483825E+01 -0.32562575957E+02 -0.10714961937E+03  0.11201163603E+03  0.00000000000E+00 0. -1.
        -14    1    3    3    0    0  0.44030914650E+02  0.32571748186E+02 -0.35237909870E+03  0.35660996821E+03  0.00000000000E+00 0.  1.
          5    1    4    4  501    0 -0.73552823461E+02 -0.14280841612E+02  0.22073408261E+02  0.78221915270E+02  0.41800000000E+01 0.  1.
         -5    1    4    4    0  501  0.38219561449E+02  0.18817312424E+02 -0.29640403171E+02  0.52065843164E+02  0.41800000000E+01 0.  1.
</event>
<event>
11    1  0.7157190E-009  0.1437528E+03  0.7561462E-02  0.1103439E+00
         22   -1    0    0    0    0  0.00000000000E+00  0.00000000000E+00  0.54406391855E+03  0.54406391855E+03  0.00000000000E+00 0.  1.
         22   -1    0    0    0    0 -0.00000000000E+00 -0.00000000000E+00 -0.36724748891E+03  0.36724748891E+03  0.00000000000E+00 0.  1.
         24    2    1    2    0    0 -0.23661300444E+02  0.57198288546E+02 -0.32845799197E+03  0.34421643796E+03  0.82272731366E+02 0.  0.
         25    2    1    2    0    0  0.44709131744E+02  0.30599426349E+02  0.24196307336E+03  0.27771978516E+03  0.12508764466E+03 0.  0.
        -24    2    1    2    0    0 -0.21047831300E+02 -0.87797714895E+02  0.26331134824E+03  0.28937518433E+03  0.79080220367E+02 0.  0.
        -13    1    3    3    0    0 -0.63959066036E+01  0.50753070045E+02 -0.31978110220E+03  0.32384677714E+03  0.00000000000E+00 0.  1.
         14    1    3    3    0    0 -0.17265393840E+02  0.64452185015E+01 -0.86768897655E+01  0.20369660822E+02  0.00000000000E+00 0. -1.
         11    1    5    5    0    0 -0.27373539133E+02 -0.37777575297E+02  0.43264256613E+02  0.63625873198E+02  0.00000000000E+00 0. -1.
        -12    1    5    5    0    0  0.63257078322E+01 -0.50020139598E+02  0.22004709163E+03  0.22574931114E+03  0.00000000000E+00 0.  1.
          5    1    4    4  501    0 -0.41969210511E+02 -0.27319053938E+01  0.60074064743E+02  0.73452321902E+02  0.41800000000E+01 0.  1.
         -5    1    4    4    0  501  0.86678342255E+02  0.33331331742E+02  0.18188900862E+03  0.20426746326E+03  0.41800000000E+01 0.  1.
</event>
<event>
11    1  0.7157190E-009  0.2289433E+03  0.7561462E-02  0.1035755E+00
         22   -1    0    0    0    0  0.00000000000E+00  0.00000000000E+00  0.34574549651E+04  0.34574549651E+04  0.00000000000E+00 0. -1.
         22   -1    0    0    0    0 -0.00000000000E+00 -0.00000000000E+00 -0.83220497357E+02  0.83220497357E+02  0.00000000000E+00 0.  1.
         24    2    1    2    0    0  0.28114949155E+02  0.75541304664E+02  0.16097856277E+02  0.11151594091E+03  0.75363950427E+02 0.  0.
         25    2    1    2    0    0  0.95152154084E+02  0.81558235408E+02  0.21439077611E+03  0.27805716708E+03  0.12508679025E+03 0.  0.
        -24    2    1    2    0    0 -0.12326710324E+03 -0.15709954007E+03  0.31437458354E+04  0.31511023545E+04  0.80206774975E+02 0.  0.
        -13    1    3    3    0    0  0.11714749682E+02  0.74312645180E+02 -0.14652403658E+02  0.76643966017E+02  0.00000000000E+00 0.  1.
         14    1    3    3    0    0  0.16400199472E+02  0.12286594841E+01  0.30750259935E+02  0.34871974893E+02  0.00000000000E+00 0. -1.
         13    1    5    5    0    0 -0.12649692486E+03 -0.10904344950E+03  0.24577979687E+04  0.24634656078E+04  0.00000000000E+00 0. -1.
        -14    1    5    5    0    0  0.32298216173E+01 -0.48056090569E+02  0.68594786661E+03  0.68763674661E+03  0.00000000000E+00 0.  1.
          5    1    4    4  501    0 -0.21804585699E+02  0.48707959547E+02  0.85627442274E+02  0.10098235762E+03  0.41800000000E+01 0.  1.
         -5    1    4    4    0  501  0.11695673978E+03  0.32850275860E+02  0.12876333383E+03  0.17707480946E+03  0.41800000000E+01 0.  1.
</event>
<event>
11    1  0.9143318E-009  0.1467090E+03  0.7561462E-02  0.1100290E+00
         22   -1    0    0    0    0  0.00000000000E+00  0.00000000000E+00  0.95492755941E+03  0.95492755941E+03  0.00000000000E+00 0. -1.
         22   -1    0    0    0    0 -0.00000000000E+00 -0.00000000000E+00 -0.13116416738E+04  0.13116416738E+04  0.00000000000E+00 0. -1.
         24    2    1    2    0    0 -0.63696709112E+02 -0.50424585058E+02 -0.11863025434E+04  0.11918411922E+04  0.81066598468E+02 0.  0.
         25    2    1    2    0    0  0.21593183643E+02  0.63633445929E+01 -0.86114779998E+02  0.15352316722E+03  0.12508736869E+03 0.  0.
        -24    2    1    2    0    0  0.42103525469E+02  0.44061240465E+02  0.91570320896E+03  0.92120487385E+03  0.79949690005E+02 0.  0.
        -11    1    3    3    0    0  0.58342919247E+01 -0.42774351948E+02 -0.35891157500E+03  0.36149855161E+03  0.00000000000E+00 0.  1.
         12    1    3    3    0    0 -0.69531001037E+02 -0.76502331101E+01 -0.82739096838E+03  0.83034264056E+03  0.00000000000E+00 0. -1.
         13    1    5    5    0    0 -0.23442420270E+02  0.17127143431E+02  0.22162977887E+03  0.22352325380E+03  0.00000000000E+00 0. -1.
        -14    1    5    5    0    0  0.65545945739E+02  0.26934097034E+02  0.69407343009E+03  0.69768162004E+03  0.00000000000E+00 0.  1.
          5    1    4    4  501    0  0.66106425647E+02 -0.22766000693E+02 -0.30330658797E+02  0.76326742118E+02  0.41800000000E+01 0.  1.
         -5    1    4    4    0  501 -0.44513242004E+02  0.29129345286E+02 -0.55784121201E+02  0.77196425103E+02  0.41800000000E+01 0.  1.
</event>
<event>
11    1  0.7157190E-009  0.2442102E+03  0.7561462E-02  0.1027030E+00
         22   -1    0    0    0    0  0.00000000000E+00  0.00000000000E+00  0.86384043588E+03  0.86384043588E+03  0.00000000000E+00 0. -1.
         22   -1    0    0    0    0 -0.00000000000E+00 -0.00000000000E+00 -0.11522350891E+04  0.11522350891E+04  0.00000000000E+00 0. -1.
         24    2    1    2    0    0 -0.80062592500E+02  0.89127546307E+01 -0.10504225553E+04  0.10564360484E+04  0.78613763877E+02 0.  0.
         25    2    1    2    0    0  0.27364502874E+03 -0.23455868352E+02  0.20622320689E+03  0.36552636348E+03  0.12509888817E+03 0.  0.
        -24    2    1    2    0    0 -0.19358243624E+03  0.14543113721E+02  0.55580469517E+03  0.59411311308E+03  0.79786403502E+02 0.  0.
        -11    1    3    3    0    0 -0.56220963889E+02 -0.80296440929E+01 -0.29323707159E+03  0.29868587532E+03  0.00000000000E+00 0.  1.
         12    1    3    3    0    0 -0.23841628611E+02  0.16942398724E+02 -0.75718548368E+03  0.75775017309E+03  0.00000000000E+00 0. -1.
         11    1    5    5    0    0 -0.14518936033E+03  0.26973125578E+01  0.49302796889E+03  0.51396867993E+03  0.00000000000E+00 0. -1.
        -12    1    5    5    0    0 -0.48393075918E+02  0.11845801164E+02  0.62776726283E+02  0.80144433149E+02  0.00000000000E+00 0.  1.
          5    1    4    4  501    0  0.19628709055E+03 -0.12370209341E+02  0.70718685755E+02  0.20904604496E+03  0.41800000000E+01 0.  1.
         -5    1    4    4    0  501  0.77357938190E+02 -0.11085659011E+02  0.13550452113E+03  0.15648031852E+03  0.41800000000E+01 0.  1.
</event>
<event>
11    1  0.7157190E-009  0.1292472E+03  0.7561462E-02  0.1120197E+00
         22   -1    0    0    0    0  0.00000000000E+00  0.00000000000E+00  0.27634649613E+03  0.27634649613E+03  0.00000000000E+00 0. -1.
         22   -1    0    0    0    0 -0.00000000000E+00 -0.00000000000E+00 -0.78316403012E+03  0.78316403012E+03  0.00000000000E+00 0. -1.
         24    2    1    2    0    0  0.41094334237E+02 -0.16269405048E+00 -0.68289773408E+03  0.68860530658E+03  0.78352933981E+02 0.  0.
         25    2    1    2    0    0 -0.66896654619E+02  0.12435293955E+02 -0.28270421491E+02  0.14513247126E+03  0.12503766852E+03 0.  0.
        -24    2    1    2    0    0  0.25802320382E+02 -0.12272599905E+02  0.20435062158E+03  0.22577274841E+03  0.91639407125E+02 0.  0.
        -13    1    3    3    0    0 -0.51515036425E+01 -0.27435619186E+02 -0.12243851424E+03  0.12558041631E+03  0.00000000000E+00 0.  1.
         14    1    3    3    0    0  0.46245837880E+02  0.27272925136E+02 -0.56045921984E+03  0.56302489027E+03  0.00000000000E+00 0. -1.
         13    1    5    5    0    0  0.36418698914E+02  0.19020428023E+02  0.18024868702E+03  0.18487208412E+03  0.00000000000E+00 0. -1.
        -14    1    5    5    0    0 -0.10616378532E+02 -0.31293027928E+02  0.24101934558E+02  0.40900664291E+02  0.00000000000E+00 0.  1.
          5    1    4    4  501    0  0.52714890958E+01  0.13704295706E+02 -0.63071309255E+02  0.64892671152E+02  0.41800000000E+01 0.  1.
         -5    1    4    4    0  501 -0.72168143715E+02 -0.12690017506E+01  0.34800887763E+02  0.80239800111E+02  0.41800000000E+01 0.  1.
</event>
<event>
11    1  0.7157190E-009  0.1365400E+03  0.7561462E-02  0.1111485E+00
         22   -1    0    0    0    0  0.00000000000E+00  0.00000000000E+00  0.35902907681E+03  0.35902907681E+03  0.00000000000E+00 0. -1.
         22   -1    0    0    0    0 -0.00000000000E+00 -0.00000000000E+00 -0.44575907533E+03  0.44575907533E+03  0.00000000000E+00 0.  1.
         24    2    1    2    0    0 -0.52102811013E+02  0.20713015880E+02 -0.27957451097E+03  0.29638719045E+03  0.80868581886E+02 0.  0.
         25    2    1    2    0    0  0.59731102327E+02  0.28891749407E+02 -0.11725987935E+03  0.18385726671E+03  0.12510426630E+03 0.  0.
        -24    2    1    2    0    0 -0.76282913134E+01 -0.49604765287E+02  0.31010439180E+03  0.32454369499E+03  0.81517191905E+02 0.  0.
        -11    1    3    3    0    0 -0.67229860119E+02  0.23784148757E+02 -0.26734866157E+03  0.27669630765E+03  0.00000000000E+00 0.  1.
         12    1    3    3    0    0  0.15127049106E+02 -0.30711328765E+01 -0.12225849392E+02  0.19690882793E+02  0.00000000000E+00 0. -1.
         11    1    5    5    0    0  0.25613508413E+02 -0.55321082079E+02  0.22150505723E+03  0.22974108103E+03  0.00000000000E+00 0. -1.
        -12    1    5    5    0    0 -0.33241799727E+02  0.57163167920E+01  0.88599334567E+02  0.94802613954E+02  0.00000000000E+00 0.  1.
          5    1    4    4  501    0  0.73949086974E+02 -0.30550767829E+02 -0.71596466639E+02  0.10744925925E+03  0.41800000000E+01 0. -1.
         -5    1    4    4    0  501 -0.14217984647E+02  0.59442517235E+02 -0.45663412709E+02  0.76408007453E+02  0.41800000000E+01 0. -1.
</event>
<event>
11    1  0.7157190E-009  0.1429752E+03  0.7561462E-02  0.1104281E+00
         22   -1    0    0    0    0  0.00000000000E+00  0.00000000000E+00  0.30777783483E+03  0.30777783483E+03  0.00000000000E+00 0. -1.
         22   -1    0    0    0    0 -0.00000000000E+00 -0.00000000000E+00 -0.20177098162E+03  0.20177098162E+03  0.00000000000E+00 0. -1.
        -24    2    1    2    0    0 -0.16504974611E+02  0.23242806293E+02 -0.96903411939E+02  0.13368804647E+03  0.87576139965E+02 0.  0.
         25    2    1    2    0    0 -0.13392869133E+02 -0.82580934814E+02  0.11966650441E+02  0.15096394177E+03  0.12509169139E+03 0.  0.
         24    2    1    2    0    0  0.29897843744E+02  0.59338128521E+02  0.19094361471E+03  0.22489682821E+03  0.98510023770E+02 0.  0.
        -13    1    5    5    0    0 -0.25338043013E+02 -0.52447556272E+01  0.16047745357E+02  0.30447561747E+02  0.00000000000E+00 0.  1.
         14    1    5    5    0    0  0.55235886757E+02  0.64582884148E+02  0.17489586935E+03  0.19444926646E+03  0.00000000000E+00 0. -1.
         13    1    3    3    0    0  0.35134592278E+01  0.41233411361E+02 -0.98383593352E+02  0.10673270375E+03  0.00000000000E+00 0. -1.
        -14    1    3    3    0    0 -0.20018433839E+02 -0.17990605068E+02  0.14801814132E+01  0.26955342719E+02  0.00000000000E+00 0.  1.
          5    1    4    4  501    0  0.46445438558E+02 -0.62717217988E+02 -0.19243907899E+02  0.80488686076E+02  0.41800000000E+01 0.  1.
         -5    1    4    4    0  501 -0.59838307690E+02 -0.19863716827E+02  0.31210558340E+02  0.70475255695E+02  0.41800000000E+01 0.  1.
</event>
<event>
11    1  0.7157190E-009  0.1460602E+03  0.7561462E-02  0.1100974E+00
         22   -1    0    0    0    0  0.00000000000E+00  0.00000000000E+00  0.18794878832E+03  0.18794878832E+03  0.00000000000E+00 0.  1.
         22   -1    0    0    0    0 -0.00000000000E+00 -0.00000000000E+00 -0.89089083375E+03  0.89089083375E+03  0.00000000000E+00 0. -1.
         24    2    1    2    0    0 -0.75019857292E+02  0.13753459758E+02 -0.65388919676E+03  0.66277217322E+03  0.76672911208E+02 0.  0.
         25    2    1    2    0    0  0.70449871090E+02 -0.86025443348E+01 -0.19600372887E+03  0.24310732449E+03  0.12508605591E+03 0.  0.
        -24    2    1    2    0    0  0.45699862024E+01 -0.51509154234E+01  0.14695088020E+03  0.17296012436E+03  0.90957279654E+02 0.  0.
        -11    1    3    3    0    0  0.11693638058E+02 -0.12873968363E+02 -0.11247727189E+03  0.11381395751E+03  0.00000000000E+00 0.  1.
         12    1    3    3    0    0 -0.86713495351E+02  0.26627428121E+02 -0.54141192487E+03  0.54895821571E+03  0.00000000000E+00 0. -1.
         13    1    5    5    0    0 -0.46916548835E+01 -0.43947039586E+02  0.43185145691E+02  0.61792481114E+02  0.00000000000E+00 0. -1.
        -14    1    5    5    0    0  0.92616410858E+01  0.38796124162E+02  0.10376573451E+03  0.11116764324E+03  0.00000000000E+00 0.  1.
          5    1    4    4  501    0  0.18876484293E+02  0.10699530138E+01 -0.18901774900E+03  0.19000696907E+03  0.41800000000E+01 0.  1.
         -5    1    4    4    0  501  0.51573386797E+02 -0.96724973486E+01 -0.69859798733E+01  0.53100355418E+02  0.41800000000E+01 0.  1.
</event>
<event>
11    1  0.7157190E-009  0.1579619E+03  0.7561462E-02  0.1089010E+00
         22   -1    0    0    0    0  0.00000000000E+00  0.00000000000E+00  0.32591858171E+03  0.32591858171E+03  0.00000000000E+00 0. -1.
         22   -1    0    0    0    0 -0.00000000000E+00 -0.00000000000E+00 -0.89035519621E+03  0.89035519621E+03  0.00000000000E+00 0.  1.
        -24    2    1    2    0    0  0.30644895829E+02  0.43533788238E+02 -0.79586737475E+03  0.80166473996E+03  0.80169674776E+02 0.  0.
         25    2    1    2    0    0 -0.79977092959E+02 -0.11462988047E+03  0.43537769800E+02  0.19255880133E+03  0.12508800772E+03 0.  0.
         24    2    1    2    0    0  0.49332197130E+02  0.71096092231E+02  0.18789299044E+03  0.22205023662E+03  0.80710666712E+02 0.  0.
        -13    1    5    5    0    0  0.85463881390E+01  0.73771982662E+02  0.95163717528E+02  0.12071238259E+03  0.00000000000E+00 0.  1.
         14    1    5    5    0    0  0.40785808991E+02 -0.26758904306E+01  0.92729272916E+02  0.10133785403E+03  0.00000000000E+00 0. -1.
         13    1    3    3    0    0  0.42126451846E+01  0.29042554648E+02 -0.80833685992E+02  0.85995936828E+02  0.00000000000E+00 0. -1.
        -14    1    3    3    0    0  0.26432250644E+02  0.14491233590E+02 -0.71503368875E+03  0.71566880313E+03  0.00000000000E+00 0.  1.
          5    1    4    4  501    0  0.10848267384E+02 -0.82105031907E+02  0.48141315399E+02  0.95885242963E+02  0.41800000000E+01 0.  1.
         -5    1    4    4    0  501 -0.90825360343E+02 -0.32524848562E+02 -0.46035455993E+01  0.96673558368E+02  0.41800000000E+01 0.  1.
</event>
<event>
11    1  0.7157190E-009  0.1494227E+03  0.7561462E-02  0.1097470E+00
         22   -1    0    0    0    0  0.00000000000E+00  0.00000000000E+00  0.37968095550E+03  0.37968095550E+03  0.00000000000E+00 0. -1.
         22   -1    0    0    0    0 -0.00000000000E+00 -0.00000000000E+00 -0.20467236390E+04  0.20467236390E+04  0.00000000000E+00 0.  1.
        -24    2    1    2    0    0 -0.84382601259E+02 -0.89612257805E+00 -0.19209273848E+04  0.19244832991E+04  0.80948898411E+02 0.  0.
         25    2    1    2    0    0  0.29067864852E+02  0.62200046259E+01 -0.82311588997E+02  0.15266396726E+03  0.12508980771E+03 0.  0.
         24    2    1    2    0    0  0.55314736407E+02 -0.53238820478E+01  0.33619629036E+03  0.34925732814E+03  0.76581145370E+02 0.  0.
        -11    1    5    5    0    0  0.94629518144E+00 -0.26259214348E+02  0.43508178303E+02  0.50827191462E+02  0.00000000000E+00 0.  1.
         12    1    5    5    0    0  0.54368441225E+02  0.20935332300E+02  0.29268811205E+03  0.29843013668E+03  0.00000000000E+00 0. -1.
         11    1    3    3    0    0  0.17602118338E+01 -0.25817554464E+02 -0.31899802967E+03  0.32004591452E+03  0.00000000000E+00 0. -1.
        -12    1    3    3    0    0 -0.86142813093E+02  0.24921431886E+02 -0.16019293552E+04  0.16044373846E+04  0.00000000000E+00 0.  1.
          5    1    4    4  501    0  0.14113116948E+02  0.40469193223E+02 -0.10163746171E+03  0.11038379271E+03  0.41800000000E+01 0. -1.
         -5    1    4    4    0  501  0.14954747905E+02 -0.34249188598E+02  0.19325872709E+02  0.42280174556E+02  0.41800000000E+01 0. -1.
</event>
<event>
11    1  0.7157190E-009  0.1440565E+03  0.7561462E-02  0.1103111E+00
         22   -1    0    0    0    0  0.00000000000E+00  0.00000000000E+00  0.77114998979E+03  0.77114998979E+03  0.00000000000E+00 0.  1.
         22   -1    0    0    0    0 -0.00000000000E+00 -0.00000000000E+00 -0.12765349113E+04  0.12765349113E+04  0.00000000000E+00 0. -1.
         24    2    1    2    0    0 -0.40907460442E+02  0.61263778373E+02 -0.10753417830E+04  0.10808242859E+04  0.79965716366E+02 0.  0.
         25    2    1    2    0    0  0.42513909924E+02 -0.34148460088E+02 -0.17194373769E+03  0.21951239323E+03  0.12508993559E+03 0.  0.
        -24    2    1    2    0    0 -0.16064494819E+01 -0.27115318285E+02  0.74190059920E+03  0.74734822198E+03  0.85878080122E+02 0.  0.
        -11    1    3    3    0    0 -0.30225218156E+02  0.10096058644E+01 -0.12864799866E+03  0.13215479815E+03  0.00000000000E+00 0.  1.
         12    1    3    3    0    0 -0.10682242286E+02  0.60254172508E+02 -0.94669378433E+03  0.94866948770E+03  0.00000000000E+00 0. -1.
         13    1    5    5    0    0 -0.16939676359E+02 -0.10731929807E+02  0.36951886805E+02  0.42042465329E+02  0.00000000000E+00 0. -1.
        -14    1    5    5    0    0  0.15333226877E+02 -0.16383388478E+02  0.70494871239E+03  0.70530575665E+03  0.00000000000E+00 0.  1.
          5    1    4    4  501    0  0.67333904754E+02  0.24664949785E+02 -0.10162327989E+03  0.12444668695E+03  0.41800000000E+01 0. -1.
         -5    1    4    4    0  501 -0.24819994831E+02 -0.58813409873E+02 -0.70320457801E+02  0.95065706275E+02  0.41800000000E+01 0. -1.
</event>
<event>
11    1  0.7157190E-009  0.1519992E+03  0.7561462E-02  0.1094853E+00
         22   -1    0    0    0    0  0.00000000000E+00  0.00000000000E+00  0.44329845956E+03  0.44329845956E+03  0.00000000000E+00 0.  1.
         22   -1    0    0    0    0 -0.00000000000E+00 -0.00000000000E+00 -0.22455210414E+03  0.22455210414E+03  0.00000000000E+00 0. -1.
         24    2    1    2    0    0 -0.71150080770E+02  0.46305919911E+02 -0.15069314945E+03  0.19059408697E+03  0.80069397929E+02 0.  0.
         25    2    1    2    0    0  0.10466975424E+03 -0.14196705714E+02  0.97536618981E+02  0.19057152001E+03  0.12508720275E+03 0.  0.
        -24    2    1    2    0    0 -0.33519673469E+02 -0.32109214197E+02  0.27190288588E+03  0.28668495672E+03  0.78118595167E+02 0.  0.
        -11    1    3    3    0    0 -0.82652187076E+02  0.38423318183E+02 -0.89171168218E+02  0.12751169613E+03  0.00000000000E+00 0.  1.
         12    1    3    3    0    0  0.11502106306E+02  0.78826017282E+01 -0.61521981232E+02  0.63082390841E+02  0.00000000000E+00 0. -1.
         13    1    5    5    0    0  0.42654819031E+01 -0.46246474151E+02  0.10228037295E+03  0.11233078562E+03  0.00000000000E+00 0. -1.
        -14    1    5    5    0    0 -0.37785155372E+02  0.14137259953E+02  0.16962251293E+03  0.17435417109E+03  0.00000000000E+00 0.  1.
          5    1    4    4  501    0 -0.71564990614E+01  0.10633907645E+02  0.71848219368E+02  0.73102219507E+02  0.41800000000E+01 0.  1.
         -5    1    4    4    0  501  0.11182625330E+03 -0.24830613359E+02  0.25688399614E+02  0.11746930051E+03  0.41800000000E+01 0.  1.
</event>
<event>
11    1  0.7157190E-009  0.1403106E+03  0.7561462E-02  0.1107212E+00
         22   -1    0    0    0    0  0.00000000000E+00  0.00000000000E+00  0.59633253567E+03  0.59633253567E+03  0.00000000000E+00 0.  1.
         22   -1    0    0    0    0 -0.00000000000E+00 -0.00000000000E+00 -0.34653284312E+04  0.34653284312E+04  0.00000000000E+00 0.  1.
        -24    2    1    2    0    0  0.56245304260E+02  0.30319688986E+02 -0.34263664024E+04  0.34279309168E+04  0.81491285885E+02 0.  0.
         25    2    1    2    0    0 -0.94664196069E+01 -0.66075599568E+01  0.83933311572E+02  0.15108444157E+03  0.12509370385E+03 0.  0.
         24    2    1    2    0    0 -0.46778884653E+02 -0.23712129029E+02  0.47343719523E+03  0.48264560847E+03  0.77804090110E+02 0.  0.
        -11    1    5    5    0    0 -0.59909008661E+02  0.68405611633E+01  0.28700782186E+03  0.29327354535E+03  0.00000000000E+00 0.  1.
         12    1    5    5    0    0  0.13130124008E+02 -0.30552690193E+02  0.18642937337E+03  0.18937206312E+03  0.00000000000E+00 0. -1.
         11    1    3    3    0    0 -0.84393722631E+01  0.45737636842E+01 -0.54037612196E+02  0.54883566305E+02  0.00000000000E+00 0. -1.
        -12    1    3    3    0    0  0.64684676523E+02  0.25745925302E+02 -0.33723287902E+04  0.33730473505E+04  0.00000000000E+00 0.  1.
          5    1    4    4  501    0 -0.38667801462E+02  0.26288615780E+02  0.94619761480E+02  0.10562510048E+03  0.41800000000E+01 0.  1.
         -5    1    4    4    0  501  0.29201381855E+02 -0.32896175737E+02 -0.10686449908E+02  0.45459341086E+02  0.41800000000E+01 0.  1.
</event>
<event>
11    1  0.7157190E-009  0.2106848E+03  0.7561462E-02  0.1047215E+00
         22   -1    0    0    0    0  0.00000000000E+00  0.00000000000E+00  0.10037637705E+04  0.10037637705E+04  0.00000000000E+00 0. -1.
         22   -1    0    0    0    0 -0.00000000000E+00 -0.00000000000E+00 -0.10241418161E+04  0.10241418161E+04  0.00000000000E+00 0. -1.
        -24    2    1    2    0    0  0.16276934135E+03  0.52611400132E+02 -0.97376787073E+03  0.99201709960E+03  0.81315692957E+02 0.  0.
         25    2    1    2    0    0 -0.11313642584E+03 -0.77429020463E+02  0.18753446029E+03  0.26384137827E+03  0.12509194631E+03 0.  0.
         24    2    1    2    0    0 -0.49632915516E+02  0.24817620331E+02  0.76585536488E+03  0.77204710868E+03  0.80268035475E+02 0.  0.
        -11    1    5    5    0    0 -0.48259481029E+02  0.19626806443E+02  0.21702905290E+03  0.22319453139E+03  0.00000000000E+00 0.  1.
         12    1    5    5    0    0 -0.13734344871E+01  0.51908138877E+01  0.54882631199E+03  0.54885257729E+03  0.00000000000E+00 0. -1.
         11    1    3    3    0    0  0.12259243103E+03  0.74526297417E+02 -0.75588223520E+03  0.76937703803E+03  0.00000000000E+00 0. -1.
        -12    1    3    3    0    0  0.40176910318E+02 -0.21914897285E+02 -0.21788563553E+03  0.22264006157E+03  0.00000000000E+00 0.  1.
          5    1    4    4  501    0  0.82866198712E+00  0.23702201726E+02  0.26516770711E+01  0.24227769989E+02  0.41800000000E+01 0.  1.
         -5    1    4    4    0  501 -0.11396508782E+03 -0.10113122219E+03  0.18488278322E+03  0.23961360828E+03  0.41800000000E+01 0.  1.
</event>
<event>
11    1  0.7157190E-009  0.1479399E+03  0.7561462E-02  0.1099003E+00
         22   -1    0    0    0    0  0.00000000000E+00  0.00000000000E+00  0.42623444371E+03  0.42623444371E+03  0.00000000000E+00 0. -1.
         22   -1    0    0    0    0 -0.00000000000E+00 -0.00000000000E+00 -0.15903869670E+04  0.15903869670E+04  0.00000000000E+00 0.  1.
         24    2    1    2    0    0 -0.78648280598E+02  0.11335638998E+02 -0.15553151945E+04  0.15594172524E+04  0.80391319161E+02 0.  0.
         25    2    1    2    0    0  0.30857375783E+02 -0.30995147647E+02  0.16620639270E+03  0.21256776031E+03  0.12509041103E+03 0.  0.
        -24    2    1    2    0    0  0.47790904816E+02  0.19659508648E+02  0.22495627852E+03  0.24463639795E+03  0.81062772540E+02 0.  0.
        -13    1    3    3    0    0 -0.66867742125E+02  0.33243224566E+02 -0.74785518481E+03  0.75157420416E+03  0.00000000000E+00 0.  1.
         14    1    3    3    0    0 -0.11780538473E+02 -0.21907585568E+02 -0.80746000971E+03  0.80784304829E+03  0.00000000000E+00 0. -1.
         13    1    5    5    0    0  0.60759567632E+02  0.39340470972E+02  0.16303638660E+03  0.17838234518E+03  0.00000000000E+00 0. -1.
        -14    1    5    5    0    0 -0.12968662816E+02 -0.19680962323E+02  0.61919891921E+02  0.66254052772E+02  0.00000000000E+00 0.  1.
          5    1    4    4  501    0  0.24983969158E+02  0.16199302283E+02  0.16185925697E+03  0.16462839237E+03  0.41800000000E+01 0.  1.
         -5    1    4    4    0  501  0.58734066249E+01 -0.47194449930E+02  0.43471357342E+01  0.47939367941E+02  0.41800000000E+01 0.  1.
</event>
<event>
11    1  0.7157190E-009  0.1280402E+03  0.7561462E-02  0.1121701E+00
         22   -1    0    0    0    0  0.00000000000E+00  0.00000000000E+00  0.33894452011E+03  0.33894452011E+03  0.00000000000E+00 0. -1.
         22   -1    0    0    0    0 -0.00000000000E+00 -0.00000000000E+00 -0.39527941128E+03  0.39527941128E+03  0.00000000000E+00 0. -1.
         24    2    1    2    0    0  0.82230625518E+01 -0.27115581849E+02 -0.32484982628E+03  0.33623073758E+03  0.81980642368E+02 0.  0.
         25    2    1    2    0    0  0.10227341360E+02  0.18602466125E+02  0.11399677421E+02  0.12738778570E+03  0.12508814909E+03 0.  0.
        -24    2    1    2    0    0 -0.18450403912E+02  0.85131157242E+01  0.25711525769E+03  0.27060540810E+03  0.81891028890E+02 0.  0.
        -11    1    3    3    0    0 -0.64092692747E+01  0.22088887837E+01  0.25141623130E+01  0.72304173068E+01  0.00000000000E+00 0.  1.
         12    1    3    3    0    0  0.14632331827E+02 -0.29324470633E+02 -0.32736398860E+03  0.32900032028E+03  0.00000000000E+00 0. -1.
         13    1    5    5    0    0 -0.12430499837E+02 -0.88694880701E+01  0.25063817546E+03  0.25110292739E+03  0.00000000000E+00 0. -1.
        -14    1    5    5    0    0 -0.60199040752E+01  0.17382603794E+02  0.64770822297E+01  0.19502480713E+02  0.00000000000E+00 0.  1.
          5    1    4    4  501    0 -0.25004117736E+02  0.56568691975E+02  0.34024094300E+02  0.70713041289E+02  0.41800000000E+01 0. -1.
         -5    1    4    4    0  501  0.35231459096E+02 -0.37966225850E+02 -0.22624416879E+02  0.56674744414E+02  0.41800000000E+01 0. -1.
</event>
<event>
11    1  0.7157190E-009  0.1336766E+03  0.7561462E-02  0.1114832E+00
         22   -1    0    0    0    0  0.00000000000E+00  0.00000000000E+00  0.57438342519E+03  0.57438342519E+03  0.00000000000E+00 0. -1.
         22   -1    0    0    0    0 -0.00000000000E+00 -0.00000000000E+00 -0.73158772989E+03  0.73158772989E+03  0.00000000000E+00 0. -1.
         24    2    1    2    0    0  0.68752340492E+01  0.18620172512E+02 -0.66741382599E+03  0.67244281973E+03  0.79650179011E+02 0.  0.
         25    2    1    2    0    0  0.40734083714E+02 -0.15387394448E+02  0.19774836815E+02  0.13392115802E+03  0.12509114641E+03 0.  0.
        -24    2    1    2    0    0 -0.47609317763E+02 -0.32327780640E+01  0.49043468447E+03  0.49960717733E+03  0.82486689296E+02 0.  0.
        -11    1    3    3    0    0  0.10236824159E+02  0.22648225645E+02 -0.59191732238E+02  0.64198098562E+02  0.00000000000E+00 0.  1.
         12    1    3    3    0    0 -0.33615901096E+01 -0.40280531332E+01 -0.60822209376E+03  0.60824472117E+03  0.00000000000E+00 0. -1.
         11    1    5    5    0    0  0.29913882187E+01  0.16055399474E+02  0.32754607244E+03  0.32795297503E+03  0.00000000000E+00 0. -1.
        -12    1    5    5    0    0 -0.50600705982E+02 -0.19288177538E+02  0.16288861203E+03  0.17165420230E+03  0.00000000000E+00 0.  1.
          5    1    4    4  501    0  0.42212069117E+02 -0.40550164316E+02 -0.38572643276E+02  0.70224609750E+02  0.41800000000E+01 0. -1.
         -5    1    4    4    0  501 -0.14779854035E+01  0.25162769869E+02  0.58347480091E+02  0.63696548268E+02  0.41800000000E+01 0. -1.
</event>
<event>
11    1  0.7157190E-009  0.1310801E+03  0.7561462E-02  0.1117949E+00
         22   -1    0    0    0    0  0.00000000000E+00  0.00000000000E+00  0.11390322906E+04  0.11390322906E+04  0.00000000000E+00 0. -1.
         22   -1    0    0    0    0 -0.00000000000E+00 -0.00000000000E+00 -0.24664767220E+03  0.24664767220E+03  0.00000000000E+00 0.  1.
         24    2    1    2    0    0  0.14368895404E+02 -0.34106260390E+02 -0.19968643446E+03  0.22212206060E+03  0.89965746505E+02 0.  0.
         25    2    1    2    0    0 -0.45779612331E+02  0.55304197187E+02  0.12173171967E+03  0.18873374226E+03  0.12508991470E+03 0.  0.
        -24    2    1    2    0    0  0.31410716927E+02 -0.21197936797E+02  0.97033933318E+03  0.97482415993E+03  0.85368235331E+02 0.  0.
        -11    1    3    3    0    0  0.36935801840E+02 -0.53640168417E+02 -0.11278815591E+03  0.13024088927E+03  0.00000000000E+00 0.  1.
         12    1    3    3    0    0 -0.22566906436E+02  0.19533908027E+02 -0.86898278554E+02  0.91881171328E+02  0.00000000000E+00 0. -1.
         13    1    5    5    0    0  0.48113977141E+02 -0.37601240645E+02  0.85235891349E+03  0.85454346028E+03  0.00000000000E+00 0. -1.
        -14    1    5    5    0    0 -0.16703260214E+02  0.16403303849E+02  0.11798041970E+03  0.12028069966E+03  0.00000000000E+00 0.  1.
          5    1    4    4  501    0 -0.81127177953E+01  0.82330647560E+02  0.11496169511E+03  0.14169620835E+03  0.41800000000E+01 0. -1.
         -5    1    4    4    0  501 -0.37666894536E+02 -0.27026450373E+02  0.67700245662E+01  0.47037533910E+02  0.41800000000E+01 0. -1.
</event>
<event>
11    1  0.7157190E-009  0.1395712E+03  0.7561462E-02  0.1108038E+00
         22   -1    0    0    0    0  0.00000000000E+00  0.00000000000E+00  0.49219660821E+03  0.49219660821E+03  0.00000000000E+00 0.  1.
         22   -1    0    0    0    0 -0.00000000000E+00 -0.00000000000E+00 -0.20731163656E+04  0.20731163656E+04  0.00000000000E+00 0.  1.
        -24    2    1    2    0    0  0.59049920618E+02  0.17231401020E+02 -0.19862441413E+04  0.19888579715E+04  0.81279932516E+02 0.  0.
         25    2    1    2    0    0 -0.74494868719E+02 -0.42579088867E+02 -0.10417431781E+02  0.15204641643E+03  0.12508847106E+03 0.  0.
         24    2    1    2    0    0  0.15444948102E+02  0.25347687847E+02  0.41574181568E+03  0.42440858593E+03  0.80002117546E+02 0.  0.
        -13    1    5    5    0    0  0.11843615347E+01  0.25102539690E+02  0.40679825795E+03  0.40757375146E+03  0.00000000000E+00 0.  1.
         14    1    5    5    0    0  0.14260586567E+02  0.24514815716E+00  0.89435577269E+01  0.16834834471E+02  0.00000000000E+00 0. -1.
         13    1    3    3    0    0  0.50841597783E+02  0.15433312195E+02 -0.54383261946E+03  0.54642197355E+03  0.00000000000E+00 0. -1.
        -14    1    3    3    0    0  0.82083228351E+01  0.17980888255E+01 -0.14424115219E+04  0.14424359979E+04  0.00000000000E+00 0.  1.
          5    1    4    4  501    0 -0.23830898578E+02  0.94331346815E+01 -0.59082155878E+02  0.64537348102E+02  0.41800000000E+01 0. -1.
         -5    1    4    4    0  501 -0.50663970142E+02 -0.52012223549E+02  0.48664724097E+02  0.87509068332E+02  0.41800000000E+01 0. -1.
</event>
<event>
11    1  0.7157190E-009  0.1608376E+03  0.7561462E-02  0.1086292E+00
         22   -1    0    0    0    0  0.00000000000E+00  0.00000000000E+00  0.15746479777E+04  0.15746479777E+04  0.00000000000E+00 0.  1.
         22   -1    0    0    0    0 -0.00000000000E+00 -0.00000000000E+00 -0.73633011259E+03  0.73633011259E+03  0.00000000000E+00 0.  1.
        -24    2    1    2    0    0  0.34088761702E+01  0.46394344660E+02 -0.69899053475E+03  0.70432825754E+03  0.72982676411E+02 0.  0.
         25    2    1    2    0    0 -0.96061099539E+02 -0.26572146640E+01  0.16441576253E+03  0.22784858069E+03  0.12509051571E+03 0.  0.
         24    2    1    2    0    0  0.92652223369E+02 -0.43737129996E+02  0.13728926373E+04  0.13788012521E+04  0.75903412503E+02 0.  0.
        -13    1    5    5    0    0  0.22862408466E+02 -0.32386198895E+02  0.20670773833E+03  0.21047480773E+03  0.00000000000E+00 0.  1.
         14    1    5    5    0    0  0.69789814903E+02 -0.11350931100E+02  0.11661848990E+04  0.11683264443E+04  0.00000000000E+00 0. -1.
         13    1    3    3    0    0  0.10612641638E+02 -0.17805050627E+02 -0.22555508267E+03  0.22650550393E+03  0.00000000000E+00 0. -1.
        -14    1    3    3    0    0 -0.72037654679E+01  0.64199395287E+02 -0.47343545207E+03  0.47782275362E+03  0.00000000000E+00 0.  1.
          5    1    4    4  501    0 -0.85986943057E+02  0.44951313899E+02  0.14661690341E+03  0.17586461771E+03  0.41800000000E+01 0.  1.
         -5    1    4    4    0  501 -0.10074156483E+02 -0.47608528563E+02  0.17798859116E+02  0.51983962975E+02  0.41800000000E+01 0.  1.
</event>
<event>
11    1  0.7157190E-009  0.1390096E+03  0.7561462E-02  0.1108669E+00
         22   -1    0    0    0    0  0.00000000000E+00  0.00000000000E+00  0.78362341728E+03  0.78362341728E+03  0.00000000000E+00 0.  1.
         22   -1    0    0    0    0 -0.00000000000E+00 -0.00000000000E+00 -0.66246478878E+03  0.66246478878E+03  0.00000000000E+00 0.  1.
         24    2    1    2    0    0 -0.38056913492E+02 -0.42151602473E+02 -0.48707919631E+03  0.49690925374E+03  0.80296803955E+02 0.  0.
         25    2    1    2    0    0  0.10902229961E+02 -0.13262344053E+02 -0.14325330094E+03  0.19095458151E+03  0.12508955024E+03 0.  0.
        -24    2    1    2    0    0  0.27154683532E+02  0.55413946526E+02  0.75149112575E+03  0.75822437082E+03  0.79732064482E+02 0.  0.
        -11    1    3    3    0    0  0.98163645149E+01 -0.11155672153E+02 -0.32037325987E+03  0.32071768844E+03  0.00000000000E+00 0.  1.
         12    1    3    3    0    0 -0.47873278007E+02 -0.30995930320E+02 -0.16670593643E+03  0.17619156531E+03  0.00000000000E+00 0. -1.
         11    1    5    5    0    0 -0.26988484175E+02  0.30724270416E+02  0.34071476213E+03  0.34316017864E+03  0.00000000000E+00 0. -1.
        -12    1    5    5    0    0  0.54143167707E+02  0.24689676110E+02  0.41077636363E+03  0.41506419218E+03  0.00000000000E+00 0.  1.
          5    1    4    4  501    0 -0.38092217342E+02  0.31043749981E+02 -0.10108661324E+03  0.11247536269E+03  0.41800000000E+01 0. -1.
         -5    1    4    4    0  501  0.48994447302E+02 -0.44306094034E+02 -0.42166687703E+02  0.78479218821E+02  0.41800000000E+01 0. -1.
</event>
<event>
11    1  0.7157190E-009  0.1429420E+03  0.7561462E-02  0.1104317E+00
         22   -1    0    0    0    0  0.00000000000E+00  0.00000000000E+00  0.55404383661E+03  0.55404383661E+03  0.00000000000E+00 0.  1.
         22   -1    0    0    0    0 -0.00000000000E+00 -0.00000000000E+00 -0.19917673581E+04  0.19917673581E+04  0.00000000000E+00 0. -1.
        -24    2    1    2    0    0 -0.35602793615E+01  0.38440475232E+02 -0.16908655020E+04  0.16931703069E+04  0.79430450898E+02 0.  0.
         25    2    1    2    0    0 -0.56118234594E+02 -0.72823152220E+02 -0.27377747192E+03  0.31472863466E+03  0.12509013387E+03 0.  0.
         24    2    1    2    0    0  0.59678513956E+02  0.34382676987E+02  0.52691945243E+03  0.53791225316E+03  0.83437337190E+02 0.  0.
        -11    1    5    5    0    0  0.57160487528E+02 -0.10989655730E+02  0.36981495276E+03  0.37436772451E+03  0.00000000000E+00 0.  1.
         12    1    5    5    0    0  0.25180264284E+01  0.45372332717E+02  0.15710449967E+03  0.16354452864E+03  0.00000000000E+00 0. -1.
         13    1    3    3    0    0  0.67142972975E+01 -0.86934310937E+01 -0.11756439295E+04  0.11756952439E+04  0.00000000000E+00 0. -1.
        -14    1    3    3    0    0 -0.10274576659E+02  0.47133906326E+02 -0.51522157250E+03  0.51747506300E+03  0.00000000000E+00 0.  1.
          5    1    4    4  501    0  0.54587005888E+01 -0.46033263694E+02 -0.17433012231E+02  0.49701520036E+02  0.41800000000E+01 0. -1.
         -5    1    4    4    0  501 -0.61576935183E+02 -0.26789888525E+02 -0.25634445968E+03  0.26502711462E+03  0.41800000000E+01 0. -1.
</event>
<event>
11    1  0.7157190E-009  0.1408766E+03  0.7561462E-02  0.1106583E+00
         22   -1    0    0    0    0  0.00000000000E+00  0.00000000000E+00  0.57895593942E+03  0.57895593942E+03  0.00000000000E+00 0. -1.
         22   -1    0    0    0    0 -0.00000000000E+00 -0.00000000000E+00 -0.38197511174E+03  0.38197511174E+03  0.00000000000E+00 0.  1.
        -24    2    1    2    0    0 -0.30523576208E+01 -0.27153162266E+01 -0.34309569343E+03  0.35264662659E+03  0.81414363418E+02 0.  0.
         25    2    1    2    0    0 -0.65021889905E+01  0.66339918916E+02  0.15621548561E+03  0.21094064437E+03  0.12509761868E+03 0.  0.
         24    2    1    2    0    0  0.95545466114E+01 -0.63624602690E+02  0.38386103549E+03  0.39734378020E+03  0.79958774799E+02 0.  0.
        -11    1    5    5    0    0  0.60412828807E+01  0.13069016366E+02  0.15863735973E+02  0.21423221201E+02  0.00000000000E+00 0.  1.
         12    1    5    5    0    0  0.35132637306E+01 -0.76693619055E+02  0.36799729952E+03  0.37592055900E+03  0.00000000000E+00 0. -1.
         11    1    3    3    0    0  0.24933281960E+02 -0.27755921008E+02 -0.10130765866E+03  0.10795972121E+03  0.00000000000E+00 0. -1.
        -12    1    3    3    0    0 -0.27985639581E+02  0.25040604781E+02 -0.24178803477E+03  0.24468690538E+03  0.00000000000E+00 0.  1.
          5    1    4    4  501    0  0.54179030808E+02  0.39641777266E+01  0.55560735142E+02  0.77817413051E+02  0.41800000000E+01 0.  1.
         -5    1    4    4    0  501 -0.60681219798E+02  0.62375741190E+02  0.10065475047E+03  0.13312323132E+03  0.41800000000E+01 0.  1.
</event>
<event>
11    1  0.7157190E-009  0.1534179E+03  0.7561462E-02  0.1093437E+00
         22   -1    0    0    0    0  0.00000000000E+00  0.00000000000E+00  0.32050207005E+03  0.32050207005E+03  0.00000000000E+00 0.  1.
         22   -1    0    0    0    0 -0.00000000000E+00 -0.00000000000E+00 -0.14617728687E+03  0.14617728687E+03  0.00000000000E+00 0.  1.
        -24    2    1    2    0    0  0.25089164611E+02 -0.86871898340E+02 -0.10170870190E+02  0.12165695762E+03  0.80751320952E+02 0.  0.
         25    2    1    2    0    0 -0.78717697872E+02  0.59231011446E+02  0.32492252396E+02  0.16250477209E+03  0.12508903153E+03 0.  0.
         24    2    1    2    0    0  0.53628533260E+02  0.27640886893E+02  0.15200340097E+03  0.18251762721E+03  0.81040805339E+02 0.  0.
        -11    1    5    5    0    0  0.65954688477E+02  0.11649228382E+02  0.14726279095E+03  0.16177779530E+03  0.00000000000E+00 0.  1.
         12    1    5    5    0    0 -0.12326155217E+02  0.15991658512E+02  0.47406100155E+01  0.20739831911E+02  0.00000000000E+00 0. -1.
         11    1    3    3    0    0 -0.27983757427E+02 -0.47568719623E+02 -0.45329207048E+01  0.55375275497E+02  0.00000000000E+00 0. -1.
        -12    1    3    3    0    0  0.53072922039E+02 -0.39303178717E+02 -0.56379494849E+01  0.66281682125E+02  0.00000000000E+00 0.  1.
          5    1    4    4  501    0 -0.10220868262E+03  0.96769457433E+01  0.10553056479E+02  0.10329132336E+03  0.41800000000E+01 0. -1.
         -5    1    4    4    0  501  0.23490984746E+02  0.49554065703E+02  0.21939195917E+02  0.59213448722E+02  0.41800000000E+01 0. -1.
</event>
<event>
11    1  0.7157190E-009  0.2107406E+03  0.7561462E-02  0.1047178E+00
         22   -1    0    0    0    0  0.00000000000E+00  0.00000000000E+00  0.17366133564E+03  0.17366133564E+03  0.00000000000E+00 0. -1.
         22   -1    0    0    0    0 -0.00000000000E+00 -0.00000000000E+00 -0.12292636044E+04  0.12292636044E+04  0.00000000000E+00 0. -1.
        -24    2    1    2    0    0  0.86791007231E+02 -0.15188545916E+03 -0.95808455037E+03  0.97715122533E+03  0.79351369666E+02 0.  0.
         25    2    1    2    0    0 -0.32466677710E+02  0.14946991944E+03 -0.20235339913E+03  0.28282554420E+03  0.12509215937E+03 0.  0.
         24    2    1    2    0    0 -0.54324329520E+02  0.24155397187E+01  0.10483568071E+03  0.14294817054E+03  0.80540001879E+02 0.  0.
        -13    1    5    5    0    0 -0.16718699317E+02 -0.33943718758E+02  0.18780112610E+02  0.42241964676E+02  0.00000000000E+00 0.  1.
         14    1    5    5    0    0 -0.37605630204E+02  0.36359258477E+02  0.86055568097E+02  0.10070620587E+03  0.00000000000E+00 0. -1.
         13    1    3    3    0    0  0.78589535316E+02 -0.70708141228E+02 -0.64519988527E+03  0.65380337124E+03  0.00000000000E+00 0. -1.
        -14    1    3    3    0    0  0.82014719144E+01 -0.81177317930E+02 -0.31288466510E+03  0.32334785408E+03  0.00000000000E+00 0.  1.
          5    1    4    4  501    0 -0.39463738263E+01  0.12385147591E+03 -0.20965890548E+03  0.24357563713E+03  0.41800000000E+01 0. -1.
         -5    1    4    4    0  501 -0.28520303884E+02  0.25618443525E+02  0.73055063559E+01  0.39249907075E+02  0.41800000000E+01 0. -1.
</event>
<event>
11    1  0.7157190E-009  0.1496113E+03  0.7561462E-02  0.1097277E+00
         22   -1    0    0    0    0  0.00000000000E+00  0.00000000000E+00  0.53468963882E+03  0.53468963882E+03  0.00000000000E+00 0.  1.
         22   -1    0    0    0    0 -0.00000000000E+00 -0.00000000000E+00 -0.31869112768E+03  0.31869112768E+03  0.00000000000E+00 0. -1.
         24    2    1    2    0    0  0.12517039200E+02  0.71679209644E+02 -0.17201288971E+03  0.20358757845E+03  0.81023962553E+02 0.  0.
         25    2    1    2    0    0 -0.38593211069E+02 -0.11105840160E+03 -0.67717056844E+02  0.18454528546E+03  0.12509179865E+03 0.  0.
        -24    2    1    2    0    0  0.26076171869E+02  0.39379191952E+02  0.45572845769E+03  0.46524790260E+03  0.80848600599E+02 0.  0.
        -11    1    3    3    0    0 -0.24849054052E+02  0.40925994162E+01 -0.16947657023E+02  0.30355360908E+02  0.00000000000E+00 0.  1.
         12    1    3    3    0    0  0.37366093252E+02  0.67586610228E+02 -0.15506523268E+03  0.17323221754E+03  0.00000000000E+00 0. -1.
         13    1    5    5    0    0 -0.83653587464E+01 -0.12025095358E+02  0.18185858098E+02  0.23351821772E+02  0.00000000000E+00 0. -1.
        -14    1    5    5    0    0  0.34441530616E+02  0.51404287311E+02  0.43754259960E+03  0.44189608082E+03  0.00000000000E+00 0.  1.
          5    1    4    4  501    0 -0.63798202990E+02 -0.17758569941E+02 -0.56521164203E+02  0.87164740084E+02  0.41800000000E+01 0. -1.
         -5    1    4    4    0  501  0.25204991921E+02 -0.93299831655E+02 -0.11195892641E+02  0.97380545371E+02  0.41800000000E+01 0. -1.
</event>
<event>
11    1  0.7157190E-009  0.1412742E+03  0.7561462E-02  0.1106144E+00
         22   -1    0    0    0    0  0.00000000000E+00  0.00000000000E+00  0.38536056158E+03  0.38536056158E+03  0.00000000000E+00 0.  1.
         22   -1    0    0    0    0 -0.00000000000E+00 -0.00000000000E+00 -0.84736780956E+03  0.84736780956E+03  0.00000000000E+00 0.  1.
        -24    2    1    2    0    0 -0.85162024826E+01  0.64809140383E+02 -0.80243048207E+03  0.80896854948E+03  0.79137128531E+02 0.  0.
         25    2    1    2    0    0  0.31168984990E+02 -0.88111762734E+02  0.27055075137E+03  0.31237899229E+03  0.12509091654E+03 0.  0.
         24    2    1    2    0    0 -0.22652782508E+02  0.23302622350E+02  0.69872482715E+02  0.11138082937E+03  0.80419926307E+02 0.  0.
        -11    1    5    5    0    0  0.29278876082E+02  0.72323892120E+01  0.37453936469E+02  0.48086977399E+02  0.00000000000E+00 0.  1.
         12    1    5    5    0    0 -0.51931658590E+02  0.16070233138E+02  0.32418546246E+02  0.63293851974E+02  0.00000000000E+00 0. -1.
         13    1    3    3    0    0  0.30740800016E+01 -0.49564545083E+01 -0.32731540698E+01  0.66880450592E+01  0.00000000000E+00 0. -1.
        -14    1    3    3    0    0 -0.11590282484E+02  0.69765594892E+02 -0.79915732800E+03  0.80228050442E+03  0.00000000000E+00 0.  1.
          5    1    4    4  501    0  0.40309258816E+02 -0.34312770567E+02  0.21338172371E+02  0.57227550798E+02  0.41800000000E+01 0. -1.
         -5    1    4    4    0  501 -0.91402738253E+01 -0.53798992166E+02  0.24921257900E+03  0.25515144150E+03  0.41800000000E+01 0. -1.
</event>
<event>
11    1  0.7157190E-009  0.1574209E+03  0.7561462E-02  0.1089528E+00
         22   -1    0    0    0    0  0.00000000000E+00  0.00000000000E+00  0.29949492668E+04  0.29949492668E+04  0.00000000000E+00 0. -1.
         22   -1    0    0    0    0 -0.00000000000E+00 -0.00000000000E+00 -0.82278516631E+02  0.82278516631E+02  0.00000000000E+00 0.  1.
        -24    2    1    2    0    0  0.44886897390E+02 -0.89317294638E+02  0.19086918359E+02  0.12913540126E+03  0.79493576648E+02 0.  0.
         25    2    1    2    0    0 -0.51351491679E+02  0.66644920880E+02  0.18670009767E+03  0.23996253003E+03  0.12508624294E+03 0.  0.
         24    2    1    2    0    0  0.64645942895E+01  0.22672373758E+02  0.27068837342E+04  0.27081298522E+04  0.78688743553E+02 0.  0.
        -11    1    5    5    0    0  0.37128554506E+02  0.16942638426E+02  0.84516118010E+03  0.84614597021E+03  0.00000000000E+00 0.  1.
         12    1    5    5    0    0 -0.30663960216E+02  0.57297353318E+01  0.18617225541E+04  0.18619838819E+04  0.00000000000E+00 0. -1.
         11    1    3    3    0    0 -0.16292120214E+02 -0.35350048440E+01  0.16914742038E+02  0.23749482910E+02  0.00000000000E+00 0. -1.
        -12    1    3    3    0    0  0.61179017603E+02 -0.85782289794E+02  0.21721763216E+01  0.10538591835E+03  0.00000000000E+00 0.  1.
          5    1    4    4  501    0  0.11982632012E+02  0.10057922731E+01 -0.14329860050E+02  0.19168003993E+02  0.41800000000E+01 0. -1.
         -5    1    4    4    0  501 -0.63334123691E+02  0.65639128607E+02  0.20102995772E+03  0.22079452604E+03  0.41800000000E+01 0. -1.
</event>
<event>
11    1  0.7157190E-009  0.1447418E+03  0.7561462E-02  0.1102376E+00
         22   -1    0    0    0    0  0.00000000000E+00  0.00000000000E+00  0.12026838389E+04  0.12026838389E+04  0.00000000000E+00 0. -1.
         22   -1    0    0    0    0 -0.00000000000E+00 -0.00000000000E+00 -0.30801332985E+03  0.30801332985E+03  0.00000000000E+00 0.  1.
        -24    2    1    2    0    0 -0.61635508355E+02 -0.30066409142E+02 -0.25964971213E+03  0.28057966155E+03  0.81265297756E+02 0.  0.
         25    2    1    2    0    0  0.90927746364E+02 -0.36623383953E+02  0.14549321507E+03  0.21546444907E+03  0.12509007104E+03 0.  0.
         24    2    1    2    0    0 -0.29292238009E+02  0.66689793096E+02  0.10088270061E+04  0.10146530581E+04  0.80519167850E+02 0.  0.
        -11    1    5    5    0    0 -0.17331453546E+02 -0.15245716763E+02  0.14011324393E+03  0.14200187424E+03  0.00000000000E+00 0.  1.
         12    1    5    5    0    0 -0.11960784463E+02  0.81935509859E+02  0.86871376217E+03  0.87265118388E+03  0.00000000000E+00 0. -1.
         13    1    3    3    0    0  0.48656337990E+01  0.63183765862E+01  0.19572688500E+01  0.82114052575E+01  0.00000000000E+00 0. -1.
        -14    1    3    3    0    0 -0.66501142154E+02 -0.36384785729E+02 -0.26160698098E+03  0.27236825629E+03  0.00000000000E+00 0.  1.
          5    1    4    4  501    0  0.76043568361E+02 -0.74841392047E+02  0.64939264799E+02  0.12497375231E+03  0.41800000000E+01 0. -1.
         -5    1    4    4    0  501  0.14884178003E+02  0.38218008093E+02  0.80553950270E+02  0.90490696768E+02  0.41800000000E+01 0. -1.
</event>
<event>
11    1  0.7157190E-009  0.1672643E+03  0.7561462E-02  0.1080437E+00
         22   -1    0    0    0    0  0.00000000000E+00  0.00000000000E+00  0.57605970344E+03  0.57605970344E+03  0.00000000000E+00 0. -1.
         22   -1    0    0    0    0 -0.00000000000E+00 -0.00000000000E+00 -0.50679799955E+03  0.50679799955E+03  0.00000000000E+00 0.  1.
         24    2    1    2    0    0 -0.90103582323E+02 -0.51471459152E+02 -0.33653567848E+03  0.36114574897E+03  0.80012639384E+02 0.  0.
         25    2    1    2    0    0  0.12084166617E+03  0.83965658705E+02 -0.93108234645E+02  0.21442064779E+03  0.12511646860E+03 0.  0.
        -24    2    1    2    0    0 -0.30738083845E+02 -0.32494199553E+02  0.49890561701E+03  0.50729130623E+03  0.80230616932E+02 0.  0.
        -11    1    3    3    0    0 -0.24962394594E+02 -0.45393119887E+02 -0.23286204704E+03  0.23855479334E+03  0.00000000000E+00 0.  1.
         12    1    3    3    0    0 -0.65141187729E+02 -0.60783392649E+01 -0.10367363144E+03  0.12259095563E+03  0.00000000000E+00 0. -1.
         11    1    5    5    0    0 -0.33375713156E+02  0.16121528916E+02  0.31017853259E+03  0.31238528135E+03  0.00000000000E+00 0. -1.
        -12    1    5    5    0    0  0.26376293115E+01 -0.48615728470E+02  0.18872708441E+03  0.19490602488E+03  0.00000000000E+00 0.  1.
          5    1    4    4  501    0  0.12823940042E+03  0.29057336602E+02 -0.39859274128E+02  0.13746238309E+03  0.41800000000E+01 0.  1.
         -5    1    4    4    0  501 -0.73977342563E+01  0.54908322104E+02 -0.53248960517E+02  0.76958264693E+02  0.41800000000E+01 0.  1.
</event>
<event>
11    1  0.7157190E-009  0.1400100E+03  0.7561462E-02  0.1107547E+00
         22   -1    0    0    0    0  0.00000000000E+00  0.00000000000E+00  0.32629189384E+04  0.32629189384E+04  0.00000000000E+00 0.  1.
         22   -1    0    0    0    0 -0.00000000000E+00 -0.00000000000E+00 -0.69854334160E+02  0.69854334160E+02  0.00000000000E+00 0.  1.
        -24    2    1    2    0    0  0.30587465617E+01 -0.93435277911E+02  0.49779841162E+02  0.13368609679E+03  0.81574706862E+02 0.  0.
         25    2    1    2    0    0 -0.62091560599E+01  0.13277385728E+02  0.12102553203E+03  0.17467073963E+03  0.12509134778E+03 0.  0.
         24    2    1    2    0    0  0.31504094982E+01  0.80157892183E+02  0.30222592310E+04  0.30244164361E+04  0.81293952984E+02 0.  0.
        -11    1    5    5    0    0 -0.10111948032E+01  0.74809405932E+02  0.30041381463E+04  0.30050696285E+04  0.00000000000E+00 0.  1.
         12    1    5    5    0    0  0.41616043013E+01  0.53484862510E+01  0.18121084669E+02  0.19346807621E+02  0.00000000000E+00 0. -1.
         13    1    3    3    0    0  0.30473303265E+02 -0.48058950785E+02  0.56567921896E+02  0.80238486714E+02  0.00000000000E+00 0. -1.
        -14    1    3    3    0    0 -0.27414556703E+02 -0.45376327126E+02 -0.67880807344E+01  0.53447610075E+02  0.00000000000E+00 0.  1.
          5    1    4    4  501    0  0.51360664236E+02 -0.23199134323E+02  0.66655491400E+02  0.87387325156E+02  0.41800000000E+01 0. -1.
         -5    1    4    4    0  501 -0.57569820296E+02  0.36476520051E+02  0.54370040626E+02  0.87283414470E+02  0.41800000000E+01 0. -1.
</event>
<event>
11    1  0.7157190E-009  0.1339677E+03  0.7561462E-02  0.1114488E+00
         22   -1    0    0    0    0  0.00000000000E+00  0.00000000000E+00  0.34254067209E+04  0.34254067209E+04  0.00000000000E+00 0. -1.
         22   -1    0    0    0    0 -0.00000000000E+00 -0.00000000000E+00 -0.13375865153E+03  0.13375865153E+03  0.00000000000E+00 0. -1.
        -24    2    1    2    0    0  0.34697075591E+02  0.24718587356E+02 -0.10506739849E+03  0.14045583192E+03  0.82908304046E+02 0.  0.
         25    2    1    2    0    0 -0.49034717934E+01  0.16425063397E+02  0.37969559997E+03  0.40013734398E+03  0.12508924283E+03 0.  0.
         24    2    1    2    0    0 -0.29793603797E+02 -0.41143650753E+02  0.30170198679E+04  0.30185721966E+04  0.82393953640E+02 0.  0.
        -11    1    5    5    0    0  0.27734454006E+02 -0.22833061529E+02  0.12775200118E+04  0.12780250111E+04  0.00000000000E+00 0.  1.
         12    1    5    5    0    0 -0.57528057803E+02 -0.18310589223E+02  0.17394998562E+04  0.17405471854E+04  0.00000000000E+00 0. -1.
         13    1    3    3    0    0  0.51314765435E+01  0.51701902370E+00 -0.10199426944E+03  0.10212458254E+03  0.00000000000E+00 0. -1.
        -14    1    3    3    0    0  0.29565599047E+02  0.24201568332E+02 -0.30731290454E+01  0.38331249378E+02  0.00000000000E+00 0.  1.
          5    1    4    4  501    0  0.26545032614E+02 -0.54743063247E+01  0.11187208085E+02  0.29618116262E+02  0.41800000000E+01 0.  1.
         -5    1    4    4    0  501 -0.31448504407E+02  0.21899369722E+02  0.36850839188E+03  0.37051922772E+03  0.41800000000E+01 0.  1.
</event>
<event>
11    1  0.7157190E-009  0.1636503E+03  0.7561462E-02  0.1083693E+00
         22   -1    0    0    0    0  0.00000000000E+00  0.00000000000E+00  0.13010025427E+04  0.13010025427E+04  0.00000000000E+00 0.  1.
         22   -1    0    0    0    0 -0.00000000000E+00 -0.00000000000E+00 -0.26271419768E+04  0.26271419768E+04  0.00000000000E+00 0. -1.
        -24    2    1    2    0    0  0.83826248340E+02  0.64414984542E+02 -0.26001561456E+04  0.26035657185E+04  0.81032949790E+02 0.  0.
         25    2    1    2    0    0 -0.46626642423E+02 -0.65401183547E+02  0.21236808116E+03  0.25923086133E+03  0.12509627883E+03 0.  0.
         24    2    1    2    0    0 -0.37199605917E+02  0.98619900494E+00  0.10616486303E+04  0.10653479397E+04  0.80521023583E+02 0.  0.
        -11    1    5    5    0    0 -0.17808937667E+02 -0.44807842498E+01  0.10059512825E+04  0.10061188888E+04  0.00000000000E+00 0.  1.
         12    1    5    5    0    0 -0.19390668250E+02  0.54669832547E+01  0.55697347779E+02  0.59229050901E+02  0.00000000000E+00 0. -1.
         13    1    3    3    0    0  0.89274157336E+02  0.34377748058E+02 -0.22658728569E+04  0.22678914234E+04  0.00000000000E+00 0. -1.
        -14    1    3    3    0    0 -0.54479089956E+01  0.30037236483E+02 -0.33428328869E+03  0.33567429509E+03  0.00000000000E+00 0.  1.
          5    1    4    4  501    0  0.73733124907E+01  0.51566870385E+01 -0.13341980561E+02  0.16626424859E+02  0.41800000000E+01 0. -1.
         -5    1    4    4    0  501 -0.53999954914E+02 -0.70557870585E+02  0.22571006172E+03  0.24260443647E+03  0.41800000000E+01 0. -1.
</event>
<event>
11    1  0.7462499E-009  0.1617189E+03  0.7561462E-02  0.1085472E+00
         22   -1    0    0    0    0  0.00000000000E+00  0.00000000000E+00  0.78262639512E+03  0.78262639512E+03  0.00000000000E+00 0.  1.
         22   -1    0    0    0    0 -0.00000000000E+00 -0.00000000000E+00 -0.22682037349E+04  0.22682037349E+04  0.00000000000E+00 0.  1.
         24    2    1    2    0    0  0.23494365305E+02  0.45952831979E+02 -0.19434695592E+04  0.19456663415E+04  0.76680747417E+02 0.  0.
         25    2    1    2    0    0  0.59068396956E+02 -0.10644843597E+03 -0.29414361819E+03  0.34203497411E+03  0.12508841016E+03 0.  0.
        -24    2    1    2    0    0 -0.82562762261E+02  0.60495603987E+02  0.75203583755E+03  0.76312881444E+03  0.79569835055E+02 0.  0.
        -13    1    3    3    0    0  0.25066648703E+02  0.14745405772E+02 -0.16937206918E+04  0.16939703497E+04  0.00000000000E+00 0.  1.
         14    1    3    3    0    0 -0.15722833983E+01  0.31207426207E+02 -0.24974886731E+03  0.25169599173E+03  0.00000000000E+00 0. -1.
         11    1    5    5    0    0  0.91551822421E+01  0.32156839601E+02  0.17568995275E+03  0.17884305743E+03  0.00000000000E+00 0. -1.
        -12    1    5    5    0    0 -0.91717944504E+02  0.28338764386E+02  0.57634588480E+03  0.58428575701E+03  0.00000000000E+00 0.  1.
          5    1    4    4  501    0  0.84747251728E+02 -0.35274264231E+02 -0.11277726602E+03  0.14547355266E+03  0.41800000000E+01 0. -1.
         -5    1    4    4    0  501 -0.25678854771E+02 -0.71174171734E+02 -0.18136635217E+03  0.19656142145E+03  0.41800000000E+01 0. -1.
</event>
<event>
11    1  0.7157190E-009  0.2106155E+03  0.7561462E-02  0.1047261E+00
         22   -1    0    0    0    0  0.00000000000E+00  0.00000000000E+00  0.76431121395E+03  0.76431121395E+03  0.00000000000E+00 0. -1.
         22   -1    0    0    0    0 -0.00000000000E+00 -0.00000000000E+00 -0.16040219764E+04  0.16040219764E+04  0.00000000000E+00 0. -1.
         24    2    1    2    0    0 -0.13092197265E+03 -0.35747251676E+02 -0.14313684286E+04  0.14400114291E+04  0.79993179077E+02 0.  0.
         25    2    1    2    0    0  0.16435658783E+03  0.19662635222E+03 -0.23940327224E+02  0.28617303799E+03  0.12508740167E+03 0.  0.
        -24    2    1    2    0    0 -0.33434615182E+02 -0.16087910054E+03  0.61559799330E+03  0.64214872330E+03  0.79963335367E+02 0.  0.
        -13    1    3    3    0    0 -0.11917064931E+02  0.21575184541E+02 -0.28292187417E+03  0.28399347160E+03  0.00000000000E+00 0.  1.
         14    1    3    3    0    0 -0.11900490772E+03 -0.57322436217E+02 -0.11484465544E+04  0.11560179575E+04  0.00000000000E+00 0. -1.
         11    1    5    5    0    0 -0.50656681874E+02 -0.15630843930E+03  0.53804873824E+03  0.56257876989E+03  0.00000000000E+00 0. -1.
        -12    1    5    5    0    0  0.17222066691E+02 -0.45706612437E+01  0.77549255060E+02  0.79569953410E+02  0.00000000000E+00 0.  1.
          5    1    4    4  501    0  0.52559020546E+02  0.12853861804E+03 -0.58465609513E+02  0.15073263370E+03  0.41800000000E+01 0. -1.
         -5    1    4    4    0  501  0.11179756728E+03  0.68087734181E+02  0.34525282289E+02  0.13544040429E+03  0.41800000000E+01 0. -1.
</event>
<event>
11    1  0.7157190E-009  0.1431389E+03  0.7561462E-02  0.1104103E+00
         22   -1    0    0    0    0  0.00000000000E+00  0.00000000000E+00  0.74011827354E+03  0.74011827354E+03  0.00000000000E+00 0. -1.
         22   -1    0    0    0    0 -0.00000000000E+00 -0.00000000000E+00 -0.31435923014E+03  0.31435923014E+03  0.00000000000E+00 0.  1.
         24    2    1    2    0    0  0.61519347088E+02  0.37033962044E+02 -0.28387710088E+03  0.30395708668E+03  0.81532556246E+02 0.  0.
         25    2    1    2    0    0 -0.12646054988E+02  0.16625600771E+01  0.25276067517E+03  0.28231068507E+03  0.12509467287E+03 0.  0.
        -24    2    1    2    0    0 -0.48873292100E+02 -0.38696522122E+02  0.45687546911E+03  0.46820973193E+03  0.81235086564E+02 0.  0.
        -11    1    3    3    0    0  0.72085270633E+02  0.52017212839E+02 -0.21431335802E+03  0.23201787022E+03  0.00000000000E+00 0.  1.
         12    1    3    3    0    0 -0.10565923545E+02 -0.14983250795E+02 -0.69563742859E+02  0.71939216463E+02  0.00000000000E+00 0. -1.
         11    1    5    5    0    0 -0.28905489937E+02  0.20997921006E+01  0.36054602414E+03  0.36170896035E+03  0.00000000000E+00 0. -1.
        -12    1    5    5    0    0 -0.19967802163E+02 -0.40796314222E+02  0.96329444969E+02  0.10650077157E+03  0.00000000000E+00 0.  1.
          5    1    4    4  501    0 -0.17953953332E+02  0.18222217809E+02 -0.28486347515E+01  0.26076441132E+02  0.41800000000E+01 0.  1.
         -5    1    4    4    0  501  0.53078983438E+01 -0.16559657732E+02  0.25560930992E+03  0.25623424394E+03  0.41800000000E+01 0.  1.
</event>
<event>
11    1  0.7157190E-009  0.1282916E+03  0.7561462E-02  0.1121386E+00
         22   -1    0    0    0    0  0.00000000000E+00  0.00000000000E+00  0.12392174123E+03  0.12392174123E+03  0.00000000000E+00 0. -1.
         22   -1    0    0    0    0 -0.00000000000E+00 -0.00000000000E+00 -0.83189031511E+03  0.83189031511E+03  0.00000000000E+00 0.  1.
         24    2    1    2    0    0  0.15064590349E+02  0.37788372922E+01 -0.73570198249E+03  0.74030109065E+03  0.80914005513E+02 0.  0.
         25    2    1    2    0    0  0.16290155183E+02 -0.14627494151E+02  0.91448394114E+01  0.12730891184E+03  0.12507836825E+03 0.  0.
        -24    2    1    2    0    0 -0.31354745531E+02  0.10848656859E+02  0.18588569201E+02  0.88202053853E+02  0.79581743986E+02 0.  0.
        -13    1    3    3    0    0  0.10658067363E+02  0.14200408982E+02 -0.72328172821E+03  0.72349962292E+03  0.00000000000E+00 0.  1.
         14    1    3    3    0    0  0.44065229860E+01 -0.10421571690E+02 -0.12420254280E+02  0.16801467725E+02  0.00000000000E+00 0. -1.
         13    1    5    5    0    0 -0.39261250097E+02  0.13639327705E+02  0.44545600679E+02  0.60924441395E+02  0.00000000000E+00 0. -1.
        -14    1    5    5    0    0  0.79065045662E+01 -0.27906708461E+01 -0.25957031478E+02  0.27277612458E+02  0.00000000000E+00 0.  1.
          5    1    4    4  501    0 -0.29323547942E+02  0.21143008300E+02  0.45875844003E+02  0.58557345627E+02  0.41800000000E+01 0. -1.
         -5    1    4    4    0  501  0.45613703125E+02 -0.35770502451E+02 -0.36731004591E+02  0.68751566212E+02  0.41800000000E+01 0. -1.
</event>
<event>
11    1  0.7157190E-009  0.1537931E+03  0.7561462E-02  0.1093065E+00
         22   -1    0    0    0    0  0.00000000000E+00  0.00000000000E+00  0.30791139947E+03  0.30791139947E+03  0.00000000000E+00 0. -1.
         22   -1    0    0    0    0 -0.00000000000E+00 -0.00000000000E+00 -0.42768631277E+03  0.42768631277E+03  0.00000000000E+00 0.  1.
         24    2    1    2    0    0 -0.46939331280E+02 -0.76140274072E+02 -0.28939850572E+03  0.31348906190E+03  0.80766667990E+02 0.  0.
         25    2    1    2    0    0  0.75476671256E+02  0.57267962569E+02 -0.66333065445E+02  0.17036240392E+03  0.12508767188E+03 0.  0.
        -24    2    1    2    0    0 -0.28537339976E+02  0.18872311504E+02  0.23595665787E+03  0.25174624643E+03  0.80808936898E+02 0.  0.
        -11    1    3    3    0    0 -0.42483418584E+02 -0.21394184617E+02 -0.21948256684E+03  0.22457771291E+03  0.00000000000E+00 0.  1.
         12    1    3    3    0    0 -0.44559126963E+01 -0.54746089455E+02 -0.69915938881E+02  0.88911348984E+02  0.00000000000E+00 0. -1.
         13    1    5    5    0    0 -0.32878456319E+02  0.29979789537E+02  0.23565287537E+03  0.23981671822E+03  0.00000000000E+00 0. -1.
        -14    1    5    5    0    0  0.43411163432E+01 -0.11107478034E+02  0.30378250405E+00  0.11929528205E+02  0.00000000000E+00 0.  1.
          5    1    4    4  501    0  0.55757153787E+02 -0.28437456476E+02 -0.51319227641E+02  0.81047422260E+02  0.41800000000E+01 0. -1.
         -5    1    4    4    0  501  0.19719517469E+02  0.85705419045E+02 -0.15013837804E+02  0.89314981657E+02  0.41800000000E+01 0. -1.
</event>
<event>
11    1  0.7157190E-009  0.1382097E+03  0.7561462E-02  0.1109574E+00
         22   -1    0    0    0    0  0.00000000000E+00  0.00000000000E+00  0.28729432539E+04  0.28729432539E+04  0.00000000000E+00 0.  1.
         22   -1    0    0    0    0 -0.00000000000E+00 -0.00000000000E+00 -0.47199851954E+02  0.47199851954E+02  0.00000000000E+00 0. -1.
         24    2    1    2    0    0 -0.51754423000E+02  0.23861810041E+02  0.24993844365E+02  0.10145320621E+03  0.80125866710E+02 0.  0.
         25    2    1    2    0    0  0.87062599286E+02  0.14035433386E+01  0.72170070712E+03  0.73761814744E+03  0.12508698830E+03 0.  0.
        -24    2    1    2    0    0 -0.35308176286E+02 -0.25265353379E+02  0.20790488505E+04  0.20810717522E+04  0.80811569899E+02 0.  0.
        -11    1    3    3    0    0 -0.47090850723E+00 -0.26083330369E+02  0.15786645934E+01  0.26135302942E+02  0.00000000000E+00 0.  1.
         12    1    3    3    0    0 -0.51283514492E+02  0.49945140410E+02  0.23415179772E+02  0.75317903270E+02  0.00000000000E+00 0. -1.
         13    1    5    5    0    0 -0.21399782697E+02  0.12942783651E+02  0.19666548103E+03  0.19824928191E+03  0.00000000000E+00 0. -1.
        -14    1    5    5    0    0 -0.13908393589E+02 -0.38208137030E+02  0.18823833694E+04  0.18828224703E+04  0.00000000000E+00 0.  1.
          5    1    4    4  501    0  0.10966797409E+03 -0.20481723280E+02  0.43234686774E+03  0.44652866870E+03  0.41800000000E+01 0. -1.
         -5    1    4    4    0  501 -0.22605374804E+02  0.21885266618E+02  0.28935383938E+03  0.29108947873E+03  0.41800000000E+01 0. -1.
</event>
<event>
11    1  0.7157190E-009  0.1341263E+03  0.7561462E-02  0.1114301E+00
         22   -1    0    0    0    0  0.00000000000E+00  0.00000000000E+00  0.69085665140E+03  0.69085665140E+03  0.00000000000E+00 0. -1.
         22   -1    0    0    0    0 -0.00000000000E+00 -0.00000000000E+00 -0.64036000816E+03  0.64036000816E+03  0.00000000000E+00 0. -1.
         24    2    1    2    0    0  0.29554567386E+02 -0.40408681605E+02 -0.54619656277E+03  0.55508565630E+03  0.85340884916E+02 0.  0.
         25    2    1    2    0    0 -0.34702803604E+02  0.11270536006E+02 -0.38086304361E+02  0.13575845986E+03  0.12509389786E+03 0.  0.
        -24    2    1    2    0    0  0.51482362186E+01  0.29138145599E+02  0.63477951037E+03  0.64037254341E+03  0.79097608714E+02 0.  0.
        -13    1    3    3    0    0 -0.20251695925E+02  0.49115938055E+01 -0.47591727299E+02  0.51954089819E+02  0.00000000000E+00 0.  1.
         14    1    3    3    0    0  0.49806263311E+02 -0.45320275410E+02 -0.49860483547E+03  0.50313156648E+03  0.00000000000E+00 0. -1.
         11    1    5    5    0    0  0.13789597480E+02  0.42349660674E+02  0.60526379521E+03  0.60690024597E+03  0.00000000000E+00 0. -1.
        -12    1    5    5    0    0 -0.86413612611E+01 -0.13211515075E+02  0.29515715156E+02  0.33472297444E+02  0.00000000000E+00 0.  1.
          5    1    4    4  501    0  0.29864825277E+02 -0.38302574966E+02 -0.12490539502E+02  0.50323761931E+02  0.41800000000E+01 0.  1.
         -5    1    4    4    0  501 -0.64567628881E+02  0.49573110972E+02 -0.25595764860E+02  0.85434697925E+02  0.41800000000E+01 0.  1.
</event>
<event>
11    1  0.7157190E-009  0.1579383E+03  0.7561462E-02  0.1089033E+00
         22   -1    0    0    0    0  0.00000000000E+00  0.00000000000E+00  0.73137824274E+03  0.73137824274E+03  0.00000000000E+00 0.  1.
         22   -1    0    0    0    0 -0.00000000000E+00 -0.00000000000E+00 -0.58275044266E+03  0.58275044266E+03  0.00000000000E+00 0.  1.
        -24    2    1    2    0    0 -0.36820638874E+02 -0.90955413541E+01 -0.50093373824E+03  0.50889206768E+03  0.81228308619E+02 0.  0.
         25    2    1    2    0    0  0.69210653096E+02  0.98082201911E+02  0.33326107581E+02  0.17654475393E+03  0.12508871995E+03 0.  0.
         24    2    1    2    0    0 -0.32390014222E+02 -0.88986660557E+02  0.61623543074E+03  0.62869186379E+03  0.80867884335E+02 0.  0.
        -11    1    5    5    0    0 -0.52450051713E+02 -0.63901242380E+02  0.53478290750E+03  0.54113504309E+03  0.00000000000E+00 0.  1.
         12    1    5    5    0    0  0.20060037491E+02 -0.25085418177E+02  0.81452523235E+02  0.87556820697E+02  0.00000000000E+00 0. -1.
         11    1    3    3    0    0  0.18725229521E+01 -0.20893751427E+02 -0.32290697973E+02  0.38506419809E+02  0.00000000000E+00 0. -1.
        -12    1    3    3    0    0 -0.38693161826E+02  0.11798210072E+02 -0.46864304027E+03  0.47038564788E+03  0.00000000000E+00 0.  1.
          5    1    4    4  501    0  0.16992581458E+02  0.60710924751E+02 -0.43215107312E+02  0.76547907279E+02  0.41800000000E+01 0. -1.
         -5    1    4    4    0  501  0.52218071638E+02  0.37371277160E+02  0.76541214893E+02  0.99996846648E+02  0.41800000000E+01 0. -1.
</event>
<event>
11    1  0.7157190E-009  0.1525362E+03  0.7561462E-02  0.1094315E+00
         22   -1    0    0    0    0  0.00000000000E+00  0.00000000000E+00  0.14359921136E+04  0.14359921136E+04  0.00000000000E+00 0.  1.
         22   -1    0    0    0    0 -0.00000000000E+00 -0.00000000000E+00 -0.17449546040E+03  0.17449546040E+03  0.00000000000E+00 0.  1.
         24    2    1    2    0    0 -0.67898343379E+02 -0.52958838368E+02 -0.13940036753E+03  0.18174947729E+03  0.78648499231E+02 0.  0.
         25    2    1    2    0    0  0.10649383464E+03  0.73493363158E+02  0.74300483485E+03  0.76449120884E+03  0.12509361510E+03 0.  0.
        -24    2    1    2    0    0 -0.38595491260E+02 -0.20534524790E+02  0.65789218584E+03  0.66424688783E+03  0.80563770692E+02 0.  0.
        -11    1    3    3    0    0 -0.34775495583E+02 -0.44486069890E+02 -0.13616372442E+03  0.14740727715E+03  0.00000000000E+00 0.  1.
         12    1    3    3    0    0 -0.33122847796E+02 -0.84727684782E+01 -0.32366431088E+01  0.34342200140E+02  0.00000000000E+00 0. -1.
         13    1    5    5    0    0  0.95939518345E+01 -0.27981937153E+02  0.10151605455E+03  0.10573808231E+03  0.00000000000E+00 0. -1.
        -14    1    5    5    0    0 -0.48189443094E+02  0.74474123631E+01  0.55637613129E+03  0.55850880553E+03  0.00000000000E+00 0.  1.
          5    1    4    4  501    0  0.54370098253E+02 -0.31273161370E+02  0.26513416716E+03  0.27248434304E+03  0.41800000000E+01 0. -1.
         -5    1    4    4    0  501  0.52123736386E+02  0.10476652453E+03  0.47787066769E+03  0.49200686580E+03  0.41800000000E+01 0. -1.
</event>
<event>
11    1  0.7157190E-009  0.2094449E+03  0.7561462E-02  0.1048039E+00
         22   -1    0    0    0    0  0.00000000000E+00  0.00000000000E+00  0.13388944968E+03  0.13388944968E+03  0.00000000000E+00 0. -1.
         22   -1    0    0    0    0 -0.00000000000E+00 -0.00000000000E+00 -0.26298662415E+04  0.26298662415E+04  0.00000000000E+00 0. -1.
        -24    2    1    2    0    0 -0.59124601893E+02 -0.15358094785E+03 -0.17217480057E+04  0.17314700323E+04  0.80557132091E+02 0.  0.
         25    2    1    2    0    0  0.11620055719E+03  0.14336653915E+03 -0.85607684965E+03  0.88463224669E+03  0.12510038099E+03 0.  0.
         24    2    1    2    0    0 -0.57075955298E+02  0.10214408694E+02  0.81848063515E+02  0.14765341221E+03  0.10835324553E+03 0.  0.
        -11    1    5    5    0    0 -0.68632888321E+02  0.41516037011E+02  0.29279452646E+02  0.85389349662E+02  0.00000000000E+00 0.  1.
         12    1    5    5    0    0  0.11556933023E+02 -0.31301628317E+02  0.52568610869E+02  0.62264062547E+02  0.00000000000E+00 0. -1.
         11    1    3    3    0    0  0.10429340470E+02 -0.71712658983E+02 -0.86102487425E+03  0.86406904277E+03  0.00000000000E+00 0. -1.
        -12    1    3    3    0    0 -0.69553942363E+02 -0.81868288865E+02 -0.86072313142E+03  0.86740098950E+03  0.00000000000E+00 0.  1.
          5    1    4    4  501    0  0.97741928195E+02  0.86961949661E+02 -0.76313260148E+03  0.77427689172E+03  0.41800000000E+01 0. -1.
         -5    1    4    4    0  501  0.18458628996E+02  0.56404589494E+02 -0.92944248177E+02  0.11035535497E+03  0.41800000000E+01 0. -1.
</event>
<event>
11    1  0.7157190E-009  0.1514431E+03  0.7561462E-02  0.1095413E+00
         22   -1    0    0    0    0  0.00000000000E+00  0.00000000000E+00  0.16165152961E+04  0.16165152961E+04  0.00000000000E+00 0.  1.
         22   -1    0    0    0    0 -0.00000000000E+00 -0.00000000000E+00 -0.22785737111E+03  0.22785737111E+03  0.00000000000E+00 0.  1.
        -24    2    1    2    0    0 -0.81287561199E+02 -0.31433394463E+02 -0.15957622539E+03  0.19863963939E+03  0.79983802960E+02 0.  0.
         25    2    1    2    0    0  0.55368508871E+02  0.59800983336E+02  0.70829445170E+02  0.16526703323E+03  0.12511815450E+03 0.  0.
         24    2    1    2    0    0  0.25919052328E+02 -0.28367588873E+02  0.14774047052E+04  0.14804659946E+04  0.87053895913E+02 0.  0.
        -11    1    5    5    0    0  0.15361087534E+02 -0.56492334167E+02  0.12026024033E+04  0.12040265310E+04  0.00000000000E+00 0.  1.
         12    1    5    5    0    0  0.10557964794E+02  0.28124745294E+02  0.27480230185E+03  0.27643946357E+03  0.00000000000E+00 0. -1.
         13    1    3    3    0    0 -0.56607961365E+02 -0.27016119103E+02 -0.35536500655E+02  0.72091434027E+02  0.00000000000E+00 0. -1.
        -14    1    3    3    0    0 -0.24679599834E+02 -0.44172753598E+01 -0.12403972473E+03  0.12654820537E+03  0.00000000000E+00 0.  1.
          5    1    4    4  501    0  0.74906137748E+02 -0.80754363185E+01  0.19743324648E+02  0.77996239731E+02  0.41800000000E+01 0. -1.
         -5    1    4    4    0  501 -0.19537628877E+02  0.67876419655E+02  0.51086120522E+02  0.87270793495E+02  0.41800000000E+01 0. -1.
</event>
<event>
11    1  0.7157190E-009  0.1582562E+03  0.7561462E-02  0.1088729E+00
         22   -1    0    0    0    0  0.00000000000E+00  0.00000000000E+00  0.27063931637E+03  0.27063931637E+03  0.00000000000E+00 0. -1.
         22   -1    0    0    0    0 -0.00000000000E+00 -0.00000000000E+00 -0.76092594207E+03  0.76092594207E+03  0.00000000000E+00 0.  1.
         24    2    1    2    0    0  0.66802017698E+02  0.20515822658E+02 -0.19404481944E+03  0.22182297482E+03  0.81661690274E+02 0.  0.
         25    2    1    2    0    0 -0.12359486435E+03 -0.21464446639E+02 -0.52862395409E+03  0.55751958854E+03  0.12509354021E+03 0.  0.
        -24    2    1    2    0    0  0.56792846653E+02  0.94862398128E+00  0.23238214783E+03  0.25222269509E+03  0.79928079992E+02 0.  0.
        -13    1    3    3    0    0  0.83834257877E+02  0.50614255829E+01 -0.14306890799E+03  0.16589910565E+03  0.00000000000E+00 0.  1.
         14    1    3    3    0    0 -0.17032240179E+02  0.15454397075E+02 -0.50975911451E+02  0.55923869168E+02  0.00000000000E+00 0. -1.
         11    1    5    5    0    0  0.30393898225E+02  0.11171978293E+02  0.21814411261E+03  0.22053447806E+03  0.00000000000E+00 0. -1.
        -12    1    5    5    0    0  0.26398948428E+02 -0.10223354311E+02  0.14238035217E+02  0.31688217027E+02  0.00000000000E+00 0.  1.
          5    1    4    4  501    0 -0.10296913549E+03 -0.58206252965E+02 -0.47317432413E+03  0.48775201093E+03  0.41800000000E+01 0.  1.
         -5    1    4    4    0  501 -0.20625728857E+02  0.36741806326E+02 -0.55449629958E+02  0.69767577609E+02  0.41800000000E+01 0.  1.
</event>
<event>
11    1  0.7157190E-009  0.1444479E+03  0.7561462E-02  0.1102691E+00
         22   -1    0    0    0    0  0.00000000000E+00  0.00000000000E+00  0.79542897585E+03  0.79542897585E+03  0.00000000000E+00 0.  1.
         22   -1    0    0    0    0 -0.00000000000E+00 -0.00000000000E+00 -0.57129374759E+02  0.57129374759E+02  0.00000000000E+00 0. -1.
         24    2    1    2    0    0 -0.53408081183E+02 -0.40656845493E+02  0.77050602838E+02  0.13440638269E+03  0.87309095105E+02 0.  0.
         25    2    1    2    0    0  0.54138625068E+02  0.65424589779E+02  0.20818605969E+03  0.25729203572E+03  0.12508552483E+03 0.  0.
        -24    2    1    2    0    0 -0.73054388448E+00 -0.24767744287E+02  0.45306293857E+03  0.46085993221E+03  0.80696195439E+02 0.  0.
        -13    1    3    3    0    0  0.65305019382E+01 -0.28647764223E+02  0.66055396456E+02  0.72295624013E+02  0.00000000000E+00 0.  1.
         14    1    3    3    0    0 -0.59938583121E+02 -0.12009081269E+02  0.10995206382E+02  0.62110758673E+02  0.00000000000E+00 0. -1.
         13    1    5    5    0    0 -0.19892120676E+01  0.29322077239E+02  0.12847583674E+03  0.13179446803E+03  0.00000000000E+00 0. -1.
        -14    1    5    5    0    0  0.12586681832E+01 -0.54089821526E+02  0.32458710183E+03  0.32906546418E+03  0.00000000000E+00 0.  1.
          5    1    4    4  501    0 -0.55962502055E+01  0.53865523220E+02  0.17461623659E+02  0.57054301407E+02  0.41800000000E+01 0.  1.
         -5    1    4    4    0  501  0.59734875273E+02  0.11559066559E+02  0.19072443603E+03  0.20023773431E+03  0.41800000000E+01 0.  1.
</event>
<event>
11    1  0.7157190E-009  0.4351515E+03  0.7561462E-02  0.9551381E-01
         22   -1    0    0    0    0  0.00000000000E+00  0.00000000000E+00  0.32907814127E+03  0.32907814127E+03  0.00000000000E+00 0.  1.
         22   -1    0    0    0    0 -0.00000000000E+00 -0.00000000000E+00 -0.14929992084E+04  0.14929992084E+04  0.00000000000E+00 0.  1.
        -24    2    1    2    0    0  0.27366339273E+02  0.29800597110E+02 -0.85945790071E+03  0.86404641363E+03  0.79191727559E+02 0.  0.
         25    2    1    2    0    0 -0.53452964833E+02  0.39546221476E+03 -0.31593037397E+03  0.52412534174E+03  0.12509112642E+03 0.  0.
         24    2    1    2    0    0  0.26086625561E+02 -0.42526281187E+03  0.11467207571E+02  0.43390559427E+03  0.81324022866E+02 0.  0.
        -13    1    5    5    0    0  0.14727745868E+02 -0.14454219084E+03  0.42159478776E+02  0.15128375023E+03  0.00000000000E+00 0.  1.
         14    1    5    5    0    0  0.11358879692E+02 -0.28072062103E+03 -0.30692271205E+02  0.28262184404E+03  0.00000000000E+00 0. -1.
         11    1    3    3    0    0  0.41892382439E+01  0.29825059291E+02 -0.10503878452E+03  0.10927136007E+03  0.00000000000E+00 0. -1.
        -12    1    3    3    0    0  0.23177101029E+02 -0.24462180441E-01 -0.75441911619E+03  0.75477505356E+03  0.00000000000E+00 0.  1.
          5    1    4    4  501    0 -0.37243745719E+01  0.17552748386E+03 -0.21344595434E+03  0.27640625243E+03  0.41800000000E+01 0.  1.
         -5    1    4    4    0  501 -0.49728590262E+02  0.21993473090E+03 -0.10248441963E+03  0.24771908931E+03  0.41800000000E+01 0.  1.
</event>
<event>
11    1  0.7157190E-009  0.1458092E+03  0.7561462E-02  0.1101239E+00
         22   -1    0    0    0    0  0.00000000000E+00  0.00000000000E+00  0.49561687421E+03  0.49561687421E+03  0.00000000000E+00 0.  1.
         22   -1    0    0    0    0 -0.00000000000E+00 -0.00000000000E+00 -0.21316025455E+03  0.21316025455E+03  0.00000000000E+00 0.  1.
         24    2    1    2    0    0 -0.72620067995E+02  0.60556903329E+02 -0.11529654854E+03  0.17039088715E+03  0.82455730555E+02 0.  0.
         25    2    1    2    0    0  0.29593631206E+02 -0.66220816554E+01  0.46604432196E+01  0.12879872820E+03  0.12509099761E+03 0.  0.
        -24    2    1    2    0    0  0.43026436789E+02 -0.53934821674E+02  0.39309272498E+03  0.40958751342E+03  0.92085837486E+02 0.  0.
        -11    1    3    3    0    0 -0.60591294598E+02  0.69868250296E+02 -0.12255707944E+03  0.15353538713E+03  0.00000000000E+00 0.  1.
         12    1    3    3    0    0 -0.12028773398E+02 -0.93113469665E+01  0.72605309030E+01  0.16855500016E+02  0.00000000000E+00 0. -1.
         11    1    5    5    0    0  0.75437497470E+01  0.13421145439E+01 -0.28935321411E+01  0.81903577422E+01  0.00000000000E+00 0. -1.
        -12    1    5    5    0    0  0.35482687042E+02 -0.55276936218E+02  0.39598625712E+03  0.40139715567E+03  0.00000000000E+00 0.  1.
          5    1    4    4  501    0  0.16076081068E+01  0.96257144881E+01  0.61958382748E+02  0.62861374277E+02  0.41800000000E+01 0. -1.
         -5    1    4    4    0  501  0.27986023099E+02 -0.16247796143E+02 -0.57297939528E+02  0.65937353925E+02  0.41800000000E+01 0. -1.
</event>
<event>
11    1  0.7157190E-009  0.2029824E+03  0.7561462E-02  0.1052434E+00
         22   -1    0    0    0    0  0.00000000000E+00  0.00000000000E+00  0.81079777108E+03  0.81079777108E+03  0.00000000000E+00 0. -1.
         22   -1    0    0    0    0 -0.00000000000E+00 -0.00000000000E+00 -0.22122638512E+03  0.22122638512E+03  0.00000000000E+00 0. -1.
        -24    2    1    2    0    0 -0.13974775694E+03 -0.21889891576E+02 -0.10664811239E+03  0.19522634789E+03  0.82042087443E+02 0.  0.
         25    2    1    2    0    0  0.11904929588E+03 -0.14257538159E+03  0.17694564354E+03  0.28540703387E+03  0.12508772894E+03 0.  0.
         24    2    1    2    0    0  0.20698461052E+02  0.16446527316E+03  0.51927385480E+03  0.55139077444E+03  0.83121582545E+02 0.  0.
        -13    1    5    5    0    0 -0.24396263663E+02  0.60262708181E+02  0.12240135941E+03  0.13859604779E+03  0.00000000000E+00 0.  1.
         14    1    5    5    0    0  0.45094724715E+02  0.10420256498E+03  0.39687249539E+03  0.41279472665E+03  0.00000000000E+00 0. -1.
         13    1    3    3    0    0 -0.20516211093E+02  0.22269340811E+02 -0.44187273066E+02  0.53566347260E+02  0.00000000000E+00 0. -1.
        -14    1    3    3    0    0 -0.11923154584E+03 -0.44159232387E+02 -0.62460839321E+02  0.14166000063E+03  0.00000000000E+00 0.  1.
          5    1    4    4  501    0 -0.32940712354E+01 -0.84770956508E+02  0.93773652864E+02  0.12652247367E+03  0.41800000000E+01 0. -1.
         -5    1    4    4    0  501  0.12234336712E+03 -0.57804425080E+02  0.83171990678E+02  0.15888456020E+03  0.41800000000E+01 0. -1.
</event>
<event>
11    1  0.7157190E-009  0.1408194E+03  0.7561462E-02  0.1106647E+00
         22   -1    0    0    0    0  0.00000000000E+00  0.00000000000E+00  0.13582587732E+04  0.13582587732E+04  0.00000000000E+00 0. -1.
         22   -1    0    0    0    0 -0.00000000000E+00 -0.00000000000E+00 -0.59252046627E+02  0.59252046627E+02  0.00000000000E+00 0.  1.
        -24    2    1    2    0    0 -0.60151676326E+01 -0.20947233628E+02  0.24070535679E+02  0.87625484642E+02  0.81387136776E+02 0.  0.
         25    2    1    2    0    0 -0.38110049676E+02 -0.28699504070E+02  0.15387080149E+03  0.20395566920E+03  0.12508258883E+03 0.  0.
         24    2    1    2    0    0  0.44125217309E+02  0.49646737698E+02  0.11210653894E+04  0.11259296659E+04  0.80735197126E+02 0.  0.
        -13    1    5    5    0    0  0.52375940193E+02  0.30612853296E+01  0.41899048875E+03  0.42226252527E+03  0.00000000000E+00 0.  1.
         14    1    5    5    0    0 -0.82507228843E+01  0.46585452369E+02  0.70207490061E+03  0.70366714067E+03  0.00000000000E+00 0. -1.
         13    1    3    3    0    0 -0.37380955746E+01 -0.35058813314E+01  0.53281602537E+02  0.53527504437E+02  0.00000000000E+00 0. -1.
        -14    1    3    3    0    0 -0.22770720579E+01 -0.17441352297E+02 -0.29211066857E+02  0.34097980205E+02  0.00000000000E+00 0.  1.
          5    1    4    4  501    0  0.30125802176E+02 -0.26236798524E+02  0.54586120701E+01  0.40536432986E+02  0.41800000000E+01 0.  1.
         -5    1    4    4    0  501 -0.68235851852E+02 -0.24627055460E+01  0.14841218942E+03  0.16341923621E+03  0.41800000000E+01 0.  1.
</event>
<event>
11    1  0.7157190E-009  0.2522116E+03  0.7561462E-02  0.1022728E+00
         22   -1    0    0    0    0  0.00000000000E+00  0.00000000000E+00  0.65732354987E+03  0.65732354987E+03  0.00000000000E+00 0. -1.
         22   -1    0    0    0    0 -0.00000000000E+00 -0.00000000000E+00 -0.18017577674E+04  0.18017577674E+04  0.00000000000E+00 0. -1.
        -24    2    1    2    0    0  0.14789846274E+03 -0.12953212454E+03 -0.10320139117E+04  0.10521227058E+04  0.57069672627E+02 0.  0.
         25    2    1    2    0    0 -0.17686205549E+03  0.24968456818E+03 -0.71454098401E+03  0.78729790734E+03  0.12508639737E+03 0.  0.
         24    2    1    2    0    0  0.28963592751E+02 -0.12015244364E+03  0.60212067818E+03  0.61966070415E+03  0.78451116963E+02 0.  0.
        -13    1    5    5    0    0  0.39961201640E+01 -0.60211426862E+02  0.13277189930E+03  0.14584156522E+03  0.00000000000E+00 0.  1.
         14    1    5    5    0    0  0.24967472587E+02 -0.59941016782E+02  0.46934877888E+03  0.47381913893E+03  0.00000000000E+00 0. -1.
         13    1    3    3    0    0  0.10522274537E+03 -0.12199912641E+03 -0.79016097766E+03  0.80641799559E+03  0.00000000000E+00 0. -1.
        -14    1    3    3    0    0  0.42675717371E+02 -0.75329981256E+01 -0.24185293408E+03  0.24570471025E+03  0.00000000000E+00 0.  1.
          5    1    4    4  501    0 -0.14249162262E+03  0.25447715175E+03 -0.66953317779E+03  0.73031132528E+03  0.41800000000E+01 0. -1.
         -5    1    4    4    0  501 -0.34370432872E+02 -0.47925835714E+01 -0.45007806229E+02  0.56986582058E+02  0.41800000000E+01 0. -1.
</event>
<event>
11    1  0.7157190E-009  0.1304611E+03  0.7561462E-02  0.1118704E+00
         22   -1    0    0    0    0  0.00000000000E+00  0.00000000000E+00  0.48772484154E+03  0.48772484154E+03  0.00000000000E+00 0. -1.
         22   -1    0    0    0    0 -0.00000000000E+00 -0.00000000000E+00 -0.82979536736E+03  0.82979536736E+03  0.00000000000E+00 0.  1.
         24    2    1    2    0    0  0.37104612391E+02 -0.13295733109E+02 -0.73266585637E+03  0.73834404879E+03  0.82456949436E+02 0.  0.
         25    2    1    2    0    0 -0.77441100006E+01 -0.19350458730E+02 -0.44715090803E+02  0.13444300904E+03  0.12506427084E+03 0.  0.
        -24    2    1    2    0    0 -0.29360502390E+02  0.32646191840E+02  0.43531042135E+03  0.44473315108E+03  0.79778441857E+02 0.  0.
        -13    1    3    3    0    0 -0.46422680632E+01 -0.39658484269E+02 -0.40741323358E+03  0.40936522681E+03  0.00000000000E+00 0.  1.
         14    1    3    3    0    0  0.41746880454E+02  0.26362751160E+02 -0.32525262280E+03  0.32897882198E+03  0.00000000000E+00 0. -1.
         13    1    5    5    0    0 -0.56801290579E+01 -0.35958663376E+01  0.33982828922E+03  0.33989477824E+03  0.00000000000E+00 0. -1.
        -14    1    5    5    0    0 -0.23680373333E+02  0.36242058177E+02  0.95482132130E+02  0.10483837283E+03  0.00000000000E+00 0.  1.
          5    1    4    4  501    0  0.49297944354E+02 -0.15936733242E+02  0.12511374242E+02  0.53462825116E+02  0.41800000000E+01 0. -1.
         -5    1    4    4    0  501 -0.57042054354E+02 -0.34137254878E+01 -0.57226465045E+02  0.80980183923E+02  0.41800000000E+01 0. -1.
</event>
<event>
11    1  0.7157190E-009  0.2989991E+03  0.7561462E-02  0.1000616E+00
         22   -1    0    0    0    0  0.00000000000E+00  0.00000000000E+00  0.23387510557E+03  0.23387510557E+03  0.00000000000E+00 0. -1.
         22   -1    0    0    0    0 -0.00000000000E+00 -0.00000000000E+00 -0.75855219951E+03  0.75855219951E+03  0.00000000000E+00 0.  1.
        -24    2    1    2    0    0  0.25286377052E+01 -0.21140123617E+02 -0.22501075485E+03  0.24013071542E+03  0.81114868282E+02 0.  0.
         25    2    1    2    0    0  0.11917351462E+03 -0.22663080157E+03 -0.35911917425E+03  0.45845157834E+03  0.12508965409E+03 0.  0.
         24    2    1    2    0    0 -0.12170215233E+03  0.24777092519E+03  0.59452835156E+02  0.29384501133E+03  0.81292101853E+02 0.  0.
        -11    1    5    5    0    0 -0.84216334538E+02  0.21252089719E+03  0.20908261324E+02  0.22955321418E+03  0.00000000000E+00 0.  1.
         12    1    5    5    0    0 -0.37485817787E+02  0.35250027994E+02  0.38544573832E+02  0.64291797150E+02  0.00000000000E+00 0. -1.
         13    1    3    3    0    0  0.37504108408E+02 -0.29576716896E+02 -0.12192139118E+03  0.13094336928E+03  0.00000000000E+00 0. -1.
        -14    1    3    3    0    0 -0.34975470703E+02  0.84365932794E+01 -0.10308936367E+03  0.10918734615E+03  0.00000000000E+00 0.  1.
          5    1    4    4  501    0  0.21570010405E+02 -0.36026963670E+02 -0.22683642575E+01  0.42259026687E+02  0.41800000000E+01 0.  1.
         -5    1    4    4    0  501  0.97603504215E+02 -0.19060383790E+03 -0.35685080999E+03  0.41619255165E+03  0.41800000000E+01 0.  1.
</event>
<event>
11    1  0.7157190E-009  0.1550785E+03  0.7561462E-02  0.1091800E+00
         22   -1    0    0    0    0  0.00000000000E+00  0.00000000000E+00  0.98871699867E+03  0.98871699867E+03  0.00000000000E+00 0. -1.
         22   -1    0    0    0    0 -0.00000000000E+00 -0.00000000000E+00 -0.15440828816E+04  0.15440828816E+04  0.00000000000E+00 0.  1.
         24    2    1    2    0    0  0.39815742154E+02 -0.46231294652E+02 -0.14987246971E+04  0.15020928179E+04  0.79903003397E+02 0.  0.
         25    2    1    2    0    0 -0.64303597909E+02  0.12837781976E+03  0.19314950924E+03  0.27123887745E+03  0.12509187987E+03 0.  0.
        -24    2    1    2    0    0  0.24487855755E+02 -0.82146525105E+02  0.75020930490E+03  0.75946818497E+03  0.81426139234E+02 0.  0.
        -11    1    3    3    0    0  0.59099675178E+02 -0.15534179397E+02 -0.11102333891E+04  0.11119137829E+04  0.00000000000E+00 0.  1.
         12    1    3    3    0    0 -0.19283933024E+02 -0.30697115255E+02 -0.38849130799E+03  0.39017903498E+03  0.00000000000E+00 0. -1.
         13    1    5    5    0    0 -0.29297245057E+02 -0.33902584606E+02  0.34070568145E+03  0.34363945522E+03  0.00000000000E+00 0. -1.
        -14    1    5    5    0    0  0.53785100812E+02 -0.48243940499E+02  0.40950362345E+03  0.41582872975E+03  0.00000000000E+00 0.  1.
          5    1    4    4  501    0  0.22951157975E+02  0.68255835061E+02  0.12758024140E+03  0.14655990267E+03  0.41800000000E+01 0. -1.
         -5    1    4    4    0  501 -0.87254755884E+02  0.60121984695E+02  0.65569267832E+02  0.12467897478E+03  0.41800000000E+01 0. -1.
</event>
<event>
11    1  0.7157190E-009  0.1424863E+03  0.7561462E-02  0.1104813E+00
         22   -1    0    0    0    0  0.00000000000E+00  0.00000000000E+00  0.25559968573E+04  0.25559968573E+04  0.00000000000E+00 0. -1.
         22   -1    0    0    0    0 -0.00000000000E+00 -0.00000000000E+00 -0.19824829069E+03  0.19824829069E+03  0.00000000000E+00 0. -1.
        -24    2    1    2    0    0 -0.64990917861E+01 -0.28643254854E+02 -0.14765462270E+03  0.17078730023E+03  0.80645769088E+02 0.  0.
         25    2    1    2    0    0 -0.56883713298E+02  0.20338565373E+01  0.86949350524E+02  0.16262741395E+03  0.12509033855E+03 0.  0.
         24    2    1    2    0    0  0.63382805084E+02  0.26609398317E+02  0.24184538388E+04  0.24208304339E+04  0.82313904768E+02 0.  0.
        -13    1    5    5    0    0 -0.18385422688E+02 -0.53533448485E+01  0.36781186690E+03  0.36830999376E+03  0.00000000000E+00 0.  1.
         14    1    5    5    0    0  0.81768227772E+02  0.31962743165E+02  0.20506419719E+04  0.20525204401E+04  0.00000000000E+00 0. -1.
         13    1    3    3    0    0  0.49771537062E+00 -0.83633817509E+01 -0.14905352110E+03  0.14928880074E+03  0.00000000000E+00 0. -1.
        -14    1    3    3    0    0 -0.69968071567E+01 -0.20279873103E+02  0.13988983979E+01  0.21498499487E+02  0.00000000000E+00 0.  1.
          5    1    4    4  501    0 -0.32153205909E+02  0.32344345537E+02  0.10849988687E+03  0.11776961913E+03  0.41800000000E+01 0. -1.
         -5    1    4    4    0  501 -0.24730507390E+02 -0.30310488999E+02 -0.21550536348E+02  0.44857794819E+02  0.41800000000E+01 0. -1.
</event>
<event>
11    1  0.7157190E-009  0.1613177E+03  0.7561462E-02  0.1085844E+00
         22   -1    0    0    0    0  0.00000000000E+00  0.00000000000E+00  0.77593975217E+03  0.77593975217E+03  0.00000000000E+00 0. -1.
         22   -1    0    0    0    0 -0.00000000000E+00 -0.00000000000E+00 -0.20696884171E+04  0.20696884171E+04  0.00000000000E+00 0.  1.
        -24    2    1    2    0    0 -0.13784083756E+02 -0.42560698530E+02 -0.19555719339E+04  0.19577670083E+04  0.81170536689E+02 0.  0.
         25    2    1    2    0    0 -0.18051371006E+02  0.13731325670E+03 -0.25756219840E+02  0.18839452488E+03  0.12509329191E+03 0.  0.
         24    2    1    2    0    0  0.31835454762E+02 -0.94752558175E+02  0.68757948890E+03  0.69946663601E+03  0.80600731236E+02 0.  0.
        -13    1    5    5    0    0 -0.99367363896E+01 -0.28039641889E+02  0.59994700982E+02  0.66965098322E+02  0.00000000000E+00 0.  1.
         14    1    5    5    0    0  0.41772191152E+02 -0.66712916286E+02  0.62758478792E+03  0.63250153769E+03  0.00000000000E+00 0. -1.
         11    1    3    3    0    0 -0.27481137668E+01  0.24433436016E+02 -0.46529995459E+03  0.46594913099E+03  0.00000000000E+00 0. -1.
        -12    1    3    3    0    0 -0.11035969989E+02 -0.66994134546E+02 -0.14902719794E+04  0.14918178773E+04  0.00000000000E+00 0.  1.
          5    1    4    4  501    0  0.17378064714E+02  0.14755358240E+03 -0.13220739206E+02  0.14921902411E+03  0.41800000000E+01 0.  1.
         -5    1    4    4    0  501 -0.35429435720E+02 -0.10240325692E+02 -0.12535480634E+02  0.39175500768E+02  0.41800000000E+01 0.  1.
</event>
<event>
11    1  0.7157190E-009  0.1377598E+03  0.7561462E-02  0.1110086E+00
         22   -1    0    0    0    0  0.00000000000E+00  0.00000000000E+00  0.13619412158E+04  0.13619412158E+04  0.00000000000E+00 0. -1.
         22   -1    0    0    0    0 -0.00000000000E+00 -0.00000000000E+00 -0.34566228290E+03  0.34566228290E+03  0.00000000000E+00 0.  1.
        -24    2    1    2    0    0  0.58976550850E+02 -0.15003786178E+02 -0.30766543536E+03  0.32382281727E+03  0.80621645465E+02 0.  0.
         25    2    1    2    0    0 -0.17448165246E+01  0.39596822315E+01  0.11258038052E+03  0.16835258481E+03  0.12509807060E+03 0.  0.
         24    2    1    2    0    0 -0.57231734326E+02  0.11044103946E+02  0.12113639877E+04  0.12154280966E+04  0.80407111629E+02 0.  0.
        -13    1    5    5    0    0 -0.49187508527E+02 -0.15332274768E+02  0.36536153194E+03  0.36897633890E+03  0.00000000000E+00 0.  1.
         14    1    5    5    0    0 -0.80442257989E+01  0.26376378714E+02  0.84600245577E+03  0.84645175768E+03  0.00000000000E+00 0. -1.
         13    1    3    3    0    0  0.55696374242E+02  0.35440746659E+01 -0.93928522390E+02  0.10925755758E+03  0.00000000000E+00 0. -1.
        -14    1    3    3    0    0  0.32801766080E+01 -0.18547860843E+02 -0.21373691297E+03  0.21456525969E+03  0.00000000000E+00 0.  1.
          5    1    4    4  501    0 -0.44563880349E+02 -0.34232141083E+02  0.90749340764E+02  0.10682085079E+03  0.41800000000E+01 0. -1.
         -5    1    4    4    0  501  0.42819063824E+02  0.38191823315E+02  0.21831039754E+02  0.61531734021E+02  0.41800000000E+01 0. -1.
</event>
<event>
11    1  0.7157190E-009  0.2940100E+03  0.7561462E-02  0.1002759E+00
         22   -1    0    0    0    0  0.00000000000E+00  0.00000000000E+00  0.84573099568E+03  0.84573099568E+03  0.00000000000E+00 0. -1.
         22   -1    0    0    0    0 -0.00000000000E+00 -0.00000000000E+00 -0.10718899895E+04  0.10718899895E+04  0.00000000000E+00 0. -1.
         24    2    1    2    0    0  0.16170416196E+03  0.23805877026E+02 -0.79828651332E+03  0.81881181301E+03  0.80476530796E+02 0.  0.
         25    2    1    2    0    0  0.10717258171E+03 -0.10564750513E+03 -0.19597617934E+03  0.27695148833E+03  0.12509239149E+03 0.  0.
        -24    2    1    2    0    0 -0.26887674366E+03  0.81841628106E+02  0.76810369882E+03  0.82185768385E+03  0.80461201802E+02 0.  0.
        -11    1    3    3    0    0  0.15018961739E+03  0.11955501766E+02 -0.55876821373E+03  0.57872426239E+03  0.00000000000E+00 0.  1.
         12    1    3    3    0    0  0.11514544564E+02  0.11850375260E+02 -0.23951829958E+03  0.24008755063E+03  0.00000000000E+00 0. -1.
         11    1    5    5    0    0 -0.27358317159E+03  0.75105857382E+02  0.75284080900E+03  0.80452341500E+03  0.00000000000E+00 0. -1.
        -12    1    5    5    0    0  0.47064279226E+01  0.67357707236E+01  0.15262889814E+02  0.17334268848E+02  0.00000000000E+00 0.  1.
          5    1    4    4  501    0  0.24543745636E+02  0.12419878859E+02  0.63271748952E+01  0.28533390665E+02  0.41800000000E+01 0. -1.
         -5    1    4    4    0  501  0.82628836071E+02 -0.11806738399E+03 -0.20230335424E+03  0.24841809767E+03  0.41800000000E+01 0. -1.
</event>
<event>
11    1  0.7157190E-009  0.1614218E+03  0.7561462E-02  0.1085748E+00
         22   -1    0    0    0    0  0.00000000000E+00  0.00000000000E+00  0.39137994956E+03  0.39137994956E+03  0.00000000000E+00 0. -1.
         22   -1    0    0    0    0 -0.00000000000E+00 -0.00000000000E+00 -0.26290687187E+04  0.26290687187E+04  0.00000000000E+00 0.  1.
        -24    2    1    2    0    0 -0.61737778502E+02  0.82320801261E+02 -0.23825815520E+04  0.23860400916E+04  0.76838788650E+02 0.  0.
         25    2    1    2    0    0  0.10021024315E+03 -0.33288323973E+02 -0.20933038245E+03  0.26573879714E+03  0.12509074284E+03 0.  0.
         24    2    1    2    0    0 -0.38472464649E+02 -0.49032477289E+02  0.35422316532E+03  0.36866977945E+03  0.80987906899E+02 0.  0.
        -11    1    5    5    0    0  0.12558522900E+02  0.20241990018E+01  0.80580673082E+01  0.15058098412E+02  0.00000000000E+00 0.  1.
         12    1    5    5    0    0 -0.51030987549E+02 -0.51056676291E+02  0.34616509802E+03  0.35361168104E+03  0.00000000000E+00 0. -1.
         13    1    3    3    0    0  0.78346621150E+01 -0.89836744488E+01 -0.36600246133E+03  0.36619651833E+03  0.00000000000E+00 0. -1.
        -14    1    3    3    0    0 -0.69572440617E+02  0.91304475710E+02 -0.20165790907E+04  0.20198435733E+04  0.00000000000E+00 0.  1.
          5    1    4    4  501    0  0.13035561071E+02  0.20364511140E+02 -0.13976996588E+03  0.14190755768E+03  0.41800000000E+01 0. -1.
         -5    1    4    4    0  501  0.87174682079E+02 -0.53652835112E+02 -0.69560416568E+02  0.12383123945E+03  0.41800000000E+01 0. -1.
</event>
<event>
11    1  0.7157190E-009  0.2487827E+03  0.7561462E-02  0.1024550E+00
         22   -1    0    0    0    0  0.00000000000E+00  0.00000000000E+00  0.29380654045E+03  0.29380654045E+03  0.00000000000E+00 0.  1.
         22   -1    0    0    0    0 -0.00000000000E+00 -0.00000000000E+00 -0.99559449237E+03  0.99559449237E+03  0.00000000000E+00 0. -1.
         24    2    1    2    0    0  0.15976228427E+03  0.13244667040E+03 -0.73463831938E+03  0.76747385993E+03  0.79098403262E+02 0.  0.
         25    2    1    2    0    0 -0.17852511590E+03 -0.18404476170E+03 -0.14455956883E+03  0.31982858841E+03  0.12509662548E+03 0.  0.
        -24    2    1    2    0    0  0.18762831629E+02  0.51598091303E+02  0.17740993629E+03  0.20209858448E+03  0.79719166313E+02 0.  0.
        -11    1    3    3    0    0  0.11006336323E+03  0.69581758006E+02 -0.32584143865E+03  0.35089629254E+03  0.00000000000E+00 0.  1.
         12    1    3    3    0    0  0.49698921042E+02  0.62864912395E+02 -0.40879688073E+03  0.41657756739E+03  0.00000000000E+00 0. -1.
         11    1    5    5    0    0  0.45666650893E+00 -0.20993746474E+02  0.51448344355E+02  0.55568678877E+02  0.00000000000E+00 0. -1.
        -12    1    5    5    0    0  0.18306165120E+02  0.72591837777E+02  0.12596159194E+03  0.14652990560E+03  0.00000000000E+00 0.  1.
          5    1    4    4  501    0 -0.12016356225E+03 -0.44203681002E+02 -0.97872890491E+02  0.16121359186E+03  0.41800000000E+01 0.  1.
         -5    1    4    4    0  501 -0.58361553648E+02 -0.13984108070E+03 -0.46686678336E+02  0.15861499655E+03  0.41800000000E+01 0.  1.
</event>
<event>
11    1  0.8467360E-009  0.1981624E+03  0.7561462E-02  0.1055831E+00
         22   -1    0    0    0    0  0.00000000000E+00  0.00000000000E+00  0.23265024903E+03  0.23265024903E+03  0.00000000000E+00 0. -1.
         22   -1    0    0    0    0 -0.00000000000E+00 -0.00000000000E+00 -0.81406998401E+03  0.81406998401E+03  0.00000000000E+00 0.  1.
        -24    2    1    2    0    0 -0.91632907535E+01  0.57809473698E+02 -0.35130970905E+03  0.36524599866E+03  0.80995226517E+02 0.  0.
         25    2    1    2    0    0  0.14163944126E+03  0.23554588744E+02 -0.39668638884E+03  0.44002845411E+03  0.12509356245E+03 0.  0.
         24    2    1    2    0    0 -0.13247615051E+03 -0.81364062442E+02  0.16657636291E+03  0.24144578027E+03  0.79864504138E+02 0.  0.
        -13    1    5    5    0    0  0.65033762421E+01  0.35427525994E+01 -0.13354294359E+01  0.75251824101E+01  0.00000000000E+00 0.  1.
         14    1    5    5    0    0 -0.13897952675E+03 -0.84906815042E+02  0.16791179234E+03  0.23392059786E+03  0.00000000000E+00 0. -1.
         13    1    3    3    0    0  0.28477807774E+02  0.12963757795E+02 -0.55635852870E+02  0.63830969571E+02  0.00000000000E+00 0. -1.
        -14    1    3    3    0    0 -0.37641098528E+02  0.44845715903E+02 -0.29567385618E+03  0.30141502909E+03  0.00000000000E+00 0.  1.
          5    1    4    4  501    0  0.46125500968E+02  0.26552880267E+02 -0.30349831102E+02  0.61410112669E+02  0.41800000000E+01 0.  1.
         -5    1    4    4    0  501  0.95513940296E+02 -0.29982915229E+01 -0.36633655773E+03  0.37861834144E+03  0.41800000000E+01 0.  1.
</event>
<event>
11    1  0.7157190E-009  0.2537732E+03  0.7561462E-02  0.1021908E+00
         22   -1    0    0    0    0  0.00000000000E+00  0.00000000000E+00  0.30907286994E+03  0.30907286994E+03  0.00000000000E+00 0. -1.
         22   -1    0    0    0    0 -0.00000000000E+00 -0.00000000000E+00 -0.95329980833E+03  0.95329980833E+03  0.00000000000E+00 0. -1.
        -24    2    1    2    0    0  0.15509502205E+03 -0.15159614990E+03 -0.68920263141E+03  0.72699895732E+03  0.80568965895E+02 0.  0.
         25    2    1    2    0    0 -0.78314955903E+02  0.25785247421E+03 -0.11041527530E+03  0.31696557691E+03  0.12511799691E+03 0.  0.
         24    2    1    2    0    0 -0.76780066152E+02 -0.10625632432E+03  0.15539096832E+03  0.21840814404E+03  0.79813403219E+02 0.  0.
        -13    1    5    5    0    0 -0.55765781350E+02 -0.17477186686E+02  0.37895592600E+02  0.69651635749E+02  0.00000000000E+00 0.  1.
         14    1    5    5    0    0 -0.21014284802E+02 -0.88779137632E+02  0.11749537572E+03  0.14875650830E+03  0.00000000000E+00 0. -1.
         11    1    3    3    0    0  0.14286372049E+03 -0.14668702946E+03 -0.68179778022E+03  0.71188154938E+03  0.00000000000E+00 0. -1.
        -12    1    3    3    0    0  0.12231301565E+02 -0.49091204411E+01 -0.74048511978E+01  0.15117407937E+02  0.00000000000E+00 0.  1.
          5    1    4    4  501    0  0.33869549110E+02  0.45099235545E+02 -0.21374847546E+02  0.60460267211E+02  0.41800000000E+01 0.  1.
         -5    1    4    4    0  501 -0.11218450501E+03  0.21275323867E+03 -0.89040427752E+02  0.25650530970E+03  0.41800000000E+01 0.  1.
</event>
<event>
11    1  0.7157190E-009  0.1595377E+03  0.7561462E-02  0.1087513E+00
         22   -1    0    0    0    0  0.00000000000E+00  0.00000000000E+00  0.20946958538E+03  0.20946958538E+03  0.00000000000E+00 0.  1.
         22   -1    0    0    0    0 -0.00000000000E+00 -0.00000000000E+00 -0.60119961012E+03  0.60119961012E+03  0.00000000000E+00 0. -1.
        -24    2    1    2    0    0 -0.33511698731E+02 -0.91865165811E+02 -0.32146590520E+03  0.34596368775E+03  0.82391154834E+02 0.  0.
         25    2    1    2    0    0  0.86776508380E+02  0.71367017329E+02 -0.22496851523E+03  0.28085861251E+03  0.12508922339E+03 0.  0.
         24    2    1    2    0    0 -0.53264809649E+02  0.20498148483E+02  0.15470439569E+03  0.18384689524E+03  0.81295244670E+02 0.  0.
        -11    1    5    5    0    0 -0.65107488879E+02  0.37236014158E+02  0.13927320341E+03  0.15818511639E+03  0.00000000000E+00 0.  1.
         12    1    5    5    0    0  0.11842679230E+02 -0.16737865675E+02  0.15431192275E+02  0.25661778850E+02  0.00000000000E+00 0. -1.
         11    1    3    3    0    0 -0.48440056473E+02 -0.94126516395E+02 -0.30817081869E+03  0.32584581270E+03  0.00000000000E+00 0. -1.
        -12    1    3    3    0    0  0.14928357742E+02  0.22613505840E+01 -0.13295086506E+02  0.20117875051E+02  0.00000000000E+00 0.  1.
          5    1    4    4  501    0  0.11285685074E+03  0.26809857713E+02 -0.14808504407E+03  0.18815443100E+03  0.41800000000E+01 0. -1.
         -5    1    4    4    0  501 -0.26080342362E+02  0.44557159616E+02 -0.76883471166E+02  0.92704181509E+02  0.41800000000E+01 0. -1.
</event>
<event>
11    1  0.7157190E-009  0.1545343E+03  0.7561462E-02  0.1092334E+00
         22   -1    0    0    0    0  0.00000000000E+00  0.00000000000E+00  0.24148434964E+04  0.24148434964E+04  0.00000000000E+00 0.  1.
         22   -1    0    0    0    0 -0.00000000000E+00 -0.00000000000E+00 -0.16214346643E+04  0.16214346643E+04  0.00000000000E+00 0. -1.
        -24    2    1    2    0    0  0.28645294813E+01 -0.90828385525E+02 -0.15061130387E+04  0.15109140237E+04  0.78909444600E+02 0.  0.
         25    2    1    2    0    0  0.57437406496E+02  0.87551681350E+02 -0.52386753526E+02  0.17135509569E+03  0.12511532401E+03 0.  0.
         24    2    1    2    0    0 -0.60301935977E+02  0.32767041749E+01  0.23519086244E+04  0.23540090412E+04  0.78976759129E+02 0.  0.
        -13    1    5    5    0    0 -0.57229610880E+02  0.35054548930E+02  0.14941305483E+04  0.14956370366E+04  0.00000000000E+00 0.  1.
         14    1    5    5    0    0 -0.30723250970E+01 -0.31777844755E+02  0.85777807605E+03  0.85837200464E+03  0.00000000000E+00 0. -1.
         13    1    3    3    0    0 -0.24162980101E+02 -0.88366956496E+02 -0.12548313204E+04  0.12581709786E+04  0.00000000000E+00 0. -1.
        -14    1    3    3    0    0  0.27027509582E+02 -0.24614290293E+01 -0.25128171833E+03  0.25274304515E+03  0.00000000000E+00 0.  1.
          5    1    4    4  501    0 -0.91242365550E+01 -0.87973977614E+01  0.26792301003E+02  0.29932351948E+02  0.41800000000E+01 0.  1.
         -5    1    4    4    0  501  0.66561643051E+02  0.96349079112E+02 -0.79179054529E+02  0.14142274374E+03  0.41800000000E+01 0.  1.
</event>
<event>
11    1  0.7157190E-009  0.1653105E+03  0.7561462E-02  0.1082186E+00
         22   -1    0    0    0    0  0.00000000000E+00  0.00000000000E+00  0.11275271956E+04  0.11275271956E+04  0.00000000000E+00 0.  1.
         22   -1    0    0    0    0 -0.00000000000E+00 -0.00000000000E+00 -0.43177823719E+03  0.43177823719E+03  0.00000000000E+00 0.  1.
        -24    2    1    2    0    0  0.35885938975E+02 -0.10078891563E+03 -0.39089122617E+03  0.41326821350E+03  0.80922552261E+02 0.  0.
         25    2    1    2    0    0 -0.67166277050E+02  0.12492452031E+03  0.30410581140E+03  0.35811320321E+03  0.12508907722E+03 0.  0.
         24    2    1    2    0    0  0.31280338075E+02 -0.24135604673E+02  0.78253437321E+03  0.78792401610E+03  0.83085636102E+02 0.  0.
        -11    1    5    5    0    0  0.27631024359E+02 -0.15377848978E+02  0.77542187265E+03  0.77606638397E+03  0.00000000000E+00 0.  1.
         12    1    5    5    0    0  0.36493137167E+01 -0.87577556950E+01  0.71125005569E+01  0.11857632124E+02  0.00000000000E+00 0. -1.
         11    1    3    3    0    0 -0.17851492684E+02 -0.34010920057E+02 -0.20499365598E+03  0.20856130386E+03  0.00000000000E+00 0. -1.
        -12    1    3    3    0    0  0.53737431659E+02 -0.66777995577E+02 -0.18589757019E+03  0.20470690965E+03  0.00000000000E+00 0.  1.
          5    1    4    4  501    0 -0.56260661555E+02  0.11940856309E+02  0.18390973354E+03  0.19273844603E+03  0.41800000000E+01 0.  1.
         -5    1    4    4    0  501 -0.10905615496E+02  0.11298366400E+03  0.12019607787E+03  0.16537475718E+03  0.41800000000E+01 0.  1.
</event>
<event>
11    1  0.7157190E-009  0.1342072E+03  0.7561462E-02  0.1114205E+00
         22   -1    0    0    0    0  0.00000000000E+00  0.00000000000E+00  0.84918414478E+03  0.84918414478E+03  0.00000000000E+00 0.  1.
         22   -1    0    0    0    0 -0.00000000000E+00 -0.00000000000E+00 -0.44322997977E+03  0.44322997977E+03  0.00000000000E+00 0. -1.
         24    2    1    2    0    0  0.17541418139E+02 -0.71819433907E+01 -0.41075905688E+03  0.41861317163E+03  0.78451915147E+02 0.  0.
         25    2    1    2    0    0  0.75320087234E+00 -0.39569960190E+02  0.14740240794E+03  0.19734180894E+03  0.12509984264E+03 0.  0.
        -24    2    1    2    0    0 -0.18294619012E+02  0.46751903581E+02  0.66931081396E+03  0.67645914398E+03  0.84258971130E+02 0.  0.
        -11    1    3    3    0    0  0.71853428931E+01  0.27915115108E+02 -0.67339244029E+02  0.73249277063E+02  0.00000000000E+00 0.  1.
         12    1    3    3    0    0  0.10356075246E+02 -0.35097058499E+02 -0.34341981285E+03  0.34536389457E+03  0.00000000000E+00 0. -1.
         13    1    5    5    0    0  0.10867383615E+02  0.61847052917E+02  0.36278437234E+03  0.36817884077E+03  0.00000000000E+00 0. -1.
        -14    1    5    5    0    0 -0.29162002626E+02 -0.15095149336E+02  0.30652644162E+03  0.30828030321E+03  0.00000000000E+00 0.  1.
          5    1    4    4  501    0  0.37302916467E+02  0.26290489626E+02  0.95039150287E+02  0.10551118381E+03  0.41800000000E+01 0.  1.
         -5    1    4    4    0  501 -0.36549715595E+02 -0.65860449817E+02  0.52363257650E+02  0.91830625130E+02  0.41800000000E+01 0.  1.
</event>
<event>
11    1  0.7157190E-009  0.1447617E+03  0.7561462E-02  0.1102355E+00
         22   -1    0    0    0    0  0.00000000000E+00  0.00000000000E+00  0.11980975079E+03  0.11980975079E+03  0.00000000000E+00 0. -1.
         22   -1    0    0    0    0 -0.00000000000E+00 -0.00000000000E+00 -0.62535676426E+03  0.62535676426E+03  0.00000000000E+00 0. -1.
         24    2    1    2    0    0  0.49758766235E+02  0.50822632530E+02 -0.44710921323E+03  0.45947005712E+03  0.78404145545E+02 0.  0.
         25    2    1    2    0    0 -0.32487386641E+02 -0.84787594452E+02 -0.10512466512E+03  0.18692253130E+03  0.12507785986E+03 0.  0.
        -24    2    1    2    0    0 -0.17271379593E+02  0.33964961921E+02  0.46686864880E+02  0.98773926624E+02  0.78260501129E+02 0.  0.
        -11    1    3    3    0    0  0.35105176504E+01  0.33737172640E+01 -0.27505785527E+03  0.27510094411E+03  0.00000000000E+00 0.  1.
         12    1    3    3    0    0  0.46248248584E+02  0.47448915266E+02 -0.17205135796E+03  0.18436911301E+03  0.00000000000E+00 0. -1.
         11    1    5    5    0    0 -0.35266728825E+02  0.94042903301E+01  0.56078945446E+02  0.66910619194E+02  0.00000000000E+00 0. -1.
        -12    1    5    5    0    0  0.17995349232E+02  0.24560671591E+02 -0.93920805656E+01  0.31863307429E+02  0.00000000000E+00 0.  1.
          5    1    4    4  501    0  0.13480768981E+02  0.25736071205E+02 -0.42812958743E+02  0.51908557385E+02  0.41800000000E+01 0.  1.
         -5    1    4    4    0  501 -0.45968155623E+02 -0.11052366566E+03 -0.62311706377E+02  0.13501397392E+03  0.41800000000E+01 0.  1.
</event>
<event>
11    1  0.7157190E-009  0.1477200E+03  0.7561462E-02  0.1099231E+00
         22   -1    0    0    0    0  0.00000000000E+00  0.00000000000E+00  0.28210519160E+03  0.28210519160E+03  0.00000000000E+00 0.  1.
         22   -1    0    0    0    0 -0.00000000000E+00 -0.00000000000E+00 -0.31060409900E+03  0.31060409900E+03  0.00000000000E+00 0.  1.
        -24    2    1    2    0    0  0.23418286623E+02  0.75839446185E+01 -0.49195198200E+02  0.95234089773E+02  0.77739513535E+02 0.  0.
         25    2    1    2    0    0 -0.10051979709E+03 -0.12195229659E+02 -0.19617625578E+03  0.25374013178E+03  0.12508388349E+03 0.  0.
         24    2    1    2    0    0  0.77101510465E+02  0.46112850405E+01  0.21687254658E+03  0.24373506904E+03  0.80044834637E+02 0.  0.
        -13    1    5    5    0    0  0.48523694620E+02 -0.28749261010E+02  0.17169799742E+03  0.18072429628E+03  0.00000000000E+00 0.  1.
         14    1    5    5    0    0  0.28577815845E+02  0.33360546050E+02  0.45174549157E+02  0.63010772752E+02  0.00000000000E+00 0. -1.
         13    1    3    3    0    0 -0.27883893799E+02 -0.43836728985E+01 -0.11609110699E+02  0.30520477924E+02  0.00000000000E+00 0. -1.
        -14    1    3    3    0    0  0.51302180422E+02  0.11967617517E+02 -0.37586087500E+02  0.64713611850E+02  0.00000000000E+00 0.  1.
          5    1    4    4  501    0 -0.10273096583E+03 -0.48523022196E+02 -0.10219288219E+03  0.15286920093E+03  0.41800000000E+01 0.  1.
         -5    1    4    4    0  501  0.22111687448E+01  0.36327792537E+02 -0.93983373593E+02  0.10087093085E+03  0.41800000000E+01 0.  1.
</event>
<event>
11    1  0.7157190E-009  0.1811832E+03  0.7561462E-02  0.1068690E+00
         22   -1    0    0    0    0  0.00000000000E+00  0.00000000000E+00  0.95929327281E+03  0.95929327281E+03  0.00000000000E+00 0. -1.
         22   -1    0    0    0    0 -0.00000000000E+00 -0.00000000000E+00 -0.20508553626E+03  0.20508553626E+03  0.00000000000E+00 0. -1.
         24    2    1    2    0    0 -0.68757772743E+02 -0.10337102095E+03 -0.11525797476E+03  0.18857885185E+03  0.82851574129E+02 0.  0.
         25    2    1    2    0    0  0.11179867411E+03  0.13571358984E+03  0.18307624673E+03  0.28298608021E+03  0.12508831871E+03 0.  0.
        -24    2    1    2    0    0 -0.43040901367E+02 -0.32342568891E+02  0.68638946458E+03  0.69281387701E+03  0.77214053946E+02 0.  0.
        -11    1    3    3    0    0 -0.44954197117E+01 -0.50696394824E+01  0.13008696098E+02  0.14667522525E+02  0.00000000000E+00 0.  1.
         12    1    3    3    0    0 -0.64262353031E+02 -0.98301381464E+02 -0.12826667086E+03  0.17391132933E+03  0.00000000000E+00 0. -1.
         13    1    5    5    0    0 -0.47010505735E+02  0.12872857512E+02  0.35484223716E+03  0.35817413555E+03  0.00000000000E+00 0. -1.
        -14    1    5    5    0    0  0.39696043681E+01 -0.45215426403E+02  0.33154722743E+03  0.33463974145E+03  0.00000000000E+00 0.  1.
          5    1    4    4  501    0  0.98145772957E+01  0.57691445401E+02  0.13251251585E+03  0.14491952269E+03  0.41800000000E+01 0.  1.
         -5    1    4    4    0  501  0.10198409681E+03  0.78022144436E+02  0.50563730881E+02  0.13806655752E+03  0.41800000000E+01 0.  1.
</event>
<event>
11    1  0.7157190E-009  0.1326055E+03  0.7561462E-02  0.1116108E+00
         22   -1    0    0    0    0  0.00000000000E+00  0.00000000000E+00  0.10699488235E+04  0.10699488235E+04  0.00000000000E+00 0. -1.
         22   -1    0    0    0    0 -0.00000000000E+00 -0.00000000000E+00 -0.48580971028E+03  0.48580971028E+03  0.00000000000E+00 0. -1.
        -24    2    1    2    0    0  0.27671056283E+01 -0.15970864535E+02 -0.35552058015E+03  0.36593695881E+03  0.85160140504E+02 0.  0.
         25    2    1    2    0    0 -0.20483756950E+02  0.55961317784E+02 -0.84072612352E+02  0.16207539119E+03  0.12509586282E+03 0.  0.
         24    2    1    2    0    0  0.17716651321E+02 -0.39990453249E+02  0.10237323057E+04  0.10277461838E+04  0.79506404693E+02 0.  0.
        -13    1    5    5    0    0  0.15758618909E+02  0.20923084605E+02  0.45609556050E+03  0.45684709680E+03  0.00000000000E+00 0.  1.
         14    1    5    5    0    0  0.19580324127E+01 -0.60913537855E+02  0.56763674523E+03  0.57089908698E+03  0.00000000000E+00 0. -1.
         13    1    3    3    0    0  0.82760308298E+01 -0.31567930146E+02 -0.34454139435E+03  0.34608351495E+03  0.00000000000E+00 0. -1.
        -14    1    3    3    0    0 -0.55089252015E+01  0.15597065611E+02 -0.10979185802E+02  0.19853443868E+02  0.00000000000E+00 0.  1.
          5    1    4    4  501    0 -0.61689617501E+02 -0.67776751927E+01 -0.27597948369E+02  0.68048989284E+02  0.41800000000E+01 0.  1.
         -5    1    4    4    0  501  0.41205860551E+02  0.62738992977E+02 -0.56474663983E+02  0.94026401907E+02  0.41800000000E+01 0.  1.
</event>
<event>
11    1  0.7157190E-009  0.1302297E+03  0.7561462E-02  0.1118987E+00
         22   -1    0    0    0    0  0.00000000000E+00  0.00000000000E+00  0.12105048907E+03  0.12105048907E+03  0.00000000000E+00 0. -1.
         22   -1    0    0    0    0 -0.00000000000E+00 -0.00000000000E+00 -0.30156036423E+03  0.30156036423E+03  0.00000000000E+00 0.  1.
        -24    2    1    2    0    0 -0.23569939788E+02  0.29238830797E+02 -0.18034760274E+03  0.20100127296E+03  0.80410214703E+02 0.  0.
         25    2    1    2    0    0  0.11529789817E+02 -0.28694571996E+02 -0.32052725632E+02  0.13278104563E+03  0.12508842609E+03 0.  0.
         24    2    1    2    0    0  0.12040149971E+02 -0.54425880110E+00  0.31890453211E+02  0.88828534721E+02  0.82025887046E+02 0.  0.
        -13    1    5    5    0    0 -0.12441581834E+02  0.30536363921E+02 -0.66025991090E+01  0.33628214271E+02  0.00000000000E+00 0.  1.
         14    1    5    5    0    0  0.24481731805E+02 -0.31080622722E+02  0.38493052320E+02  0.55200320450E+02  0.00000000000E+00 0. -1.
         13    1    3    3    0    0  0.11875508758E+02  0.38905807822E+02 -0.44576233861E+02  0.60346749835E+02  0.00000000000E+00 0. -1.
        -14    1    3    3    0    0 -0.35445448546E+02 -0.96669770249E+01 -0.13577136888E+03  0.14065452312E+03  0.00000000000E+00 0.  1.
          5    1    4    4  501    0 -0.41153182315E+02 -0.26159812986E+02 -0.56283647519E+02  0.74587141037E+02  0.41800000000E+01 0.  1.
         -5    1    4    4    0  501  0.52682972133E+02 -0.25347590091E+01  0.24230921886E+02  0.58193904590E+02  0.41800000000E+01 0.  1.
</event>
<event>
11    1  0.7157190E-009  0.1258376E+03  0.7561462E-02  0.1124492E+00
         22   -1    0    0    0    0  0.00000000000E+00  0.00000000000E+00  0.19965402348E+04  0.19965402348E+04  0.00000000000E+00 0. -1.
         22   -1    0    0    0    0 -0.00000000000E+00 -0.00000000000E+00 -0.78460862601E+03  0.78460862601E+03  0.00000000000E+00 0.  1.
         24    2    1    2    0    0  0.10029593669E+02  0.94889195047E+01 -0.76642351169E+03  0.77079132027E+03  0.80768977865E+02 0.  0.
         25    2    1    2    0    0  0.73181162984E+01 -0.78020278040E+01  0.24680020040E+03  0.27689775538E+03  0.12509037355E+03 0.  0.
        -24    2    1    2    0    0 -0.17347709968E+02 -0.16868917006E+01  0.17315549201E+04  0.17334597852E+04  0.79351099049E+02 0.  0.
        -13    1    3    3    0    0  0.15381124641E+02  0.33700673344E+02 -0.67644756908E+03  0.67746116353E+03  0.00000000000E+00 0.  1.
         14    1    3    3    0    0 -0.53515309713E+01 -0.24211753840E+02 -0.89975942607E+02  0.93330156732E+02  0.00000000000E+00 0. -1.
         11    1    5    5    0    0 -0.35578497224E+02 -0.25663652572E+02  0.13520294453E+04  0.13527409484E+04  0.00000000000E+00 0. -1.
        -12    1    5    5    0    0  0.18230787257E+02  0.23976760872E+02  0.37952547479E+03  0.38071883679E+03  0.00000000000E+00 0.  1.
          5    1    4    4  501    0  0.50151223374E+02 -0.12522000864E+02  0.21988735589E+03  0.22592004646E+03  0.41800000000E+01 0. -1.
         -5    1    4    4    0  501 -0.42833107075E+02  0.47199730603E+01  0.26912844511E+02  0.50977708923E+02  0.41800000000E+01 0. -1.
</event>
<event>
11    1  0.7157190E-009  0.1425536E+03  0.7561462E-02  0.1104740E+00
         22   -1    0    0    0    0  0.00000000000E+00  0.00000000000E+00  0.11059266532E+04  0.11059266532E+04  0.00000000000E+00 0.  1.
         22   -1    0    0    0    0 -0.00000000000E+00 -0.00000000000E+00 -0.88212327414E+03  0.88212327414E+03  0.00000000000E+00 0.  1.
         24    2    1    2    0    0  0.24631478431E+02 -0.58906340475E+01 -0.79508444388E+03  0.79935207810E+03  0.78505175432E+02 0.  0.
         25    2    1    2    0    0  0.25113832873E+02 -0.42018605956E+02 -0.27289575200E+02  0.13707187260E+03  0.12509080500E+03 0.  0.
        -24    2    1    2    0    0 -0.49745311304E+02  0.47909240004E+02  0.10461773981E+04  0.10516259766E+04  0.81609773235E+02 0.  0.
        -13    1    3    3    0    0 -0.17704316827E+01 -0.12178735246E+02 -0.70864763841E+03  0.70875449307E+03  0.00000000000E+00 0.  1.
         14    1    3    3    0    0  0.26401910114E+02  0.62881011988E+01 -0.86436805467E+02  0.90597585033E+02  0.00000000000E+00 0. -1.
         11    1    5    5    0    0  0.14606699464E+02  0.91935764429E+01  0.55871372366E+02  0.58476386406E+02  0.00000000000E+00 0. -1.
        -12    1    5    5    0    0 -0.64352010768E+02  0.38715663561E+02  0.99030602574E+03  0.99314959020E+03  0.00000000000E+00 0.  1.
          5    1    4    4  501    0 -0.47894233578E+01  0.40579092852E+02 -0.26952943672E+02  0.49127740894E+02  0.41800000000E+01 0. -1.
         -5    1    4    4    0  501  0.29903256231E+02 -0.82597698808E+02 -0.33663152801E+00  0.87944131710E+02  0.41800000000E+01 0. -1.
</event>
<event>
11    1  0.7157190E-009  0.1379671E+03  0.7561462E-02  0.1109850E+00
         22   -1    0    0    0    0  0.00000000000E+00  0.00000000000E+00  0.10402729137E+03  0.10402729137E+03  0.00000000000E+00 0.  1.
         22   -1    0    0    0    0 -0.00000000000E+00 -0.00000000000E+00 -0.21939186905E+04  0.21939186905E+04  0.00000000000E+00 0. -1.
         24    2    1    2    0    0 -0.53116805566E+02  0.16585908029E+02 -0.20302957884E+04  0.20325400314E+04  0.77598346371E+02 0.  0.
         25    2    1    2    0    0  0.50713410331E+02  0.44824576321E+02 -0.75857876431E+02  0.16120474847E+03  0.12510579876E+03 0.  0.
        -24    2    1    2    0    0  0.24033952351E+01 -0.61410484351E+02  0.16262265677E+02  0.10420120205E+03  0.82561524494E+02 0.  0.
        -13    1    3    3    0    0  0.17020628614E+02 -0.45791903795E+01 -0.19888471151E+03  0.19966421626E+03  0.00000000000E+00 0.  1.
         14    1    3    3    0    0 -0.70137434181E+02  0.21165098409E+02 -0.18314110769E+04  0.18328758151E+04  0.00000000000E+00 0. -1.
         13    1    5    5    0    0  0.50402025611E+01  0.19675653337E+02  0.10508579016E+02  0.22868432588E+02  0.00000000000E+00 0. -1.
        -14    1    5    5    0    0 -0.26368073260E+01 -0.81086137688E+02  0.57536866614E+01  0.81332769461E+02  0.00000000000E+00 0.  1.
          5    1    4    4  501    0  0.70743636581E+02  0.22440628625E+02 -0.98468616265E+02  0.12337659713E+03  0.41800000000E+01 0. -1.
         -5    1    4    4    0  501 -0.20030226250E+02  0.22383947696E+02  0.22610739834E+02  0.37828151342E+02  0.41800000000E+01 0. -1.
</event>
<event>
11    1  0.7157190E-009  0.1548266E+03  0.7561462E-02  0.1092047E+00
         22   -1    0    0    0    0  0.00000000000E+00  0.00000000000E+00  0.84874720720E+03  0.84874720720E+03  0.00000000000E+00 0. -1.
         22   -1    0    0    0    0 -0.00000000000E+00 -0.00000000000E+00 -0.88302575051E+03  0.88302575051E+03  0.00000000000E+00 0.  1.
        -24    2    1    2    0    0  0.39777364602E+02  0.86347945704E+02 -0.82118620622E+03  0.83055048155E+03  0.80181735216E+02 0.  0.
         25    2    1    2    0    0  0.31656795927E+01 -0.30379777294E+02  0.26784191785E+02  0.13152368995E+03  0.12509250854E+03 0.  0.
         24    2    1    2    0    0 -0.42943044195E+02 -0.55968168410E+02  0.76012347112E+03  0.76969878620E+03  0.98346272026E+02 0.  0.
        -13    1    5    5    0    0 -0.21769809039E+02 -0.14499473827E+02  0.38324736651E+02  0.46399835843E+02  0.00000000000E+00 0.  1.
         14    1    5    5    0    0 -0.21173235156E+02 -0.41468694583E+02  0.72179873447E+03  0.72329895036E+03  0.00000000000E+00 0. -1.
         13    1    3    3    0    0 -0.15609051558E+02 -0.45131570962E+01 -0.16425132969E+03  0.16505305323E+03  0.00000000000E+00 0. -1.
        -14    1    3    3    0    0  0.55386416161E+02  0.90861102801E+02 -0.65693487653E+03  0.66549742832E+03  0.00000000000E+00 0.  1.
          5    1    4    4  501    0 -0.40716729351E+02 -0.55764768667E+02  0.38721242286E+02  0.79274008841E+02  0.41800000000E+01 0. -1.
         -5    1    4    4    0  501  0.43882408944E+02  0.25384991372E+02 -0.11937050501E+02  0.52249681112E+02  0.41800000000E+01 0. -1.
</event>
<event>
11    1  0.7157190E-009  0.1272503E+03  0.7561462E-02  0.1122694E+00
         22   -1    0    0    0    0  0.00000000000E+00  0.00000000000E+00  0.33644341710E+03  0.33644341710E+03  0.00000000000E+00 0. -1.
         22   -1    0    0    0    0 -0.00000000000E+00 -0.00000000000E+00 -0.11021824431E+04  0.11021824431E+04  0.00000000000E+00 0. -1.
        -24    2    1    2    0    0  0.20954967143E+02 -0.99535306737E+01 -0.10574892303E+04  0.10608116821E+04  0.80621146169E+02 0.  0.
         25    2    1    2    0    0 -0.20556079088E+02  0.10941839783E+02  0.78556700258E+02  0.14955879996E+03  0.12511755770E+03 0.  0.
         24    2    1    2    0    0 -0.39888805563E+00 -0.98830910905E+00  0.21319350399E+03  0.22825537821E+03  0.81534726784E+02 0.  0.
        -11    1    5    5    0    0 -0.37563022868E+02  0.13904451421E+02  0.85186073559E+02  0.94132786981E+02  0.00000000000E+00 0.  1.
         12    1    5    5    0    0  0.37164134813E+02 -0.14892760530E+02  0.12800743044E+03  0.13412259123E+03  0.00000000000E+00 0. -1.
         11    1    3    3    0    0  0.58712981925E+01 -0.10997529897E+02 -0.10239049356E+04  0.10239808274E+04  0.00000000000E+00 0. -1.
        -12    1    3    3    0    0  0.15083668951E+02  0.10439992229E+01 -0.33584294724E+02  0.36830854667E+02  0.00000000000E+00 0.  1.
          5    1    4    4  501    0 -0.13343370521E+02  0.71522652675E+01 -0.33568126504E+02  0.37060652345E+02  0.41800000000E+01 0. -1.
         -5    1    4    4    0  501 -0.72127085670E+01  0.37895745152E+01  0.11212482676E+03  0.11249814761E+03  0.41800000000E+01 0. -1.
</event>
<event>
11    1  0.7157190E-009  0.1917014E+03  0.7561462E-02  0.1060552E+00
         22   -1    0    0    0    0  0.00000000000E+00  0.00000000000E+00  0.22394101191E+03  0.22394101191E+03  0.00000000000E+00 0. -1.
         22   -1    0    0    0    0 -0.00000000000E+00 -0.00000000000E+00 -0.30006189834E+04  0.30006189834E+04  0.00000000000E+00 0. -1.
        -24    2    1    2    0    0  0.72167671531E+02  0.12521789564E+03 -0.28690829526E+04  0.28738738535E+04  0.81401736731E+02 0.  0.
         25    2    1    2    0    0 -0.12516820608E+03 -0.13685270157E+03  0.88667133926E+01  0.22387902514E+03  0.12508979795E+03 0.  0.
         24    2    1    2    0    0  0.53000534552E+02  0.11634805926E+02  0.83538267721E+02  0.12680711667E+03  0.78466408682E+02 0.  0.
        -11    1    5    5    0    0  0.43514782405E+01 -0.22546489138E+02 -0.15376989119E+01  0.23013996899E+02  0.00000000000E+00 0.  1.
         12    1    5    5    0    0  0.48649056312E+02  0.34181295064E+02  0.85075966633E+02  0.10379311977E+03  0.00000000000E+00 0. -1.
         13    1    3    3    0    0  0.31010587375E+02  0.12007976696E+03 -0.20627634272E+04  0.20664882684E+04  0.00000000000E+00 0. -1.
        -14    1    3    3    0    0  0.41157084155E+02  0.51381286799E+01 -0.80631952542E+03  0.80738558509E+03  0.00000000000E+00 0.  1.
          5    1    4    4  501    0 -0.14165417921E+03 -0.99275872701E+02  0.32917764108E+02  0.17613249837E+03  0.41800000000E+01 0. -1.
         -5    1    4    4    0  501  0.16485973131E+02 -0.37576828866E+02 -0.24051050715E+02  0.47746526766E+02  0.41800000000E+01 0. -1.
</event>
<event>
11    1  0.7157190E-009  0.2700056E+03  0.7561462E-02  0.1013751E+00
         22   -1    0    0    0    0  0.00000000000E+00  0.00000000000E+00  0.86143847958E+03  0.86143847958E+03  0.00000000000E+00 0.  1.
         22   -1    0    0    0    0 -0.00000000000E+00 -0.00000000000E+00 -0.71391431558E+03  0.71391431558E+03  0.00000000000E+00 0.  1.
         24    2    1    2    0    0  0.18869812753E+03 -0.11902204315E+03 -0.50601527650E+03  0.55830458055E+03  0.76676688268E+02 0.  0.
         25    2    1    2    0    0 -0.16327958220E+03 -0.13629221111E+03 -0.60492857816E+02  0.25405170449E+03  0.12508834452E+03 0.  0.
        -24    2    1    2    0    0 -0.25418545332E+02  0.25531425426E+03  0.71403229831E+03  0.76299651012E+03  0.80561036198E+02 0.  0.
        -11    1    3    3    0    0  0.39233324871E+02 -0.49006977241E+01 -0.15643246655E+03  0.16135174994E+03  0.00000000000E+00 0.  1.
         12    1    3    3    0    0  0.14946480266E+03 -0.11412134542E+03 -0.34958280995E+03  0.39695283061E+03  0.00000000000E+00 0. -1.
         11    1    5    5    0    0  0.19598958191E+02  0.55036026429E+02  0.10312866695E+03  0.11852681264E+03  0.00000000000E+00 0. -1.
        -12    1    5    5    0    0 -0.45017503522E+02  0.20027822783E+03  0.61090363136E+03  0.64446969748E+03  0.00000000000E+00 0.  1.
          5    1    4    4  501    0 -0.13029639545E+03 -0.13773743170E+03 -0.54440002239E+01  0.18972575022E+03  0.41800000000E+01 0.  1.
         -5    1    4    4    0  501 -0.32983186749E+02  0.14452205863E+01 -0.55048857592E+02  0.64325954270E+02  0.41800000000E+01 0.  1.
</event>
<event>
11    1  0.7157190E-009  0.1402760E+03  0.7561462E-02  0.1107251E+00
         22   -1    0    0    0    0  0.00000000000E+00  0.00000000000E+00  0.13516798103E+03  0.13516798103E+03  0.00000000000E+00 0. -1.
         22   -1    0    0    0    0 -0.00000000000E+00 -0.00000000000E+00 -0.96477601651E+03  0.96477601651E+03  0.00000000000E+00 0.  1.
        -24    2    1    2    0    0 -0.36735284104E+02 -0.54423276964E+02 -0.60704222225E+03  0.61587034132E+03  0.80527284461E+02 0.  0.
         25    2    1    2    0    0  0.67021085809E+02  0.17773609262E+02 -0.31874990140E+03  0.34936626929E+03  0.12509022082E+03 0.  0.
         24    2    1    2    0    0 -0.30285801705E+02  0.36649667702E+02  0.96184088172E+02  0.13470738693E+03  0.81451048787E+02 0.  0.
        -13    1    5    5    0    0 -0.49386478158E+01 -0.71730310544E+01 -0.12254332322E+02  0.15033671455E+02  0.00000000000E+00 0.  1.
         14    1    5    5    0    0 -0.25347153889E+02  0.43822698756E+02  0.10843842049E+03  0.11967371548E+03  0.00000000000E+00 0. -1.
         11    1    3    3    0    0 -0.43478549195E+02  0.51751933128E+01 -0.27204818100E+03  0.27554923272E+03  0.00000000000E+00 0. -1.
        -12    1    3    3    0    0  0.67432650901E+01 -0.59598470277E+02 -0.33499404125E+03  0.34032110860E+03  0.00000000000E+00 0.  1.
          5    1    4    4  501    0  0.33063472253E+02 -0.51552169421E+02 -0.18454548302E+03  0.19448734425E+03  0.41800000000E+01 0.  1.
         -5    1    4    4    0  501  0.33957613557E+02  0.69325778683E+02 -0.13420441838E+03  0.15487892504E+03  0.41800000000E+01 0.  1.
</event>
<event>
11    1  0.7157190E-009  0.1321417E+03  0.7561462E-02  0.1116665E+00
         22   -1    0    0    0    0  0.00000000000E+00  0.00000000000E+00  0.18703667887E+04  0.18703667887E+04  0.00000000000E+00 0.  1.
         22   -1    0    0    0    0 -0.00000000000E+00 -0.00000000000E+00 -0.25998915660E+02  0.25998915660E+02  0.00000000000E+00 0. -1.
         24    2    1    2    0    0 -0.20411426120E+01  0.39153912475E+02  0.96297035378E+02  0.13175950549E+03  0.80933634159E+02 0.  0.
         25    2    1    2    0    0 -0.40973614432E+02 -0.32086896341E+02  0.73755915920E+03  0.74989942367E+03  0.12508887364E+03 0.  0.
        -24    2    1    2    0    0  0.43014757044E+02 -0.70670161343E+01  0.10105116785E+04  0.10147067752E+04  0.81214378588E+02 0.  0.
        -11    1    3    3    0    0  0.34886742145E+02  0.13590957045E+02  0.70861559503E+02  0.80144616201E+02  0.00000000000E+00 0.  1.
         12    1    3    3    0    0 -0.36927884757E+02  0.25562955431E+02  0.25435475876E+02  0.51614889286E+02  0.00000000000E+00 0. -1.
         11    1    5    5    0    0  0.22649460442E+02  0.34116480879E+02  0.31045703710E+03  0.31314613874E+03  0.00000000000E+00 0. -1.
        -12    1    5    5    0    0  0.20365296602E+02 -0.41183497013E+02  0.70005464136E+03  0.70156063645E+03  0.00000000000E+00 0.  1.
          5    1    4    4  501    0 -0.40824208073E+02  0.20346865177E+02  0.97948270985E+02  0.10812930720E+03  0.41800000000E+01 0.  1.
         -5    1    4    4    0  501 -0.14940635841E+00 -0.52433761518E+02  0.63961088821E+03  0.64177011647E+03  0.41800000000E+01 0.  1.
</event>
<event>
11    1  0.7157190E-009  0.1521866E+03  0.7561462E-02  0.1094665E+00
         22   -1    0    0    0    0  0.00000000000E+00  0.00000000000E+00  0.13861118423E+04  0.13861118423E+04  0.00000000000E+00 0. -1.
         22   -1    0    0    0    0 -0.00000000000E+00 -0.00000000000E+00 -0.21149764871E+03  0.21149764871E+03  0.00000000000E+00 0. -1.
        -24    2    1    2    0    0 -0.67138851635E+02 -0.53120876970E+02 -0.16792884749E+03  0.20609666458E+03  0.83344372114E+02 0.  0.
         25    2    1    2    0    0  0.88794791211E+02  0.53075824827E+02  0.26332397936E+03  0.30933662872E+03  0.12509226048E+03 0.  0.
         24    2    1    2    0    0 -0.21655939576E+02  0.45052142794E-01  0.10792190618E+04  0.10821761978E+04  0.76958157424E+02 0.  0.
        -11    1    5    5    0    0  0.13703837133E+02  0.17852744981E+02  0.11711324059E+03  0.11925613937E+03  0.00000000000E+00 0.  1.
         12    1    5    5    0    0 -0.35359776709E+02 -0.17807692838E+02  0.96210582117E+03  0.96292005839E+03  0.00000000000E+00 0. -1.
         13    1    3    3    0    0 -0.46206029504E+02 -0.53647879268E+02 -0.17086355965E+03  0.18495255643E+03  0.00000000000E+00 0. -1.
        -14    1    3    3    0    0 -0.20932822131E+02  0.52700229854E+00  0.29347121686E+01  0.21144108146E+02  0.00000000000E+00 0.  1.
          5    1    4    4  501    0  0.11012436789E+03  0.31453814920E+02  0.13351259519E+03  0.17595398362E+03  0.41800000000E+01 0.  1.
         -5    1    4    4    0  501 -0.21329576680E+02  0.21622009907E+02  0.12981138417E+03  0.13338264510E+03  0.41800000000E+01 0.  1.
</event>
<event>
11    1  0.7157190E-009  0.1399692E+03  0.7561462E-02  0.1107593E+00
         22   -1    0    0    0    0  0.00000000000E+00  0.00000000000E+00  0.30255584232E+04  0.30255584232E+04  0.00000000000E+00 0. -1.
         22   -1    0    0    0    0 -0.00000000000E+00 -0.00000000000E+00 -0.14278276546E+04  0.14278276546E+04  0.00000000000E+00 0. -1.
        -24    2    1    2    0    0  0.49815489095E+02  0.19885923197E+02 -0.14005664012E+04  0.14038338974E+04  0.79286407628E+02 0.  0.
         25    2    1    2    0    0 -0.10766554552E+03  0.19822914575E+00  0.25162483566E+03  0.30092288064E+03  0.12509042005E+03 0.  0.
         24    2    1    2    0    0  0.57850056421E+02 -0.20084152343E+02  0.27466723341E+04  0.27486292997E+04  0.83690586692E+02 0.  0.
        -13    1    5    5    0    0  0.33392206873E+02 -0.49553436057E+01  0.31801738023E+03  0.31980407914E+03  0.00000000000E+00 0.  1.
         14    1    5    5    0    0  0.24457849548E+02 -0.15128808737E+02  0.24286549539E+04  0.24288252206E+04  0.00000000000E+00 0. -1.
         11    1    3    3    0    0  0.46745866475E+02  0.48118561703E+02 -0.10280414865E+04  0.10302280670E+04  0.00000000000E+00 0. -1.
        -12    1    3    3    0    0  0.30696226205E+01 -0.28232638506E+02 -0.37252491468E+03  0.37360583042E+03  0.00000000000E+00 0.  1.
          5    1    4    4  501    0  0.19332414992E+00 -0.34488208031E+02  0.13037275529E+03  0.13492220570E+03  0.41800000000E+01 0.  1.
         -5    1    4    4    0  501 -0.10785886967E+03  0.34686437177E+02  0.12125208037E+03  0.16600067495E+03  0.41800000000E+01 0.  1.
</event>
<event>
11    1  0.7157190E-009  0.1293696E+03  0.7561462E-02  0.1120046E+00
         22   -1    0    0    0    0  0.00000000000E+00  0.00000000000E+00  0.17846421873E+04  0.17846421873E+04  0.00000000000E+00 0.  1.
         22   -1    0    0    0    0 -0.00000000000E+00 -0.00000000000E+00 -0.38619958156E+02  0.38619958156E+02  0.00000000000E+00 0. -1.
        -24    2    1    2    0    0 -0.30718526833E+02 -0.12291214971E+02  0.33046022244E+02  0.97622707686E+02  0.85693941522E+02 0.  0.
         25    2    1    2    0    0  0.30583373725E+02  0.12090366554E+02  0.10805708250E+04  0.10882818389E+04  0.12507011407E+03 0.  0.
         24    2    1    2    0    0  0.13515310789E+00  0.20084841639E+00  0.63240538191E+03  0.63735759883E+03  0.79297434460E+02 0.  0.
        -11    1    5    5    0    0  0.17309365330E+02  0.35301130553E+02  0.36514885056E+03  0.36725940017E+03  0.00000000000E+00 0.  1.
         12    1    5    5    0    0 -0.17174212223E+02 -0.35100282137E+02  0.26725653135E+03  0.27009819866E+03  0.00000000000E+00 0. -1.
         13    1    3    3    0    0 -0.31137969763E+02  0.20904840610E+02 -0.14008721696E+02  0.40035356942E+02  0.00000000000E+00 0. -1.
        -14    1    3    3    0    0  0.41944293019E+00 -0.33196055581E+02  0.47054743940E+02  0.57587350745E+02  0.00000000000E+00 0.  1.
          5    1    4    4  501    0  0.44478496375E+02 -0.40740837226E+02  0.80801807102E+03  0.81027700693E+03  0.41800000000E+01 0.  1.
         -5    1    4    4    0  501 -0.13895122650E+02  0.52831203780E+02  0.27255275395E+03  0.27800483200E+03  0.41800000000E+01 0.  1.
</event>
<event>
11    1  0.7157190E-009  0.1305315E+03  0.7561462E-02  0.1118618E+00
         22   -1    0    0    0    0  0.00000000000E+00  0.00000000000E+00  0.20581143477E+03  0.20581143477E+03  0.00000000000E+00 0. -1.
         22   -1    0    0    0    0 -0.00000000000E+00 -0.00000000000E+00 -0.30733735981E+03  0.30733735981E+03  0.00000000000E+00 0.  1.
         24    2    1    2    0    0 -0.22698217623E+02  0.26867429617E+02 -0.23107136437E+03  0.24749984919E+03  0.81394914214E+02 0.  0.
         25    2    1    2    0    0  0.26900943233E+02 -0.64171251824E+02  0.69294464375E+02  0.15903157695E+03  0.12509080448E+03 0.  0.
        -24    2    1    2    0    0 -0.42027256100E+01  0.37303822206E+02  0.60250974949E+02  0.10661736845E+03  0.79547754325E+02 0.  0.
        -13    1    3    3    0    0 -0.17355167580E+02 -0.32100962744E+00 -0.21452667524E+03  0.21522778463E+03  0.00000000000E+00 0.  1.
         14    1    3    3    0    0 -0.53430500430E+01  0.27188439245E+02 -0.16544689130E+02  0.32272064556E+02  0.00000000000E+00 0. -1.
         13    1    5    5    0    0  0.29172109480E+02 -0.33182541177E+01  0.41424476497E+02  0.50774107919E+02  0.00000000000E+00 0. -1.
        -14    1    5    5    0    0 -0.33374835090E+02  0.40622076324E+02  0.18826498452E+02  0.55843260526E+02  0.00000000000E+00 0.  1.
          5    1    4    4  501    0 -0.27217835540E+01  0.26752482986E+02  0.56172628440E+02  0.62417465804E+02  0.41800000000E+01 0.  1.
         -5    1    4    4    0  501  0.29622726787E+02 -0.90923734810E+02  0.13121835935E+02  0.96614111145E+02  0.41800000000E+01 0.  1.
</event>
<event>
11    1  0.7157190E-009  0.1306614E+03  0.7561462E-02  0.1118459E+00
         22   -1    0    0    0    0  0.00000000000E+00  0.00000000000E+00  0.95743268843E+03  0.95743268843E+03  0.00000000000E+00 0. -1.
         22   -1    0    0    0    0 -0.00000000000E+00 -0.00000000000E+00 -0.55902416859E+03  0.55902416859E+03  0.00000000000E+00 0. -1.
         24    2    1    2    0    0 -0.92131740268E+01  0.37627875951E+01 -0.52988002370E+03  0.53609186111E+03  0.80762632937E+02 0.  0.
         25    2    1    2    0    0  0.90533932025E+01 -0.41138379027E+02  0.16172490379E+03  0.20875051893E+03  0.12508998558E+03 0.  0.
        -24    2    1    2    0    0  0.15978082430E+00  0.37375591431E+02  0.76656363975E+03  0.77161447698E+03  0.79825603245E+02 0.  0.
        -13    1    3    3    0    0 -0.35901954579E+02  0.13810257259E+02 -0.14055011440E+03  0.14571893564E+03  0.00000000000E+00 0.  1.
         14    1    3    3    0    0  0.26688780552E+02 -0.10047469664E+02 -0.38932990930E+03  0.39037292546E+03  0.00000000000E+00 0. -1.
         13    1    5    5    0    0 -0.15770146589E+02  0.49719027535E+02  0.70300697865E+03  0.70493935289E+03  0.00000000000E+00 0. -1.
        -14    1    5    5    0    0  0.15929927413E+02 -0.12343436103E+02  0.63556661100E+02  0.66675124090E+02  0.00000000000E+00 0.  1.
          5    1    4    4  501    0 -0.42188618476E+02  0.11137391760E+02  0.17964710668E+02  0.47372188608E+02  0.41800000000E+01 0.  1.
         -5    1    4    4    0  501  0.51242011678E+02 -0.52275770787E+02  0.14376019312E+03  0.16137833033E+03  0.41800000000E+01 0.  1.
</event>
<event>
11    1  0.7157190E-009  0.1722959E+03  0.7561462E-02  0.1076051E+00
         22   -1    0    0    0    0  0.00000000000E+00  0.00000000000E+00  0.70943776475E+03  0.70943776475E+03  0.00000000000E+00 0. -1.
         22   -1    0    0    0    0 -0.00000000000E+00 -0.00000000000E+00 -0.73642166846E+03  0.73642166846E+03  0.00000000000E+00 0. -1.
         24    2    1    2    0    0 -0.11713577659E+03  0.25169780832E+02 -0.67433014309E+03  0.68937070526E+03  0.78463490691E+02 0.  0.
         25    2    1    2    0    0  0.90010966395E+02 -0.40548164704E+02  0.72297263730E+02  0.17498959541E+03  0.12509331088E+03 0.  0.
        -24    2    1    2    0    0  0.27124810192E+02  0.15378383872E+02  0.57504897565E+03  0.58149913254E+03  0.80546053486E+02 0.  0.
        -11    1    3    3    0    0 -0.42225688269E+00 -0.34513140267E+01  0.85013437323E+00  0.35794689325E+01  0.00000000000E+00 0.  1.
         12    1    3    3    0    0 -0.11671351970E+03  0.28621094859E+02 -0.67518027746E+03  0.68579123633E+03  0.00000000000E+00 0. -1.
         13    1    5    5    0    0  0.45476569351E+02 -0.80355520786E+01  0.47165609014E+03  0.47391154852E+03  0.00000000000E+00 0. -1.
        -14    1    5    5    0    0 -0.18351759160E+02  0.23413935950E+02  0.10339288551E+03  0.10758758402E+03  0.00000000000E+00 0.  1.
          5    1    4    4  501    0  0.94760671947E+02 -0.48643665867E+02  0.99556222995E+02  0.14585851060E+03  0.41800000000E+01 0. -1.
         -5    1    4    4    0  501 -0.47497055528E+01  0.80955011632E+01 -0.27258959265E+02  0.29131084809E+02  0.41800000000E+01 0. -1.
</event>
<event>
11    1  0.7157190E-009  0.1263056E+03  0.7561462E-02  0.1123893E+00
         22   -1    0    0    0    0  0.00000000000E+00  0.00000000000E+00  0.15573075827E+02  0.15573075827E+02  0.00000000000E+00 0.  1.
         22   -1    0    0    0    0 -0.00000000000E+00 -0.00000000000E+00 -0.27353338964E+04  0.27353338964E+04  0.00000000000E+00 0.  1.
         24    2    1    2    0    0  0.24305113205E+02 -0.10959375106E+02 -0.18277363133E+04  0.18297083047E+04  0.80632517846E+02 0.  0.
         25    2    1    2    0    0 -0.30156520693E+02 -0.32106681778E+01 -0.59666470027E+03  0.61038992224E+03  0.12508944193E+03 0.  0.
        -24    2    1    2    0    0  0.58514074878E+01  0.14170043284E+02 -0.29535980703E+03  0.31080874531E+03  0.95549104958E+02 0.  0.
        -13    1    3    3    0    0 -0.17677756145E+02 -0.32864992536E+02 -0.73594684729E+03  0.73689237533E+03  0.00000000000E+00 0.  1.
         14    1    3    3    0    0  0.41982869350E+02  0.21905617430E+02 -0.10917894660E+04  0.10928159293E+04  0.00000000000E+00 0. -1.
         11    1    5    5    0    0 -0.23943186133E+02  0.23125987102E+02 -0.26585688007E+03  0.26793276791E+03  0.00000000000E+00 0. -1.
        -12    1    5    5    0    0  0.29794593621E+02 -0.89559438177E+01 -0.29502926958E+02  0.42875977397E+02  0.00000000000E+00 0.  1.
          5    1    4    4  501    0  0.45902082225E+02 -0.10745216303E+02 -0.15241659527E+03  0.15959558810E+03  0.41800000000E+01 0.  1.
         -5    1    4    4    0  501 -0.76058602918E+02  0.75345481249E+01 -0.44424810500E+03  0.45079433414E+03  0.41800000000E+01 0.  1.
</event>
<event>
11    1  0.7157190E-009  0.1452409E+03  0.7561462E-02  0.1101843E+00
         22   -1    0    0    0    0  0.00000000000E+00  0.00000000000E+00  0.20857788981E+03  0.20857788981E+03  0.00000000000E+00 0.  1.
         22   -1    0    0    0    0 -0.00000000000E+00 -0.00000000000E+00 -0.67264374646E+03  0.67264374646E+03  0.00000000000E+00 0. -1.
        -24    2    1    2    0    0 -0.36200656980E+02  0.18147007046E+02 -0.50754924698E+03  0.51549306930E+03  0.80542317778E+02 0.  0.
         25    2    1    2    0    0 -0.30350807878E+02 -0.55348863239E+02 -0.10890776037E+03  0.17746319635E+03  0.12509043764E+03 0.  0.
         24    2    1    2    0    0  0.66551464858E+02  0.37201856194E+02  0.15239115070E+03  0.18826537062E+03  0.80048181640E+02 0.  0.
        -11    1    5    5    0    0  0.43449742169E+02 -0.20582642601E+02  0.72584532039E+02  0.87063422643E+02  0.00000000000E+00 0.  1.
         12    1    5    5    0    0  0.23101722689E+02  0.57784498795E+02  0.79806618664E+02  0.10120194798E+03  0.00000000000E+00 0. -1.
         13    1    3    3    0    0 -0.36013169344E+02 -0.25862397328E+02 -0.30595326308E+03  0.30914917297E+03  0.00000000000E+00 0. -1.
        -14    1    3    3    0    0 -0.18748763549E+00  0.44009404373E+02 -0.20159598390E+03  0.20634389632E+03  0.00000000000E+00 0.  1.
          5    1    4    4  501    0  0.26433169960E+02  0.82579090932E+01 -0.83984636557E+02  0.88531334082E+02  0.41800000000E+01 0. -1.
         -5    1    4    4    0  501 -0.56783977837E+02 -0.63606772333E+02 -0.24923123818E+02  0.88931862268E+02  0.41800000000E+01 0. -1.
</event>
<event>
11    1  0.7157190E-009  0.1872976E+03  0.7561462E-02  0.1063888E+00
         22   -1    0    0    0    0  0.00000000000E+00  0.00000000000E+00  0.97933458034E+03  0.97933458034E+03  0.00000000000E+00 0. -1.
         22   -1    0    0    0    0 -0.00000000000E+00 -0.00000000000E+00 -0.12489032545E+04  0.12489032545E+04  0.00000000000E+00 0.  1.
         24    2    1    2    0    0 -0.13556434034E+02 -0.14350146895E+03 -0.11960137008E+04  0.12072137854E+04  0.78357531348E+02 0.  0.
         25    2    1    2    0    0 -0.46836152170E+01  0.50167928843E+02  0.63245641589E+02  0.14895541891E+03  0.12509575655E+03 0.  0.
        -24    2    1    2    0    0  0.18240049251E+02  0.93333540112E+02  0.86319938506E+03  0.87206863050E+03  0.79665982818E+02 0.  0.
        -11    1    3    3    0    0 -0.26873979780E+02 -0.11118845276E+03 -0.10802422644E+04  0.10862819305E+04  0.00000000000E+00 0.  1.
         12    1    3    3    0    0  0.13317545746E+02 -0.32313016194E+02 -0.11577143643E+03  0.12093185492E+03  0.00000000000E+00 0. -1.
         13    1    5    5    0    0  0.29815274228E+02  0.69430114744E+01  0.36677094224E+03  0.36804630151E+03  0.00000000000E+00 0. -1.
        -14    1    5    5    0    0 -0.11575224978E+02  0.86390528638E+02  0.49642844282E+03  0.50402232898E+03  0.00000000000E+00 0.  1.
          5    1    4    4  501    0  0.19300699142E+02 -0.15071307279E+02  0.74396364150E+02  0.78434384611E+02  0.41800000000E+01 0. -1.
         -5    1    4    4    0  501 -0.23984314359E+02  0.65239236122E+02 -0.11150722561E+02  0.70521034299E+02  0.41800000000E+01 0. -1.
</event>
<event>
11    1  0.7157190E-009  0.1595422E+03  0.7561462E-02  0.1087509E+00
         22   -1    0    0    0    0  0.00000000000E+00  0.00000000000E+00  0.10198025543E+04  0.10198025543E+04  0.00000000000E+00 0.  1.
         22   -1    0    0    0    0 -0.00000000000E+00 -0.00000000000E+00 -0.16081253056E+03  0.16081253056E+03  0.00000000000E+00 0. -1.
        -24    2    1    2    0    0  0.44686723248E+02  0.83837762836E+02 -0.75265813301E+02  0.14461994364E+03  0.78894307364E+02 0.  0.
         25    2    1    2    0    0 -0.23922856986E+02 -0.11881200719E+03  0.10832783412E+03  0.20511213734E+03  0.12508986009E+03 0.  0.
         24    2    1    2    0    0 -0.20763866262E+02  0.34974244358E+02  0.82592800294E+03  0.83088300390E+03  0.80963968643E+02 0.  0.
        -13    1    5    5    0    0 -0.27414933731E+02  0.57678757045E+02  0.68629112047E+03  0.68925606246E+03  0.00000000000E+00 0.  1.
         14    1    5    5    0    0  0.66510674687E+01 -0.22704512687E+02  0.13963688247E+03  0.14162694144E+03  0.00000000000E+00 0. -1.
         13    1    3    3    0    0  0.30465337705E+02  0.98351775629E+02 -0.59653092170E+02  0.11899453759E+03  0.00000000000E+00 0. -1.
        -14    1    3    3    0    0  0.14221385543E+02 -0.14514012792E+02 -0.15612721131E+02  0.25625406050E+02  0.00000000000E+00 0.  1.
          5    1    4    4  501    0 -0.16459341278E+02 -0.14316036857E+03  0.10650801675E+03  0.17924070708E+03  0.41800000000E+01 0. -1.
         -5    1    4    4    0  501 -0.74635157079E+01  0.24348361372E+02  0.18198173745E+01  0.25871430256E+02  0.41800000000E+01 0. -1.
</event>
<event>
11    1  0.7157190E-009  0.1610202E+03  0.7561462E-02  0.1086122E+00
         22   -1    0    0    0    0  0.00000000000E+00  0.00000000000E+00  0.13310364911E+04  0.13310364911E+04  0.00000000000E+00 0. -1.
         22   -1    0    0    0    0 -0.00000000000E+00 -0.00000000000E+00 -0.55780523809E+03  0.55780523809E+03  0.00000000000E+00 0. -1.
        -24    2    1    2    0    0 -0.42359962246E+02  0.37691168436E+02 -0.51869716223E+03  0.52801333166E+03  0.80847645152E+02 0.  0.
         25    2    1    2    0    0  0.10443907002E+03 -0.10972657383E+03  0.28481557524E+03  0.34599734404E+03  0.12508720890E+03 0.  0.
         24    2    1    2    0    0 -0.62079107775E+02  0.72035405390E+02  0.10071128400E+04  0.10148310535E+04  0.81011600155E+02 0.  0.
        -13    1    5    5    0    0  0.16007106868E+02  0.59962281516E+01  0.28504185000E+03  0.28555391518E+03  0.00000000000E+00 0.  1.
         14    1    5    5    0    0 -0.78086214643E+02  0.66039177239E+02  0.72207099001E+03  0.72927713831E+03  0.00000000000E+00 0. -1.
         13    1    3    3    0    0 -0.20814199855E+02 -0.18180946534E+02 -0.29986263771E+03  0.30113349071E+03  0.00000000000E+00 0. -1.
        -14    1    3    3    0    0 -0.21545762391E+02  0.55872114970E+02 -0.21883452452E+03  0.22687984096E+03  0.00000000000E+00 0.  1.
          5    1    4    4  501    0  0.10033144818E+03 -0.15868180277E+02  0.13283682005E+03  0.16727609452E+03  0.41800000000E+01 0. -1.
         -5    1    4    4    0  501  0.41076218425E+01 -0.93858393550E+02  0.15197875520E+03  0.17872124951E+03  0.41800000000E+01 0. -1.
</event>
<event>
11    1  0.7157190E-009  0.1533187E+03  0.7561462E-02  0.1093535E+00
         22   -1    0    0    0    0  0.00000000000E+00  0.00000000000E+00  0.19738759129E+03  0.19738759129E+03  0.00000000000E+00 0.  1.
         22   -1    0    0    0    0 -0.00000000000E+00 -0.00000000000E+00 -0.35771197604E+03  0.35771197604E+03  0.00000000000E+00 0. -1.
         24    2    1    2    0    0 -0.27289228219E+02 -0.19879736745E+02 -0.21183422416E+03  0.23163777062E+03  0.87420891920E+02 0.  0.
         25    2    1    2    0    0  0.17394320613E+02  0.10445901338E+03 -0.47355638371E+02  0.17060640463E+03  0.12509892465E+03 0.  0.
        -24    2    1    2    0    0  0.98949076064E+01 -0.84579276637E+02  0.98865477783E+02  0.15285539208E+03  0.79616737928E+02 0.  0.
        -11    1    3    3    0    0  0.28810575312E+02  0.67370398756E+01 -0.47474335814E+02  0.55939695360E+02  0.00000000000E+00 0.  1.
         12    1    3    3    0    0 -0.56099803531E+02 -0.26616776620E+02 -0.16435988835E+03  0.17569807526E+03  0.00000000000E+00 0. -1.
         11    1    5    5    0    0 -0.25076648151E+02 -0.29323330762E+02  0.56577601106E+01  0.38996233907E+02  0.00000000000E+00 0. -1.
        -12    1    5    5    0    0  0.34971555758E+02 -0.55255945875E+02  0.93207717672E+02  0.11385915817E+03  0.00000000000E+00 0.  1.
          5    1    4    4  501    0  0.27776296002E+02 -0.66658374851E+01 -0.51282905095E+02  0.58850359081E+02  0.41800000000E+01 0.  1.
         -5    1    4    4    0  501 -0.10381975389E+02  0.11112485087E+03  0.39272667248E+01  0.11175604555E+03  0.41800000000E+01 0.  1.
</event>
<event>
11    1  0.7157190E-009  0.1405366E+03  0.7561462E-02  0.1106961E+00
         22   -1    0    0    0    0  0.00000000000E+00  0.00000000000E+00  0.77486407932E+02  0.77486407932E+02  0.00000000000E+00 0. -1.
         22   -1    0    0    0    0 -0.00000000000E+00 -0.00000000000E+00 -0.93816248119E+03  0.93816248119E+03  0.00000000000E+00 0.  1.
         24    2    1    2    0    0 -0.73156541051E+02 -0.15166681714E+02 -0.55551911669E+03  0.56630660596E+03  0.80745124985E+02 0.  0.
         25    2    1    2    0    0  0.29922847468E+02  0.35513009951E+02 -0.32948603114E+03  0.35547734271E+03  0.12508615346E+03 0.  0.
        -24    2    1    2    0    0  0.43233693583E+02 -0.20346328238E+02  0.24329074570E+02  0.93864940456E+02  0.77042831229E+02 0.  0.
        -13    1    3    3    0    0 -0.56827037851E+02 -0.36723998671E+02 -0.49993359271E+03  0.50449138885E+03  0.00000000000E+00 0.  1.
         14    1    3    3    0    0 -0.16329503199E+02  0.21557316957E+02 -0.55585523985E+02  0.61815217106E+02  0.00000000000E+00 0. -1.
         11    1    5    5    0    0  0.62826720974E+02 -0.17664051818E+01  0.22659736138E+02  0.66811531171E+02  0.00000000000E+00 0. -1.
        -12    1    5    5    0    0 -0.19593027391E+02 -0.18579923056E+02  0.16693384321E+01  0.27053409285E+02  0.00000000000E+00 0.  1.
          5    1    4    4  501    0  0.44838235809E+02  0.69268302346E+02 -0.14147298776E+03  0.16383114407E+03  0.41800000000E+01 0. -1.
         -5    1    4    4    0  501 -0.14915388341E+02 -0.33755292394E+02 -0.18801304338E+03  0.19164619864E+03  0.41800000000E+01 0. -1.
</event>
<event>
11    1  0.7157190E-009  0.1581599E+03  0.7561462E-02  0.1088821E+00
         22   -1    0    0    0    0  0.00000000000E+00  0.00000000000E+00  0.51798233873E+03  0.51798233873E+03  0.00000000000E+00 0.  1.
         22   -1    0    0    0    0 -0.00000000000E+00 -0.00000000000E+00 -0.56677428392E+03  0.56677428392E+03  0.00000000000E+00 0.  1.
         24    2    1    2    0    0  0.33045078328E+02 -0.10277566951E+03 -0.44189050655E+03  0.46192766623E+03  0.80343846057E+02 0.  0.
         25    2    1    2    0    0  0.89403817739E+01  0.53887747347E+02 -0.66527920079E+02  0.15184912810E+03  0.12509346032E+03 0.  0.
        -24    2    1    2    0    0 -0.41985460102E+02  0.48887922165E+02  0.45962648145E+03  0.47097982832E+03  0.80079263473E+02 0.  0.
        -13    1    3    3    0    0  0.47939676180E+02 -0.27698132759E+02 -0.23204815591E+03  0.23856182799E+03  0.00000000000E+00 0.  1.
         14    1    3    3    0    0 -0.14894597852E+02 -0.75077536753E+02 -0.20984235064E+03  0.22336583824E+03  0.00000000000E+00 0. -1.
         13    1    5    5    0    0 -0.33557411288E+02 -0.16527886530E+01  0.66271536462E+02  0.74301736909E+02  0.00000000000E+00 0. -1.
        -14    1    5    5    0    0 -0.84280488139E+01  0.50540710818E+02  0.39335494499E+03  0.39667809141E+03  0.00000000000E+00 0.  1.
          5    1    4    4  501    0 -0.26763435425E+02  0.18511329572E+02  0.29023377263E+02  0.43803876838E+02  0.41800000000E+01 0.  1.
         -5    1    4    4    0  501  0.35703817199E+02  0.35376417775E+02 -0.95551297342E+02  0.10804525126E+03  0.41800000000E+01 0.  1.
</event>
<event>
11    1  0.7157190E-009  0.1440272E+03  0.7561462E-02  0.1103143E+00
         22   -1    0    0    0    0  0.00000000000E+00  0.00000000000E+00  0.25992031679E+03  0.25992031679E+03  0.00000000000E+00 0. -1.
         22   -1    0    0    0    0 -0.00000000000E+00 -0.00000000000E+00 -0.62398801798E+03  0.62398801798E+03  0.00000000000E+00 0.  1.
        -24    2    1    2    0    0  0.22514944675E+02 -0.69682928452E+02 -0.51226968984E+03  0.52211292085E+03  0.69419260577E+02 0.  0.
         25    2    1    2    0    0  0.34964142340E+01  0.56852398302E+02 -0.49432910537E+02  0.14606719805E+03  0.12509034174E+03 0.  0.
         24    2    1    2    0    0 -0.26011358909E+02  0.12830530150E+02  0.19763489919E+03  0.21572821587E+03  0.81473286717E+02 0.  0.
        -13    1    5    5    0    0 -0.57489906799E+01  0.35283339734E+02  0.34045458538E+02  0.49366569698E+02  0.00000000000E+00 0.  1.
         14    1    5    5    0    0 -0.20262368229E+02 -0.22452809584E+02  0.16358944065E+03  0.16636164617E+03  0.00000000000E+00 0. -1.
         13    1    3    3    0    0  0.33433146117E+02 -0.52909523312E+02 -0.48053913240E+03  0.48459782365E+03  0.00000000000E+00 0. -1.
        -14    1    3    3    0    0 -0.10918201442E+02 -0.16773405140E+02 -0.31730557444E+02  0.37515097207E+02  0.00000000000E+00 0.  1.
          5    1    4    4  501    0  0.41736424519E+02  0.29636986934E+01  0.23003450334E+02  0.47930614109E+02  0.41800000000E+01 0. -1.
         -5    1    4    4    0  501 -0.38240010285E+02  0.53888699609E+02 -0.72436360871E+02  0.98136583945E+02  0.41800000000E+01 0. -1.
</event>
<event>
11    1  0.7157190E-009  0.1485646E+03  0.7561462E-02  0.1098355E+00
         22   -1    0    0    0    0  0.00000000000E+00  0.00000000000E+00  0.59234841956E+03  0.59234841956E+03  0.00000000000E+00 0.  1.
         22   -1    0    0    0    0 -0.00000000000E+00 -0.00000000000E+00 -0.21267528421E+03  0.21267528421E+03  0.00000000000E+00 0.  1.
        -24    2    1    2    0    0  0.69861473344E+02 -0.25483330695E+02 -0.12224013807E+03  0.16398240799E+03  0.80109632217E+02 0.  0.
         25    2    1    2    0    0 -0.10917706956E+03  0.20221986332E+02  0.42007232762E+02  0.17245727131E+03  0.12509333146E+03 0.  0.
         24    2    1    2    0    0  0.39315596211E+02  0.52613443633E+01  0.45990604066E+03  0.46858402446E+03  0.80523436870E+02 0.  0.
        -11    1    5    5    0    0  0.17360796497E+00  0.18835879906E+02  0.35914165033E+03  0.35963529515E+03  0.00000000000E+00 0.  1.
         12    1    5    5    0    0  0.39141988246E+02 -0.13574535542E+02  0.10076439033E+03  0.10894872931E+03  0.00000000000E+00 0. -1.
         11    1    3    3    0    0  0.72992950008E+02  0.91665852294E+01 -0.92686109075E+02  0.11833305477E+03  0.00000000000E+00 0. -1.
        -12    1    3    3    0    0 -0.31314766646E+01 -0.34649915925E+02 -0.29554029000E+02  0.45649353225E+02  0.00000000000E+00 0.  1.
          5    1    4    4  501    0  0.22771609241E+02 -0.15686894108E+01  0.30271478962E+02  0.38142388657E+02  0.41800000000E+01 0.  1.
         -5    1    4    4    0  501 -0.13194867880E+03  0.21790675743E+02  0.11735753800E+02  0.13431488266E+03  0.41800000000E+01 0.  1.
</event>
<event>
11    1  0.7157190E-009  0.1715202E+03  0.7561462E-02  0.1076716E+00
         22   -1    0    0    0    0  0.00000000000E+00  0.00000000000E+00  0.77990044557E+03  0.77990044557E+03  0.00000000000E+00 0.  1.
         22   -1    0    0    0    0 -0.00000000000E+00 -0.00000000000E+00 -0.90492990754E+03  0.90492990754E+03  0.00000000000E+00 0.  1.
         24    2    1    2    0    0 -0.34889373494E+02 -0.33592840039E+02 -0.73044104649E+03  0.73642424936E+03  0.80192302447E+02 0.  0.
         25    2    1    2    0    0  0.14902293592E+03  0.53048144735E+02 -0.10315606581E+03  0.22652581621E+03  0.12510327896E+03 0.  0.
        -24    2    1    2    0    0 -0.11413356243E+03 -0.19455304696E+02  0.70856765032E+03  0.72188028754E+03  0.75086986238E+02 0.  0.
        -11    1    3    3    0    0 -0.31065483093E+02 -0.58464562758E+02 -0.44815843058E+03  0.45302223812E+03  0.00000000000E+00 0.  1.
         12    1    3    3    0    0 -0.38238904006E+01  0.24871722719E+02 -0.28228261591E+03  0.28340201124E+03  0.00000000000E+00 0. -1.
         11    1    5    5    0    0 -0.44668461794E+02  0.22993423926E+02  0.17251729560E+03  0.17968357271E+03  0.00000000000E+00 0. -1.
        -12    1    5    5    0    0 -0.69465100633E+02 -0.42448728622E+02  0.53605035472E+03  0.54219671482E+03  0.00000000000E+00 0.  1.
          5    1    4    4  501    0  0.14202016433E+03  0.86817732329E+02 -0.79624318017E+02  0.18456584230E+03  0.41800000000E+01 0.  1.
         -5    1    4    4    0  501  0.70027715862E+01 -0.33769587594E+02 -0.23531747795E+02  0.41959973909E+02  0.41800000000E+01 0.  1.
</event>
<event>
11    1  0.7157190E-009  0.1470296E+03  0.7561462E-02  0.1099953E+00
         22   -1    0    0    0    0  0.00000000000E+00  0.00000000000E+00  0.22465027697E+04  0.22465027697E+04  0.00000000000E+00 0. -1.
         22   -1    0    0    0    0 -0.00000000000E+00 -0.00000000000E+00 -0.13649840002E+04  0.13649840002E+04  0.00000000000E+00 0. -1.
        -24    2    1    2    0    0 -0.62126360012E+02 -0.46049015253E+02 -0.13488836320E+04  0.13535628265E+04  0.81639917928E+02 0.  0.
         25    2    1    2    0    0  0.45986202461E+01  0.98249248583E+02  0.51643961450E+03  0.54039953140E+03  0.12509083084E+03 0.  0.
         24    2    1    2    0    0  0.57527739766E+02 -0.52200233329E+02  0.17139627870E+04  0.17175244120E+04  0.78659806479E+02 0.  0.
        -13    1    5    5    0    0  0.33296125838E+02  0.88850711861E+00  0.22840663921E+03  0.23082247351E+03  0.00000000000E+00 0.  1.
         14    1    5    5    0    0  0.24231613928E+02 -0.53088740448E+02  0.14855561478E+04  0.14867019385E+04  0.00000000000E+00 0. -1.
         13    1    3    3    0    0 -0.41789701115E+02 -0.69604873704E+02 -0.10050806579E+04  0.10083542763E+04  0.00000000000E+00 0. -1.
        -14    1    3    3    0    0 -0.20336658897E+02  0.23555858450E+02 -0.34380297405E+03  0.34520855020E+03  0.00000000000E+00 0.  1.
          5    1    4    4  501    0 -0.33910513911E+02  0.97428973472E+02  0.46312458782E+03  0.47449360803E+03  0.41800000000E+01 0.  1.
         -5    1    4    4    0  501  0.38509134157E+02  0.82027511059E+00  0.53315026680E+02  0.65905923365E+02  0.41800000000E+01 0.  1.
</event>
<event>
11    1  0.7157190E-009  0.1808673E+03  0.7561462E-02  0.1068943E+00
         22   -1    0    0    0    0  0.00000000000E+00  0.00000000000E+00  0.15792934647E+04  0.15792934647E+04  0.00000000000E+00 0.  1.
         22   -1    0    0    0    0 -0.00000000000E+00 -0.00000000000E+00 -0.64877381331E+03  0.64877381331E+03  0.00000000000E+00 0.  1.
        -24    2    1    2    0    0  0.49774994106E+01 -0.13367574207E+03 -0.61747980699E+03  0.63679851833E+03  0.79605661792E+02 0.  0.
         25    2    1    2    0    0 -0.31423438258E+02  0.48114205820E+02  0.23163742522E+03  0.26945436439E+03  0.12508936187E+03 0.  0.
         24    2    1    2    0    0  0.26445938847E+02  0.85561536254E+02  0.13163620331E+04  0.13218143953E+04  0.79775491988E+02 0.  0.
        -13    1    5    5    0    0  0.24161332347E+02  0.84747611836E+02  0.13164415359E+04  0.13193878297E+04  0.00000000000E+00 0.  1.
         14    1    5    5    0    0  0.22846065004E+01  0.81392441705E+00 -0.79502775157E-01  0.24265655791E+01  0.00000000000E+00 0. -1.
         13    1    3    3    0    0 -0.28461129278E+02 -0.56897376875E+02 -0.37267465913E+03  0.37806579974E+03  0.00000000000E+00 0. -1.
        -14    1    3    3    0    0  0.33438628689E+02 -0.76778365198E+02 -0.24480514786E+03  0.25873271859E+03  0.00000000000E+00 0.  1.
          5    1    4    4  501    0 -0.50136277693E+02  0.83423721519E+02  0.16753115480E+03  0.19379712042E+03  0.41800000000E+01 0.  1.
         -5    1    4    4    0  501  0.18712839435E+02 -0.35309515700E+02  0.64106270415E+02  0.75657243970E+02  0.41800000000E+01 0.  1.
</event>
<event>
11    1  0.7157190E-009  0.1383784E+03  0.7561462E-02  0.1109383E+00
         22   -1    0    0    0    0  0.00000000000E+00  0.00000000000E+00  0.28473750620E+04  0.28473750620E+04  0.00000000000E+00 0. -1.
         22   -1    0    0    0    0 -0.00000000000E+00 -0.00000000000E+00 -0.66804728686E+02  0.66804728686E+02  0.00000000000E+00 0.  1.
         24    2    1    2    0    0 -0.60619722133E+02  0.68647917730E+01  0.83085765738E+01  0.10443426340E+03  0.84354056506E+02 0.  0.
         25    2    1    2    0    0  0.50815552411E+02  0.56349712050E+02  0.28525085934E+03  0.32058415422E+03  0.12509451132E+03 0.  0.
        -24    2    1    2    0    0  0.98041697215E+01 -0.63214503823E+02  0.24870108974E+04  0.24891613731E+04  0.81295400863E+02 0.  0.
        -11    1    3    3    0    0 -0.77138316702E+02 -0.32438686076E-01 -0.11211703976E+02  0.77948850292E+02  0.00000000000E+00 0.  1.
         12    1    3    3    0    0  0.16518594569E+02  0.68972304590E+01  0.19520280550E+02  0.26485413104E+02  0.00000000000E+00 0. -1.
         13    1    5    5    0    0 -0.19027323845E+02 -0.70421135290E+02  0.18979270863E+04  0.18993284077E+04  0.00000000000E+00 0. -1.
        -14    1    5    5    0    0  0.28831493567E+02  0.72066314668E+01  0.58908381110E+03  0.58983296539E+03  0.00000000000E+00 0.  1.
          5    1    4    4  501    0  0.73779379954E+02 -0.71491895874E+01  0.18788627186E+03  0.20202284864E+03  0.41800000000E+01 0. -1.
         -5    1    4    4    0  501 -0.22963827543E+02  0.63498901637E+02  0.97364587485E+02  0.11856130558E+03  0.41800000000E+01 0. -1.
</event>
<event>
11    1  0.7157190E-009  0.1587105E+03  0.7561462E-02  0.1088296E+00
         22   -1    0    0    0    0  0.00000000000E+00  0.00000000000E+00  0.10067674008E+04  0.10067674008E+04  0.00000000000E+00 0.  1.
         22   -1    0    0    0    0 -0.00000000000E+00 -0.00000000000E+00 -0.26588356707E+03  0.26588356707E+03  0.00000000000E+00 0. -1.
        -24    2    1    2    0    0 -0.11704806947E+02 -0.68272562074E+02 -0.19507647080E+03  0.22217760827E+03  0.80684043788E+02 0.  0.
         25    2    1    2    0    0  0.23240775007E+02  0.15976564060E+03  0.14500615110E+03  0.25047830848E+03  0.12508959039E+03 0.  0.
         24    2    1    2    0    0 -0.11535968059E+02 -0.91493078530E+02  0.79095415341E+03  0.79999505109E+03  0.76678204173E+02 0.  0.
        -11    1    5    5    0    0 -0.17157337233E+02 -0.56055795615E+02  0.21275691609E+03  0.22068559488E+03  0.00000000000E+00 0.  1.
         12    1    5    5    0    0  0.56213691736E+01 -0.35437282915E+02  0.57819723732E+03  0.57930945621E+03  0.00000000000E+00 0. -1.
         11    1    3    3    0    0 -0.32854367096E+00 -0.81763557230E+02 -0.18398238864E+03  0.20133282534E+03  0.00000000000E+00 0. -1.
        -12    1    3    3    0    0 -0.11376263276E+02  0.13490995156E+02 -0.11094082156E+02  0.20844782928E+02  0.00000000000E+00 0.  1.
          5    1    4    4  501    0 -0.27423907926E+02 -0.58591364855E+01  0.35854176204E+02  0.45709895620E+02  0.41800000000E+01 0. -1.
         -5    1    4    4    0  501  0.50664682933E+02  0.16562477709E+03  0.10915197490E+03  0.20476841286E+03  0.41800000000E+01 0. -1.
</event>
<event>
11    1  0.7157190E-009  0.2982167E+03  0.7561462E-02  0.1000949E+00
         22   -1    0    0    0    0  0.00000000000E+00  0.00000000000E+00  0.38119116750E+04  0.38119116750E+04  0.00000000000E+00 0.  1.
         22   -1    0    0    0    0 -0.00000000000E+00 -0.00000000000E+00 -0.23467426917E+03  0.23467426917E+03  0.00000000000E+00 0. -1.
         24    2    1    2    0    0 -0.26534204905E+02  0.71012342843E+02 -0.16573172518E+03  0.19892932869E+03  0.79743690757E+02 0.  0.
         25    2    1    2    0    0  0.18953348455E+03  0.15099121888E+03  0.35538531156E+03  0.44796095768E+03  0.12509600309E+03 0.  0.
        -24    2    1    2    0    0 -0.16299927965E+03 -0.22200356172E+03  0.33875838194E+04  0.33996956578E+04  0.79699970156E+02 0.  0.
        -13    1    3    3    0    0 -0.20289961064E+01  0.39130975782E+01  0.90757591808E+01  0.10089527371E+02  0.00000000000E+00 0.  1.
         14    1    3    3    0    0 -0.24505208799E+02  0.67099245265E+02 -0.17480748436E+03  0.18883980132E+03  0.00000000000E+00 0. -1.
         13    1    5    5    0    0 -0.37557127964E+02 -0.11591664431E+03  0.15505361957E+04  0.15553165917E+04  0.00000000000E+00 0. -1.
        -14    1    5    5    0    0 -0.12544215168E+03 -0.10608691741E+03  0.18370476237E+04  0.18443790661E+04  0.00000000000E+00 0.  1.
          5    1    4    4  501    0  0.84873682584E+01  0.16616626505E+02  0.12177868814E+03  0.12327071421E+03  0.41800000000E+01 0.  1.
         -5    1    4    4    0  501  0.18104611630E+03  0.13437459237E+03  0.23360662343E+03  0.32469024348E+03  0.41800000000E+01 0.  1.
</event>
<event>
11    1  0.7157190E-009  0.1529234E+03  0.7561462E-02  0.1093929E+00
         22   -1    0    0    0    0  0.00000000000E+00  0.00000000000E+00  0.90300272415E+03  0.90300272415E+03  0.00000000000E+00 0. -1.
         22   -1    0    0    0    0 -0.00000000000E+00 -0.00000000000E+00 -0.17556065807E+03  0.17556065807E+03  0.00000000000E+00 0. -1.
        -24    2    1    2    0    0 -0.29445584994E+02 -0.48983203089E+01 -0.10743248764E+03  0.13376611600E+03  0.73895861674E+02 0.  0.
         25    2    1    2    0    0  0.68614857450E+02 -0.73004137397E+02  0.77121492099E+02  0.17785560038E+03  0.12508911744E+03 0.  0.
         24    2    1    2    0    0 -0.39169272456E+02  0.77902457706E+02  0.75775306163E+03  0.76694166584E+03  0.80042436057E+02 0.  0.
        -13    1    5    5    0    0 -0.51886005928E+02  0.48604194970E+02  0.30987177517E+03  0.31792301337E+03  0.00000000000E+00 0.  1.
         14    1    5    5    0    0  0.12716733472E+02  0.29298262737E+02  0.44788128645E+03  0.44901865247E+03  0.00000000000E+00 0. -1.
         11    1    3    3    0    0 -0.14670575399E+01 -0.12113600180E+02 -0.10394928272E+03  0.10466300657E+03  0.00000000000E+00 0. -1.
        -12    1    3    3    0    0 -0.27978527454E+02  0.72152798713E+01 -0.34832049241E+01  0.29103109433E+02  0.00000000000E+00 0.  1.
          5    1    4    4  501    0  0.79938940682E+02 -0.62863395289E+02  0.10474404256E+03  0.14605077047E+03  0.41800000000E+01 0. -1.
         -5    1    4    4    0  501 -0.11324083232E+02 -0.10140742109E+02 -0.27622550457E+02  0.31804829905E+02  0.41800000000E+01 0. -1.
</event>
<event>
11    1  0.7157190E-009  0.1890345E+03  0.7561462E-02  0.1062561E+00
         22   -1    0    0    0    0  0.00000000000E+00  0.00000000000E+00  0.50539507049E+04  0.50539507049E+04  0.00000000000E+00 0.  1.
         22   -1    0    0    0    0 -0.00000000000E+00 -0.00000000000E+00 -0.32075191297E+03  0.32075191297E+03  0.00000000000E+00 0. -1.
        -24    2    1    2    0    0 -0.13760299649E+03 -0.16948974271E+02 -0.16424048986E+03  0.22906373640E+03  0.79204825945E+02 0.  0.
         25    2    1    2    0    0  0.13905137691E+03  0.70187072614E+02 -0.42894480490E+02  0.20432708919E+03  0.12509241518E+03 0.  0.
         24    2    1    2    0    0 -0.14483804276E+01 -0.53238098344E+02  0.49403337622E+04  0.49413117922E+04  0.82632638559E+02 0.  0.
        -11    1    5    5    0    0 -0.20255663284E+02 -0.51064259010E+02  0.46669253603E+04  0.46672486723E+04  0.00000000000E+00 0.  1.
         12    1    5    5    0    0  0.18807282857E+02 -0.21738393331E+01  0.27340840198E+03  0.27406311999E+03  0.00000000000E+00 0. -1.
         11    1    3    3    0    0 -0.48669865086E+02 -0.44202482734E+01 -0.11869901141E+03  0.12836568729E+03  0.00000000000E+00 0. -1.
        -12    1    3    3    0    0 -0.88933131401E+02 -0.12528725997E+02 -0.45541478447E+02  0.10069804911E+03  0.00000000000E+00 0.  1.
          5    1    4    4  501    0  0.68468425552E+02  0.79329327868E+02 -0.72115452038E+02  0.12727599294E+03  0.41800000000E+01 0.  1.
         -5    1    4    4    0  501  0.70582951362E+02 -0.91422552535E+01  0.29220971548E+02  0.77051096244E+02  0.41800000000E+01 0.  1.
</event>
<event>
11    1  0.7157190E-009  0.1530786E+03  0.7561462E-02  0.1093774E+00
         22   -1    0    0    0    0  0.00000000000E+00  0.00000000000E+00  0.19381878183E+04  0.19381878183E+04  0.00000000000E+00 0. -1.
         22   -1    0    0    0    0 -0.00000000000E+00 -0.00000000000E+00 -0.55725760017E+02  0.55725760017E+02  0.00000000000E+00 0. -1.
        -24    2    1    2    0    0 -0.42229898017E+02 -0.74626611774E+02  0.36969879910E+02  0.11363897034E+03  0.64765330917E+02 0.  0.
         25    2    1    2    0    0  0.10112872107E+03  0.58364897939E+02  0.43682083920E+03  0.46913484877E+03  0.12506630737E+03 0.  0.
         24    2    1    2    0    0 -0.58898823053E+02  0.16261713835E+02  0.14086713392E+04  0.14111397592E+04  0.56806368339E+02 0.  0.
        -13    1    5    5    0    0 -0.14454457181E+02  0.91850223654E+01  0.85237501953E+02  0.86940943792E+02  0.00000000000E+00 0.  1.
         14    1    5    5    0    0 -0.44444365872E+02  0.70766914698E+01  0.13234338373E+04  0.13241988155E+04  0.00000000000E+00 0. -1.
         11    1    3    3    0    0 -0.30907822333E+02 -0.30181016926E+02  0.49885092229E+02  0.65990224206E+02  0.00000000000E+00 0. -1.
        -12    1    3    3    0    0 -0.11322075684E+02 -0.44445594848E+02 -0.12915212320E+02  0.47648746137E+02  0.00000000000E+00 0.  1.
          5    1    4    4  501    0  0.41942720972E+02  0.59508461920E+02  0.38013820269E+03  0.38706972812E+03  0.41800000000E+01 0.  1.
         -5    1    4    4    0  501  0.59186000098E+02 -0.11435639811E+01  0.56682636505E+02  0.82065120650E+02  0.41800000000E+01 0.  1.
</event>
<event>
11    1  0.7157190E-009  0.1298147E+03  0.7561462E-02  0.1119497E+00
         22   -1    0    0    0    0  0.00000000000E+00  0.00000000000E+00  0.57242484191E+03  0.57242484191E+03  0.00000000000E+00 0. -1.
         22   -1    0    0    0    0 -0.00000000000E+00 -0.00000000000E+00 -0.31679435253E+03  0.31679435253E+03  0.00000000000E+00 0. -1.
         24    2    1    2    0    0 -0.13571770079E+02  0.35936264225E+01 -0.28309883812E+03  0.29465061473E+03  0.80479348439E+02 0.  0.
         25    2    1    2    0    0  0.83008128187E+01  0.31651582359E+02  0.15947589733E+03  0.20530435498E+03  0.12508633093E+03 0.  0.
        -24    2    1    2    0    0  0.52709572606E+01 -0.35245208782E+02  0.37925343017E+03  0.38926422473E+03  0.80146519753E+02 0.  0.
        -13    1    3    3    0    0 -0.10040273945E+02  0.21933006792E+02 -0.21280846890E+02  0.32167348852E+02  0.00000000000E+00 0.  1.
         14    1    3    3    0    0 -0.35314961344E+01 -0.18339380369E+02 -0.26181799123E+03  0.26248326588E+03  0.00000000000E+00 0. -1.
         11    1    5    5    0    0 -0.36967711839E+01 -0.42167213429E+02  0.37465406862E+03  0.37703767868E+03  0.00000000000E+00 0. -1.
        -12    1    5    5    0    0  0.89677284445E+01  0.69220046476E+01  0.45993615442E+01  0.12226546054E+02  0.00000000000E+00 0.  1.
          5    1    4    4  501    0 -0.20779988575E+02 -0.13958060394E+02  0.14760072548E+03  0.14976675845E+03  0.41800000000E+01 0.  1.
         -5    1    4    4    0  501  0.29080801393E+02  0.45609642753E+02  0.11875171850E+02  0.55537596529E+02  0.41800000000E+01 0.  1.
</event>
<event>
11    1  0.7157190E-009  0.1511206E+03  0.7561462E-02  0.1095739E+00
         22   -1    0    0    0    0  0.00000000000E+00  0.00000000000E+00  0.79689548967E+02  0.79689548967E+02  0.00000000000E+00 0. -1.
         22   -1    0    0    0    0 -0.00000000000E+00 -0.00000000000E+00 -0.15031048795E+04  0.15031048795E+04  0.00000000000E+00 0. -1.
        -24    2    1    2    0    0  0.41718031015E+02 -0.78272894062E+02 -0.13131821987E+04  0.13187774557E+04  0.82821800938E+02 0.  0.
         25    2    1    2    0    0 -0.24439510301E+02  0.33308795183E+02 -0.10702055446E+03  0.16973402732E+03  0.12509786351E+03 0.  0.
         24    2    1    2    0    0 -0.17278520714E+02  0.44964098879E+02 -0.32125774041E+01  0.94282945441E+02  0.80985404126E+02 0.  0.
        -11    1    5    5    0    0  0.15029081617E+02  0.76441725085E+01 -0.32695209739E+02  0.36787000523E+02  0.00000000000E+00 0.  1.
         12    1    5    5    0    0 -0.32307602331E+02  0.37319926370E+02  0.29482632335E+02  0.57495944918E+02  0.00000000000E+00 0. -1.
         11    1    3    3    0    0  0.65547485343E+02 -0.69551327271E+02 -0.99115094310E+03  0.99574798618E+03  0.00000000000E+00 0. -1.
        -12    1    3    3    0    0 -0.23829454327E+02 -0.87215667908E+01 -0.32203125561E+03  0.32302946957E+03  0.00000000000E+00 0.  1.
          5    1    4    4  501    0  0.50824568774E+02  0.10915247285E+02 -0.32834863480E+02  0.61626942761E+02  0.41800000000E+01 0.  1.
         -5    1    4    4    0  501 -0.75264079075E+02  0.22393547899E+02 -0.74185690979E+02  0.10810708456E+03  0.41800000000E+01 0.  1.
</event>
<event>
11    1  0.7157190E-009  0.1572711E+03  0.7561462E-02  0.1089672E+00
         22   -1    0    0    0    0  0.00000000000E+00  0.00000000000E+00  0.26724336119E+03  0.26724336119E+03  0.00000000000E+00 0. -1.
         22   -1    0    0    0    0 -0.00000000000E+00 -0.00000000000E+00 -0.68668301235E+03  0.68668301235E+03  0.00000000000E+00 0. -1.
        -24    2    1    2    0    0 -0.57206711126E+02 -0.75960605925E+02 -0.50004804832E+03  0.51548675683E+03  0.81461183283E+02 0.  0.
         25    2    1    2    0    0  0.27923660400E+02  0.98269694813E+02 -0.13087226563E+03  0.20787372809E+03  0.12508906103E+03 0.  0.
         24    2    1    2    0    0  0.29283050726E+02 -0.22309088889E+02  0.21148066280E+03  0.23056588862E+03  0.84150851161E+02 0.  0.
        -11    1    5    5    0    0  0.23102096546E+02  0.91334847234E+01  0.10372133011E+02  0.26920411423E+02  0.00000000000E+00 0.  1.
         12    1    5    5    0    0  0.61809541805E+01 -0.31442573612E+02  0.20110852978E+03  0.20364547720E+03  0.00000000000E+00 0. -1.
         13    1    3    3    0    0 -0.28129349505E+01 -0.64448090492E+02 -0.33975736978E+03  0.34582732583E+03  0.00000000000E+00 0. -1.
        -14    1    3    3    0    0 -0.54393776176E+02 -0.11512515432E+02 -0.16029067854E+03  0.16965943099E+03  0.00000000000E+00 0.  1.
          5    1    4    4  501    0  0.58016721264E+02  0.72563167032E+02 -0.27307570809E+02  0.96925378408E+02  0.41800000000E+01 0.  1.
         -5    1    4    4    0  501 -0.30093060864E+02  0.25706527781E+02 -0.10356469483E+03  0.11094834968E+03  0.41800000000E+01 0.  1.
</event>
<event>
11    1  0.7157190E-009  0.1822579E+03  0.7561462E-02  0.1067831E+00
         22   -1    0    0    0    0  0.00000000000E+00  0.00000000000E+00  0.21247568798E+03  0.21247568798E+03  0.00000000000E+00 0.  1.
         22   -1    0    0    0    0 -0.00000000000E+00 -0.00000000000E+00 -0.18361204123E+04  0.18361204123E+04  0.00000000000E+00 0. -1.
         24    2    1    2    0    0  0.66172334749E+02  0.10049977477E+03 -0.89337802243E+03  0.90497492010E+03  0.79851940697E+02 0.  0.
         25    2    1    2    0    0 -0.12634128242E+03 -0.99975796969E+02 -0.91267595222E+03  0.93519190827E+03  0.12509689006E+03 0.  0.
        -24    2    1    2    0    0  0.60168947673E+02 -0.52397780321E+00  0.18240925036E+03  0.20842927189E+03  0.80926200641E+02 0.  0.
        -13    1    3    3    0    0  0.56376172966E+02  0.15551581671E+02 -0.32942441492E+03  0.33457520786E+03  0.00000000000E+00 0.  1.
         14    1    3    3    0    0  0.97961617823E+01  0.84948193101E+02 -0.56395360751E+03  0.57039971223E+03  0.00000000000E+00 0. -1.
         13    1    5    5    0    0  0.21089871883E+02 -0.31738096776E+02  0.31475745485E+02  0.49424811956E+02  0.00000000000E+00 0. -1.
        -14    1    5    5    0    0  0.39079075790E+02  0.31214118973E+02  0.15093350487E+03  0.15900445994E+03  0.00000000000E+00 0.  1.
          5    1    4    4  501    0 -0.12024730057E+03 -0.96469247349E+02 -0.91398838302E+03  0.92690774388E+03  0.41800000000E+01 0. -1.
         -5    1    4    4    0  501 -0.60939818523E+01 -0.35065496196E+01  0.13124307917E+01  0.82841643896E+01  0.41800000000E+01 0. -1.
</event>
<event>
11    1  0.7157190E-009  0.1610512E+03  0.7561462E-02  0.1086093E+00
         22   -1    0    0    0    0  0.00000000000E+00  0.00000000000E+00  0.89050871816E+02  0.89050871816E+02  0.00000000000E+00 0.  1.
         22   -1    0    0    0    0 -0.00000000000E+00 -0.00000000000E+00 -0.17944065737E+04  0.17944065737E+04  0.00000000000E+00 0.  1.
        -24    2    1    2    0    0 -0.67267278072E+02  0.91901401683E+01 -0.15354655792E+04  0.15390346676E+04  0.79773539714E+02 0.  0.
         25    2    1    2    0    0  0.10524678483E+03  0.66772592649E+02 -0.64836732075E+02  0.18811327682E+03  0.12508932105E+03 0.  0.
         24    2    1    2    0    0 -0.37979506762E+02 -0.75962732817E+02 -0.10505339057E+03  0.15630950111E+03  0.78636286513E+02 0.  0.
        -11    1    5    5    0    0 -0.58452510165E+02 -0.75060813262E+02 -0.83713382852E+02  0.12672313167E+03  0.00000000000E+00 0.  1.
         12    1    5    5    0    0  0.20473003403E+02 -0.90191955537E+00 -0.21340007722E+02  0.29586369443E+02  0.00000000000E+00 0. -1.
         13    1    3    3    0    0 -0.61380968937E+02 -0.24039755367E+02 -0.76669026041E+03  0.76951899820E+03  0.00000000000E+00 0. -1.
        -14    1    3    3    0    0 -0.58863091349E+01  0.33229895535E+02 -0.76877531883E+03  0.76951566939E+03  0.00000000000E+00 0.  1.
          5    1    4    4  501    0 -0.51012489425E+01 -0.25479296094E+02 -0.30302298184E+02  0.40136254751E+02  0.41800000000E+01 0. -1.
         -5    1    4    4    0  501  0.11034803378E+03  0.92251888743E+02 -0.34534433891E+02  0.14797702207E+03  0.41800000000E+01 0. -1.
</event>
<event>
11    1  0.7157190E-009  0.1696946E+03  0.7561462E-02  0.1078298E+00
         22   -1    0    0    0    0  0.00000000000E+00  0.00000000000E+00  0.63160537324E+03  0.63160537324E+03  0.00000000000E+00 0. -1.
         22   -1    0    0    0    0 -0.00000000000E+00 -0.00000000000E+00 -0.75328969558E+03  0.75328969558E+03  0.00000000000E+00 0.  1.
        -24    2    1    2    0    0 -0.64518942543E+02  0.94597734392E+02 -0.54107900200E+03  0.55851490857E+03  0.77852369195E+02 0.  0.
         25    2    1    2    0    0  0.85731874556E+02 -0.80582142259E+02 -0.16335863719E+03  0.23701106165E+03  0.12507902715E+03 0.  0.
         24    2    1    2    0    0 -0.21212932013E+02 -0.14015592133E+02  0.58275331686E+03  0.58936909860E+03  0.84309434616E+02 0.  0.
        -11    1    5    5    0    0  0.20210973757E+02 -0.25469765225E+02  0.11105655533E+03  0.11571841203E+03  0.00000000000E+00 0.  1.
         12    1    5    5    0    0 -0.41423905771E+02  0.11454173092E+02  0.47169676153E+03  0.47365068657E+03  0.00000000000E+00 0. -1.
         11    1    3    3    0    0 -0.48368238207E+01  0.96679904278E+01 -0.40473278349E+01  0.11543212992E+02  0.00000000000E+00 0. -1.
        -12    1    3    3    0    0 -0.59682118722E+02  0.84929743965E+02 -0.53703167417E+03  0.54697169558E+03  0.00000000000E+00 0.  1.
          5    1    4    4  501    0  0.60298496646E+02 -0.10286964618E+03 -0.16414647132E+03  0.20292759608E+03  0.41800000000E+01 0. -1.
         -5    1    4    4    0  501  0.25433377910E+02  0.22287503916E+02  0.78783412809E+00  0.34083465571E+02  0.41800000000E+01 0. -1.
</event>
<event>
11    1  0.7157190E-009  0.3713592E+03  0.7561462E-02  0.9738261E-01
         22   -1    0    0    0    0  0.00000000000E+00  0.00000000000E+00  0.12953806988E+03  0.12953806988E+03  0.00000000000E+00 0. -1.
         22   -1    0    0    0    0 -0.00000000000E+00 -0.00000000000E+00 -0.16899293280E+04  0.16899293280E+04  0.00000000000E+00 0.  1.
        -24    2    1    2    0    0 -0.33470492905E+03  0.24001596274E+03 -0.81140001792E+03  0.91281915490E+03  0.72344789567E+02 0.  0.
         25    2    1    2    0    0  0.20850834406E+03 -0.22287458914E+03 -0.66466423474E+03  0.74200744074E+03  0.12509070765E+03 0.  0.
         24    2    1    2    0    0  0.12619658499E+03 -0.17141373592E+02 -0.84327005465E+02  0.16464080224E+03  0.61450347116E+02 0.  0.
        -11    1    5    5    0    0  0.11386875928E+03 -0.16897955027E+02 -0.94278750574E+02  0.14879555784E+03  0.00000000000E+00 0.  1.
         12    1    5    5    0    0  0.12327825712E+02 -0.24341856472E+00  0.99517451098E+01  0.15845244401E+02  0.00000000000E+00 0. -1.
         11    1    3    3    0    0 -0.13901636899E+03  0.11999862844E+03 -0.43140247795E+03  0.46886386047E+03  0.00000000000E+00 0. -1.
        -12    1    3    3    0    0 -0.19568856006E+03  0.12001733429E+03 -0.37999753997E+03  0.44395529443E+03  0.00000000000E+00 0.  1.
          5    1    4    4  501    0  0.23998185041E+02  0.14830739870E+02 -0.48091364789E+02  0.55911675861E+02  0.41800000000E+01 0.  1.
         -5    1    4    4    0  501  0.18451015902E+03 -0.23770532902E+03 -0.61657286995E+03  0.68609576487E+03  0.41800000000E+01 0.  1.
</event>
<event>
11    1  0.7157190E-009  0.2807477E+03  0.7561462E-02  0.1008685E+00
         22   -1    0    0    0    0  0.00000000000E+00  0.00000000000E+00  0.11307238592E+04  0.11307238592E+04  0.00000000000E+00 0.  1.
         22   -1    0    0    0    0 -0.00000000000E+00 -0.00000000000E+00 -0.12253582458E+04  0.12253582458E+04  0.00000000000E+00 0.  1.
         24    2    1    2    0    0  0.71400713616E+02 -0.61356902875E+02 -0.70391838947E+03  0.71357080867E+03  0.69422392084E+02 0.  0.
         25    2    1    2    0    0 -0.30291541629E+01  0.30192518711E+03 -0.44716051720E+03  0.55386609842E+03  0.12508849849E+03 0.  0.
        -24    2    1    2    0    0 -0.68371559453E+02 -0.24056828423E+03  0.10564445201E+04  0.10886451978E+04  0.80781020703E+02 0.  0.
        -13    1    3    3    0    0  0.73404893012E+02 -0.33858301356E+02 -0.61979365276E+03  0.62504306643E+03  0.00000000000E+00 0.  1.
         14    1    3    3    0    0 -0.20041793961E+01 -0.27498601519E+02 -0.84124736707E+02  0.88527742243E+02  0.00000000000E+00 0. -1.
         11    1    5    5    0    0 -0.47599736211E+00 -0.13295547882E+03  0.46293723521E+03  0.48165160611E+03  0.00000000000E+00 0. -1.
        -12    1    5    5    0    0 -0.67895562091E+02 -0.10761280541E+03  0.59350728485E+03  0.60699359173E+03  0.00000000000E+00 0.  1.
          5    1    4    4  501    0 -0.61817757999E+02  0.15326353510E+03 -0.25456601052E+03  0.30353331367E+03  0.41800000000E+01 0. -1.
         -5    1    4    4    0  501  0.58788603836E+02  0.14866165201E+03 -0.19259450668E+03  0.25033278475E+03  0.41800000000E+01 0. -1.
</event>
<event>
11    1  0.7157190E-009  0.1741818E+03  0.7561462E-02  0.1074449E+00
         22   -1    0    0    0    0  0.00000000000E+00  0.00000000000E+00  0.62651013968E+03  0.62651013968E+03  0.00000000000E+00 0.  1.
         22   -1    0    0    0    0 -0.00000000000E+00 -0.00000000000E+00 -0.47668238500E+03  0.47668238500E+03  0.00000000000E+00 0.  1.
        -24    2    1    2    0    0  0.98005113355E+02  0.43538047874E+02 -0.26731756934E+03  0.29835027728E+03  0.77805149054E+02 0.  0.
         25    2    1    2    0    0 -0.14903132103E+03 -0.10461001442E+03 -0.12306207182E+03  0.25287374003E+03  0.12508902875E+03 0.  0.
         24    2    1    2    0    0  0.51026207672E+02  0.61071966542E+02  0.54020739584E+03  0.55196850737E+03  0.80695375606E+02 0.  0.
        -13    1    5    5    0    0  0.37434094526E+02  0.28403635636E+02  0.47877074733E+03  0.48107120725E+03  0.00000000000E+00 0.  1.
         14    1    5    5    0    0  0.13592113147E+02  0.32668330906E+02  0.61436648514E+02  0.70897300123E+02  0.00000000000E+00 0. -1.
         11    1    3    3    0    0  0.46734143813E+02 -0.12848811642E+02 -0.57972682974E+02  0.75564569275E+02  0.00000000000E+00 0. -1.
        -12    1    3    3    0    0  0.51270969542E+02  0.56386859516E+02 -0.20934488637E+03  0.22278570801E+03  0.00000000000E+00 0.  1.
          5    1    4    4  501    0 -0.47765757399E+02 -0.25562728860E+02 -0.11123616684E+03  0.12379813366E+03  0.41800000000E+01 0. -1.
         -5    1    4    4    0  501 -0.10126556363E+03 -0.79047285556E+02 -0.11825904984E+02  0.12907560637E+03  0.41800000000E+01 0. -1.
</event>
<event>
11    1  0.7157190E-009  0.1595192E+03  0.7561462E-02  0.1087530E+00
         22   -1    0    0    0    0  0.00000000000E+00  0.00000000000E+00  0.71584043847E+03  0.71584043847E+03  0.00000000000E+00 0.  1.
         22   -1    0    0    0    0 -0.00000000000E+00 -0.00000000000E+00 -0.47918353508E+03  0.47918353508E+03  0.00000000000E+00 0. -1.
        -24    2    1    2    0    0  0.52952264841E+02  0.33963477344E+02 -0.43662028834E+03  0.44831877358E+03  0.79968658929E+02 0.  0.
         25    2    1    2    0    0  0.47489928249E+02  0.26307691070E+02  0.15188023613E+03  0.20411387200E+03  0.12508988257E+03 0.  0.
         24    2    1    2    0    0 -0.10044219309E+03 -0.60271168415E+02  0.52139695560E+03  0.54259132797E+03  0.93964439986E+02 0.  0.
        -13    1    5    5    0    0 -0.57299780578E+02  0.13096966481E+02  0.14046868692E+03  0.15227031027E+03  0.00000000000E+00 0.  1.
         14    1    5    5    0    0 -0.43142412511E+02 -0.73368134895E+02  0.38092826868E+03  0.39032101770E+03  0.00000000000E+00 0. -1.
         13    1    3    3    0    0  0.14385661607E+02  0.49182605434E+02 -0.32938904006E+03  0.33335118966E+03  0.00000000000E+00 0. -1.
        -14    1    3    3    0    0  0.38566603234E+02 -0.15219128090E+02 -0.10723124828E+03  0.11496758392E+03  0.00000000000E+00 0.  1.
          5    1    4    4  501    0  0.61700752894E+02  0.60729841303E+02  0.61512659571E+02  0.10628441193E+03  0.41800000000E+01 0.  1.
         -5    1    4    4    0  501 -0.14210824646E+02 -0.34422150233E+02  0.90367576556E+02  0.97829460064E+02  0.41800000000E+01 0.  1.
</event>
<event>
11    1  0.7157190E-009  0.3135360E+03  0.7561462E-02  0.9946198E-01
         22   -1    0    0    0    0  0.00000000000E+00  0.00000000000E+00  0.26089561587E+03  0.26089561587E+03  0.00000000000E+00 0. -1.
         22   -1    0    0    0    0 -0.00000000000E+00 -0.00000000000E+00 -0.11772945239E+04  0.11772945239E+04  0.00000000000E+00 0.  1.
         24    2    1    2    0    0  0.11363839543E+02  0.29003212739E+02 -0.69653632758E+03  0.70184282574E+03  0.80312970377E+02 0.  0.
         25    2    1    2    0    0 -0.14536295935E+03  0.24203182055E+03  0.57827663512E+02  0.31416739915E+03  0.12508926378E+03 0.  0.
        -24    2    1    2    0    0  0.13399911981E+03 -0.27103503329E+03 -0.27769024399E+03  0.42217991490E+03  0.98530480363E+02 0.  0.
        -13    1    3    3    0    0  0.10596212040E+02 -0.96702318293E+01 -0.55299393724E+03  0.55317997769E+03  0.00000000000E+00 0.  1.
         14    1    3    3    0    0  0.76762750323E+00  0.38673444568E+02 -0.14354239034E+03  0.14866284805E+03  0.00000000000E+00 0. -1.
         13    1    5    5    0    0  0.89480371005E+02 -0.20208928970E+03 -0.13919267154E+03  0.26119230007E+03  0.00000000000E+00 0. -1.
        -14    1    5    5    0    0  0.44518748802E+02 -0.68945743588E+02 -0.13849757245E+03  0.16098761483E+03  0.00000000000E+00 0.  1.
          5    1    4    4  501    0 -0.12627487404E+03  0.13264535759E+03  0.81592191123E+02  0.20053651228E+03  0.41800000000E+01 0.  1.
         -5    1    4    4    0  501 -0.19088085308E+02  0.10938646296E+03 -0.23764527611E+02  0.11363088687E+03  0.41800000000E+01 0.  1.
</event>
<event>
11    1  0.7157190E-009  0.1389123E+03  0.7561462E-02  0.1108779E+00
         22   -1    0    0    0    0  0.00000000000E+00  0.00000000000E+00  0.20803691143E+03  0.20803691143E+03  0.00000000000E+00 0.  1.
         22   -1    0    0    0    0 -0.00000000000E+00 -0.00000000000E+00 -0.82911562673E+03  0.82911562673E+03  0.00000000000E+00 0. -1.
        -24    2    1    2    0    0  0.15701832073E+02  0.44370281585E+02 -0.75226480439E+03  0.75795827925E+03  0.79894603963E+02 0.  0.
         25    2    1    2    0    0  0.49881031088E+02 -0.36144728520E+02  0.55708715343E+02  0.15015078125E+03  0.12508891831E+03 0.  0.
         24    2    1    2    0    0 -0.65582863161E+02 -0.82255530646E+01  0.75477373750E+02  0.12904347766E+03  0.81157954104E+02 0.  0.
        -13    1    5    5    0    0 -0.36609004728E+02 -0.79731614804E+00  0.88984494480E+02  0.96224192374E+02  0.00000000000E+00 0.  1.
         14    1    5    5    0    0 -0.28973858432E+02 -0.74282369165E+01 -0.13507120730E+02  0.32819285284E+02  0.00000000000E+00 0. -1.
         11    1    3    3    0    0 -0.68782334083E+01  0.47880249647E+01 -0.57072048940E+03  0.57078201820E+03  0.00000000000E+00 0. -1.
        -12    1    3    3    0    0  0.22580065481E+02  0.39582256620E+02 -0.18154431499E+03  0.18717626105E+03  0.00000000000E+00 0.  1.
          5    1    4    4  501    0  0.67830864494E+02 -0.71749661322E+02  0.45396584520E+02  0.10875367747E+03  0.41800000000E+01 0. -1.
         -5    1    4    4    0  501 -0.17949833407E+02  0.35604932802E+02  0.10312130823E+02  0.41397103779E+02  0.41800000000E+01 0. -1.
</event>
<event>
11    1  0.7157190E-009  0.1549430E+03  0.7561462E-02  0.1091932E+00
         22   -1    0    0    0    0  0.00000000000E+00  0.00000000000E+00  0.41555014845E+03  0.41555014845E+03  0.00000000000E+00 0. -1.
         22   -1    0    0    0    0 -0.00000000000E+00 -0.00000000000E+00 -0.60493461762E+03  0.60493461762E+03  0.00000000000E+00 0.  1.
        -24    2    1    2    0    0  0.15489336923E+02  0.49736098685E+02 -0.48747753338E+03  0.49682044760E+03  0.80514672796E+02 0.  0.
         25    2    1    2    0    0  0.72950710653E+02 -0.16773010739E+02 -0.50003143624E+02  0.15411205837E+03  0.12508825719E+03 0.  0.
         24    2    1    2    0    0 -0.88440047576E+02 -0.32963087946E+02  0.34809620783E+03  0.36955226011E+03  0.80558648576E+02 0.  0.
        -13    1    5    5    0    0  0.84799259029E+00  0.18251570936E+02  0.29105816611E+02  0.34365498595E+02  0.00000000000E+00 0.  1.
         14    1    5    5    0    0 -0.89288040166E+02 -0.51214658882E+02  0.31899039122E+03  0.33518676151E+03  0.00000000000E+00 0. -1.
         13    1    3    3    0    0 -0.85023730358E+01 -0.20215745540E+02 -0.10795124905E+03  0.11015642916E+03  0.00000000000E+00 0. -1.
        -14    1    3    3    0    0  0.23991709959E+02  0.69951844225E+02 -0.37952628433E+03  0.38666401844E+03  0.00000000000E+00 0.  1.
          5    1    4    4  501    0  0.91817940728E+02  0.83844764719E+01  0.29971665229E+01  0.92343321862E+02  0.41800000000E+01 0.  1.
         -5    1    4    4    0  501 -0.18867230076E+02 -0.25157487211E+02 -0.53000310147E+02  0.61768736503E+02  0.41800000000E+01 0.  1.
</event>
<event>
11    1  0.7157190E-009  0.1680119E+03  0.7561462E-02  0.1079775E+00
         22   -1    0    0    0    0  0.00000000000E+00  0.00000000000E+00  0.18525845803E+04  0.18525845803E+04  0.00000000000E+00 0.  1.
         22   -1    0    0    0    0 -0.00000000000E+00 -0.00000000000E+00 -0.16631497808E+04  0.16631497808E+04  0.00000000000E+00 0. -1.
         24    2    1    2    0    0 -0.10807206591E+03  0.29927674567E+02 -0.16495910890E+04  0.16553820911E+04  0.81017710185E+02 0.  0.
         25    2    1    2    0    0  0.10561279688E+03 -0.78946489754E+02  0.10469549636E+04  0.10626135110E+04  0.12508463871E+03 0.  0.
        -24    2    1    2    0    0  0.24592690295E+01  0.49018815187E+02  0.79207092495E+03  0.79773875895E+03  0.81251985405E+02 0.  0.
        -13    1    3    3    0    0 -0.61224756306E+02  0.13784417234E+02 -0.40760516046E+03  0.41240810828E+03  0.00000000000E+00 0.  1.
         14    1    3    3    0    0 -0.46847309601E+02  0.16143257332E+02 -0.12419859286E+04  0.12429739828E+04  0.00000000000E+00 0. -1.
         11    1    5    5    0    0 -0.48486589430E+01  0.74927801555E+01  0.65092459523E+01  0.11046335631E+02  0.00000000000E+00 0. -1.
        -12    1    5    5    0    0  0.73079279725E+01  0.41526035032E+02  0.78556167900E+03  0.78669242332E+03  0.00000000000E+00 0.  1.
          5    1    4    4  501    0  0.57899762680E+02 -0.78401383860E+02  0.94438983799E+03  0.94941497671E+03  0.41800000000E+01 0.  1.
         -5    1    4    4    0  501  0.47713034197E+02 -0.54510589377E+00  0.10256512560E+03  0.11319853428E+03  0.41800000000E+01 0.  1.
</event>
<event>
11    1  0.7157190E-009  0.1792273E+03  0.7561462E-02  0.1070270E+00
         22   -1    0    0    0    0  0.00000000000E+00  0.00000000000E+00  0.17284462115E+04  0.17284462115E+04  0.00000000000E+00 0.  1.
         22   -1    0    0    0    0 -0.00000000000E+00 -0.00000000000E+00 -0.67774884694E+03  0.67774884694E+03  0.00000000000E+00 0. -1.
        -24    2    1    2    0    0  0.41010560737E+02 -0.26080700190E+02 -0.57260319002E+03  0.58084354494E+03  0.84514741102E+02 0.  0.
         25    2    1    2    0    0 -0.12394038567E+03 -0.71569154840E+02 -0.49191593094E+01  0.19014531419E+03  0.12509068414E+03 0.  0.
         24    2    1    2    0    0  0.82929824929E+02  0.97649855030E+02  0.16282197139E+04  0.16352061993E+04  0.79918880739E+02 0.  0.
        -11    1    5    5    0    0  0.85392155068E+02  0.47410569419E+02  0.12190358431E+04  0.12229423408E+04  0.00000000000E+00 0.  1.
         12    1    5    5    0    0 -0.24623301389E+01  0.50239285611E+02  0.40918387083E+03  0.41226385851E+03  0.00000000000E+00 0. -1.
         13    1    3    3    0    0  0.45957793370E+02 -0.42858553663E+02 -0.54170391994E+03  0.54533669533E+03  0.00000000000E+00 0. -1.
        -14    1    3    3    0    0 -0.49472326328E+01  0.16777853473E+02 -0.30899270078E+02  0.35506849610E+02  0.00000000000E+00 0.  1.
          5    1    4    4  501    0 -0.75108128272E+02 -0.33784451502E+02 -0.64155040404E+02  0.10447947983E+03  0.41800000000E+01 0.  1.
         -5    1    4    4    0  501 -0.48832257395E+02 -0.37784703338E+02  0.59235881095E+02  0.85665834366E+02  0.41800000000E+01 0.  1.
</event>
<event>
11    1  0.7157190E-009  0.1541081E+03  0.7561462E-02  0.1092754E+00
         22   -1    0    0    0    0  0.00000000000E+00  0.00000000000E+00  0.35963824165E+03  0.35963824165E+03  0.00000000000E+00 0.  1.
         22   -1    0    0    0    0 -0.00000000000E+00 -0.00000000000E+00 -0.45941752858E+03  0.45941752858E+03  0.00000000000E+00 0.  1.
         24    2    1    2    0    0  0.20593243062E+02 -0.16704721568E+02 -0.29704746844E+03  0.30898084881E+03  0.80801219279E+02 0.  0.
         25    2    1    2    0    0  0.67754819283E+02  0.39226617754E+02 -0.10714888464E+03  0.18236777899E+03  0.12509068813E+03 0.  0.
        -24    2    1    2    0    0 -0.88348062345E+02 -0.22521896186E+02  0.30441706616E+03  0.32770714243E+03  0.80060009381E+02 0.  0.
        -13    1    3    3    0    0  0.75466928531E+01  0.32146647067E+02 -0.90548683914E+02  0.96381656187E+02  0.00000000000E+00 0.  1.
         14    1    3    3    0    0  0.13046550208E+02 -0.48851368635E+02 -0.20649878453E+03  0.21259919262E+03  0.00000000000E+00 0. -1.
         13    1    5    5    0    0 -0.15691699759E+02  0.15937462136E+02  0.15221140455E+02  0.27053932384E+02  0.00000000000E+00 0. -1.
        -14    1    5    5    0    0 -0.72656362586E+02 -0.38459358322E+02  0.28919592570E+03  0.30065321004E+03  0.00000000000E+00 0.  1.
          5    1    4    4  501    0  0.10077815548E+03  0.16469927244E+02 -0.53804414155E+02  0.11549840911E+03  0.41800000000E+01 0.  1.
         -5    1    4    4    0  501 -0.33023336194E+02  0.22756690510E+02 -0.53344470487E+02  0.66869369878E+02  0.41800000000E+01 0.  1.
</event>
<event>
11    1  0.7157190E-009  0.1566745E+03  0.7561462E-02  0.1090247E+00
         22   -1    0    0    0    0  0.00000000000E+00  0.00000000000E+00  0.51587570550E+03  0.51587570550E+03  0.00000000000E+00 0. -1.
         22   -1    0    0    0    0 -0.00000000000E+00 -0.00000000000E+00 -0.13574747208E+04  0.13574747208E+04  0.00000000000E+00 0.  1.
        -24    2    1    2    0    0  0.94308863507E+02  0.21416516034E+02 -0.12694661178E+04  0.12757979582E+04  0.82239753004E+02 0.  0.
         25    2    1    2    0    0 -0.41798607306E+02 -0.39784406427E+02 -0.20642429248E+02  0.13929845691E+03  0.12509207667E+03 0.  0.
         24    2    1    2    0    0 -0.52510256200E+02  0.18367890392E+02  0.44850953174E+03  0.45825401121E+03  0.75770920028E+02 0.  0.
        -11    1    5    5    0    0 -0.15801144161E+02  0.34739752962E+02  0.93687588210E+02  0.10116269459E+03  0.00000000000E+00 0.  1.
         12    1    5    5    0    0 -0.36709112039E+02 -0.16371862570E+02  0.35482194353E+03  0.35709131661E+03  0.00000000000E+00 0. -1.
         13    1    3    3    0    0  0.32744108078E+02 -0.26329523925E+02 -0.26450814017E+03  0.26782452588E+03  0.00000000000E+00 0. -1.
        -14    1    3    3    0    0  0.61564755429E+02  0.47746039959E+02 -0.10049579776E+04  0.10079734323E+04  0.00000000000E+00 0.  1.
          5    1    4    4  501    0 -0.82448198477E+02 -0.24424792378E+02  0.89547150397E+01  0.86555965919E+02  0.41800000000E+01 0.  1.
         -5    1    4    4    0  501  0.40649591170E+02 -0.15359614049E+02 -0.29597144287E+02  0.52742490991E+02  0.41800000000E+01 0.  1.
</event>
<event>
11    1  0.7157190E-009  0.1426791E+03  0.7561462E-02  0.1104603E+00
         22   -1    0    0    0    0  0.00000000000E+00  0.00000000000E+00  0.86256142974E+03  0.86256142974E+03  0.00000000000E+00 0. -1.
         22   -1    0    0    0    0 -0.00000000000E+00 -0.00000000000E+00 -0.43966771018E+02  0.43966771018E+02  0.00000000000E+00 0. -1.
        -24    2    1    2    0    0 -0.31728190060E+02  0.11655784375E+02  0.64024545856E+02  0.10878878508E+03  0.81199272990E+02 0.  0.
         25    2    1    2    0    0 -0.13123715994E+02  0.50611460877E+02  0.28787644518E+03  0.31820203956E+03  0.12508372556E+03 0.  0.
         24    2    1    2    0    0  0.44851906054E+02 -0.62267245251E+02  0.46669366769E+03  0.47953737611E+03  0.79146777066E+02 0.  0.
        -11    1    5    5    0    0  0.47556844600E+02 -0.38715732656E+02  0.15131625278E+03  0.16327023543E+03  0.00000000000E+00 0.  1.
         12    1    5    5    0    0 -0.27049385459E+01 -0.23551512595E+02  0.31537741491E+03  0.31626714068E+03  0.00000000000E+00 0. -1.
         11    1    3    3    0    0 -0.53619015038E+02 -0.28502686193E+01  0.19556240379E+02  0.57145160273E+02  0.00000000000E+00 0. -1.
        -12    1    3    3    0    0  0.21890824978E+02  0.14506052994E+02  0.44468305477E+02  0.51643624811E+02  0.00000000000E+00 0.  1.
          5    1    4    4  501    0 -0.51811583866E+02  0.72759031949E+02  0.21222283930E+03  0.23029182112E+03  0.41800000000E+01 0.  1.
         -5    1    4    4    0  501  0.38687867872E+02 -0.22147571072E+02  0.75653605875E+02  0.87910218443E+02  0.41800000000E+01 0.  1.
</event>
<event>
11    1  0.7157190E-009  0.2130158E+03  0.7561462E-02  0.1045683E+00
         22   -1    0    0    0    0  0.00000000000E+00  0.00000000000E+00  0.14703562868E+03  0.14703562868E+03  0.00000000000E+00 0.  1.
         22   -1    0    0    0    0 -0.00000000000E+00 -0.00000000000E+00 -0.23931742570E+04  0.23931742570E+04  0.00000000000E+00 0.  1.
         24    2    1    2    0    0 -0.27664979206E+02  0.17283284200E+03 -0.20353856358E+04  0.20444259826E+04  0.79033978633E+02 0.  0.
         25    2    1    2    0    0  0.82416982888E+02 -0.14135385493E+03 -0.29746368855E+03  0.36180667859E+03  0.12508379309E+03 0.  0.
        -24    2    1    2    0    0 -0.54752003682E+02 -0.31478987070E+02  0.86710695992E+02  0.13397722447E+03  0.80264832541E+02 0.  0.
        -13    1    3    3    0    0 -0.24773364831E+02  0.18090911293E+03 -0.18944521740E+04  0.19032316901E+04  0.00000000000E+00 0.  1.
         14    1    3    3    0    0 -0.28916143749E+01 -0.80762709308E+01 -0.14093346184E+03  0.14119429256E+03  0.00000000000E+00 0. -1.
         13    1    5    5    0    0 -0.43465403704E+02  0.20991565585E+02  0.36951991725E+02  0.60789282257E+02  0.00000000000E+00 0. -1.
        -14    1    5    5    0    0 -0.11286599978E+02 -0.52470552654E+02  0.49758704267E+02  0.73187942212E+02  0.00000000000E+00 0.  1.
          5    1    4    4  501    0  0.90126741781E+00 -0.77659843340E+02 -0.21750058179E+03  0.23098882880E+03  0.41800000000E+01 0.  1.
         -5    1    4    4    0  501  0.81515715470E+02 -0.63694011588E+02 -0.79963106756E+02  0.13081784979E+03  0.41800000000E+01 0.  1.
</event>
<event>
11    1  0.7157190E-009  0.1456244E+03  0.7561462E-02  0.1101436E+00
         22   -1    0    0    0    0  0.00000000000E+00  0.00000000000E+00  0.71957343005E+03  0.71957343005E+03  0.00000000000E+00 0.  1.
         22   -1    0    0    0    0 -0.00000000000E+00 -0.00000000000E+00 -0.44467021902E+03  0.44467021902E+03  0.00000000000E+00 0. -1.
        -24    2    1    2    0    0  0.14182229854E+02 -0.71533365816E+02 -0.37242166178E+03  0.38799540177E+03  0.80773631604E+02 0.  0.
         25    2    1    2    0    0  0.43133166321E+02  0.10944173675E+03  0.64095284835E+02  0.18328388898E+03  0.12508722813E+03 0.  0.
         24    2    1    2    0    0 -0.57315396175E+02 -0.37908370934E+02  0.58322958797E+03  0.59296435833E+03  0.82023647477E+02 0.  0.
        -11    1    5    5    0    0  0.28531395617E+01 -0.12653274779E+02  0.36395988033E+03  0.36419093929E+03  0.00000000000E+00 0.  1.
         12    1    5    5    0    0 -0.60168535736E+02 -0.25255096156E+02  0.21926970764E+03  0.22877341904E+03  0.00000000000E+00 0. -1.
         13    1    3    3    0    0  0.40650694838E+02 -0.66848048633E+02 -0.31535144229E+03  0.32491179226E+03  0.00000000000E+00 0. -1.
        -14    1    3    3    0    0 -0.26468464985E+02 -0.46853171826E+01 -0.57070219490E+02  0.63083609506E+02  0.00000000000E+00 0.  1.
          5    1    4    4  501    0  0.53367316115E+02  0.82073062380E+01  0.60761267918E+02  0.81393085603E+02  0.41800000000E+01 0.  1.
         -5    1    4    4    0  501 -0.10234149794E+02  0.10123443051E+03  0.33340169174E+01  0.10189080337E+03  0.41800000000E+01 0.  1.
</event>
<event>
11    1  0.7157190E-009  0.1651961E+03  0.7561462E-02  0.1082290E+00
         22   -1    0    0    0    0  0.00000000000E+00  0.00000000000E+00  0.37981051049E+03  0.37981051049E+03  0.00000000000E+00 0.  1.
         22   -1    0    0    0    0 -0.00000000000E+00 -0.00000000000E+00 -0.22930709034E+03  0.22930709034E+03  0.00000000000E+00 0.  1.
         24    2    1    2    0    0  0.36759437848E+02 -0.82033464429E+01 -0.11649011879E+03  0.14485346403E+03  0.77421102438E+02 0.  0.
         25    2    1    2    0    0 -0.80101214793E+02  0.10279171633E+03  0.16566885356E+02  0.18139297114E+03  0.12508639708E+03 0.  0.
        -24    2    1    2    0    0  0.43341776945E+02 -0.94588369883E+02  0.25042665359E+03  0.28287116564E+03  0.80480545352E+02 0.  0.
        -13    1    3    3    0    0 -0.11399017870E+02 -0.28359168631E+02 -0.63465101217E+02  0.70441458860E+02  0.00000000000E+00 0.  1.
         14    1    3    3    0    0  0.48158455718E+02  0.20155822188E+02 -0.53025017576E+02  0.74412005174E+02  0.00000000000E+00 0. -1.
         11    1    5    5    0    0 -0.20361019544E+02 -0.19700045624E+02  0.28718958595E+02  0.40341560421E+02  0.00000000000E+00 0. -1.
        -12    1    5    5    0    0  0.63702796489E+02 -0.74888324259E+02  0.22170769499E+03  0.24252960522E+03  0.00000000000E+00 0.  1.
          5    1    4    4  501    0 -0.89292524449E+02  0.17406200653E+02  0.26485205527E+02  0.94842338939E+02  0.41800000000E+01 0. -1.
         -5    1    4    4    0  501  0.91913096559E+01  0.85385515673E+02 -0.99183201716E+01  0.86550632204E+02  0.41800000000E+01 0. -1.
</event>
<event>
11    1  0.7157190E-009  0.1409995E+03  0.7561462E-02  0.1106447E+00
         22   -1    0    0    0    0  0.00000000000E+00  0.00000000000E+00  0.20185005813E+04  0.20185005813E+04  0.00000000000E+00 0. -1.
         22   -1    0    0    0    0 -0.00000000000E+00 -0.00000000000E+00 -0.39097756011E+02  0.39097756011E+02  0.00000000000E+00 0.  1.
        -24    2    1    2    0    0 -0.11211889776E+02 -0.18386991751E+02  0.46209119637E+02  0.96052012700E+02  0.81405887183E+02 0.  0.
         25    2    1    2    0    0 -0.53278948684E+02  0.31741407009E+02  0.37556073993E+03  0.40067267836E+03  0.12508622031E+03 0.  0.
         24    2    1    2    0    0  0.64490838460E+02 -0.13354415258E+02  0.15576329657E+04  0.15608736463E+04  0.75951794074E+02 0.  0.
        -13    1    5    5    0    0  0.38421109872E+02 -0.17880033506E+02  0.30167225403E+03  0.30463424977E+03  0.00000000000E+00 0.  1.
         14    1    5    5    0    0  0.26069728587E+02  0.45256182480E+01  0.12559607117E+04  0.12562393965E+04  0.00000000000E+00 0. -1.
         11    1    3    3    0    0  0.13216263975E+02  0.28454817080E+02  0.17620858136E+02  0.35983897648E+02  0.00000000000E+00 0. -1.
        -12    1    3    3    0    0 -0.24428153751E+02 -0.46841808830E+02  0.28588261501E+02  0.60068115051E+02  0.00000000000E+00 0.  1.
          5    1    4    4  501    0  0.22340451224E+02  0.53346162515E+02  0.20041056034E+03  0.20863071182E+03  0.41800000000E+01 0.  1.
         -5    1    4    4    0  501 -0.75619399908E+02 -0.21604755506E+02  0.17515017959E+03  0.19204196654E+03  0.41800000000E+01 0.  1.
</event>
<event>
11    1  0.7157190E-009  0.1364161E+03  0.7561462E-02  0.1111628E+00
         22   -1    0    0    0    0  0.00000000000E+00  0.00000000000E+00  0.63453440215E+03  0.63453440215E+03  0.00000000000E+00 0. -1.
         22   -1    0    0    0    0 -0.00000000000E+00 -0.00000000000E+00 -0.13859011902E+04  0.13859011902E+04  0.00000000000E+00 0.  1.
        -24    2    1    2    0    0  0.37241707565E+02  0.78295107486E+01 -0.10894673208E+04  0.10928635811E+04  0.77223816800E+02 0.  0.
         25    2    1    2    0    0 -0.31650422206E+02 -0.61909394371E+02 -0.27306141719E+03  0.30829259239E+03  0.12508901880E+03 0.  0.
         24    2    1    2    0    0 -0.55912853591E+01  0.54079883622E+02  0.61116194994E+03  0.61927941882E+03  0.83858054062E+02 0.  0.
        -11    1    5    5    0    0 -0.90439677182E+01 -0.15679514000E+02  0.29218850485E+03  0.29274863428E+03  0.00000000000E+00 0.  1.
         12    1    5    5    0    0  0.34526823592E+01  0.69759397623E+02  0.31897344510E+03  0.32653078454E+03  0.00000000000E+00 0. -1.
         13    1    3    3    0    0  0.25794485212E+02  0.11964594743E+01 -0.99133352106E+02  0.10244124405E+03  0.00000000000E+00 0. -1.
        -14    1    3    3    0    0  0.11447222352E+02  0.66330512742E+01 -0.99033396865E+03  0.99042233705E+03  0.00000000000E+00 0.  1.
          5    1    4    4  501    0 -0.21439742046E+02 -0.41439604677E+02 -0.28010525746E+03  0.28399530108E+03  0.41800000000E+01 0. -1.
         -5    1    4    4    0  501 -0.10210680160E+02 -0.20469789694E+02  0.70438402686E+01  0.24297291313E+02  0.41800000000E+01 0. -1.
</event>
<event>
11    1  0.7157190E-009  0.1768073E+03  0.7561462E-02  0.1072255E+00
         22   -1    0    0    0    0  0.00000000000E+00  0.00000000000E+00  0.19237906397E+03  0.19237906397E+03  0.00000000000E+00 0. -1.
         22   -1    0    0    0    0 -0.00000000000E+00 -0.00000000000E+00 -0.55084317933E+03  0.55084317933E+03  0.00000000000E+00 0.  1.
         24    2    1    2    0    0 -0.29625004601E+02  0.74356798575E+02 -0.33122901849E+03  0.34986506820E+03  0.79286372510E+02 0.  0.
         25    2    1    2    0    0  0.11416470144E+03  0.27145207073E+02 -0.12184102723E+03  0.21038787270E+03  0.12508948693E+03 0.  0.
        -24    2    1    2    0    0 -0.84539696835E+02 -0.10150200565E+03  0.94605930353E+02  0.18296930241E+03  0.84130054529E+02 0.  0.
        -13    1    3    3    0    0 -0.17162304960E+02 -0.28742951592E+00 -0.17941655532E+03  0.18023575575E+03  0.00000000000E+00 0.  1.
         14    1    3    3    0    0 -0.12462699641E+02  0.74644228091E+02 -0.15181246317E+03  0.16962931245E+03  0.00000000000E+00 0. -1.
         13    1    5    5    0    0 -0.99463114029E+02 -0.79851368609E+02  0.90405445020E+02  0.15634032305E+03  0.00000000000E+00 0. -1.
        -14    1    5    5    0    0  0.14923417194E+02 -0.21650637039E+02  0.42004853330E+01  0.26628979364E+02  0.00000000000E+00 0.  1.
          5    1    4    4  501    0  0.23132599711E+02 -0.28763550523E+02 -0.92262423817E+02  0.99459973139E+02  0.41800000000E+01 0. -1.
         -5    1    4    4    0  501  0.91032101725E+02  0.55908757596E+02 -0.29578603411E+02  0.11092789956E+03  0.41800000000E+01 0. -1.
</event>
<event>
11    1  0.7157190E-009  0.1410979E+03  0.7561462E-02  0.1106339E+00
         22   -1    0    0    0    0  0.00000000000E+00  0.00000000000E+00  0.39365376945E+03  0.39365376945E+03  0.00000000000E+00 0. -1.
         22   -1    0    0    0    0 -0.00000000000E+00 -0.00000000000E+00 -0.48733408924E+03  0.48733408924E+03  0.00000000000E+00 0. -1.
         24    2    1    2    0    0  0.21150554754E+02  0.37947319876E+02 -0.40406683781E+03  0.41420943770E+03  0.80075613055E+02 0.  0.
         25    2    1    2    0    0  0.43151279581E+02 -0.54256310414E+02  0.37934522230E+01  0.14306545827E+03  0.12509018714E+03 0.  0.
        -24    2    1    2    0    0 -0.64301834335E+02  0.16308990539E+02  0.30659306580E+03  0.32371296273E+03  0.79937883208E+02 0.  0.
        -13    1    3    3    0    0  0.47391215995E+02  0.53984047408E+01 -0.17636616231E+03  0.18270219850E+03  0.00000000000E+00 0.  1.
         14    1    3    3    0    0 -0.26240661240E+02  0.32548915135E+02 -0.22770067550E+03  0.23150723920E+03  0.00000000000E+00 0. -1.
         11    1    5    5    0    0 -0.66377784757E+02  0.40718311396E+02  0.25450417671E+03  0.26615102321E+03  0.00000000000E+00 0. -1.
        -12    1    5    5    0    0  0.20759504220E+01 -0.24409320857E+02  0.52088889088E+02  0.57561939519E+02  0.00000000000E+00 0.  1.
          5    1    4    4  501    0  0.69711971200E+02  0.11540231802E+02  0.10956234271E+02  0.71627141141E+02  0.41800000000E+01 0.  1.
         -5    1    4    4    0  501 -0.26560691620E+02 -0.65796542216E+02 -0.71627820480E+01  0.71438317124E+02  0.41800000000E+01 0.  1.
</event>
<event>
11    1  0.7157190E-009  0.1269409E+03  0.7561462E-02  0.1123086E+00
         22   -1    0    0    0    0  0.00000000000E+00  0.00000000000E+00  0.15229238655E+03  0.15229238655E+03  0.00000000000E+00 0. -1.
         22   -1    0    0    0    0 -0.00000000000E+00 -0.00000000000E+00 -0.12909644333E+04  0.12909644333E+04  0.00000000000E+00 0.  1.
         24    2    1    2    0    0  0.10543932240E+02 -0.20984138105E+02 -0.77081906420E+03  0.77536692508E+03  0.80500498240E+02 0.  0.
         25    2    1    2    0    0 -0.16713457763E+02  0.76233585452E+01 -0.49790722819E+03  0.51370902057E+03  0.12509154514E+03 0.  0.
        -24    2    1    2    0    0  0.61695255223E+01  0.13360779560E+02  0.13005424559E+03  0.15418087425E+03  0.81492709583E+02 0.  0.
        -11    1    3    3    0    0  0.16407590770E+02 -0.13615610467E+02 -0.76251088950E+03  0.76280892135E+03  0.00000000000E+00 0.  1.
         12    1    3    3    0    0 -0.58636585297E+01 -0.73685276375E+01 -0.83081746996E+01  0.12558003732E+02  0.00000000000E+00 0. -1.
         13    1    5    5    0    0 -0.96506398201E+01  0.14843446162E+02  0.13605045947E+03  0.13719763214E+03  0.00000000000E+00 0. -1.
        -14    1    5    5    0    0  0.15820165342E+02 -0.14826666023E+01 -0.59962138847E+01  0.16983242113E+02  0.00000000000E+00 0.  1.
          5    1    4    4  501    0 -0.52318909577E+02  0.45303238351E+02 -0.21022453544E+03  0.22136277782E+03  0.41800000000E+01 0. -1.
         -5    1    4    4    0  501  0.35605451814E+02 -0.37679879805E+02 -0.28768269274E+03  0.29234624274E+03  0.41800000000E+01 0. -1.
</event>
<event>
11    1  0.7157190E-009  0.1581994E+03  0.7561462E-02  0.1088783E+00
         22   -1    0    0    0    0  0.00000000000E+00  0.00000000000E+00  0.35669562364E+03  0.35669562364E+03  0.00000000000E+00 0. -1.
         22   -1    0    0    0    0 -0.00000000000E+00 -0.00000000000E+00 -0.61451974218E+03  0.61451974218E+03  0.00000000000E+00 0. -1.
         24    2    1    2    0    0  0.33563450713E+02  0.88445756400E+02 -0.51927539334E+03  0.53388835965E+03  0.80253905813E+02 0.  0.
         25    2    1    2    0    0 -0.33679341339E+02 -0.12353894507E+03  0.19545655884E+02  0.18007328837E+03  0.12509271577E+03 0.  0.
        -24    2    1    2    0    0  0.11589062582E+00  0.35093188670E+02  0.24190561891E+03  0.25725371780E+03  0.80184796165E+02 0.  0.
        -11    1    3    3    0    0  0.24036119408E+02  0.10074325761E+02 -0.37378593083E+02  0.45567381937E+02  0.00000000000E+00 0.  1.
         12    1    3    3    0    0  0.95273313052E+01  0.78371430639E+02 -0.48189680025E+03  0.48832097771E+03  0.00000000000E+00 0. -1.
         11    1    5    5    0    0  0.22386852243E+02  0.51897238010E+02  0.19120690441E+03  0.19938549285E+03  0.00000000000E+00 0. -1.
        -12    1    5    5    0    0 -0.22270961617E+02 -0.16804049341E+02  0.50698714503E+02  0.57868224941E+02  0.00000000000E+00 0.  1.
          5    1    4    4  501    0  0.19486756077E+02 -0.38663854448E+02 -0.43612054292E+02  0.61596355272E+02  0.41800000000E+01 0. -1.
         -5    1    4    4    0  501 -0.53166097416E+02 -0.84875090621E+02  0.63157710176E+02  0.11847693310E+03  0.41800000000E+01 0. -1.
</event>
<event>
11    1  0.7157190E-009  0.1719274E+03  0.7561462E-02  0.1076366E+00
         22   -1    0    0    0    0  0.00000000000E+00  0.00000000000E+00  0.13124656680E+04  0.13124656680E+04  0.00000000000E+00 0.  1.
         22   -1    0    0    0    0 -0.00000000000E+00 -0.00000000000E+00 -0.63465198046E+03  0.63465198046E+03  0.00000000000E+00 0.  1.
        -24    2    1    2    0    0  0.11827364100E+03  0.88093590056E+01 -0.59486135571E+03  0.61198247344E+03  0.81217339994E+02 0.  0.
         25    2    1    2    0    0 -0.10277500533E+03  0.37001056694E+02  0.20718031724E+03  0.26552160675E+03  0.12508501064E+03 0.  0.
         24    2    1    2    0    0 -0.15498635670E+02 -0.45810415699E+02  0.10654947260E+04  0.10696135683E+04  0.80345332070E+02 0.  0.
        -11    1    5    5    0    0 -0.15871310984E+02 -0.68814634534E+02  0.82876010912E+03  0.83176359075E+03  0.00000000000E+00 0.  1.
         12    1    5    5    0    0  0.37267531430E+00  0.23004218835E+02  0.23673461688E+03  0.23784997750E+03  0.00000000000E+00 0. -1.
         11    1    3    3    0    0  0.10161336049E+03  0.15772396118E+01 -0.30363916296E+03  0.32019447840E+03  0.00000000000E+00 0. -1.
        -12    1    3    3    0    0  0.16660280511E+02  0.72321193938E+01 -0.29122219275E+03  0.29178799504E+03  0.00000000000E+00 0.  1.
          5    1    4    4  501    0  0.26677510013E+02  0.71862985507E+01  0.65753538904E+02  0.71444612853E+02  0.41800000000E+01 0.  1.
         -5    1    4    4    0  501 -0.12945251534E+03  0.29814758143E+02  0.14142677833E+03  0.19407699390E+03  0.41800000000E+01 0.  1.
</event>
<event>
11    1  0.7157190E-009  0.1573112E+03  0.7561462E-02  0.1089634E+00
         22   -1    0    0    0    0  0.00000000000E+00  0.00000000000E+00  0.26669881492E+04  0.26669881492E+04  0.00000000000E+00 0. -1.
         22   -1    0    0    0    0 -0.00000000000E+00 -0.00000000000E+00 -0.69414692543E+03  0.69414692543E+03  0.00000000000E+00 0. -1.
        -24    2    1    2    0    0 -0.52120667634E+02 -0.79895182498E+02 -0.68174259479E+03  0.69337533608E+03  0.83045691967E+02 0.  0.
         25    2    1    2    0    0  0.85050125215E+02  0.56652810428E+02  0.12701319087E+04  0.12803618180E+04  0.12509298407E+03 0.  0.
         24    2    1    2    0    0 -0.32929457581E+02  0.23242372071E+02  0.13844519099E+04  0.13873979206E+04  0.80878565170E+02 0.  0.
        -13    1    5    5    0    0 -0.72596082504E+01  0.13792386922E+02  0.44212384898E+02  0.46879279296E+02  0.00000000000E+00 0.  1.
         14    1    5    5    0    0 -0.25669849330E+02  0.94499851489E+01  0.13402395250E+04  0.13405186413E+04  0.00000000000E+00 0. -1.
         11    1    3    3    0    0 -0.51846228538E+02 -0.92151507432E+02 -0.65998895007E+03  0.66840507625E+03  0.00000000000E+00 0. -1.
        -12    1    3    3    0    0 -0.27443909580E+00  0.12256324933E+02 -0.21753644718E+02  0.24970259834E+02  0.00000000000E+00 0.  1.
          5    1    4    4  501    0 -0.19982815695E+02 -0.72905457778E+01  0.49946764144E+03  0.49993785837E+03  0.41800000000E+01 0. -1.
         -5    1    4    4    0  501  0.10503294091E+03  0.63943356205E+02  0.77066426728E+03  0.78042395961E+03  0.41800000000E+01 0. -1.
</event>
<event>
11    1  0.7157190E-009  0.1387311E+03  0.7561462E-02  0.1108984E+00
         22   -1    0    0    0    0  0.00000000000E+00  0.00000000000E+00  0.55571667632E+03  0.55571667632E+03  0.00000000000E+00 0.  1.
         22   -1    0    0    0    0 -0.00000000000E+00 -0.00000000000E+00 -0.57698989452E+03  0.57698989452E+03  0.00000000000E+00 0.  1.
         24    2    1    2    0    0 -0.10131544726E+02  0.89578670578E+01 -0.47254160696E+03  0.48077144892E+03  0.87536987674E+02 0.  0.
         25    2    1    2    0    0 -0.48515207701E+02  0.62976278530E+01 -0.47904809479E+02  0.14260411635E+03  0.12509067805E+03 0.  0.
        -24    2    1    2    0    0  0.58646752427E+02 -0.15255494911E+02  0.49917319824E+03  0.50933100556E+03  0.81067994228E+02 0.  0.
        -13    1    3    3    0    0 -0.44590921426E+02 -0.11938211006E+02 -0.30362376519E+03  0.30711278375E+03  0.00000000000E+00 0.  1.
         14    1    3    3    0    0  0.34459376700E+02  0.20896078064E+02 -0.16891784177E+03  0.17365866517E+03  0.00000000000E+00 0. -1.
         13    1    5    5    0    0  0.57584772990E+02 -0.17214993043E+02  0.17287034115E+03  0.18302053687E+03  0.00000000000E+00 0. -1.
        -14    1    5    5    0    0  0.10619794367E+01  0.19594981326E+01  0.32630285709E+03  0.32631046870E+03  0.00000000000E+00 0.  1.
          5    1    4    4  501    0 -0.78785075186E+02  0.40084070672E+02 -0.35855389624E+02  0.95482470427E+02  0.41800000000E+01 0.  1.
         -5    1    4    4    0  501  0.30269867485E+02 -0.33786442819E+02 -0.12049419854E+02  0.47121645926E+02  0.41800000000E+01 0.  1.
</event>
<event>
11    1  0.7157190E-009  0.1772489E+03  0.7561462E-02  0.1071890E+00
         22   -1    0    0    0    0  0.00000000000E+00  0.00000000000E+00  0.20232459897E+04  0.20232459897E+04  0.00000000000E+00 0. -1.
         22   -1    0    0    0    0 -0.00000000000E+00 -0.00000000000E+00 -0.25595787542E+04  0.25595787542E+04  0.00000000000E+00 0. -1.
         24    2    1    2    0    0 -0.16001078847E+02 -0.59938260562E+02 -0.25092969012E+04  0.25111566868E+04  0.74083315077E+02 0.  0.
         25    2    1    2    0    0 -0.19370653636E+02 -0.64519012322E+02  0.62635470795E+02  0.15527264682E+03  0.12509383469E+03 0.  0.
        -24    2    1    2    0    0  0.35371732483E+02  0.12445727288E+03  0.19103286660E+04  0.19163954103E+04  0.80467286934E+02 0.  0.
        -11    1    3    3    0    0 -0.13739998708E+02  0.69186526690E+01 -0.12811196924E+03  0.12903229046E+03  0.00000000000E+00 0.  1.
         12    1    3    3    0    0 -0.22610801393E+01 -0.66856913231E+02 -0.23811849320E+04  0.23821243963E+04  0.00000000000E+00 0. -1.
         13    1    5    5    0    0  0.87305878555E+01  0.80855428842E+02  0.15843980764E+04  0.15864838758E+04  0.00000000000E+00 0. -1.
        -14    1    5    5    0    0  0.26641144628E+02  0.43601844043E+02  0.32593058958E+03  0.32991153453E+03  0.00000000000E+00 0.  1.
          5    1    4    4  501    0 -0.29093135552E+02 -0.85729141068E+02  0.25310511910E+01  0.90662973615E+02  0.41800000000E+01 0. -1.
         -5    1    4    4    0  501  0.97224819160E+01  0.21210128746E+02  0.60104419604E+02  0.64609673208E+02  0.41800000000E+01 0. -1.
</event>
<event>
11    1  0.7157190E-009  0.2551424E+03  0.7561462E-02  0.1021195E+00
         22   -1    0    0    0    0  0.00000000000E+00  0.00000000000E+00  0.18531238512E+03  0.18531238512E+03  0.00000000000E+00 0. -1.
         22   -1    0    0    0    0 -0.00000000000E+00 -0.00000000000E+00 -0.23459493330E+03  0.23459493330E+03  0.00000000000E+00 0. -1.
        -24    2    1    2    0    0  0.10390895045E+03 -0.38584058145E+02 -0.88297023293E+02  0.16179923594E+03  0.78082193250E+02 0.  0.
         25    2    1    2    0    0 -0.98670658740E+01  0.45553663896E+01  0.25823133039E+02  0.12818684048E+03  0.12508765535E+03 0.  0.
         24    2    1    2    0    0 -0.94041884576E+02  0.34028691755E+02  0.13191342075E+02  0.12992124200E+03  0.81876063049E+02 0.  0.
        -13    1    5    5    0    0  0.77765680335E+01  0.69895226712E+01  0.21845404957E+02  0.24218797561E+02  0.00000000000E+00 0.  1.
         14    1    5    5    0    0 -0.10181845261E+03  0.27039169084E+02 -0.86540628813E+01  0.10570244444E+03  0.00000000000E+00 0. -1.
         11    1    3    3    0    0  0.43645704821E+02 -0.13341903667E+02  0.70843518924E+01  0.46185950077E+02  0.00000000000E+00 0. -1.
        -12    1    3    3    0    0  0.60263245629E+02 -0.25242154478E+02 -0.95381375185E+02  0.11561328587E+03  0.00000000000E+00 0.  1.
          5    1    4    4  501    0 -0.19224806127E+02 -0.32382112013E+02 -0.38047434630E+02  0.53696126778E+02  0.41800000000E+01 0. -1.
         -5    1    4    4    0  501  0.93577402533E+01  0.36937478403E+02  0.63870567669E+02  0.74490713702E+02  0.41800000000E+01 0. -1.
</event>
<event>
11    1  0.7157190E-009  0.1497203E+03  0.7561462E-02  0.1097165E+00
         22   -1    0    0    0    0  0.00000000000E+00  0.00000000000E+00  0.56273061486E+03  0.56273061486E+03  0.00000000000E+00 0. -1.
         22   -1    0    0    0    0 -0.00000000000E+00 -0.00000000000E+00 -0.91818954496E+03  0.91818954496E+03  0.00000000000E+00 0. -1.
        -24    2    1    2    0    0 -0.50974731608E+02 -0.64071624598E+02 -0.79715756832E+03  0.80518631154E+03  0.78493383253E+02 0.  0.
         25    2    1    2    0    0  0.45466368148E+02  0.75516000963E+02 -0.62127435209E+02  0.16515443237E+03  0.12508521612E+03 0.  0.
         24    2    1    2    0    0  0.55083634601E+01 -0.11444376365E+02  0.50382607343E+03  0.51057941590E+03  0.81788213438E+02 0.  0.
        -13    1    5    5    0    0 -0.26881861075E+02 -0.12452087357E+02  0.76652517757E+02  0.82178448592E+02  0.00000000000E+00 0.  1.
         14    1    5    5    0    0  0.32390224536E+02  0.10077109920E+01  0.42717355567E+03  0.42840096731E+03  0.00000000000E+00 0. -1.
         11    1    3    3    0    0 -0.39261811685E+00 -0.30135959797E+02 -0.54284269224E+03  0.54367869072E+03  0.00000000000E+00 0. -1.
        -12    1    3    3    0    0 -0.50582113491E+02 -0.33935664801E+02 -0.25431487608E+03  0.26150762082E+03  0.00000000000E+00 0.  1.
          5    1    4    4  501    0  0.40489950962E+02  0.39892591114E+02 -0.98518483188E+02  0.11381660197E+03  0.41800000000E+01 0.  1.
         -5    1    4    4    0  501  0.49764171859E+01  0.35623409849E+02  0.36391047979E+02  0.51337830401E+02  0.41800000000E+01 0.  1.
</event>
<event>
11    1  0.9897919E-009  0.1582301E+03  0.7561462E-02  0.1088754E+00
         22   -1    0    0    0    0  0.00000000000E+00  0.00000000000E+00  0.94406136416E+03  0.94406136416E+03  0.00000000000E+00 0.  1.
         22   -1    0    0    0    0 -0.00000000000E+00 -0.00000000000E+00 -0.63428993937E+03  0.63428993937E+03  0.00000000000E+00 0.  1.
         24    2    1    2    0    0 -0.95238460836E+01  0.55469787697E+02 -0.48182131310E+03  0.49187755945E+03  0.81388910410E+02 0.  0.
         25    2    1    2    0    0 -0.86107149437E+02 -0.71072433720E+02 -0.93801371187E+02  0.19212572594E+03  0.12509142781E+03 0.  0.
        -24    2    1    2    0    0  0.95630995520E+02  0.15602646023E+02  0.88539410908E+03  0.89434801814E+03  0.80913035391E+02 0.  0.
        -13    1    3    3    0    0 -0.42711869453E+02  0.13402556235E+02 -0.24663029066E+03  0.25065999397E+03  0.00000000000E+00 0.  1.
         14    1    3    3    0    0  0.33188023369E+02  0.42067231462E+02 -0.23519102244E+03  0.24121756548E+03  0.00000000000E+00 0. -1.
         11    1    5    5    0    0  0.19351193365E+02 -0.28271328283E+02  0.15939137314E+03  0.16303173470E+03  0.00000000000E+00 0. -1.
        -12    1    5    5    0    0  0.76279802156E+02  0.43873974306E+02  0.72600273594E+03  0.73131628344E+03  0.00000000000E+00 0.  1.
          5    1    4    4  501    0  0.12394007448E+02 -0.48735116513E+02 -0.73283876484E+02  0.88975962792E+02  0.41800000000E+01 0.  1.
         -5    1    4    4    0  501 -0.98501156885E+02 -0.22337317206E+02 -0.20517494703E+02  0.10314976314E+03  0.41800000000E+01 0.  1.
</event>
<event>
11    1  0.7157190E-009  0.2002892E+03  0.7561462E-02  0.1054319E+00
         22   -1    0    0    0    0  0.00000000000E+00  0.00000000000E+00  0.12883165084E+03  0.12883165084E+03  0.00000000000E+00 0. -1.
         22   -1    0    0    0    0 -0.00000000000E+00 -0.00000000000E+00 -0.10681512902E+04  0.10681512902E+04  0.00000000000E+00 0.  1.
         24    2    1    2    0    0 -0.33783378244E+01 -0.53566789868E+02 -0.70817048728E+03  0.71472559448E+03  0.80289614535E+02 0.  0.
         25    2    1    2    0    0  0.96387980777E+02 -0.85085148878E+02 -0.23650330542E+03  0.29683611056E+03  0.12509091758E+03 0.  0.
        -24    2    1    2    0    0 -0.93009642952E+02  0.13865193875E+03  0.53541533552E+01  0.18542123598E+03  0.80481140621E+02 0.  0.
        -11    1    3    3    0    0 -0.15869603626E+02 -0.28818342903E+02 -0.64379181692E+03  0.64463186761E+03  0.00000000000E+00 0.  1.
         12    1    3    3    0    0  0.12491265802E+02 -0.24748446965E+02 -0.64378670359E+02  0.70093726864E+02  0.00000000000E+00 0. -1.
         11    1    5    5    0    0 -0.64240437043E+02  0.26383096234E+02  0.22084324135E+01  0.69482218532E+02  0.00000000000E+00 0. -1.
        -12    1    5    5    0    0 -0.28769205909E+02  0.11226884251E+03  0.31457209417E+01  0.11593901745E+03  0.00000000000E+00 0.  1.
          5    1    4    4  501    0  0.53981157415E+02  0.16686711649E+02 -0.33586399572E+02  0.65862966359E+02  0.41800000000E+01 0.  1.
         -5    1    4    4    0  501  0.42406823362E+02 -0.10177186053E+03 -0.20291690585E+03  0.23097314420E+03  0.41800000000E+01 0.  1.
</event>
<event>
11    1  0.7157190E-009  0.1886389E+03  0.7561462E-02  0.1062862E+00
         22   -1    0    0    0    0  0.00000000000E+00  0.00000000000E+00  0.20485388591E+03  0.20485388591E+03  0.00000000000E+00 0. -1.
         22   -1    0    0    0    0 -0.00000000000E+00 -0.00000000000E+00 -0.17823610857E+04  0.17823610857E+04  0.00000000000E+00 0.  1.
         24    2    1    2    0    0  0.34203521490E+02  0.13745108892E+03 -0.15932232759E+04  0.16015678154E+04  0.81218088082E+02 0.  0.
         25    2    1    2    0    0 -0.14196221736E+03 -0.99146269370E+02 -0.63832907782E+02  0.22294565314E+03  0.12508745041E+03 0.  0.
        -24    2    1    2    0    0  0.10775869587E+03 -0.38304819554E+02  0.79548983906E+02  0.16270150303E+03  0.84050832896E+02 0.  0.
        -11    1    3    3    0    0  0.13908381499E+02  0.13738215893E+03 -0.12192747217E+04  0.12270689254E+04  0.00000000000E+00 0.  1.
         12    1    3    3    0    0  0.20295139991E+02  0.68929991235E-01 -0.37394855422E+03  0.37449889007E+03  0.00000000000E+00 0. -1.
         13    1    5    5    0    0  0.11062663368E+03 -0.29650695061E+02  0.92252956185E+02  0.14706469230E+03  0.00000000000E+00 0. -1.
        -14    1    5    5    0    0 -0.28679378108E+01 -0.86541244926E+01 -0.12703972279E+02  0.15636810726E+02  0.00000000000E+00 0.  1.
          5    1    4    4  501    0 -0.12232023056E+03 -0.86067946943E+02 -0.99707591282E+02  0.17980268756E+03  0.41800000000E+01 0.  1.
         -5    1    4    4    0  501 -0.19641986804E+02 -0.13078322427E+02  0.35874683499E+02  0.43142965583E+02  0.41800000000E+01 0.  1.
</event>
<event>
11    1  0.7157190E-009  0.1633624E+03  0.7561462E-02  0.1083957E+00
         22   -1    0    0    0    0  0.00000000000E+00  0.00000000000E+00  0.13167563112E+04  0.13167563112E+04  0.00000000000E+00 0.  1.
         22   -1    0    0    0    0 -0.00000000000E+00 -0.00000000000E+00 -0.26121284871E+03  0.26121284871E+03  0.00000000000E+00 0. -1.
        -24    2    1    2    0    0  0.11695222097E+02  0.25049712539E+02 -0.15614249691E+03  0.17914823885E+03  0.83362736416E+02 0.  0.
         25    2    1    2    0    0  0.81793002289E+02 -0.72876877000E+02 -0.10950133953E+02  0.16663782785E+03  0.12508847195E+03 0.  0.
         24    2    1    2    0    0 -0.93488224385E+02  0.47827164461E+02  0.12226360934E+04  0.12321830932E+04  0.11139422182E+03 0.  0.
        -13    1    5    5    0    0 -0.19162880492E+01 -0.23155274928E+02  0.48012148301E+03  0.48068334418E+03  0.00000000000E+00 0.  1.
         14    1    5    5    0    0 -0.91571936336E+02  0.70982439389E+02  0.74251461036E+03  0.75149974905E+03  0.00000000000E+00 0. -1.
         11    1    3    3    0    0  0.40384931604E+02  0.36976259712E+02 -0.80336587373E+02  0.97222187559E+02  0.00000000000E+00 0. -1.
        -12    1    3    3    0    0 -0.28689709507E+02 -0.11926547174E+02 -0.75805909536E+02  0.81926051288E+02  0.00000000000E+00 0.  1.
          5    1    4    4  501    0 -0.16078421355E+02 -0.16937968138E+02  0.37088764639E+02  0.44027937271E+02  0.41800000000E+01 0.  1.
         -5    1    4    4    0  501  0.97871423644E+02 -0.55938908862E+02 -0.48038898592E+02  0.12260989058E+03  0.41800000000E+01 0.  1.
</event>
<event>
11    1  0.7157190E-009  0.2783521E+03  0.7561462E-02  0.1009793E+00
         22   -1    0    0    0    0  0.00000000000E+00  0.00000000000E+00  0.78608674016E+02  0.78608674016E+02  0.00000000000E+00 0. -1.
         22   -1    0    0    0    0 -0.00000000000E+00 -0.00000000000E+00 -0.29869371681E+04  0.29869371681E+04  0.00000000000E+00 0. -1.
         24    2    1    2    0    0 -0.25511971046E+03  0.49809583137E+02 -0.18861861065E+04  0.19057732718E+04  0.81894283060E+02 0.  0.
         25    2    1    2    0    0  0.21186687507E+03 -0.98740715045E+02 -0.10221794619E+04  0.10559988699E+04  0.12508181087E+03 0.  0.
        -24    2    1    2    0    0  0.43252835384E+02  0.48931131908E+02  0.37074366191E-01  0.10377370042E+03  0.80646860355E+02 0.  0.
        -13    1    3    3    0    0 -0.61900065706E+02 -0.85918497560E+01 -0.27613485913E+03  0.28311817046E+03  0.00000000000E+00 0.  1.
         14    1    3    3    0    0 -0.19321964475E+03  0.58401432893E+02 -0.16100512474E+04  0.16226551013E+04  0.00000000000E+00 0. -1.
         11    1    5    5    0    0  0.48894868156E+02  0.74211125243E+01  0.24575330263E+02  0.55224341559E+02  0.00000000000E+00 0. -1.
        -12    1    5    5    0    0 -0.56420327724E+01  0.41510019384E+02 -0.24538255897E+02  0.48549358858E+02  0.00000000000E+00 0.  1.
          5    1    4    4  501    0  0.57341164470E+02 -0.90425933208E+02 -0.50011855826E+03  0.51146935710E+03  0.41800000000E+01 0.  1.
         -5    1    4    4    0  501  0.15452571060E+03 -0.83147818369E+01 -0.52206090365E+03  0.54452951284E+03  0.41800000000E+01 0.  1.
</event>
<event>
11    1  0.7157190E-009  0.2355961E+03  0.7561462E-02  0.1031865E+00
         22   -1    0    0    0    0  0.00000000000E+00  0.00000000000E+00  0.63187415602E+03  0.63187415602E+03  0.00000000000E+00 0. -1.
         22   -1    0    0    0    0 -0.00000000000E+00 -0.00000000000E+00 -0.76388345313E+03  0.76388345313E+03  0.00000000000E+00 0. -1.
        -24    2    1    2    0    0  0.47054636107E+02 -0.45386460623E+02 -0.67171203343E+03  0.67960595637E+03  0.79957054071E+02 0.  0.
         25    2    1    2    0    0  0.62327571981E+02  0.20610654777E+03  0.21544432378E+03  0.32928545538E+03  0.12509204295E+03 0.  0.
         24    2    1    2    0    0 -0.10938220809E+03 -0.16072008714E+03  0.32425841255E+03  0.38686619740E+03  0.82015381047E+02 0.  0.
        -13    1    5    5    0    0 -0.36634691891E+02 -0.25530217047E+01  0.62795411911E+02  0.72745325120E+02  0.00000000000E+00 0.  1.
         14    1    5    5    0    0 -0.72747516197E+02 -0.15816706544E+03  0.26146300063E+03  0.31412087228E+03  0.00000000000E+00 0. -1.
         13    1    3    3    0    0  0.50340078408E+02  0.68686274765E+01 -0.31462319753E+03  0.31869900841E+03  0.00000000000E+00 0. -1.
        -14    1    3    3    0    0 -0.32854423011E+01 -0.52255088100E+02 -0.35708883591E+03  0.36090694797E+03  0.00000000000E+00 0.  1.
          5    1    4    4  501    0  0.92432685819E+02  0.10990982631E+03  0.15648544614E+03  0.21243619885E+03  0.41800000000E+01 0. -1.
         -5    1    4    4    0  501 -0.30105113838E+02  0.96196721455E+02  0.58958877644E+02  0.11684925653E+03  0.41800000000E+01 0. -1.
</event>
<event>
11    1  0.7157190E-009  0.1399163E+03  0.7561462E-02  0.1107652E+00
         22   -1    0    0    0    0  0.00000000000E+00  0.00000000000E+00  0.24448468199E+03  0.24448468199E+03  0.00000000000E+00 0.  1.
         22   -1    0    0    0    0 -0.00000000000E+00 -0.00000000000E+00 -0.30085029498E+04  0.30085029498E+04  0.00000000000E+00 0. -1.
         24    2    1    2    0    0  0.26922500901E+01 -0.35490971608E+02 -0.22333043526E+04  0.22350788428E+04  0.81622575056E+02 0.  0.
         25    2    1    2    0    0 -0.71638155273E+01 -0.27516599535E+02 -0.75829785235E+03  0.76907186773E+03  0.12508965325E+03 0.  0.
        -24    2    1    2    0    0  0.44715654372E+01  0.63007571143E+02  0.22758393721E+03  0.24883692122E+03  0.78328896127E+02 0.  0.
        -13    1    3    3    0    0  0.17582707060E+02 -0.31738958907E+01 -0.10734643782E+03  0.10882317270E+03  0.00000000000E+00 0.  1.
         14    1    3    3    0    0 -0.14890456970E+02 -0.32317075717E+02 -0.21259579148E+04  0.21262556701E+04  0.00000000000E+00 0. -1.
         11    1    5    5    0    0 -0.32399575442E+02  0.63399146668E+01  0.73652521303E+02  0.80713201529E+02  0.00000000000E+00 0. -1.
        -12    1    5    5    0    0  0.36871140879E+02  0.56667656476E+02  0.15393141590E+03  0.16812371969E+03  0.00000000000E+00 0.  1.
          5    1    4    4  501    0 -0.35010004319E+02 -0.17408673115E+02 -0.71699295627E+03  0.71807042415E+03  0.41800000000E+01 0. -1.
         -5    1    4    4    0  501  0.27846188791E+02 -0.10107926419E+02 -0.41304896086E+02  0.51001443581E+02  0.41800000000E+01 0. -1.
</event>
<event>
11    1  0.7157190E-009  0.1356988E+03  0.7561462E-02  0.1112459E+00
         22   -1    0    0    0    0  0.00000000000E+00  0.00000000000E+00  0.19909585643E+03  0.19909585643E+03  0.00000000000E+00 0.  1.
         22   -1    0    0    0    0 -0.00000000000E+00 -0.00000000000E+00 -0.73399026784E+03  0.73399026784E+03  0.00000000000E+00 0.  1.
         24    2    1    2    0    0 -0.27920652847E+02 -0.90406677228E+01 -0.60181437837E+03  0.60800097995E+03  0.81383960787E+02 0.  0.
         25    2    1    2    0    0  0.53919731568E+02 -0.35653157861E+02 -0.70837362141E+02  0.15764423389E+03  0.12512109129E+03 0.  0.
        -24    2    1    2    0    0 -0.25999078721E+02  0.44693825583E+02  0.13775732911E+03  0.16744091043E+03  0.79911742714E+02 0.  0.
        -13    1    3    3    0    0 -0.73279097322E+01 -0.25861678715E+01 -0.56691468633E+03  0.56696794275E+03  0.00000000000E+00 0.  1.
         14    1    3    3    0    0 -0.20592743115E+02 -0.64544998513E+01 -0.34899692043E+02  0.41033037202E+02  0.00000000000E+00 0. -1.
         11    1    5    5    0    0 -0.54513471828E+02  0.31924089584E+02  0.10177434011E+03  0.11978682069E+03  0.00000000000E+00 0. -1.
        -12    1    5    5    0    0  0.28514393107E+02  0.12769736000E+02  0.35982988997E+02  0.47654089740E+02  0.00000000000E+00 0.  1.
          5    1    4    4  501    0  0.78358761501E+02  0.18029727094E+02 -0.50839043464E+02  0.95222094617E+02  0.41800000000E+01 0. -1.
         -5    1    4    4    0  501 -0.24439029933E+02 -0.53682884954E+02 -0.19998318677E+02  0.62422139270E+02  0.41800000000E+01 0. -1.
</event>
<event>
11    1  0.7157190E-009  0.1566984E+03  0.7561462E-02  0.1090224E+00
         22   -1    0    0    0    0  0.00000000000E+00  0.00000000000E+00  0.40799069630E+03  0.40799069630E+03  0.00000000000E+00 0.  1.
         22   -1    0    0    0    0 -0.00000000000E+00 -0.00000000000E+00 -0.19673561716E+03  0.19673561716E+03  0.00000000000E+00 0. -1.
        -24    2    1    2    0    0  0.71191600261E+02 -0.50740917286E+02 -0.50301032843E+02  0.13049157328E+03  0.82794759234E+02 0.  0.
         25    2    1    2    0    0 -0.10006278250E+03  0.40490119812E+02 -0.31712336799E+02  0.16823944678E+03  0.12508728513E+03 0.  0.
         24    2    1    2    0    0  0.28871182241E+02  0.10250797473E+02  0.29326844879E+03  0.30599529341E+03  0.81780881147E+02 0.  0.
        -11    1    5    5    0    0  0.55797224179E+02  0.94537520634E+01  0.15226578625E+03  0.16244252312E+03  0.00000000000E+00 0.  1.
         12    1    5    5    0    0 -0.26926041938E+02  0.79704540963E+00  0.14100266254E+03  0.14355277029E+03  0.00000000000E+00 0. -1.
         13    1    3    3    0    0 -0.20583815635E+01 -0.39935236911E+02 -0.38508915107E+02  0.55515733126E+02  0.00000000000E+00 0. -1.
        -14    1    3    3    0    0  0.73249981825E+02 -0.10805680375E+02 -0.11792117736E+02  0.74975840151E+02  0.00000000000E+00 0.  1.
          5    1    4    4  501    0 -0.19730381168E+02  0.16790551683E+02 -0.70954708598E+02  0.75652188594E+02  0.41800000000E+01 0. -1.
         -5    1    4    4    0  501 -0.80332401334E+02  0.23699568129E+02  0.39242371798E+02  0.92587258183E+02  0.41800000000E+01 0. -1.
</event>
<event>
11    1  0.7157190E-009  0.2058706E+03  0.7561462E-02  0.1050448E+00
         22   -1    0    0    0    0  0.00000000000E+00  0.00000000000E+00  0.47107254045E+03  0.47107254045E+03  0.00000000000E+00 0. -1.
         22   -1    0    0    0    0 -0.00000000000E+00 -0.00000000000E+00 -0.40893197781E+03  0.40893197781E+03  0.00000000000E+00 0.  1.
         24    2    1    2    0    0 -0.23284647683E+02 -0.40807751901E+01 -0.25803106067E+03  0.27240008541E+03  0.84041363107E+02 0.  0.
         25    2    1    2    0    0  0.63585575368E+02  0.16096032391E+03 -0.27804643329E+02  0.21534176323E+03  0.12509046939E+03 0.  0.
        -24    2    1    2    0    0 -0.40300927684E+02 -0.15687954872E+03  0.34797626664E+03  0.39226266961E+03  0.80914536671E+02 0.  0.
        -13    1    3    3    0    0 -0.38103157942E+01  0.26882702015E+02 -0.21138900549E+03  0.21312557289E+03  0.00000000000E+00 0.  1.
         14    1    3    3    0    0 -0.19474331889E+02 -0.30963477205E+02 -0.46642055179E+02  0.59274512520E+02  0.00000000000E+00 0. -1.
         11    1    5    5    0    0  0.13193467128E+02 -0.75491216019E+02  0.20857672177E+03  0.22220990108E+03  0.00000000000E+00 0. -1.
        -12    1    5    5    0    0 -0.53494394813E+02 -0.81388332704E+02  0.13939954487E+03  0.17005276854E+03  0.00000000000E+00 0.  1.
          5    1    4    4  501    0  0.11404782773E+02  0.49450052939E+02 -0.68727991430E+02  0.85535875583E+02  0.41800000000E+01 0.  1.
         -5    1    4    4    0  501  0.52180792595E+02  0.11151027097E+03  0.40923348100E+02  0.12980588765E+03  0.41800000000E+01 0.  1.
</event>
<event>
11    1  0.7157190E-009  0.1254390E+03  0.7561462E-02  0.1125003E+00
         22   -1    0    0    0    0  0.00000000000E+00  0.00000000000E+00  0.31412173618E+03  0.31412173618E+03  0.00000000000E+00 0. -1.
         22   -1    0    0    0    0 -0.00000000000E+00 -0.00000000000E+00 -0.11310567501E+04  0.11310567501E+04  0.00000000000E+00 0.  1.
         24    2    1    2    0    0  0.19450854419E+02  0.12726936742E+02 -0.10404026623E+04  0.10429751530E+04  0.69420165561E+02 0.  0.
         25    2    1    2    0    0 -0.96246773896E+01 -0.79159204815E+01 -0.36014582188E+02  0.13076292206E+03  0.12508635195E+03 0.  0.
        -24    2    1    2    0    0 -0.98261770293E+01 -0.48110162608E+01  0.25948223051E+03  0.27144041129E+03  0.78925086604E+02 0.  0.
        -11    1    3    3    0    0 -0.10686589939E+01 -0.21428554365E+02 -0.68672594221E+03  0.68706101962E+03  0.00000000000E+00 0.  1.
         12    1    3    3    0    0  0.20519513413E+02  0.34155491107E+02 -0.35367672005E+03  0.35591413334E+03  0.00000000000E+00 0. -1.
         13    1    5    5    0    0 -0.42025682425E+02  0.11479213801E+02  0.13828157791E+03  0.14498180962E+03  0.00000000000E+00 0. -1.
        -14    1    5    5    0    0  0.32199505395E+02 -0.16290230061E+02  0.12120065261E+03  0.12645860167E+03  0.00000000000E+00 0.  1.
          5    1    4    4  501    0 -0.48933578909E+02 -0.35014254363E+01  0.27068532156E+02  0.56186590554E+02  0.41800000000E+01 0. -1.
         -5    1    4    4    0  501  0.39308901520E+02 -0.44144950452E+01 -0.63083114344E+02  0.74576331504E+02  0.41800000000E+01 0. -1.
</event>
<event>
11    1  0.7157190E-009  0.1439526E+03  0.7561462E-02  0.1103223E+00
         22   -1    0    0    0    0  0.00000000000E+00  0.00000000000E+00  0.74567385432E+02  0.74567385432E+02  0.00000000000E+00 0.  1.
         22   -1    0    0    0    0 -0.00000000000E+00 -0.00000000000E+00 -0.96044012474E+03  0.96044012474E+03  0.00000000000E+00 0. -1.
         24    2    1    2    0    0 -0.31462381360E+02 -0.34614887493E+02 -0.72546565088E+03  0.73133639075E+03  0.79777402534E+02 0.  0.
         25    2    1    2    0    0 -0.42486951946E+02 -0.12014766583E+02 -0.11825247521E+03  0.17770939461E+03  0.12508990901E+03 0.  0.
        -24    2    1    2    0    0  0.73949333307E+02  0.46629654076E+02 -0.42154613221E+02  0.12596172482E+03  0.80290199695E+02 0.  0.
        -13    1    3    3    0    0  0.20034898252E+02 -0.22556866725E+01 -0.38168950587E+03  0.38222161656E+03  0.00000000000E+00 0.  1.
         14    1    3    3    0    0 -0.51497279612E+02 -0.32359200820E+02 -0.34377614500E+03  0.34911477419E+03  0.00000000000E+00 0. -1.
         11    1    5    5    0    0 -0.21173745503E+01 -0.12346206385E+02 -0.25320331283E+02  0.28249447134E+02  0.00000000000E+00 0. -1.
        -12    1    5    5    0    0  0.76066707857E+02  0.58975860462E+02 -0.16834281938E+02  0.97712277682E+02  0.00000000000E+00 0.  1.
          5    1    4    4  501    0 -0.49952356255E+02  0.30363696948E+01  0.74955573473E+01  0.50775123991E+02  0.41800000000E+01 0. -1.
         -5    1    4    4    0  501  0.74654043082E+01 -0.15051136278E+02 -0.12574803256E+03  0.12693427062E+03  0.41800000000E+01 0. -1.
</event>
<event>
11    1  0.7157190E-009  0.1728235E+03  0.7561462E-02  0.1075600E+00
         22   -1    0    0    0    0  0.00000000000E+00  0.00000000000E+00  0.24207757077E+03  0.24207757077E+03  0.00000000000E+00 0. -1.
         22   -1    0    0    0    0 -0.00000000000E+00 -0.00000000000E+00 -0.39308186055E+03  0.39308186055E+03  0.00000000000E+00 0.  1.
        -24    2    1    2    0    0  0.90013702958E+01  0.64965461166E+02 -0.17572574897E+03  0.20392719507E+03  0.80032657230E+02 0.  0.
         25    2    1    2    0    0 -0.91290779429E+02 -0.13822682473E+03 -0.10293559676E+03  0.23170288899E+03  0.12509928138E+03 0.  0.
         24    2    1    2    0    0  0.82289409133E+02  0.73261363565E+02  0.12765705596E+03  0.19952934726E+03  0.10666237498E+03 0.  0.
        -11    1    5    5    0    0  0.16326372331E+02  0.70621328215E+02  0.23471456015E+02  0.76189445987E+02  0.00000000000E+00 0.  1.
         12    1    5    5    0    0  0.65963036802E+02  0.26400353504E+01  0.10418559994E+03  0.12333990127E+03  0.00000000000E+00 0. -1.
         13    1    3    3    0    0  0.14839537446E+02  0.37008723757E+02 -0.18194605472E+02  0.43828086589E+02  0.00000000000E+00 0. -1.
        -14    1    3    3    0    0 -0.58381671506E+01  0.27956737409E+02 -0.15753114350E+03  0.16009910848E+03  0.00000000000E+00 0.  1.
          5    1    4    4  501    0 -0.36325883829E+01  0.22917898969E+02 -0.67234975989E+01  0.24517414454E+02  0.41800000000E+01 0. -1.
         -5    1    4    4    0  501 -0.87658191046E+02 -0.16114472370E+03 -0.96212099161E+02  0.20718547454E+03  0.41800000000E+01 0. -1.
</event>
<event>
11    1  0.7157190E-009  0.2134947E+03  0.7561462E-02  0.1045371E+00
         22   -1    0    0    0    0  0.00000000000E+00  0.00000000000E+00  0.11828835991E+04  0.11828835991E+04  0.00000000000E+00 0. -1.
         22   -1    0    0    0    0 -0.00000000000E+00 -0.00000000000E+00 -0.11469923441E+03  0.11469923441E+03  0.00000000000E+00 0. -1.
        -24    2    1    2    0    0 -0.49350723979E+02 -0.35741943040E+02 -0.99205206413E+01  0.10019599482E+03  0.78916666171E+02 0.  0.
         25    2    1    2    0    0  0.11355416271E+03  0.18664538031E+03  0.27107496521E+03  0.36994565882E+03  0.12508840016E+03 0.  0.
         24    2    1    2    0    0 -0.64203438735E+02 -0.15090343727E+03  0.80702992016E+03  0.82744117991E+03  0.80421920185E+02 0.  0.
        -11    1    5    5    0    0 -0.30638256905E+02 -0.73620625864E+02  0.57664188693E+03  0.58212933709E+03  0.00000000000E+00 0.  1.
         12    1    5    5    0    0 -0.33565181830E+02 -0.77282811410E+02  0.23038803323E+03  0.24531184282E+03  0.00000000000E+00 0. -1.
         13    1    3    3    0    0 -0.56763784816E+02 -0.44169904336E+02 -0.29410433615E+02  0.77705091990E+02  0.00000000000E+00 0. -1.
        -14    1    3    3    0    0  0.74130608369E+01  0.84279612960E+01  0.19489912974E+02  0.22490902835E+02  0.00000000000E+00 0.  1.
          5    1    4    4  501    0  0.11743893917E+03  0.19773197786E+03  0.27337202935E+03  0.35726681673E+03  0.41800000000E+01 0. -1.
         -5    1    4    4    0  501 -0.38847764540E+01 -0.11086597549E+02 -0.22970641355E+01  0.12678842098E+02  0.41800000000E+01 0. -1.
</event>
<event>
11    1  0.7157190E-009  0.2952668E+03  0.7561462E-02  0.1002215E+00
         22   -1    0    0    0    0  0.00000000000E+00  0.00000000000E+00  0.10185986521E+04  0.10185986521E+04  0.00000000000E+00 0. -1.
         22   -1    0    0    0    0 -0.00000000000E+00 -0.00000000000E+00 -0.38428929177E+03  0.38428929177E+03  0.00000000000E+00 0. -1.
        -24    2    1    2    0    0  0.87489103731E+01  0.27785172221E+03 -0.24396715175E+03  0.37864851988E+03  0.81096285402E+02 0.  0.
         25    2    1    2    0    0 -0.17434139625E+03 -0.19479176911E+03  0.32384956263E+03  0.43458563103E+03  0.12508947088E+03 0.  0.
         24    2    1    2    0    0  0.16559248588E+03 -0.83059953101E+02  0.55442694948E+03  0.58965379298E+03  0.77346791061E+02 0.  0.
        -13    1    5    5    0    0  0.10138932359E+03 -0.17298401273E+02  0.36328332649E+03  0.37756298141E+03  0.00000000000E+00 0.  1.
         14    1    5    5    0    0  0.64203162289E+02 -0.65761551828E+02  0.19114362299E+03  0.21209081158E+03  0.00000000000E+00 0. -1.
         13    1    3    3    0    0  0.37327174260E+02  0.23524661947E+03 -0.20419093544E+03  0.31373273343E+03  0.00000000000E+00 0. -1.
        -14    1    3    3    0    0 -0.28578263887E+02  0.42605102742E+02 -0.39776216311E+02  0.64915786450E+02  0.00000000000E+00 0.  1.
          5    1    4    4  501    0 -0.34934100171E+02 -0.63383905346E+02  0.19732186265E+02  0.75131500627E+02  0.41800000000E+01 0. -1.
         -5    1    4    4    0  501 -0.13940729608E+03 -0.13140786376E+03  0.30411737637E+03  0.35945413041E+03  0.41800000000E+01 0. -1.
</event>
<event>
11    1  0.7157190E-009  0.3313887E+03  0.7561462E-02  0.9877175E-01
         22   -1    0    0    0    0  0.00000000000E+00  0.00000000000E+00  0.78428959957E+03  0.78428959957E+03  0.00000000000E+00 0. -1.
         22   -1    0    0    0    0 -0.00000000000E+00 -0.00000000000E+00 -0.19487813778E+04  0.19487813778E+04  0.00000000000E+00 0.  1.
        -24    2    1    2    0    0  0.22937511743E+03  0.19244242485E+03 -0.13284638687E+04  0.13641159764E+04  0.79681336121E+02 0.  0.
         25    2    1    2    0    0 -0.23664648158E+03 -0.22879631560E+03 -0.54788590343E+03  0.65128063276E+03  0.12505274150E+03 0.  0.
         24    2    1    2    0    0  0.72713641545E+01  0.36353890751E+02  0.71185799388E+03  0.71767436821E+03  0.83307966166E+02 0.  0.
        -11    1    5    5    0    0 -0.37083120933E+01 -0.39857733494E+01  0.93575451269E+00  0.55239120451E+01  0.00000000000E+00 0.  1.
         12    1    5    5    0    0  0.10979676248E+02  0.40339664100E+02  0.71092223936E+03  0.71215045616E+03  0.00000000000E+00 0. -1.
         13    1    3    3    0    0  0.43752140590E+02  0.38189883569E+02 -0.14318078202E+03  0.15451036649E+03  0.00000000000E+00 0. -1.
        -14    1    3    3    0    0  0.18562297684E+03  0.15425254128E+03 -0.11852830866E+04  0.12096056099E+04  0.00000000000E+00 0.  1.
          5    1    4    4  501    0 -0.74548098688E+02 -0.39360056175E+01 -0.10949006467E+03  0.13258377661E+03  0.41800000000E+01 0. -1.
         -5    1    4    4    0  501 -0.16209838290E+03 -0.22486030998E+03 -0.43839583876E+03  0.51869685615E+03  0.41800000000E+01 0. -1.
</event>
<event>
11    1  0.7157190E-009  0.1658708E+03  0.7561462E-02  0.1081682E+00
         22   -1    0    0    0    0  0.00000000000E+00  0.00000000000E+00  0.31291052379E+03  0.31291052379E+03  0.00000000000E+00 0. -1.
         22   -1    0    0    0    0 -0.00000000000E+00 -0.00000000000E+00 -0.15624987932E+04  0.15624987932E+04  0.00000000000E+00 0.  1.
         24    2    1    2    0    0  0.53365352426E+02  0.54955245980E+02 -0.13987457597E+04  0.14031469581E+04  0.80397423673E+02 0.  0.
         25    2    1    2    0    0 -0.15367725722E+03 -0.25284637425E+02 -0.73503601427E+02  0.21285297715E+03  0.12509036007E+03 0.  0.
        -24    2    1    2    0    0  0.10031190480E+03 -0.29670608555E+02  0.22266109175E+03  0.25940938176E+03  0.82294849848E+02 0.  0.
        -13    1    3    3    0    0  0.74674055266E+02  0.42171235053E+02 -0.11336057159E+04  0.11368449968E+04  0.00000000000E+00 0.  1.
         14    1    3    3    0    0 -0.21308702840E+02  0.12784010927E+02 -0.26514004385E+03  0.26630196133E+03  0.00000000000E+00 0. -1.
         13    1    5    5    0    0  0.10678420388E+03 -0.40961126042E+02  0.16810356683E+03  0.20332114801E+03  0.00000000000E+00 0. -1.
        -14    1    5    5    0    0 -0.64722990878E+01  0.11290517487E+02  0.54557524914E+02  0.56088233752E+02  0.00000000000E+00 0.  1.
          5    1    4    4  501    0 -0.87373773307E+02  0.41308813813E+02 -0.57137813140E+01  0.96905696724E+02  0.41800000000E+01 0.  1.
         -5    1    4    4    0  501 -0.66303483915E+02 -0.66593451238E+02 -0.67789820113E+02  0.11594728043E+03  0.41800000000E+01 0.  1.
</event>
<event>
11    1  0.7157190E-009  0.1664410E+03  0.7561462E-02  0.1081171E+00
         22   -1    0    0    0    0  0.00000000000E+00  0.00000000000E+00  0.24484417382E+03  0.24484417382E+03  0.00000000000E+00 0. -1.
         22   -1    0    0    0    0 -0.00000000000E+00 -0.00000000000E+00 -0.12072167398E+04  0.12072167398E+04  0.00000000000E+00 0. -1.
         24    2    1    2    0    0 -0.36447712291E+02 -0.34560022718E+02 -0.88035927637E+03  0.88538877726E+03  0.79737071169E+02 0.  0.
         25    2    1    2    0    0  0.69231701038E+02 -0.71718051020E+02 -0.28192602761E+03  0.32413935357E+03  0.12509008042E+03 0.  0.
        -24    2    1    2    0    0 -0.32783988747E+02  0.10627807374E+03  0.19991273803E+03  0.24253278276E+03  0.80543336226E+02 0.  0.
        -11    1    3    3    0    0 -0.36037717915E+02  0.18855896851E+02 -0.35616558952E+03  0.35848038874E+03  0.00000000000E+00 0.  1.
         12    1    3    3    0    0 -0.40999437611E+00 -0.53415919570E+02 -0.52419368685E+03  0.52690838852E+03  0.00000000000E+00 0. -1.
         11    1    5    5    0    0 -0.24141046474E+02  0.98326837347E+02  0.20582881744E+03  0.22938277869E+03  0.00000000000E+00 0. -1.
        -12    1    5    5    0    0 -0.86429422730E+01  0.79512363915E+01 -0.59160794194E+01  0.13150004068E+02  0.00000000000E+00 0.  1.
          5    1    4    4  501    0  0.90915445504E+02 -0.10218593805E+02 -0.19458478833E+03  0.21505987571E+03  0.41800000000E+01 0. -1.
         -5    1    4    4    0  501 -0.21683744466E+02 -0.61499457215E+02 -0.87341239278E+02  0.10907947786E+03  0.41800000000E+01 0. -1.
</event>
<event>
11    1  0.7157190E-009  0.2291448E+03  0.7561462E-02  0.1035635E+00
         22   -1    0    0    0    0  0.00000000000E+00  0.00000000000E+00  0.83562032770E+03  0.83562032770E+03  0.00000000000E+00 0. -1.
         22   -1    0    0    0    0 -0.00000000000E+00 -0.00000000000E+00 -0.21726596685E+03  0.21726596685E+03  0.00000000000E+00 0. -1.
         24    2    1    2    0    0 -0.17804444201E+03 -0.14510857197E+03 -0.82321610728E+02  0.25677130616E+03  0.79989593594E+02 0.  0.
         25    2    1    2    0    0  0.72491753180E+02  0.87469194643E+02  0.14689707961E+03  0.22390314604E+03  0.12509177637E+03 0.  0.
        -24    2    1    2    0    0  0.10555268883E+03  0.57639377331E+02  0.55377889196E+03  0.57221184234E+03  0.79320006301E+02 0.  0.
        -11    1    3    3    0    0 -0.13224960374E+03 -0.57813065357E+02 -0.42581431442E+02  0.15048417365E+03  0.00000000000E+00 0.  1.
         12    1    3    3    0    0 -0.45794838272E+02 -0.87295506616E+02 -0.39740179286E+02  0.10628713251E+03  0.00000000000E+00 0. -1.
         11    1    5    5    0    0  0.57624015338E+02  0.64503803088E+02  0.44221537437E+03  0.45059483473E+03  0.00000000000E+00 0. -1.
        -12    1    5    5    0    0  0.47928673496E+02 -0.68644257563E+01  0.11156351759E+03  0.12161700762E+03  0.00000000000E+00 0.  1.
          5    1    4    4  501    0  0.31845120767E+02  0.10426854602E+03  0.55544528161E+02  0.12242838075E+03  0.41800000000E+01 0. -1.
         -5    1    4    4    0  501  0.40646632413E+02 -0.16799351373E+02  0.91352551453E+02  0.10147476529E+03  0.41800000000E+01 0. -1.
</event>
<event>
11    1  0.7157190E-009  0.1391257E+03  0.7561462E-02  0.1108539E+00
         22   -1    0    0    0    0  0.00000000000E+00  0.00000000000E+00  0.20744863695E+04  0.20744863695E+04  0.00000000000E+00 0.  1.
         22   -1    0    0    0    0 -0.00000000000E+00 -0.00000000000E+00 -0.98251026449E+02  0.98251026449E+02  0.00000000000E+00 0. -1.
         24    2    1    2    0    0 -0.62517336261E+02  0.85593300871E+01 -0.58866154430E+02  0.11844815750E+03  0.81136073445E+02 0.  0.
         25    2    1    2    0    0  0.25621811461E+02  0.77569560708E+01  0.48583309306E+03  0.50239195224E+03  0.12508889550E+03 0.  0.
        -24    2    1    2    0    0  0.36895524800E+02 -0.16316286158E+02  0.15492684044E+04  0.15518972862E+04  0.80778072759E+02 0.  0.
        -11    1    3    3    0    0 -0.37686037768E+02  0.76240971495E+01  0.14419441383E+02  0.41064395647E+02  0.00000000000E+00 0.  1.
         12    1    3    3    0    0 -0.24831298492E+02  0.93523293762E+00 -0.73285595813E+02  0.77383761857E+02  0.00000000000E+00 0. -1.
         13    1    5    5    0    0  0.44627097423E+00 -0.21948897700E+02  0.11068294784E+03  0.11283912536E+03  0.00000000000E+00 0. -1.
        -14    1    5    5    0    0  0.36449253826E+02  0.56326115418E+01  0.14385854565E+04  0.14390581608E+04  0.00000000000E+00 0.  1.
          5    1    4    4  501    0 -0.20379576207E+02 -0.22736188366E+02  0.39375496208E+03  0.39495911680E+03  0.41800000000E+01 0.  1.
         -5    1    4    4    0  501  0.46001387668E+02  0.30493144437E+02  0.92078130982E+02  0.10743283544E+03  0.41800000000E+01 0.  1.
</event>
<event>
11    1  0.7157190E-009  0.3076211E+03  0.7561462E-02  0.9970164E-01
         22   -1    0    0    0    0  0.00000000000E+00  0.00000000000E+00  0.22071958986E+04  0.22071958986E+04  0.00000000000E+00 0. -1.
         22   -1    0    0    0    0 -0.00000000000E+00 -0.00000000000E+00 -0.41135163456E+03  0.41135163456E+03  0.00000000000E+00 0. -1.
        -24    2    1    2    0    0  0.12453237545E+03  0.26080042347E+03 -0.19716689442E+03  0.35970993060E+03  0.83613853528E+02 0.  0.
         25    2    1    2    0    0 -0.13564616829E+03 -0.22853352163E+03  0.31567093261E+02  0.29541565921E+03  0.12508587791E+03 0.  0.
         24    2    1    2    0    0  0.11113792841E+02 -0.32266901846E+02  0.19614440652E+04  0.19634219433E+04  0.81229535064E+02 0.  0.
        -11    1    5    5    0    0  0.41602602559E+02  0.40394969581E+00  0.74897243926E+03  0.75012709222E+03  0.00000000000E+00 0.  1.
         12    1    5    5    0    0 -0.30488809719E+02 -0.32670851542E+02  0.12124716259E+04  0.12132948511E+04  0.00000000000E+00 0. -1.
         11    1    3    3    0    0  0.63497157106E+02  0.21583568518E+03 -0.14414009018E+03  0.26719524239E+03  0.00000000000E+00 0. -1.
        -12    1    3    3    0    0  0.61035218342E+02  0.44964738291E+02 -0.53026804235E+02  0.92514688213E+02  0.00000000000E+00 0.  1.
          5    1    4    4  501    0  0.13766584616E+02  0.95891281869E+00  0.15348604350E+02  0.21059212266E+02  0.41800000000E+01 0.  1.
         -5    1    4    4    0  501 -0.14941275290E+03 -0.22949243445E+03  0.16218488910E+02  0.27435644695E+03  0.41800000000E+01 0.  1.
</event>
<event>
11    1  0.7157190E-009  0.1404462E+03  0.7561462E-02  0.1107061E+00
         22   -1    0    0    0    0  0.00000000000E+00  0.00000000000E+00  0.85303196855E+03  0.85303196855E+03  0.00000000000E+00 0. -1.
         22   -1    0    0    0    0 -0.00000000000E+00 -0.00000000000E+00 -0.49977097681E+02  0.49977097681E+02  0.00000000000E+00 0. -1.
        -24    2    1    2    0    0  0.48117432469E+02 -0.43919262890E+02  0.45930508100E+02  0.11225454631E+03  0.79039753493E+02 0.  0.
         25    2    1    2    0    0 -0.39616542990E+02  0.41996188616E+02  0.36211611437E+03  0.38744272984E+03  0.12510251110E+03 0.  0.
         24    2    1    2    0    0 -0.85008894794E+01  0.19230742744E+01  0.39500824840E+03  0.40331179008E+03  0.80950110428E+02 0.  0.
        -13    1    5    5    0    0  0.11751321880E+01 -0.19943723507E+02  0.22712075766E+02  0.30248494650E+02  0.00000000000E+00 0.  1.
         14    1    5    5    0    0 -0.96760216675E+01  0.21866797782E+02  0.37229617263E+03  0.37306329543E+03  0.00000000000E+00 0. -1.
         11    1    3    3    0    0  0.31799328460E+02 -0.66065219387E+02  0.24239587063E+02  0.77222846905E+02  0.00000000000E+00 0. -1.
        -12    1    3    3    0    0  0.16318104009E+02  0.22145956497E+02  0.21690921037E+02  0.35031699402E+02  0.00000000000E+00 0.  1.
          5    1    4    4  501    0  0.58570024583E+01  0.52513014321E+02  0.32024220277E+03  0.32459892481E+03  0.41800000000E+01 0.  1.
         -5    1    4    4    0  501 -0.45473545448E+02 -0.10516825705E+02  0.41873911596E+02  0.62843805032E+02  0.41800000000E+01 0.  1.
</event>
<event>
11    1  0.7157190E-009  0.1360003E+03  0.7561462E-02  0.1112109E+00
         22   -1    0    0    0    0  0.00000000000E+00  0.00000000000E+00  0.80651023042E+02  0.80651023042E+02  0.00000000000E+00 0. -1.
         22   -1    0    0    0    0 -0.00000000000E+00 -0.00000000000E+00 -0.20926317217E+04  0.20926317217E+04  0.00000000000E+00 0.  1.
        -24    2    1    2    0    0 -0.48399145619E+02  0.20556188151E+02 -0.15838622952E+04  0.15866420803E+04  0.77770730819E+02 0.  0.
         25    2    1    2    0    0  0.89940495131E+02  0.98986580138E+01 -0.46125226168E+03  0.48640377948E+03  0.12509081377E+03 0.  0.
         24    2    1    2    0    0 -0.41541349512E+02 -0.30454846165E+02  0.33133858207E+02  0.10023688500E+03  0.79349853066E+02 0.  0.
        -11    1    5    5    0    0 -0.21082791455E+02 -0.56599628647E+02  0.28260152398E+02  0.66683118344E+02  0.00000000000E+00 0.  1.
         12    1    5    5    0    0 -0.20458558057E+02  0.26144782482E+02  0.48737058090E+01  0.33553766661E+02  0.00000000000E+00 0. -1.
         13    1    3    3    0    0 -0.23683309961E+02  0.49960620011E+02 -0.98197994199E+03  0.98353524045E+03  0.00000000000E+00 0. -1.
        -14    1    3    3    0    0 -0.24715835658E+02 -0.29404431861E+02 -0.60188235323E+03  0.60310683986E+03  0.00000000000E+00 0.  1.
          5    1    4    4  501    0  0.23931753780E+02  0.57604554965E+02 -0.11734668366E+03  0.13296138597E+03  0.41800000000E+01 0.  1.
         -5    1    4    4    0  501  0.66008741351E+02 -0.47705896951E+02 -0.34390557802E+03  0.35344239351E+03  0.41800000000E+01 0.  1.
</event>
<event>
11    1  0.7157190E-009  0.1443711E+03  0.7561462E-02  0.1102773E+00
         22   -1    0    0    0    0  0.00000000000E+00  0.00000000000E+00  0.10356140922E+03  0.10356140922E+03  0.00000000000E+00 0. -1.
         22   -1    0    0    0    0 -0.00000000000E+00 -0.00000000000E+00 -0.35489529443E+03  0.35489529443E+03  0.00000000000E+00 0. -1.
        -24    2    1    2    0    0 -0.23863349050E+02 -0.54096723446E+01 -0.13645681377E+03  0.16042536999E+03  0.80728640079E+02 0.  0.
         25    2    1    2    0    0  0.24713527560E+02  0.75811657631E+02 -0.11948981662E+03  0.19048524653E+03  0.12509455221E+03 0.  0.
         24    2    1    2    0    0 -0.85017850967E+00 -0.70401985287E+02  0.46127451907E+01  0.10754608713E+03  0.81164777482E+02 0.  0.
        -11    1    5    5    0    0 -0.40424483266E+02 -0.27737828085E+02  0.56057093850E+01  0.49345211843E+02  0.00000000000E+00 0.  1.
         12    1    5    5    0    0  0.39574304756E+02 -0.42664157202E+02 -0.99296419432E+00  0.58200875290E+02  0.00000000000E+00 0. -1.
         13    1    3    3    0    0  0.49137285386E+01 -0.25167942325E+02 -0.11836024409E+03  0.12110622375E+03  0.00000000000E+00 0. -1.
        -14    1    3    3    0    0 -0.28777077589E+02  0.19758269980E+02 -0.18096569684E+02  0.39319146246E+02  0.00000000000E+00 0.  1.
          5    1    4    4  501    0  0.57611048838E+01 -0.35030836381E+02 -0.26306554409E+02  0.44383071457E+02  0.41800000000E+01 0.  1.
         -5    1    4    4    0  501  0.18952422676E+02  0.11084249401E+03 -0.93183262215E+02  0.14610217507E+03  0.41800000000E+01 0.  1.
</event>
<event>
11    1  0.7157190E-009  0.1485636E+03  0.7561462E-02  0.1098356E+00
         22   -1    0    0    0    0  0.00000000000E+00  0.00000000000E+00  0.63872514779E+03  0.63872514779E+03  0.00000000000E+00 0.  1.
         22   -1    0    0    0    0 -0.00000000000E+00 -0.00000000000E+00 -0.40640915662E+03  0.40640915662E+03  0.00000000000E+00 0. -1.
        -24    2    1    2    0    0  0.85606889427E+02 -0.20388509906E+02 -0.30520802163E+03  0.33207637362E+03  0.96842917115E+02 0.  0.
         25    2    1    2    0    0 -0.18195713902E+02  0.77043762631E+02 -0.14017222539E+02  0.14869800217E+03  0.12509111862E+03 0.  0.
         24    2    1    2    0    0 -0.67411175525E+02 -0.56655252725E+02  0.55154123534E+03  0.56435992862E+03  0.80933988574E+02 0.  0.
        -11    1    5    5    0    0 -0.53769769717E+02 -0.53128851938E+02  0.54222519982E+03  0.54746874829E+03  0.00000000000E+00 0.  1.
         12    1    5    5    0    0 -0.13641405808E+02 -0.35264007872E+01  0.93160355222E+01  0.16891180325E+02  0.00000000000E+00 0. -1.
         11    1    3    3    0    0  0.36552421308E+02  0.37733593435E+02 -0.15589415950E+03  0.16450803185E+03  0.00000000000E+00 0. -1.
        -12    1    3    3    0    0  0.49054468119E+02 -0.58122103341E+02 -0.14931386214E+03  0.16756834177E+03  0.00000000000E+00 0.  1.
          5    1    4    4  501    0 -0.64277567497E+02  0.72101842209E+02  0.83955169819E+01  0.97047609134E+02  0.41800000000E+01 0.  1.
         -5    1    4    4    0  501  0.46081853595E+02  0.49419204222E+01 -0.22412739521E+02  0.51650393039E+02  0.41800000000E+01 0.  1.
</event>
<event>
11    1  0.7157190E-009  0.2372159E+03  0.7561462E-02  0.1030939E+00
         22   -1    0    0    0    0  0.00000000000E+00  0.00000000000E+00  0.58911517094E+03  0.58911517094E+03  0.00000000000E+00 0.  1.
         22   -1    0    0    0    0 -0.00000000000E+00 -0.00000000000E+00 -0.81344406995E+03  0.81344406995E+03  0.00000000000E+00 0. -1.
         24    2    1    2    0    0  0.51967775627E+02  0.18869463222E+03 -0.63773647107E+03  0.67220181450E+03  0.82711298841E+02 0.  0.
         25    2    1    2    0    0 -0.20743097594E+02 -0.24720370174E+03 -0.25738393736E+02  0.27901307457E+03  0.12508351058E+03 0.  0.
        -24    2    1    2    0    0 -0.31224678033E+02  0.58509069523E+02  0.43914596580E+03  0.45134435181E+03  0.80400577753E+02 0.  0.
        -11    1    3    3    0    0  0.57944070816E+02  0.82522543386E+02 -0.23619999696E+03  0.25682274835E+03  0.00000000000E+00 0.  1.
         12    1    3    3    0    0 -0.59762951887E+01  0.10617208883E+03 -0.40153647412E+03  0.41537906615E+03  0.00000000000E+00 0. -1.
         11    1    5    5    0    0 -0.90522291271E+01  0.77301027041E+01  0.38131099388E+01  0.12499485885E+02  0.00000000000E+00 0. -1.
        -12    1    5    5    0    0 -0.22172448906E+02  0.50778966819E+02  0.43533285586E+03  0.43884486593E+03  0.00000000000E+00 0.  1.
          5    1    4    4  501    0 -0.54725170507E+02 -0.40263007022E+02 -0.61661097728E+01  0.68347987031E+02  0.41800000000E+01 0. -1.
         -5    1    4    4    0  501  0.33982072913E+02 -0.20694069472E+03 -0.19572283963E+02  0.21066508754E+03  0.41800000000E+01 0. -1.
</event>
<event>
11    1  0.7157190E-009  0.1408899E+03  0.7561462E-02  0.1106569E+00
         22   -1    0    0    0    0  0.00000000000E+00  0.00000000000E+00  0.74309834945E+02  0.74309834945E+02  0.00000000000E+00 0. -1.
         22   -1    0    0    0    0 -0.00000000000E+00 -0.00000000000E+00 -0.13761564936E+04  0.13761564936E+04  0.00000000000E+00 0.  1.
         24    2    1    2    0    0  0.32358215974E+02 -0.26211074193E+02 -0.94963569173E+03  0.95399687965E+03  0.81043351567E+02 0.  0.
         25    2    1    2    0    0  0.32732927789E+02  0.30652186523E+01 -0.36705557989E+03  0.38917666138E+03  0.12509130627E+03 0.  0.
        -24    2    1    2    0    0 -0.65091143764E+02  0.23145855541E+02  0.14844612924E+02  0.10729278755E+03  0.80739037045E+02 0.  0.
        -13    1    3    3    0    0 -0.13512743284E+01 -0.28878577952E+02 -0.80269859779E+03  0.80321904677E+03  0.00000000000E+00 0.  1.
         14    1    3    3    0    0  0.33709490303E+02  0.26675037587E+01 -0.14693709394E+03  0.15077783288E+03  0.00000000000E+00 0. -1.
         13    1    5    5    0    0 -0.36783362081E+02 -0.18508575478E+02  0.34009894981E+02  0.53406516913E+02  0.00000000000E+00 0. -1.
        -14    1    5    5    0    0 -0.28307781682E+02  0.41654431018E+02 -0.19165282057E+02  0.53886270640E+02  0.00000000000E+00 0.  1.
          5    1    4    4  501    0  0.67726322268E+02  0.31169098181E+02 -0.15082119901E+03  0.16829401023E+03  0.41800000000E+01 0.  1.
         -5    1    4    4    0  501 -0.34993394479E+02 -0.28103879529E+02 -0.21623438088E+03  0.22088265114E+03  0.41800000000E+01 0.  1.
</event>
<event>
11    1  0.7157190E-009  0.2172049E+03  0.7561462E-02  0.1042983E+00
         22   -1    0    0    0    0  0.00000000000E+00  0.00000000000E+00  0.10010331234E+04  0.10010331234E+04  0.00000000000E+00 0.  1.
         22   -1    0    0    0    0 -0.00000000000E+00 -0.00000000000E+00 -0.99948540309E+03  0.99948540309E+03  0.00000000000E+00 0. -1.
         24    2    1    2    0    0 -0.45875311911E+02  0.16693338406E+03 -0.87011800325E+03  0.89093672332E+03  0.81802239714E+02 0.  0.
         25    2    1    2    0    0  0.12057656986E+03 -0.23250891296E+03  0.71047404810E+02  0.29882033002E+03  0.12508697813E+03 0.  0.
        -24    2    1    2    0    0 -0.74701257947E+02  0.65575528904E+02  0.80061831877E+03  0.81076147317E+03  0.80399291665E+02 0.  0.
        -13    1    3    3    0    0  0.12353530660E+02  0.78134235974E+02 -0.48666860410E+03  0.49305567512E+03  0.00000000000E+00 0.  1.
         14    1    3    3    0    0 -0.58228842572E+02  0.88799148083E+02 -0.38344939916E+03  0.39788104820E+03  0.00000000000E+00 0. -1.
         13    1    5    5    0    0 -0.69169572820E+01  0.14436365919E+02  0.20374112484E+02  0.25910565770E+02  0.00000000000E+00 0. -1.
        -14    1    5    5    0    0 -0.67784300665E+02  0.51139162984E+02  0.78024420629E+03  0.78485090740E+03  0.00000000000E+00 0.  1.
          5    1    4    4  501    0  0.81862937276E+02 -0.21864221455E+03  0.93799422231E+02  0.25163815787E+03  0.41800000000E+01 0.  1.
         -5    1    4    4    0  501  0.38713632582E+02 -0.13866698411E+02 -0.22752017421E+02  0.47182172155E+02  0.41800000000E+01 0.  1.
</event>
<event>
11    1  0.7157190E-009  0.1538469E+03  0.7561462E-02  0.1093012E+00
         22   -1    0    0    0    0  0.00000000000E+00  0.00000000000E+00  0.52303103231E+03  0.52303103231E+03  0.00000000000E+00 0.  1.
         22   -1    0    0    0    0 -0.00000000000E+00 -0.00000000000E+00 -0.23957099515E+04  0.23957099515E+04  0.00000000000E+00 0.  1.
        -24    2    1    2    0    0 -0.81857348052E+02 -0.32974141833E+02 -0.17470038745E+04  0.17510621965E+04  0.80052225741E+02 0.  0.
         25    2    1    2    0    0  0.76872681974E+02  0.63194105233E+02 -0.63310155651E+03  0.65297386207E+03  0.12511746286E+03 0.  0.
         24    2    1    2    0    0  0.49846660774E+01 -0.30219963400E+02  0.50742651185E+03  0.51470492528E+03  0.80631272406E+02 0.  0.
        -13    1    5    5    0    0  0.14090040651E+02 -0.85554169886E+01  0.47141977256E+03  0.47170788245E+03  0.00000000000E+00 0.  1.
         14    1    5    5    0    0 -0.91053745735E+01 -0.21664546411E+02  0.36006739292E+02  0.42997042826E+02  0.00000000000E+00 0. -1.
         13    1    3    3    0    0 -0.46772277998E+02 -0.33013598100E+02 -0.45574187535E+03  0.45932363383E+03  0.00000000000E+00 0. -1.
        -14    1    3    3    0    0 -0.35085070054E+02  0.39456267254E-01 -0.12912619992E+04  0.12917385627E+04  0.00000000000E+00 0.  1.
          5    1    4    4  501    0  0.12237100588E+02  0.42703184463E+02 -0.54668035663E+02  0.70564687467E+02  0.41800000000E+01 0.  1.
         -5    1    4    4    0  501  0.64635581387E+02  0.20490920769E+02 -0.57843352085E+03  0.58240917460E+03  0.41800000000E+01 0.  1.
</event>
<event>
11    1  0.7157190E-009  0.1315324E+03  0.7561462E-02  0.1117400E+00
         22   -1    0    0    0    0  0.00000000000E+00  0.00000000000E+00  0.18111807464E+04  0.18111807464E+04  0.00000000000E+00 0.  1.
         22   -1    0    0    0    0 -0.00000000000E+00 -0.00000000000E+00 -0.13037403607E+04  0.13037403607E+04  0.00000000000E+00 0. -1.
        -24    2    1    2    0    0 -0.15191994671E+02 -0.87024519385E-01 -0.12459556173E+04  0.12486130492E+04  0.79989636834E+02 0.  0.
         25    2    1    2    0    0 -0.24114892653E+02 -0.11365552433E+02  0.18653479810E+02  0.12925782498E+03  0.12509568010E+03 0.  0.
         24    2    1    2    0    0  0.39306887324E+02  0.11452576953E+02  0.17347425232E+04  0.17370502330E+04  0.79597092793E+02 0.  0.
        -11    1    5    5    0    0  0.17147176069E+02  0.32015060907E+02  0.14907194933E+04  0.14911618281E+04  0.00000000000E+00 0.  1.
         12    1    5    5    0    0  0.22159711255E+02 -0.20562483954E+02  0.24402302986E+03  0.24588840488E+03  0.00000000000E+00 0. -1.
         11    1    3    3    0    0 -0.18498452679E+02  0.33599058497E+02 -0.94164272761E+03  0.94242353321E+03  0.00000000000E+00 0. -1.
        -12    1    3    3    0    0  0.33064580083E+01 -0.33686083016E+02 -0.30431288967E+03  0.30618951594E+03  0.00000000000E+00 0.  1.
          5    1    4    4  501    0  0.27460258808E+02  0.43453617567E+02  0.15323763672E+02  0.53801234433E+02  0.41800000000E+01 0. -1.
         -5    1    4    4    0  501 -0.51575151461E+02 -0.54819170001E+02  0.33297161379E+01  0.75456590549E+02  0.41800000000E+01 0. -1.
</event>
<event>
11    1  0.7157190E-009  0.4918227E+03  0.7561462E-02  0.9411982E-01
         22   -1    0    0    0    0  0.00000000000E+00  0.00000000000E+00  0.13589073674E+04  0.13589073674E+04  0.00000000000E+00 0.  1.
         22   -1    0    0    0    0 -0.00000000000E+00 -0.00000000000E+00 -0.29478524073E+04  0.29478524073E+04  0.00000000000E+00 0. -1.
        -24    2    1    2    0    0 -0.29139078265E+03  0.37403357148E+03 -0.28205647688E+04  0.28612572358E+04  0.79985334612E+02 0.  0.
         25    2    1    2    0    0  0.27606438006E+03 -0.45765065702E+03  0.64353278551E+03  0.84583618856E+03  0.12509494815E+03 0.  0.
         24    2    1    2    0    0  0.15326402598E+02  0.83617085535E+02  0.58808694341E+03  0.59966635034E+03  0.80788384723E+02 0.  0.
        -11    1    5    5    0    0  0.44243946013E+02  0.55039366483E+02  0.45686734356E+03  0.46229279492E+03  0.00000000000E+00 0.  1.
         12    1    5    5    0    0 -0.28917543415E+02  0.28577719051E+02  0.13121959985E+03  0.13737355542E+03  0.00000000000E+00 0. -1.
         11    1    3    3    0    0 -0.19206199136E+03  0.21354291005E+03 -0.18953518645E+04  0.19169890645E+04  0.00000000000E+00 0. -1.
        -12    1    3    3    0    0 -0.99328791292E+02  0.16049066144E+03 -0.92521290426E+03  0.94426817133E+03  0.00000000000E+00 0.  1.
          5    1    4    4  501    0  0.27867775631E+03 -0.38232711554E+03  0.54515529245E+03  0.72183590962E+03  0.41800000000E+01 0.  1.
         -5    1    4    4    0  501 -0.26133762507E+01 -0.75323541481E+02  0.98377493057E+02  0.12400027894E+03  0.41800000000E+01 0.  1.
</event>
<event>
11    1  0.7157190E-009  0.1880410E+03  0.7561462E-02  0.1063318E+00
         22   -1    0    0    0    0  0.00000000000E+00  0.00000000000E+00  0.66713416902E+03  0.66713416902E+03  0.00000000000E+00 0. -1.
         22   -1    0    0    0    0 -0.00000000000E+00 -0.00000000000E+00 -0.49371662955E+03  0.49371662955E+03  0.00000000000E+00 0. -1.
         24    2    1    2    0    0 -0.10266675000E+02  0.21237437873E+02 -0.43473186059E+03  0.44289130284E+03  0.81267965035E+02 0.  0.
         25    2    1    2    0    0  0.14042956100E+03 -0.60561229806E+02  0.20425613366E+03  0.28417599086E+03  0.12508917415E+03 0.  0.
        -24    2    1    2    0    0 -0.13016288600E+03  0.39323791933E+02  0.40389326640E+03  0.43378350487E+03  0.80929728429E+02 0.  0.
        -13    1    3    3    0    0  0.11523234934E+02 -0.14240185482E+02 -0.24702612600E+02  0.30753648486E+02  0.00000000000E+00 0.  1.
         14    1    3    3    0    0 -0.21789909934E+02  0.35477623355E+02 -0.41002924799E+03  0.41213765436E+03  0.00000000000E+00 0. -1.
         13    1    5    5    0    0 -0.43447525259E+02  0.45219316146E+02  0.24247448907E+03  0.25045229457E+03  0.00000000000E+00 0. -1.
        -14    1    5    5    0    0 -0.86715360738E+02 -0.58955242129E+01  0.16141877734E+03  0.18333121030E+03  0.00000000000E+00 0.  1.
          5    1    4    4  501    0  0.12617311956E+03 -0.38775051905E+02  0.74213839636E+02  0.15148705273E+03  0.41800000000E+01 0.  1.
         -5    1    4    4    0  501  0.14256441437E+02 -0.21786177900E+02  0.13004229402E+03  0.13268893814E+03  0.41800000000E+01 0.  1.
</event>
<event>
11    1  0.7157190E-009  0.1520280E+03  0.7561462E-02  0.1094824E+00
         22   -1    0    0    0    0  0.00000000000E+00  0.00000000000E+00  0.93071459991E+02  0.93071459991E+02  0.00000000000E+00 0. -1.
         22   -1    0    0    0    0 -0.00000000000E+00 -0.00000000000E+00 -0.27627826320E+04  0.27627826320E+04  0.00000000000E+00 0. -1.
        -24    2    1    2    0    0  0.45742490178E+02 -0.23668645161E+02 -0.17005359037E+04  0.17032461810E+04  0.81071654608E+02 0.  0.
         25    2    1    2    0    0 -0.17190485742E+02 -0.59524708163E+02 -0.10113132424E+04  0.10209021143E+04  0.12509176255E+03 0.  0.
         24    2    1    2    0    0 -0.28552004436E+02  0.83193353324E+02  0.42137974122E+02  0.13170579664E+03  0.88512468117E+02 0.  0.
        -13    1    5    5    0    0 -0.28728868441E+00 -0.86869401650E+01 -0.16822457429E+02  0.18935166706E+02  0.00000000000E+00 0.  1.
         14    1    5    5    0    0 -0.28264715752E+02  0.91880293489E+02  0.58960431551E+02  0.11277062994E+03  0.00000000000E+00 0. -1.
         13    1    3    3    0    0  0.58464743994E+02 -0.37241781578E+02 -0.15523784182E+04  0.15539252974E+04  0.00000000000E+00 0. -1.
        -14    1    3    3    0    0 -0.12722253816E+02  0.13573136417E+02 -0.14815748547E+03  0.14932088359E+03  0.00000000000E+00 0.  1.
          5    1    4    4  501    0  0.16594682958E+02 -0.54038063179E+02 -0.17653292453E+03  0.18540992859E+03  0.41800000000E+01 0.  1.
         -5    1    4    4    0  501 -0.33785168700E+02 -0.54866449837E+01 -0.83478031787E+03  0.83549218572E+03  0.41800000000E+01 0.  1.
</event>
<event>
11    1  0.7157190E-009  0.1329948E+03  0.7561462E-02  0.1115643E+00
         22   -1    0    0    0    0  0.00000000000E+00  0.00000000000E+00  0.11489394296E+04  0.11489394296E+04  0.00000000000E+00 0. -1.
         22   -1    0    0    0    0 -0.00000000000E+00 -0.00000000000E+00 -0.93024981632E+03  0.93024981632E+03  0.00000000000E+00 0.  1.
        -24    2    1    2    0    0 -0.72486672279E+01  0.44767366901E+02 -0.90368183815E+03  0.90836888321E+03  0.80227819755E+02 0.  0.
         25    2    1    2    0    0  0.70060779808E+00 -0.30529003850E+02  0.16263034369E+03  0.20743476778E+03  0.12509213912E+03 0.  0.
         24    2    1    2    0    0  0.65480594299E+01 -0.14238363051E+02  0.95974110773E+03  0.96338559492E+03  0.82238692693E+02 0.  0.
        -13    1    5    5    0    0 -0.34350766194E+02  0.71935985774E+01  0.30359683631E+03  0.30561865456E+03  0.00000000000E+00 0.  1.
         14    1    5    5    0    0  0.40898825624E+02 -0.21431961628E+02  0.65614427142E+03  0.65776694036E+03  0.00000000000E+00 0. -1.
         13    1    3    3    0    0  0.35455893713E+02  0.26181513653E+02 -0.52163442010E+03  0.52349313299E+03  0.00000000000E+00 0. -1.
        -14    1    3    3    0    0 -0.42704560941E+02  0.18585853248E+02 -0.38204741806E+03  0.38487575022E+03  0.00000000000E+00 0.  1.
          5    1    4    4  501    0  0.28806257442E+02 -0.48055265291E+02  0.17992816557E+02  0.58994261057E+02  0.41800000000E+01 0.  1.
         -5    1    4    4    0  501 -0.28105649644E+02  0.17526261441E+02  0.14463752713E+03  0.14844050672E+03  0.41800000000E+01 0.  1.
</event>
<event>
11    1  0.7157190E-009  0.1539565E+03  0.7561462E-02  0.1092903E+00
         22   -1    0    0    0    0  0.00000000000E+00  0.00000000000E+00  0.63382689382E+03  0.63382689382E+03  0.00000000000E+00 0. -1.
         22   -1    0    0    0    0 -0.00000000000E+00 -0.00000000000E+00 -0.32325181251E+03  0.32325181251E+03  0.00000000000E+00 0.  1.
         24    2    1    2    0    0 -0.78128576082E+02  0.38588275181E+02 -0.25974712173E+03  0.28521418776E+03  0.79280743386E+02 0.  0.
         25    2    1    2    0    0  0.10128775251E+03 -0.78814462883E+02  0.13072377356E+03  0.22182510811E+03  0.12508695074E+03 0.  0.
        -24    2    1    2    0    0 -0.23159176428E+02  0.40226187702E+02  0.43959842947E+03  0.45003941046E+03  0.84464182630E+02 0.  0.
        -11    1    3    3    0    0 -0.66877532147E+02  0.87577789244E+01 -0.23603054394E+03  0.24547855440E+03  0.00000000000E+00 0.  1.
         12    1    3    3    0    0 -0.11251043935E+02  0.29830496256E+02 -0.23716577787E+02  0.39735633359E+02  0.00000000000E+00 0. -1.
         13    1    5    5    0    0 -0.49058360794E+02  0.33100463148E+02  0.19009353762E+03  0.19909273334E+03  0.00000000000E+00 0. -1.
        -14    1    5    5    0    0  0.25899184367E+02  0.71257245540E+01  0.24950489184E+03  0.25094667712E+03  0.00000000000E+00 0.  1.
          5    1    4    4  501    0  0.29134450126E+02 -0.64456054268E+02  0.13008957159E+03  0.14813564106E+03  0.41800000000E+01 0. -1.
         -5    1    4    4    0  501  0.72153302383E+02 -0.14358408615E+02  0.63420197820E+00  0.73689467056E+02  0.41800000000E+01 0. -1.
</event>
<event>
11    1  0.7157190E-009  0.1296941E+03  0.7561462E-02  0.1119645E+00
         22   -1    0    0    0    0  0.00000000000E+00  0.00000000000E+00  0.30823373685E+03  0.30823373685E+03  0.00000000000E+00 0.  1.
         22   -1    0    0    0    0 -0.00000000000E+00 -0.00000000000E+00 -0.51023892327E+03  0.51023892327E+03  0.00000000000E+00 0. -1.
        -24    2    1    2    0    0 -0.16194748420E+02  0.14117341910E+02 -0.46647225415E+03  0.47364964839E+03  0.79284653680E+02 0.  0.
         25    2    1    2    0    0  0.12488943457E+02 -0.41102008364E+02  0.19539132201E+03  0.23594620742E+03  0.12508994874E+03 0.  0.
         24    2    1    2    0    0  0.37058049627E+01  0.26984666454E+02  0.69075745704E+02  0.10887680432E+03  0.79629106861E+02 0.  0.
        -11    1    5    5    0    0 -0.19089086998E+02 -0.11124890046E+02  0.59472145437E+02  0.63443616731E+02  0.00000000000E+00 0.  1.
         12    1    5    5    0    0  0.22794891961E+02  0.38109556500E+02  0.96036002672E+01  0.45433187586E+02  0.00000000000E+00 0. -1.
         13    1    3    3    0    0 -0.32827048540E+02  0.26324214485E+02 -0.42738798845E+03  0.42945438879E+03  0.00000000000E+00 0. -1.
        -14    1    3    3    0    0  0.16632300120E+02 -0.12206872575E+02 -0.39084265699E+02  0.44195259594E+02  0.00000000000E+00 0.  1.
          5    1    4    4  501    0 -0.27978552265E+02 -0.74128877647E+02  0.10732477784E+03  0.13346898601E+03  0.41800000000E+01 0.  1.
         -5    1    4    4    0  501  0.40467495722E+02  0.33026869282E+02  0.88066544177E+02  0.10247722141E+03  0.41800000000E+01 0.  1.
</event>
<event>
11    1  0.7157190E-009  0.1657707E+03  0.7561462E-02  0.1081772E+00
         22   -1    0    0    0    0  0.00000000000E+00  0.00000000000E+00  0.16293698392E+03  0.16293698392E+03  0.00000000000E+00 0. -1.
         22   -1    0    0    0    0 -0.00000000000E+00 -0.00000000000E+00 -0.33535494204E+04  0.33535494204E+04  0.00000000000E+00 0. -1.
        -24    2    1    2    0    0  0.10781954617E+03 -0.12573201590E+02 -0.32260696965E+04  0.32288582346E+04  0.78845878589E+02 0.  0.
         25    2    1    2    0    0 -0.12184846739E+03 -0.12022581764E+02 -0.36894449930E+02  0.17889364372E+03  0.12510053497E+03 0.  0.
         24    2    1    2    0    0  0.14028921223E+02  0.24595783354E+02  0.72351709924E+02  0.10873452602E+03  0.76070125746E+02 0.  0.
        -11    1    5    5    0    0 -0.28513944807E+02  0.68589912862E+01  0.95688972717E+01  0.30848899574E+02  0.00000000000E+00 0.  1.
         12    1    5    5    0    0  0.42542866030E+02  0.17736792068E+02  0.62782812652E+02  0.77885626449E+02  0.00000000000E+00 0. -1.
         11    1    3    3    0    0  0.11469724128E+03  0.37847413604E+01 -0.29398236865E+04  0.29420627269E+04  0.00000000000E+00 0. -1.
        -12    1    3    3    0    0 -0.68776951160E+01 -0.16357942951E+02 -0.28624600996E+03  0.28679550765E+03  0.00000000000E+00 0.  1.
          5    1    4    4  501    0 -0.10519834091E+03 -0.60115810494E+02 -0.40186342433E+02  0.12772241823E+03  0.41800000000E+01 0. -1.
         -5    1    4    4    0  501 -0.16650126483E+02  0.48093228731E+02  0.32918925027E+01  0.51171225487E+02  0.41800000000E+01 0. -1.
</event>
<event>
11    1  0.7157190E-009  0.1346779E+03  0.7561462E-02  0.1113651E+00
         22   -1    0    0    0    0  0.00000000000E+00  0.00000000000E+00  0.23701943836E+03  0.23701943836E+03  0.00000000000E+00 0. -1.
         22   -1    0    0    0    0 -0.00000000000E+00 -0.00000000000E+00 -0.14711755972E+04  0.14711755972E+04  0.00000000000E+00 0.  1.
        -24    2    1    2    0    0 -0.10786978024E+02  0.49674532544E+02 -0.13830502969E+04  0.13863233081E+04  0.80500141189E+02 0.  0.
         25    2    1    2    0    0  0.37669122597E+02 -0.10110692338E+02 -0.16193671090E+02  0.13201513773E+03  0.12507826634E+03 0.  0.
         24    2    1    2    0    0 -0.26882144573E+02 -0.39563840207E+02  0.16508780919E+03  0.18985658971E+03  0.80644855782E+02 0.  0.
        -11    1    5    5    0    0  0.22186769817E+02  0.18009781234E-02  0.85496520252E+02  0.88328408416E+02  0.00000000000E+00 0.  1.
         12    1    5    5    0    0 -0.49068914390E+02 -0.39565641185E+02  0.79591288933E+02  0.10152818129E+03  0.00000000000E+00 0. -1.
         11    1    3    3    0    0 -0.18448178096E+02  0.46210706195E+02 -0.38070927365E+03  0.38394702198E+03  0.00000000000E+00 0. -1.
        -12    1    3    3    0    0  0.76612000718E+01  0.34638263492E+01 -0.10023410233E+04  0.10023762861E+04  0.00000000000E+00 0.  1.
          5    1    4    4  501    0  0.52998309220E+02 -0.22147613872E+02  0.41492561907E+02  0.70981988377E+02  0.41800000000E+01 0. -1.
         -5    1    4    4    0  501 -0.15329186622E+02  0.12036921534E+02 -0.57686232996E+02  0.61033149352E+02  0.41800000000E+01 0. -1.
</event>
<event>
11    1  0.7157190E-009  0.1453002E+03  0.7561462E-02  0.1101780E+00
         22   -1    0    0    0    0  0.00000000000E+00  0.00000000000E+00  0.37470830244E+03  0.37470830244E+03  0.00000000000E+00 0.  1.
         22   -1    0    0    0    0 -0.00000000000E+00 -0.00000000000E+00 -0.27686536638E+04  0.27686536638E+04  0.00000000000E+00 0. -1.
         24    2    1    2    0    0  0.29035409970E+02 -0.67552679807E+02 -0.26989369666E+04  0.27011966838E+04  0.82440011829E+02 0.  0.
         25    2    1    2    0    0 -0.69473926080E+02  0.10047615807E+03  0.73140700792E+02  0.18952362052E+03  0.12509019098E+03 0.  0.
        -24    2    1    2    0    0  0.40438516109E+02 -0.32923478258E+02  0.23185090444E+03  0.25264166189E+03  0.85753941163E+02 0.  0.
        -11    1    3    3    0    0  0.52391198367E+02 -0.19921852093E+02 -0.15973685061E+04  0.15983516078E+04  0.00000000000E+00 0.  1.
         12    1    3    3    0    0 -0.23355788397E+02 -0.47630827714E+02 -0.11015684605E+04  0.11028450760E+04  0.00000000000E+00 0. -1.
         11    1    5    5    0    0  0.65551938957E+02 -0.10654898528E+02  0.16419830268E+03  0.17712048489E+03  0.00000000000E+00 0. -1.
        -12    1    5    5    0    0 -0.25113422848E+02 -0.22268579731E+02  0.67652601759E+02  0.75521176997E+02  0.00000000000E+00 0.  1.
          5    1    4    4  501    0 -0.73982444570E+02  0.14305205060E+01  0.19138576545E+02  0.76545450587E+02  0.41800000000E+01 0.  1.
         -5    1    4    4    0  501  0.45085184901E+01  0.99045637560E+02  0.54002124247E+02  0.11297816993E+03  0.41800000000E+01 0.  1.
</event>
<event>
11    1  0.7157190E-009  0.1329989E+03  0.7561462E-02  0.1115638E+00
         22   -1    0    0    0    0  0.00000000000E+00  0.00000000000E+00  0.53640224563E+03  0.53640224563E+03  0.00000000000E+00 0.  1.
         22   -1    0    0    0    0 -0.00000000000E+00 -0.00000000000E+00 -0.16937251649E+03  0.16937251649E+03  0.00000000000E+00 0.  1.
         24    2    1    2    0    0 -0.45548026031E+02 -0.95441107978E+01 -0.12254078876E+03  0.15321201650E+03  0.79321903430E+02 0.  0.
         25    2    1    2    0    0  0.30051318270E+02  0.10329484054E+02  0.12806206937E+03  0.18181449283E+03  0.12508731439E+03 0.  0.
        -24    2    1    2    0    0  0.15496707761E+02 -0.78537325618E+00  0.36150844852E+03  0.37074825279E+03  0.80778362424E+02 0.  0.
        -11    1    3    3    0    0 -0.63471911161E+02  0.18106701167E+01 -0.11369341933E+03  0.13022348341E+03  0.00000000000E+00 0.  1.
         12    1    3    3    0    0  0.17923885129E+02 -0.11354780914E+02 -0.88473694288E+01  0.22988533088E+02  0.00000000000E+00 0. -1.
         13    1    5    5    0    0  0.44575316856E+02  0.16699198543E+02  0.18632939865E+03  0.19231346002E+03  0.00000000000E+00 0. -1.
        -14    1    5    5    0    0 -0.29078609095E+02 -0.17484571799E+02  0.17517904987E+03  0.17843479277E+03  0.00000000000E+00 0.  1.
          5    1    4    4  501    0 -0.28300155870E+02 -0.37271410267E+02  0.22541863554E+02  0.52112041392E+02  0.41800000000E+01 0. -1.
         -5    1    4    4    0  501  0.58351474140E+02  0.47600894321E+02  0.10552020582E+03  0.12970245144E+03  0.41800000000E+01 0. -1.
</event>
<event>
11    1  0.7157190E-009  0.1673993E+03  0.7561462E-02  0.1080317E+00
         22   -1    0    0    0    0  0.00000000000E+00  0.00000000000E+00  0.70434550541E+02  0.70434550541E+02  0.00000000000E+00 0. -1.
         22   -1    0    0    0    0 -0.00000000000E+00 -0.00000000000E+00 -0.16120335994E+04  0.16120335994E+04  0.00000000000E+00 0. -1.
         24    2    1    2    0    0 -0.14162731334E+02 -0.22093517004E+02 -0.11080093076E+04  0.11113077406E+04  0.81434403068E+02 0.  0.
         25    2    1    2    0    0 -0.72133511646E+02 -0.55485846721E+02 -0.39226167544E+03  0.42166164469E+03  0.12508955950E+03 0.  0.
        -24    2    1    2    0    0  0.86296242980E+02  0.77579363724E+02 -0.41328065822E+02  0.14949876471E+03  0.84712882125E+02 0.  0.
        -13    1    3    3    0    0 -0.20368726476E+02  0.21731163737E+02 -0.19850923466E+03  0.20073127494E+03  0.00000000000E+00 0.  1.
         14    1    3    3    0    0  0.62059951419E+01 -0.43824680741E+02 -0.90950007295E+03  0.91057646561E+03  0.00000000000E+00 0. -1.
         13    1    5    5    0    0  0.75671038152E+02  0.84268792217E+02 -0.76034654113E+01  0.11351276599E+03  0.00000000000E+00 0. -1.
        -14    1    5    5    0    0  0.10625204827E+02 -0.66894284922E+01 -0.33724600411E+02  0.35985998723E+02  0.00000000000E+00 0.  1.
          5    1    4    4  501    0  0.75304968473E+01 -0.53536689143E+02 -0.64205748370E+02  0.84040085619E+02  0.41800000000E+01 0. -1.
         -5    1    4    4    0  501 -0.79664008493E+02 -0.19491575781E+01 -0.32805592707E+03  0.33762155907E+03  0.41800000000E+01 0. -1.
</event>
<event>
11    1  0.7157190E-009  0.1505109E+03  0.7561462E-02  0.1096358E+00
         22   -1    0    0    0    0  0.00000000000E+00  0.00000000000E+00  0.18654743186E+04  0.18654743186E+04  0.00000000000E+00 0.  1.
         22   -1    0    0    0    0 -0.00000000000E+00 -0.00000000000E+00 -0.81678124855E+03  0.81678124855E+03  0.00000000000E+00 0. -1.
         24    2    1    2    0    0 -0.17112750074E+02  0.82833576222E+02 -0.79595630624E+03  0.80463929580E+03  0.82120078804E+02 0.  0.
         25    2    1    2    0    0 -0.10190047682E+02 -0.29797737604E+02  0.26404971287E+03  0.29387313567E+03  0.12508967490E+03 0.  0.
        -24    2    1    2    0    0  0.27302797756E+02 -0.53035838618E+02  0.15805996635E+04  0.15837431357E+04  0.79929849453E+02 0.  0.
        -11    1    3    3    0    0 -0.49121161379E+01  0.40073097051E+02 -0.10885792071E+03  0.11610352662E+03  0.00000000000E+00 0.  1.
         12    1    3    3    0    0 -0.12200633936E+02  0.42760479170E+02 -0.68709838553E+03  0.68853576918E+03  0.00000000000E+00 0. -1.
         13    1    5    5    0    0 -0.85207097798E+00  0.16569856176E+02  0.61683016311E+03  0.61705326859E+03  0.00000000000E+00 0. -1.
        -14    1    5    5    0    0  0.28154868734E+02 -0.69605694794E+02  0.96376950034E+03  0.96668986711E+03  0.00000000000E+00 0.  1.
          5    1    4    4  501    0 -0.66002619219E+02 -0.39446866239E+01  0.11765264161E+03  0.13502415627E+03  0.41800000000E+01 0. -1.
         -5    1    4    4    0  501  0.55812571537E+02 -0.25853050980E+02  0.14639707126E+03  0.15884897941E+03  0.41800000000E+01 0. -1.
</event>
<event>
11    1  0.7157190E-009  0.1333708E+03  0.7561462E-02  0.1115195E+00
         22   -1    0    0    0    0  0.00000000000E+00  0.00000000000E+00  0.14609570922E+04  0.14609570922E+04  0.00000000000E+00 0.  1.
         22   -1    0    0    0    0 -0.00000000000E+00 -0.00000000000E+00 -0.26107085781E+04  0.26107085781E+04  0.00000000000E+00 0.  1.
         24    2    1    2    0    0  0.11510485870E+02 -0.38257620802E+02 -0.24361923603E+04  0.24378222218E+04  0.79673283319E+02 0.  0.
         25    2    1    2    0    0 -0.53902700051E+02  0.19366963087E+02 -0.14475751696E+03  0.19968229829E+03  0.12505079450E+03 0.  0.
        -24    2    1    2    0    0  0.42392214180E+02  0.18890657714E+02  0.14311983914E+04  0.14341611501E+04  0.79595302459E+02 0.  0.
        -11    1    3    3    0    0  0.15517109399E+02  0.64920153051E+01 -0.17860892032E+04  0.17861684043E+04  0.00000000000E+00 0.  1.
         12    1    3    3    0    0 -0.40066235287E+01 -0.44749636107E+02 -0.65010315713E+03  0.65165381751E+03  0.00000000000E+00 0. -1.
         13    1    5    5    0    0 -0.23666274971E+02  0.91098178867E+01  0.39468385146E+03  0.39549769147E+03  0.00000000000E+00 0. -1.
        -14    1    5    5    0    0  0.66058489151E+02  0.97808398278E+01  0.10365145400E+04  0.10386634587E+04  0.00000000000E+00 0.  1.
          5    1    4    4  501    0 -0.68936843870E+02 -0.36464088159E+02 -0.97279749785E+02  0.12475071257E+03  0.41800000000E+01 0. -1.
         -5    1    4    4    0  501  0.15034143819E+02  0.55831051247E+02 -0.47477767173E+02  0.74931585726E+02  0.41800000000E+01 0. -1.
</event>
<event>
11    1  0.7157190E-009  0.1517604E+03  0.7561462E-02  0.1095094E+00
         22   -1    0    0    0    0  0.00000000000E+00  0.00000000000E+00  0.52861213534E+03  0.52861213534E+03  0.00000000000E+00 0. -1.
         22   -1    0    0    0    0 -0.00000000000E+00 -0.00000000000E+00 -0.91145937144E+03  0.91145937144E+03  0.00000000000E+00 0. -1.
        -24    2    1    2    0    0  0.65944801883E+02  0.73315403376E+02 -0.70386907633E+03  0.71531785296E+03  0.80771832147E+02 0.  0.
         25    2    1    2    0    0 -0.26719803257E+02 -0.26903845873E+02 -0.17519228634E+03  0.21858040653E+03  0.12508913668E+03 0.  0.
         24    2    1    2    0    0 -0.39224998626E+02 -0.46411557503E+02  0.49621412658E+03  0.50617324730E+03  0.79311182559E+02 0.  0.
        -11    1    5    5    0    0 -0.24096629815E+02  0.96628594960E+01  0.51411040384E+02  0.57594387708E+02  0.00000000000E+00 0.  1.
         12    1    5    5    0    0 -0.15128368811E+02 -0.56074416999E+02  0.44480308620E+03  0.44857885959E+03  0.00000000000E+00 0. -1.
         11    1    3    3    0    0  0.45746520926E+02  0.85834070539E+01 -0.45504927133E+03  0.45742350004E+03  0.00000000000E+00 0. -1.
        -12    1    3    3    0    0  0.20198280957E+02  0.64731996322E+02 -0.24881980501E+03  0.25789435291E+03  0.00000000000E+00 0.  1.
          5    1    4    4  501    0  0.24303835215E+02  0.32545382495E+02 -0.10737676403E+03  0.11487871945E+03  0.41800000000E+01 0.  1.
         -5    1    4    4    0  501 -0.51023638472E+02 -0.59449228369E+02 -0.67815522307E+02  0.10370168708E+03  0.41800000000E+01 0.  1.
</event>
<event>
11    1  0.7157190E-009  0.1325226E+03  0.7561462E-02  0.1116208E+00
         22   -1    0    0    0    0  0.00000000000E+00  0.00000000000E+00  0.97075809629E+02  0.97075809629E+02  0.00000000000E+00 0. -1.
         22   -1    0    0    0    0 -0.00000000000E+00 -0.00000000000E+00 -0.33571547073E+04  0.33571547073E+04  0.00000000000E+00 0.  1.
        -24    2    1    2    0    0  0.38982330116E+02  0.21719575174E+02 -0.28348286080E+04  0.28363605644E+04  0.81833078245E+02 0.  0.
         25    2    1    2    0    0 -0.77418028590E+01  0.11873282102E+02 -0.48748540556E+03  0.50347839935E+03  0.12509023801E+03 0.  0.
         24    2    1    2    0    0 -0.31240527257E+02 -0.33592857276E+02  0.62235115843E+02  0.11439155319E+03  0.84307574953E+02 0.  0.
        -13    1    5    5    0    0 -0.20338106871E+01 -0.25219937737E+01 -0.20797808942E+02  0.21048650677E+02  0.00000000000E+00 0.  1.
         14    1    5    5    0    0 -0.29206716570E+02 -0.31070863502E+02  0.83032924785E+02  0.93342902515E+02  0.00000000000E+00 0. -1.
         13    1    3    3    0    0 -0.12920529340E+02  0.22473011172E+02 -0.33805716806E+03  0.33904959105E+03  0.00000000000E+00 0. -1.
        -14    1    3    3    0    0  0.51902859456E+02 -0.75343599836E+00 -0.24967714399E+04  0.24973109733E+04  0.00000000000E+00 0.  1.
          5    1    4    4  501    0  0.10615541542E+02 -0.70526547786E+01 -0.47283840149E+03  0.47302859955E+03  0.41800000000E+01 0. -1.
         -5    1    4    4    0  501 -0.18357344401E+02  0.18925936880E+02 -0.14647004062E+02  0.30449799806E+02  0.41800000000E+01 0. -1.
</event>
<event>
11    1  0.7157190E-009  0.1368541E+03  0.7561462E-02  0.1111123E+00
         22   -1    0    0    0    0  0.00000000000E+00  0.00000000000E+00  0.54609968501E+03  0.54609968501E+03  0.00000000000E+00 0.  1.
         22   -1    0    0    0    0 -0.00000000000E+00 -0.00000000000E+00 -0.21315366571E+03  0.21315366571E+03  0.00000000000E+00 0. -1.
        -24    2    1    2    0    0 -0.54868775666E+02  0.11581861886E+02 -0.17700954895E+03  0.20244223184E+03  0.80658259005E+02 0.  0.
         25    2    1    2    0    0  0.43847195166E+02 -0.74280770282E+01  0.23039251186E+03  0.26590620879E+03  0.12509056518E+03 0.  0.
         24    2    1    2    0    0  0.11021580500E+02 -0.41537848583E+01  0.27956305639E+03  0.29090491009E+03  0.79570315128E+02 0.  0.
        -13    1    5    5    0    0 -0.13921821081E+01 -0.36072012383E+02  0.72078067244E+02  0.80612505395E+02  0.00000000000E+00 0.  1.
         14    1    5    5    0    0  0.12413762608E+02  0.31918227525E+02  0.20748498915E+03  0.21029240470E+03  0.00000000000E+00 0. -1.
         13    1    3    3    0    0 -0.15271778936E+02 -0.34313661974E+02 -0.71239205478E+02  0.80533713605E+02  0.00000000000E+00 0. -1.
        -14    1    3    3    0    0 -0.39596996730E+02  0.45895523860E+02 -0.10577034347E+03  0.12190851824E+03  0.00000000000E+00 0.  1.
          5    1    4    4  501    0  0.21893367629E+02  0.48626014482E+02  0.41775052271E+02  0.67870731710E+02  0.41800000000E+01 0. -1.
         -5    1    4    4    0  501  0.21953827537E+02 -0.56054091511E+02  0.18861745959E+03  0.19803547708E+03  0.41800000000E+01 0. -1.
</event>
<event>
11    1  0.7157190E-009  0.2377175E+03  0.7561462E-02  0.1030654E+00
         22   -1    0    0    0    0  0.00000000000E+00  0.00000000000E+00  0.17931092295E+04  0.17931092295E+04  0.00000000000E+00 0.  1.
         22   -1    0    0    0    0 -0.00000000000E+00 -0.00000000000E+00 -0.26050666794E+03  0.26050666794E+03  0.00000000000E+00 0. -1.
        -24    2    1    2    0    0  0.61074778011E+02  0.23702179821E+02 -0.17926152252E+03  0.20697736481E+03  0.80081297760E+02 0.  0.
         25    2    1    2    0    0 -0.14125700859E+03  0.16140542597E+03  0.19875322886E+03  0.31804071298E+03  0.12506716245E+03 0.  0.
         24    2    1    2    0    0  0.80182230575E+02 -0.18510760580E+03  0.15131108552E+04  0.15285978196E+04  0.80080073824E+02 0.  0.
        -13    1    5    5    0    0  0.18646200394E+02 -0.12295627952E+03  0.10462458690E+04  0.10536110980E+04  0.00000000000E+00 0.  1.
         14    1    5    5    0    0  0.61536030180E+02 -0.62151326272E+02  0.46686498619E+03  0.47498672161E+03  0.00000000000E+00 0. -1.
         13    1    3    3    0    0  0.78913454484E+02  0.20316754260E+02 -0.16450125494E+03  0.18357768567E+03  0.00000000000E+00 0. -1.
        -14    1    3    3    0    0 -0.17838676473E+02  0.33854255619E+01 -0.14760267584E+02  0.23399679137E+02  0.00000000000E+00 0.  1.
          5    1    4    4  501    0 -0.57298965192E+02  0.11759666924E+03  0.17810954294E+03  0.22102631000E+03  0.41800000000E+01 0.  1.
         -5    1    4    4    0  501 -0.83958043393E+02  0.43808756735E+02  0.20643685925E+02  0.97014402981E+02  0.41800000000E+01 0.  1.
</event>
<event>
11    1  0.7157190E-009  0.1288023E+03  0.7561462E-02  0.1120749E+00
         22   -1    0    0    0    0  0.00000000000E+00  0.00000000000E+00  0.10295769436E+04  0.10295769436E+04  0.00000000000E+00 0. -1.
         22   -1    0    0    0    0 -0.00000000000E+00 -0.00000000000E+00 -0.19624683811E+03  0.19624683811E+03  0.00000000000E+00 0. -1.
         24    2    1    2    0    0  0.15001650239E+02  0.26443866666E+02 -0.16673935893E+03  0.18633880197E+03  0.77432601086E+02 0.  0.
         25    2    1    2    0    0 -0.95241158880E+01 -0.38633609068E+02  0.22720939228E+03  0.26240105383E+03  0.12508773152E+03 0.  0.
        -24    2    1    2    0    0 -0.54775343506E+01  0.12189742401E+02  0.77286007214E+03  0.77708392591E+03  0.79800649043E+02 0.  0.
        -11    1    3    3    0    0 -0.23163483496E+02 -0.10403792507E+02 -0.27981703047E+02  0.37785732381E+02  0.00000000000E+00 0.  1.
         12    1    3    3    0    0  0.38165133735E+02  0.36847659173E+02 -0.13875765588E+03  0.14855306959E+03  0.00000000000E+00 0. -1.
         11    1    5    5    0    0  0.88835423389E+01  0.33949418378E+02  0.67177104951E+03  0.67268701734E+03  0.00000000000E+00 0. -1.
        -12    1    5    5    0    0 -0.14361076689E+02 -0.21759675976E+02  0.10108902263E+03  0.10439690857E+03  0.00000000000E+00 0.  1.
          5    1    4    4  501    0 -0.26868444980E+02 -0.80024847907E+02  0.16722361017E+03  0.18736888166E+03  0.41800000000E+01 0. -1.
         -5    1    4    4    0  501  0.17344329092E+02  0.41391238839E+02  0.59985782109E+02  0.75032172164E+02  0.41800000000E+01 0. -1.
</event>
<event>
11    1  0.7157190E-009  0.2086699E+03  0.7561462E-02  0.1048557E+00
         22   -1    0    0    0    0  0.00000000000E+00  0.00000000000E+00  0.24024206503E+03  0.24024206503E+03  0.00000000000E+00 0.  1.
         22   -1    0    0    0    0 -0.00000000000E+00 -0.00000000000E+00 -0.17460038367E+04  0.17460038367E+04  0.00000000000E+00 0. -1.
        -24    2    1    2    0    0  0.51880192976E+02  0.15346344764E+03 -0.14404134490E+04  0.14517954383E+04  0.81709892212E+02 0.  0.
         25    2    1    2    0    0 -0.75212821792E+02 -0.20091272961E+03 -0.23365131771E+03  0.34097225920E+03  0.12508497030E+03 0.  0.
         24    2    1    2    0    0  0.23332628816E+02  0.47449281976E+02  0.16830299502E+03  0.19347820422E+03  0.79448545935E+02 0.  0.
        -13    1    5    5    0    0  0.22808322969E+02  0.78345880566E+01  0.14607108808E+03  0.14804851617E+03  0.00000000000E+00 0.  1.
         14    1    5    5    0    0  0.52430584624E+00  0.39614693920E+02  0.22231906938E+02  0.45429688058E+02  0.00000000000E+00 0. -1.
         13    1    3    3    0    0  0.73893972639E+02  0.12015310990E+03 -0.10781293519E+04  0.10873177955E+04  0.00000000000E+00 0. -1.
        -14    1    3    3    0    0 -0.22013779663E+02  0.33310337738E+02 -0.36228409707E+03  0.36447764278E+03  0.00000000000E+00 0.  1.
          5    1    4    4  501    0 -0.21186831388E+02 -0.18551433529E+03 -0.14726884915E+03  0.23784456427E+03  0.41800000000E+01 0.  1.
         -5    1    4    4    0  501 -0.54025990404E+02 -0.15398394320E+02 -0.86382468564E+02  0.10312769493E+03  0.41800000000E+01 0.  1.
</event>
<event>
11    1  0.7157190E-009  0.1376827E+03  0.7561462E-02  0.1110174E+00
         22   -1    0    0    0    0  0.00000000000E+00  0.00000000000E+00  0.28399026819E+03  0.28399026819E+03  0.00000000000E+00 0.  1.
         22   -1    0    0    0    0 -0.00000000000E+00 -0.00000000000E+00 -0.17408340456E+03  0.17408340456E+03  0.00000000000E+00 0.  1.
         24    2    1    2    0    0 -0.35766640093E+02  0.45437576143E+02 -0.83106078790E+02  0.13224415184E+03  0.85076844643E+02 0.  0.
         25    2    1    2    0    0 -0.98184093882E+01  0.96650319999E+01  0.28310496123E+02  0.12898998808E+03  0.12508844403E+03 0.  0.
        -24    2    1    2    0    0  0.45585049481E+02 -0.55102608143E+02  0.16470244630E+03  0.19683953282E+03  0.80651172983E+02 0.  0.
        -13    1    3    3    0    0 -0.49158739124E+02  0.63271156868E+02 -0.69875906422E+02  0.10631304352E+03  0.00000000000E+00 0.  1.
         14    1    3    3    0    0  0.13392099031E+02 -0.17833580724E+02 -0.13230172368E+02  0.25931108322E+02  0.00000000000E+00 0. -1.
         11    1    5    5    0    0  0.56011940322E+02 -0.40285415967E+02  0.16486600044E+03  0.17872059283E+03  0.00000000000E+00 0. -1.
        -12    1    5    5    0    0 -0.10426890841E+02 -0.14817192176E+02 -0.16355414137E+00  0.18118939995E+02  0.00000000000E+00 0.  1.
          5    1    4    4  501    0 -0.78883806794E+01 -0.57109248527E+02  0.21659156818E+02  0.61727500283E+02  0.41800000000E+01 0. -1.
         -5    1    4    4    0  501 -0.19300287087E+01  0.66774280527E+02  0.66513393047E+01  0.67262487802E+02  0.41800000000E+01 0. -1.
</event>
<event>
11    1  0.7157190E-009  0.2099450E+03  0.7561462E-02  0.1047706E+00
         22   -1    0    0    0    0  0.00000000000E+00  0.00000000000E+00  0.64470832169E+03  0.64470832169E+03  0.00000000000E+00 0. -1.
         22   -1    0    0    0    0 -0.00000000000E+00 -0.00000000000E+00 -0.11530048473E+04  0.11530048473E+04  0.00000000000E+00 0.  1.
        -24    2    1    2    0    0  0.17443008310E+02  0.19478781463E+02 -0.96873871800E+03  0.97260101209E+03  0.82549037037E+02 0.  0.
         25    2    1    2    0    0 -0.18222240237E+03  0.10400808687E+02 -0.94027928779E+02  0.24041974384E+03  0.12508885280E+03 0.  0.
         24    2    1    2    0    0  0.16477939406E+03 -0.29879590150E+02  0.55447012113E+03  0.58469241309E+03  0.79894080378E+02 0.  0.
        -11    1    5    5    0    0  0.24712565829E+02 -0.14988890758E+02  0.21830461110E+03  0.22020962964E+03  0.00000000000E+00 0.  1.
         12    1    5    5    0    0  0.14006682823E+03 -0.14890699392E+02  0.33616551003E+03  0.36448278345E+03  0.00000000000E+00 0. -1.
         13    1    3    3    0    0  0.14710349950E+02 -0.14607128206E+02 -0.65220347109E+02  0.68435782067E+02  0.00000000000E+00 0. -1.
        -14    1    3    3    0    0  0.27326583594E+01  0.34085909669E+02 -0.90351837089E+03  0.90416523003E+03  0.00000000000E+00 0.  1.
          5    1    4    4  501    0 -0.13503249818E+03  0.55505059049E+02 -0.96339499736E+02  0.17496673613E+03  0.41800000000E+01 0.  1.
         -5    1    4    4    0  501 -0.47189904190E+02 -0.45104250362E+02  0.23115709567E+01  0.65453007711E+02  0.41800000000E+01 0.  1.
</event>
<event>
11    1  0.7157190E-009  0.1638836E+03  0.7561462E-02  0.1083480E+00
         22   -1    0    0    0    0  0.00000000000E+00  0.00000000000E+00  0.18792181463E+04  0.18792181463E+04  0.00000000000E+00 0.  1.
         22   -1    0    0    0    0 -0.00000000000E+00 -0.00000000000E+00 -0.64942337898E+02  0.64942337898E+02  0.00000000000E+00 0.  1.
        -24    2    1    2    0    0 -0.71728068795E+02  0.83120335624E+02  0.41367838834E+02  0.14232098442E+03  0.80560899129E+02 0.  0.
         25    2    1    2    0    0  0.71311380942E+02 -0.52695312732E+02  0.43534301959E+03  0.46155475423E+03  0.12508851829E+03 0.  0.
         24    2    1    2    0    0  0.41668785324E+00 -0.30425022893E+02  0.13375649499E+04  0.13402847455E+04  0.79732980051E+02 0.  0.
        -11    1    5    5    0    0 -0.12575206355E+02 -0.36743376942E+02  0.12897596529E+04  0.12903442075E+04  0.00000000000E+00 0.  1.
         12    1    5    5    0    0  0.12991894208E+02  0.63183540495E+01  0.47805297074E+02  0.49940538056E+02  0.00000000000E+00 0. -1.
         11    1    3    3    0    0 -0.26745483483E+02  0.12032657054E+02  0.49780432073E+02  0.57777133365E+02  0.00000000000E+00 0. -1.
        -12    1    3    3    0    0 -0.44982585312E+02  0.71087678570E+02 -0.84125932387E+01  0.84543851053E+02  0.00000000000E+00 0.  1.
          5    1    4    4  501    0 -0.28895594553E+02 -0.37415853442E+02  0.19469902795E+03  0.20039981376E+03  0.41800000000E+01 0. -1.
         -5    1    4    4    0  501  0.10020697550E+03 -0.15279459289E+02  0.24064399165E+03  0.26115494046E+03  0.41800000000E+01 0. -1.
</event>
<event>
11    1  0.7157190E-009  0.1788205E+03  0.7561462E-02  0.1070601E+00
         22   -1    0    0    0    0  0.00000000000E+00  0.00000000000E+00  0.62802669006E+03  0.62802669006E+03  0.00000000000E+00 0. -1.
         22   -1    0    0    0    0 -0.00000000000E+00 -0.00000000000E+00 -0.24329231829E+03  0.24329231829E+03  0.00000000000E+00 0. -1.
         24    2    1    2    0    0  0.42868456884E+02  0.94862047438E+01 -0.18597511899E+03  0.20695166739E+03  0.79464174785E+02 0.  0.
         25    2    1    2    0    0 -0.14228095925E+03 -0.62560314587E+02  0.29942695171E+03  0.35980793155E+03  0.12509030286E+03 0.  0.
        -24    2    1    2    0    0  0.99412502364E+02  0.53074109843E+02  0.27128253905E+03  0.30455940941E+03  0.80389745043E+02 0.  0.
        -11    1    3    3    0    0 -0.30151034548E+01 -0.27569155179E+02 -0.33640341425E+02  0.43598414390E+02  0.00000000000E+00 0.  1.
         12    1    3    3    0    0  0.45883560338E+02  0.37055359923E+02 -0.15233477757E+03  0.16335325300E+03  0.00000000000E+00 0. -1.
         11    1    5    5    0    0  0.39246486554E+02  0.62043498193E+02  0.18459423773E+03  0.19865728020E+03  0.00000000000E+00 0. -1.
        -12    1    5    5    0    0  0.60166015810E+02 -0.89693883492E+01  0.86688301320E+02  0.10590212921E+03  0.00000000000E+00 0.  1.
          5    1    4    4  501    0 -0.14582571459E+03 -0.95693051715E+01  0.22260732192E+03  0.26632349279E+03  0.41800000000E+01 0.  1.
         -5    1    4    4    0  501  0.35447553448E+01 -0.52991009416E+02  0.76819629789E+02  0.93484438760E+02  0.41800000000E+01 0.  1.
</event>
<event>
11    1  0.7157190E-009  0.1325672E+03  0.7561462E-02  0.1116154E+00
         22   -1    0    0    0    0  0.00000000000E+00  0.00000000000E+00  0.88089247905E+02  0.88089247905E+02  0.00000000000E+00 0. -1.
         22   -1    0    0    0    0 -0.00000000000E+00 -0.00000000000E+00 -0.43721115832E+03  0.43721115832E+03  0.00000000000E+00 0.  1.
        -24    2    1    2    0    0 -0.42918227938E+02 -0.13015378851E+02 -0.27503286095E+03  0.28973556976E+03  0.79323712787E+02 0.  0.
         25    2    1    2    0    0  0.43579656897E+02 -0.15190176823E+02 -0.72340951599E+02  0.15169795776E+03  0.12509647934E+03 0.  0.
         24    2    1    2    0    0 -0.66142895923E+00  0.28205555673E+02 -0.17480978684E+01  0.83866878700E+02  0.78959525313E+02 0.  0.
        -11    1    5    5    0    0  0.91843680543E+01 -0.26598085398E+02 -0.16192734277E+01  0.28185684484E+02  0.00000000000E+00 0.  1.
         12    1    5    5    0    0 -0.98457970136E+01  0.54803641072E+02 -0.12882444075E+00  0.55681194216E+02  0.00000000000E+00 0. -1.
         13    1    3    3    0    0 -0.41394930466E+02 -0.17149880230E+02 -0.61157862169E+02  0.75815188223E+02  0.00000000000E+00 0. -1.
        -14    1    3    3    0    0 -0.15232974720E+01  0.41345013788E+01 -0.21387499878E+03  0.21392038154E+03  0.00000000000E+00 0.  1.
          5    1    4    4  501    0  0.87578771814E+02 -0.66143733074E+01 -0.42294053786E+02  0.97570746602E+02  0.41800000000E+01 0.  1.
         -5    1    4    4    0  501 -0.43999114917E+02 -0.85758035152E+01 -0.30046897813E+02  0.54127211157E+02  0.41800000000E+01 0.  1.
</event>
<event>
11    1  0.7157190E-009  0.1642762E+03  0.7561462E-02  0.1083123E+00
         22   -1    0    0    0    0  0.00000000000E+00  0.00000000000E+00  0.17438341673E+03  0.17438341673E+03  0.00000000000E+00 0.  1.
         22   -1    0    0    0    0 -0.00000000000E+00 -0.00000000000E+00 -0.50270769157E+03  0.50270769157E+03  0.00000000000E+00 0.  1.
        -24    2    1    2    0    0  0.13840689152E+02  0.10647324476E+03 -0.36078728211E+03  0.38498634842E+03  0.80739761002E+02 0.  0.
         25    2    1    2    0    0 -0.18053838053E+02 -0.10098198847E+03 -0.66910508265E+02  0.17507065403E+03  0.12509762078E+03 0.  0.
         24    2    1    2    0    0  0.42131489008E+01 -0.54912562920E+01  0.99373515534E+02  0.11703410585E+03  0.61432742270E+02 0.  0.
        -13    1    5    5    0    0  0.55157859823E+01  0.63024896177E+01  0.10397195647E+03  0.10430873886E+03  0.00000000000E+00 0.  1.
         14    1    5    5    0    0 -0.13026370815E+01 -0.11793745910E+02 -0.45984409358E+01  0.12725366988E+02  0.00000000000E+00 0. -1.
         13    1    3    3    0    0  0.47172389665E+02  0.52137312112E+02 -0.17669224476E+03  0.19016751305E+03  0.00000000000E+00 0. -1.
        -14    1    3    3    0    0 -0.33331700513E+02  0.54335932647E+02 -0.18409503736E+03  0.19481883537E+03  0.00000000000E+00 0.  1.
          5    1    4    4  501    0 -0.18250906232E+02 -0.10124129919E+03  0.49604402060E+01  0.10307751747E+03  0.41800000000E+01 0.  1.
         -5    1    4    4    0  501  0.19706817992E+00  0.25931072588E+00 -0.71870948471E+02  0.71993136562E+02  0.41800000000E+01 0.  1.
</event>
<event>
11    1  0.7157190E-009  0.1401341E+03  0.7561462E-02  0.1107409E+00
         22   -1    0    0    0    0  0.00000000000E+00  0.00000000000E+00  0.30036913970E+03  0.30036913970E+03  0.00000000000E+00 0. -1.
         22   -1    0    0    0    0 -0.00000000000E+00 -0.00000000000E+00 -0.52894882851E+03  0.52894882851E+03  0.00000000000E+00 0.  1.
        -24    2    1    2    0    0 -0.20097291741E+01 -0.65767071920E+02 -0.46082020182E+03  0.47232301875E+03  0.80027675697E+02 0.  0.
         25    2    1    2    0    0  0.12998963100E+02  0.26148140201E+02  0.28316939461E+02  0.13153707470E+03  0.12508978648E+03 0.  0.
         24    2    1    2    0    0 -0.10989233926E+02  0.39618931719E+02  0.20392357355E+03  0.22545787476E+03  0.86925292216E+02 0.  0.
        -11    1    5    5    0    0  0.11752315227E+02  0.42950398618E+02  0.39771450713E+02  0.59704454997E+02  0.00000000000E+00 0.  1.
         12    1    5    5    0    0 -0.22741549153E+02 -0.33314668991E+01  0.16415212284E+03  0.16575341976E+03  0.00000000000E+00 0. -1.
         11    1    3    3    0    0  0.21554836495E+02 -0.65804946432E+02 -0.22721299928E+03  0.23753031173E+03  0.00000000000E+00 0. -1.
        -12    1    3    3    0    0 -0.23564565669E+02  0.37874512130E-01 -0.23360720254E+03  0.23479270702E+03  0.00000000000E+00 0.  1.
          5    1    4    4  501    0  0.24327589366E+02  0.22818771570E+01 -0.46164208552E+02  0.52398903795E+02  0.41800000000E+01 0. -1.
         -5    1    4    4    0  501 -0.11328626266E+02  0.23866263044E+02  0.74481148012E+02  0.79138170904E+02  0.41800000000E+01 0. -1.
</event>
<event>
11    1  0.7157190E-009  0.1515196E+03  0.7561462E-02  0.1095336E+00
         22   -1    0    0    0    0  0.00000000000E+00  0.00000000000E+00  0.11794650667E+04  0.11794650667E+04  0.00000000000E+00 0.  1.
         22   -1    0    0    0    0 -0.00000000000E+00 -0.00000000000E+00 -0.13710675996E+04  0.13710675996E+04  0.00000000000E+00 0. -1.
        -24    2    1    2    0    0  0.76620842772E+02 -0.78288207396E+01 -0.13440785977E+04  0.13486552179E+04  0.79947331861E+02 0.  0.
         25    2    1    2    0    0  0.21899032906E+02 -0.55994940488E+01  0.17942464899E+03  0.21988864973E+03  0.12508753591E+03 0.  0.
         24    2    1    2    0    0 -0.98519875678E+02  0.13428314788E+02  0.97305141579E+03  0.98198879876E+03  0.87100273051E+02 0.  0.
        -13    1    5    5    0    0 -0.10887665324E+03  0.49101891582E+01  0.94034897564E+03  0.94664377227E+03  0.00000000000E+00 0.  1.
         14    1    5    5    0    0  0.10356777566E+02  0.85181256302E+01  0.32702440149E+02  0.35345026489E+02  0.00000000000E+00 0. -1.
         11    1    3    3    0    0  0.85921667868E+02 -0.20840432047E+02 -0.12580210372E+04  0.12611240171E+04  0.00000000000E+00 0. -1.
        -12    1    3    3    0    0 -0.93008250957E+01  0.13011611307E+02 -0.86057560553E+02  0.87531200749E+02  0.00000000000E+00 0.  1.
          5    1    4    4  501    0 -0.38968036403E+02  0.35901556329E+02  0.80873621399E+02  0.96775227441E+02  0.41800000000E+01 0.  1.
         -5    1    4    4    0  501  0.60867069309E+02 -0.41501050378E+02  0.98551027588E+02  0.12311342229E+03  0.41800000000E+01 0.  1.
</event>
<event>
11    1  0.7157190E-009  0.1328746E+03  0.7561462E-02  0.1115787E+00
         22   -1    0    0    0    0  0.00000000000E+00  0.00000000000E+00  0.15523154346E+04  0.15523154346E+04  0.00000000000E+00 0. -1.
         22   -1    0    0    0    0 -0.00000000000E+00 -0.00000000000E+00 -0.74931865432E+03  0.74931865432E+03  0.00000000000E+00 0. -1.
         24    2    1    2    0    0  0.27251778287E+02 -0.35715457099E+02 -0.72991868863E+03  0.73558119485E+03  0.79247390518E+02 0.  0.
         25    2    1    2    0    0 -0.43507429793E+02 -0.26053586555E+01  0.27883744049E+03  0.30871496093E+03  0.12511964092E+03 0.  0.
        -24    2    1    2    0    0  0.16255651506E+02  0.38320815755E+02  0.12540780284E+04  0.12573379332E+04  0.80338319722E+02 0.  0.
        -13    1    3    3    0    0  0.83323428230E+01  0.33627188443E+01 -0.70793226573E+01  0.11439083190E+02  0.00000000000E+00 0.  1.
         14    1    3    3    0    0  0.18919435464E+02 -0.39078175944E+02 -0.72283936597E+03  0.72414211166E+03  0.00000000000E+00 0. -1.
         11    1    5    5    0    0  0.16019095837E+02 -0.45151446867E+01  0.96117505624E+03  0.96131913884E+03  0.00000000000E+00 0. -1.
        -12    1    5    5    0    0  0.23655566876E+00  0.42835960441E+02  0.29290297220E+03  0.29601879431E+03  0.00000000000E+00 0.  1.
          5    1    4    4  501    0 -0.59758215607E+02 -0.51478028622E+02  0.19282094813E+03  0.20837087657E+03  0.41800000000E+01 0.  1.
         -5    1    4    4    0  501  0.16250785813E+02  0.48872669967E+02  0.86016492359E+02  0.10034408436E+03  0.41800000000E+01 0.  1.
</event>
<event>
11    1  0.7157190E-009  0.1802716E+03  0.7561462E-02  0.1069423E+00
         22   -1    0    0    0    0  0.00000000000E+00  0.00000000000E+00  0.73488339724E+03  0.73488339724E+03  0.00000000000E+00 0. -1.
         22   -1    0    0    0    0 -0.00000000000E+00 -0.00000000000E+00 -0.87407917518E+03  0.87407917518E+03  0.00000000000E+00 0. -1.
        -24    2    1    2    0    0  0.55246700214E+01  0.73729278538E+01 -0.82583885574E+03  0.82986862760E+03  0.81161822131E+02 0.  0.
         25    2    1    2    0    0  0.12524922570E+03  0.46550228440E+01  0.19054658188E+03  0.26012416647E+03  0.12509014486E+03 0.  0.
         24    2    1    2    0    0 -0.13077389573E+03 -0.12027950698E+02  0.49609649593E+03  0.51896977836E+03  0.77274925917E+02 0.  0.
        -13    1    5    5    0    0 -0.32913574356E+02 -0.35166957404E+02  0.11179712329E+03  0.12173173393E+03  0.00000000000E+00 0.  1.
         14    1    5    5    0    0 -0.97860321369E+02  0.23139006706E+02  0.38429937264E+03  0.39723804443E+03  0.00000000000E+00 0. -1.
         13    1    3    3    0    0  0.11217214869E+02  0.33773660880E+02 -0.71126250410E+03  0.71215225606E+03  0.00000000000E+00 0. -1.
        -14    1    3    3    0    0 -0.56925448478E+01 -0.26400733026E+02 -0.11457635165E+03  0.11771637154E+03  0.00000000000E+00 0.  1.
          5    1    4    4  501    0 -0.23063136304E+02 -0.14102666224E+02  0.33728704214E+02  0.43426850436E+02  0.41800000000E+01 0. -1.
         -5    1    4    4    0  501  0.14831236201E+03  0.18757689068E+02  0.15681787766E+03  0.21669731604E+03  0.41800000000E+01 0. -1.
</event>
<event>
11    1  0.7157190E-009  0.1533155E+03  0.7561462E-02  0.1093538E+00
         22   -1    0    0    0    0  0.00000000000E+00  0.00000000000E+00  0.18735926662E+04  0.18735926662E+04  0.00000000000E+00 0.  1.
         22   -1    0    0    0    0 -0.00000000000E+00 -0.00000000000E+00 -0.24282175831E+03  0.24282175831E+03  0.00000000000E+00 0. -1.
        -24    2    1    2    0    0 -0.40325928121E+02 -0.10921475757E+02 -0.18443912784E+03  0.20562309036E+03  0.80731680895E+02 0.  0.
         25    2    1    2    0    0  0.61052368629E+02  0.96182419903E+02  0.11103655887E+03  0.20237017253E+03  0.12508445032E+03 0.  0.
         24    2    1    2    0    0 -0.20726440508E+02 -0.85260944146E+02  0.17041734768E+04  0.17084211616E+04  0.82441568980E+02 0.  0.
        -11    1    5    5    0    0 -0.47065883362E+02 -0.22388214812E+02  0.70221506964E+03  0.70414659949E+03  0.00000000000E+00 0.  1.
         12    1    5    5    0    0  0.26339442854E+02 -0.62872729334E+02  0.10019584072E+04  0.10042745621E+04  0.00000000000E+00 0. -1.
         13    1    3    3    0    0 -0.52095259307E+02 -0.31515803984E+02 -0.16162135949E+03  0.17270965748E+03  0.00000000000E+00 0. -1.
        -14    1    3    3    0    0  0.11769331186E+02  0.20594328226E+02 -0.22817768349E+02  0.32913432882E+02  0.00000000000E+00 0.  1.
          5    1    4    4  501    0  0.72858562759E+02  0.95785736515E+02  0.13154343068E+03  0.17833794897E+03  0.41800000000E+01 0.  1.
         -5    1    4    4    0  501 -0.11806194130E+02  0.39668338806E+00 -0.20506871817E+02  0.24032223561E+02  0.41800000000E+01 0.  1.
</event>
<event>
11    1  0.7157190E-009  0.1311498E+03  0.7561462E-02  0.1117864E+00
         22   -1    0    0    0    0  0.00000000000E+00  0.00000000000E+00  0.40280784836E+04  0.40280784836E+04  0.00000000000E+00 0. -1.
         22   -1    0    0    0    0 -0.00000000000E+00 -0.00000000000E+00 -0.12330567306E+04  0.12330567306E+04  0.00000000000E+00 0.  1.
        -24    2    1    2    0    0 -0.44199293577E+02 -0.20137384699E+02 -0.72824007979E+03  0.73458712156E+03  0.83219790551E+02 0.  0.
         25    2    1    2    0    0  0.18112394681E+02 -0.68616455387E+00 -0.49320976892E+03  0.50914720142E+03  0.12508583810E+03 0.  0.
         24    2    1    2    0    0  0.26086898895E+02  0.20823549253E+02  0.40164716017E+04  0.40174008911E+04  0.79697215614E+02 0.  0.
        -11    1    5    5    0    0  0.39793400478E+02 -0.15403776936E+02  0.14217161619E+04  0.14223563675E+04  0.00000000000E+00 0.  1.
         12    1    5    5    0    0 -0.13706501583E+02  0.36227326189E+02  0.25947554398E+04  0.25950445236E+04  0.00000000000E+00 0. -1.
         13    1    3    3    0    0 -0.46079992743E+02  0.17721025498E+02 -0.24880347828E+03  0.25365443280E+03  0.00000000000E+00 0. -1.
        -14    1    3    3    0    0  0.18806991660E+01 -0.37858410197E+02 -0.47943660151E+03  0.48093268876E+03  0.00000000000E+00 0.  1.
          5    1    4    4  501    0 -0.40666636519E+02  0.25769911172E+02 -0.33166407476E+03  0.33516621926E+03  0.41800000000E+01 0.  1.
         -5    1    4    4    0  501  0.58779031200E+02 -0.26456075726E+02 -0.16154569416E+03  0.17398098216E+03  0.41800000000E+01 0.  1.
</event>
<event>
11    1  0.7157190E-009  0.1319425E+03  0.7561462E-02  0.1116905E+00
         22   -1    0    0    0    0  0.00000000000E+00  0.00000000000E+00  0.30293400395E+03  0.30293400395E+03  0.00000000000E+00 0.  1.
         22   -1    0    0    0    0 -0.00000000000E+00 -0.00000000000E+00 -0.26138311403E+04  0.26138311403E+04  0.00000000000E+00 0. -1.
         24    2    1    2    0    0  0.31461473326E+02  0.41976635955E+02 -0.20082391617E+04  0.20100333797E+04  0.66766719631E+02 0.  0.
         25    2    1    2    0    0 -0.11992891749E+02 -0.41320650797E+01 -0.59103231182E+03  0.60425874394E+03  0.12509409495E+03 0.  0.
        -24    2    1    2    0    0 -0.19468581576E+02 -0.37844570875E+02  0.28837433713E+03  0.30247302060E+03  0.80739907506E+02 0.  0.
        -11    1    3    3    0    0  0.77016041323E+01  0.20748652344E+01 -0.24810039535E+02  0.26060656816E+02  0.00000000000E+00 0.  1.
         12    1    3    3    0    0  0.23759869193E+02  0.39901770720E+02 -0.19834291221E+04  0.19839727229E+04  0.00000000000E+00 0. -1.
         11    1    5    5    0    0 -0.34428191405E+02  0.10933284572E+02  0.77355850423E+02  0.85374262337E+02  0.00000000000E+00 0. -1.
        -12    1    5    5    0    0  0.14959609829E+02 -0.48777855447E+02  0.21101848671E+03  0.21709875827E+03  0.00000000000E+00 0.  1.
          5    1    4    4  501    0 -0.60810804912E+02 -0.29898296693E+02 -0.26491866980E+03  0.27347986425E+03  0.41800000000E+01 0.  1.
         -5    1    4    4    0  501  0.48817913163E+02  0.25766231614E+02 -0.32611364202E+03  0.33077887969E+03  0.41800000000E+01 0.  1.
</event>
<event>
11    1  0.7157190E-009  0.1516978E+03  0.7561462E-02  0.1095157E+00
         22   -1    0    0    0    0  0.00000000000E+00  0.00000000000E+00  0.30823031580E+04  0.30823031580E+04  0.00000000000E+00 0. -1.
         22   -1    0    0    0    0 -0.00000000000E+00 -0.00000000000E+00 -0.27539594585E+04  0.27539594585E+04  0.00000000000E+00 0.  1.
        -24    2    1    2    0    0 -0.36195899069E+01 -0.36693866674E+02 -0.26963211535E+04  0.26977024443E+04  0.78045975150E+02 0.  0.
         25    2    1    2    0    0  0.97045263248E+01 -0.49658462165E+02  0.25834857978E+02  0.13738626612E+03  0.12508959004E+03 0.  0.
         24    2    1    2    0    0 -0.60849364179E+01  0.86352328839E+02  0.29988299950E+04  0.30011739061E+04  0.81053837667E+02 0.  0.
        -13    1    5    5    0    0  0.11746969198E+02  0.73630475072E+02  0.12589538186E+04  0.12611598454E+04  0.00000000000E+00 0.  1.
         14    1    5    5    0    0 -0.17831905616E+02  0.12721853768E+02  0.17398761764E+04  0.17400140607E+04  0.00000000000E+00 0. -1.
         13    1    3    3    0    0  0.23827122839E+02  0.79596345186E+01 -0.40289740106E+03  0.40367982777E+03  0.00000000000E+00 0. -1.
        -14    1    3    3    0    0 -0.27446712746E+02 -0.44653501193E+02 -0.22934237524E+04  0.22940226166E+04  0.00000000000E+00 0.  1.
          5    1    4    4  501    0 -0.12375711817E+02 -0.79153215338E+02 -0.15659601955E+02  0.81737905984E+02  0.41800000000E+01 0.  1.
         -5    1    4    4    0  501  0.22080238142E+02  0.29494753173E+02  0.41494459932E+02  0.55648360139E+02  0.41800000000E+01 0.  1.
</event>
<event>
11    1  0.7157190E-009  0.1597016E+03  0.7561462E-02  0.1087358E+00
         22   -1    0    0    0    0  0.00000000000E+00  0.00000000000E+00  0.29375911161E+03  0.29375911161E+03  0.00000000000E+00 0.  1.
         22   -1    0    0    0    0 -0.00000000000E+00 -0.00000000000E+00 -0.32608997906E+03  0.32608997906E+03  0.00000000000E+00 0. -1.
        -24    2    1    2    0    0  0.21317098338E+02  0.10225941389E+03 -0.25005124145E+03  0.28417548553E+03  0.85549265432E+02 0.  0.
         25    2    1    2    0    0  0.20269949316E+02 -0.68447597052E+02  0.73180851334E+02  0.16155806845E+03  0.12509847357E+03 0.  0.
         24    2    1    2    0    0 -0.41587047654E+02 -0.33811816841E+02  0.14453952266E+03  0.17411553669E+03  0.80943344486E+02 0.  0.
        -11    1    5    5    0    0 -0.44990819783E+02 -0.26177245654E+01  0.13341759433E+03  0.14082358050E+03  0.00000000000E+00 0.  1.
         12    1    5    5    0    0  0.34037721288E+01 -0.31194092275E+02  0.11121928326E+02  0.33291956195E+02  0.00000000000E+00 0. -1.
         13    1    3    3    0    0  0.20125138736E+02  0.11328688079E+03 -0.24728638727E+03  0.27274437831E+03  0.00000000000E+00 0. -1.
        -14    1    3    3    0    0  0.11919596015E+01 -0.11027466895E+02 -0.27648541792E+01  0.11431107227E+02  0.00000000000E+00 0.  1.
          5    1    4    4  501    0  0.92323565244E+01 -0.35363727890E+02  0.10678656723E+03  0.11294544257E+03  0.41800000000E+01 0.  1.
         -5    1    4    4    0  501  0.11037592792E+02 -0.33083869162E+02 -0.33605715895E+02  0.48612625873E+02  0.41800000000E+01 0.  1.
</event>
<event>
11    1  0.7157190E-009  0.1443809E+03  0.7561462E-02  0.1102763E+00
         22   -1    0    0    0    0  0.00000000000E+00  0.00000000000E+00  0.18411538598E+04  0.18411538598E+04  0.00000000000E+00 0.  1.
         22   -1    0    0    0    0 -0.00000000000E+00 -0.00000000000E+00 -0.11180783328E+03  0.11180783328E+03  0.00000000000E+00 0.  1.
         24    2    1    2    0    0 -0.52868631744E+02 -0.33539011095E+02 -0.40478098972E+02  0.11038095048E+03  0.81397298752E+02 0.  0.
         25    2    1    2    0    0  0.83936809767E+02 -0.31855045124E+02  0.13645956742E+03  0.20574073675E+03  0.12509158759E+03 0.  0.
        -24    2    1    2    0    0 -0.31068178023E+02  0.65394056219E+02  0.16333645581E+04  0.16368400059E+04  0.78254781962E+02 0.  0.
        -11    1    3    3    0    0  0.74748795346E+00 -0.10616457551E+01 -0.47306819850E+02  0.47324634540E+02  0.00000000000E+00 0.  1.
         12    1    3    3    0    0 -0.53616119697E+02 -0.32477365340E+02  0.68287208783E+01  0.63056315937E+02  0.00000000000E+00 0. -1.
         11    1    5    5    0    0  0.20102921069E+02  0.23612668968E+02  0.25267098459E+03  0.25456691071E+03  0.00000000000E+00 0. -1.
        -12    1    5    5    0    0 -0.51171099092E+02  0.41781387251E+02  0.13806935735E+04  0.13822730951E+04  0.00000000000E+00 0.  1.
          5    1    4    4  501    0  0.95994496506E+01 -0.69374086952E+02  0.70139069133E+02  0.99206223559E+02  0.41800000000E+01 0.  1.
         -5    1    4    4    0  501  0.74337360116E+02  0.37519041828E+02  0.66320498284E+02  0.10653451319E+03  0.41800000000E+01 0.  1.
</event>
<event>
11    1  0.7157190E-009  0.1364231E+03  0.7561462E-02  0.1111620E+00
         22   -1    0    0    0    0  0.00000000000E+00  0.00000000000E+00  0.66833995161E+03  0.66833995161E+03  0.00000000000E+00 0.  1.
         22   -1    0    0    0    0 -0.00000000000E+00 -0.00000000000E+00 -0.15457914015E+04  0.15457914015E+04  0.00000000000E+00 0. -1.
         24    2    1    2    0    0  0.48107045195E+02  0.25281444522E+02 -0.15180031342E+04  0.15209755085E+04  0.77971422390E+02 0.  0.
         25    2    1    2    0    0 -0.55056106509E+02 -0.40531821757E+02  0.20513514629E+03  0.24980572523E+03  0.12509383946E+03 0.  0.
        -24    2    1    2    0    0  0.69490613141E+01  0.15250377235E+02  0.43541653800E+03  0.44335011943E+03  0.81797942396E+02 0.  0.
        -13    1    3    3    0    0  0.45098710825E+02  0.24307735518E+02 -0.44073230327E+03  0.44370003704E+03  0.00000000000E+00 0.  1.
         14    1    3    3    0    0  0.30083343704E+01  0.97370900414E+00 -0.10772708309E+04  0.10772754714E+04  0.00000000000E+00 0. -1.
         11    1    5    5    0    0  0.62011086335E+01 -0.98972350112E+01  0.58775330910E+01  0.13074953323E+02  0.00000000000E+00 0. -1.
        -12    1    5    5    0    0  0.74795268053E+00  0.25147612246E+02  0.42953900491E+03  0.43027516611E+03  0.00000000000E+00 0.  1.
          5    1    4    4  501    0 -0.79157876460E+02 -0.40654124734E+02  0.20691656767E+03  0.22527908390E+03  0.41800000000E+01 0.  1.
         -5    1    4    4    0  501  0.24101769951E+02  0.12230297729E+00 -0.17814213799E+01  0.24526641329E+02  0.41800000000E+01 0.  1.
</event>
<event>
11    1  0.7157190E-009  0.1279884E+03  0.7561462E-02  0.1121766E+00
         22   -1    0    0    0    0  0.00000000000E+00  0.00000000000E+00  0.43853517104E+03  0.43853517104E+03  0.00000000000E+00 0.  1.
         22   -1    0    0    0    0 -0.00000000000E+00 -0.00000000000E+00 -0.66075417156E+03  0.66075417156E+03  0.00000000000E+00 0. -1.
        -24    2    1    2    0    0  0.51423265616E+01  0.75204522096E+01 -0.51073296731E+03  0.51686261467E+03  0.78840331147E+02 0.  0.
         25    2    1    2    0    0  0.50150567789E+00  0.19173877287E+02 -0.11477457305E+03  0.17085252140E+03  0.12509793113E+03 0.  0.
         24    2    1    2    0    0 -0.56438322395E+01 -0.26694329496E+02  0.40328853984E+03  0.41157420653E+03  0.77506393573E+02 0.  0.
        -11    1    5    5    0    0 -0.48792064735E+01  0.16801567520E+02  0.28505618866E+03  0.28559259448E+03  0.00000000000E+00 0.  1.
         12    1    5    5    0    0 -0.76462576603E+00 -0.43495897016E+02  0.11823235118E+03  0.12598161206E+03  0.00000000000E+00 0. -1.
         13    1    3    3    0    0 -0.32382898726E+02  0.19415629531E+02 -0.31132040297E+03  0.31360167745E+03  0.00000000000E+00 0. -1.
        -14    1    3    3    0    0  0.37525225287E+02 -0.11895177322E+02 -0.19941256435E+03  0.20326093721E+03  0.00000000000E+00 0.  1.
          5    1    4    4  501    0  0.87576597361E+00 -0.52526275057E+02 -0.63946607233E+02  0.82863849259E+02  0.41800000000E+01 0.  1.
         -5    1    4    4    0  501 -0.37426029572E+00  0.71700152344E+02 -0.50827965816E+02  0.87988672145E+02  0.41800000000E+01 0.  1.
</event>
<event>
11    1  0.7157190E-009  0.1269587E+03  0.7561462E-02  0.1123063E+00
         22   -1    0    0    0    0  0.00000000000E+00  0.00000000000E+00  0.11657349439E+04  0.11657349439E+04  0.00000000000E+00 0.  1.
         22   -1    0    0    0    0 -0.00000000000E+00 -0.00000000000E+00 -0.34940952584E+03  0.34940952584E+03  0.00000000000E+00 0.  1.
         24    2    1    2    0    0 -0.17256675116E+02  0.12642651823E+02 -0.22825989615E+03  0.24370358199E+03  0.82651232299E+02 0.  0.
         25    2    1    2    0    0  0.68914926762E+01 -0.27643613994E+02 -0.75186340927E+02  0.14870026265E+03  0.12508844944E+03 0.  0.
        -24    2    1    2    0    0  0.10365182439E+02  0.15000962171E+02  0.11197716552E+04  0.11227406251E+04  0.79532922195E+02 0.  0.
        -13    1    3    3    0    0  0.31276317774E+02  0.10061213732E+02 -0.12991140165E+03  0.13400152370E+03  0.00000000000E+00 0.  1.
         14    1    3    3    0    0 -0.48532992890E+02  0.25814380911E+01 -0.98348494500E+02  0.10970205828E+03  0.00000000000E+00 0. -1.
         13    1    5    5    0    0  0.23720623552E+01  0.29635313160E+02  0.15503331288E+03  0.15785818499E+03  0.00000000000E+00 0. -1.
        -14    1    5    5    0    0  0.79931200843E+01 -0.14634350989E+02  0.96473834230E+03  0.96488244015E+03  0.00000000000E+00 0.  1.
          5    1    4    4  501    0 -0.27001899431E+02  0.38183246840E+02 -0.60987816073E+01  0.47346915942E+02  0.41800000000E+01 0.  1.
         -5    1    4    4    0  501  0.33893392107E+02 -0.65826860833E+02 -0.69087559320E+02  0.10135334671E+03  0.41800000000E+01 0.  1.
</event>
<event>
11    1  0.7157190E-009  0.1612365E+03  0.7561462E-02  0.1085920E+00
         22   -1    0    0    0    0  0.00000000000E+00  0.00000000000E+00  0.12728399985E+04  0.12728399985E+04  0.00000000000E+00 0. -1.
         22   -1    0    0    0    0 -0.00000000000E+00 -0.00000000000E+00 -0.13466864632E+03  0.13466864632E+03  0.00000000000E+00 0. -1.
         24    2    1    2    0    0  0.10554358993E+03 -0.50542432664E+01 -0.79247064107E+02  0.14943882083E+03  0.69906146024E+02 0.  0.
         25    2    1    2    0    0  0.60304732092E+01  0.68991700568E+02  0.35592430045E+03  0.38356848599E+03  0.12508578831E+03 0.  0.
        -24    2    1    2    0    0 -0.11157406314E+03 -0.63937457302E+02  0.86149411581E+03  0.87450133797E+03  0.77741292235E+02 0.  0.
        -13    1    3    3    0    0  0.81426574807E+01  0.10468707755E+02  0.98534199172E+01  0.16522306043E+02  0.00000000000E+00 0.  1.
         14    1    3    3    0    0  0.97400932448E+02 -0.15522951022E+02 -0.89100484025E+02  0.13291651479E+03  0.00000000000E+00 0. -1.
         11    1    5    5    0    0 -0.97689711232E+02 -0.69049116241E+02  0.55955852938E+03  0.57220346725E+03  0.00000000000E+00 0. -1.
        -12    1    5    5    0    0 -0.13884351906E+02  0.51116589397E+01  0.30193558644E+03  0.30229787072E+03  0.00000000000E+00 0.  1.
          5    1    4    4  501    0 -0.55092438282E+02  0.37948539274E+02  0.23637451910E+03  0.24569422881E+03  0.41800000000E+01 0.  1.
         -5    1    4    4    0  501  0.61122911491E+02  0.31043161295E+02  0.11954978135E+03  0.13787425718E+03  0.41800000000E+01 0.  1.
</event>
<event>
11    1  0.7157190E-009  0.1342137E+03  0.7561462E-02  0.1114197E+00
         22   -1    0    0    0    0  0.00000000000E+00  0.00000000000E+00  0.23022440895E+04  0.23022440895E+04  0.00000000000E+00 0.  1.
         22   -1    0    0    0    0 -0.00000000000E+00 -0.00000000000E+00 -0.17422683641E+04  0.17422683641E+04  0.00000000000E+00 0. -1.
        -24    2    1    2    0    0 -0.40944089660E+02 -0.26432719227E+02 -0.17246908224E+04  0.17277347308E+04  0.90187359533E+02 0.  0.
         25    2    1    2    0    0  0.46206402055E+02 -0.19413042775E+02  0.28905412583E+03  0.31892361223E+03  0.12509230576E+03 0.  0.
         24    2    1    2    0    0 -0.52623123949E+01  0.45845762002E+02  0.19956124220E+04  0.19978541106E+04  0.82598926402E+02 0.  0.
        -11    1    5    5    0    0  0.32404565631E+02  0.44788785424E+02  0.99756951121E+03  0.99910010553E+03  0.00000000000E+00 0.  1.
         12    1    5    5    0    0 -0.37666878026E+02  0.10569765771E+01  0.99804291075E+03  0.99875400504E+03  0.00000000000E+00 0. -1.
         11    1    3    3    0    0 -0.59026080827E+02 -0.46696149065E+02 -0.12987925956E+04  0.13009714889E+04  0.00000000000E+00 0. -1.
        -12    1    3    3    0    0  0.18081991167E+02  0.20263429838E+02 -0.42589822682E+03  0.42676324186E+03  0.00000000000E+00 0.  1.
          5    1    4    4  501    0 -0.21935591605E+02 -0.51529593063E+02  0.90392299887E+02  0.10641761799E+03  0.41800000000E+01 0.  1.
         -5    1    4    4    0  501  0.68141993660E+02  0.32116550288E+02  0.19866182594E+03  0.21250599424E+03  0.41800000000E+01 0.  1.
</event>
<event>
11    1  0.7157190E-009  0.1518561E+03  0.7561462E-02  0.1094997E+00
         22   -1    0    0    0    0  0.00000000000E+00  0.00000000000E+00  0.24848180143E+04  0.24848180143E+04  0.00000000000E+00 0. -1.
         22   -1    0    0    0    0 -0.00000000000E+00 -0.00000000000E+00 -0.30559598305E+03  0.30559598305E+03  0.00000000000E+00 0. -1.
         24    2    1    2    0    0  0.58633363133E+02 -0.63568612220E+02 -0.27805371683E+03  0.30150144126E+03  0.78169110926E+02 0.  0.
         25    2    1    2    0    0 -0.56747555925E+02  0.49123757262E+02  0.33868938392E+03  0.36876978955E+03  0.12508888949E+03 0.  0.
        -24    2    1    2    0    0 -0.18858072078E+01  0.14444854959E+02  0.21185863641E+04  0.21201427665E+04  0.79905932445E+02 0.  0.
        -13    1    3    3    0    0  0.17524745295E+02 -0.61362307417E+02 -0.99071355549E+02  0.11784558948E+03  0.00000000000E+00 0.  1.
         14    1    3    3    0    0  0.41108617838E+02 -0.22063048034E+01 -0.17898236128E+03  0.18365585178E+03  0.00000000000E+00 0. -1.
         13    1    5    5    0    0 -0.29341608104E+02  0.29134905212E+02  0.16525741912E+04  0.16530914161E+04  0.00000000000E+00 0. -1.
        -14    1    5    5    0    0  0.27455800896E+02 -0.14690050254E+02  0.46601217292E+03  0.46705135037E+03  0.00000000000E+00 0.  1.
          5    1    4    4  501    0 -0.12068589443E+02  0.34517675785E+02  0.31277181833E+03  0.31492983907E+03  0.41800000000E+01 0. -1.
         -5    1    4    4    0  501 -0.44678966481E+02  0.14606081476E+02  0.25917565589E+02  0.53839950483E+02  0.41800000000E+01 0. -1.
</event>
<event>
11    1  0.7157190E-009  0.1529977E+03  0.7561462E-02  0.1093855E+00
         22   -1    0    0    0    0  0.00000000000E+00  0.00000000000E+00  0.41397602420E+04  0.41397602420E+04  0.00000000000E+00 0.  1.
         22   -1    0    0    0    0 -0.00000000000E+00 -0.00000000000E+00 -0.59254904296E+02  0.59254904296E+02  0.00000000000E+00 0. -1.
         24    2    1    2    0    0  0.42022839742E+02  0.41917529816E+02  0.13421854498E+02  0.99266414198E+02  0.78426248436E+02 0.  0.
         25    2    1    2    0    0  0.47505572691E+02 -0.52673478839E+02  0.32058447741E+03  0.35136049451E+03  0.12509402518E+03 0.  0.
        -24    2    1    2    0    0 -0.89528412433E+02  0.10755949023E+02  0.37464990058E+04  0.37483882376E+04  0.77643751652E+02 0.  0.
        -13    1    3    3    0    0  0.22324435702E+02  0.62353479586E+02  0.21710181273E+02  0.69696978534E+02  0.00000000000E+00 0.  1.
         14    1    3    3    0    0  0.19698404041E+02 -0.20435949770E+02 -0.82883267752E+01  0.29569435664E+02  0.00000000000E+00 0. -1.
         13    1    5    5    0    0 -0.17806869511E+02 -0.27119959593E+02  0.63087110046E+03  0.63170477457E+03  0.00000000000E+00 0. -1.
        -14    1    5    5    0    0 -0.71721542922E+02  0.37875908616E+02  0.31156279053E+04  0.31166834630E+04  0.00000000000E+00 0.  1.
          5    1    4    4  501    0 -0.38764128116E+02 -0.40137890792E+02  0.14079786326E+03  0.15150979706E+03  0.41800000000E+01 0.  1.
         -5    1    4    4    0  501  0.86269700806E+02 -0.12535588046E+02  0.17978661415E+03  0.19985069745E+03  0.41800000000E+01 0.  1.
</event>
<event>
11    1  0.7157190E-009  0.1558211E+03  0.7561462E-02  0.1091075E+00
         22   -1    0    0    0    0  0.00000000000E+00  0.00000000000E+00  0.51288012430E+03  0.51288012430E+03  0.00000000000E+00 0.  1.
         22   -1    0    0    0    0 -0.00000000000E+00 -0.00000000000E+00 -0.17468120640E+04  0.17468120640E+04  0.00000000000E+00 0.  1.
         24    2    1    2    0    0  0.40467000720E+01 -0.89553640009E+02 -0.98046146247E+03  0.98899167444E+03  0.93614221627E+02 0.  0.
         25    2    1    2    0    0  0.17608757602E+02  0.99435883109E+02 -0.75026119865E+03  0.76729273060E+03  0.12509478422E+03 0.  0.
        -24    2    1    2    0    0 -0.21655457674E+02 -0.98822430999E+01  0.49679072146E+03  0.50340778323E+03  0.77793044128E+02 0.  0.
        -11    1    3    3    0    0 -0.28337802908E+02 -0.69123629650E+02 -0.84278975403E+03  0.84609436634E+03  0.00000000000E+00 0.  1.
         12    1    3    3    0    0  0.32384502980E+02 -0.20430010359E+02 -0.13767170844E+03  0.14289730810E+03  0.00000000000E+00 0. -1.
         11    1    5    5    0    0  0.24650225134E+02 -0.22002947999E+02  0.17750723127E+03  0.18055630832E+03  0.00000000000E+00 0. -1.
        -12    1    5    5    0    0 -0.46305682808E+02  0.12120704899E+02  0.31928349019E+03  0.32285147491E+03  0.00000000000E+00 0.  1.
          5    1    4    4  501    0 -0.39312764501E+02  0.62035064574E+02 -0.56677322531E+03  0.57152708074E+03  0.41800000000E+01 0.  1.
         -5    1    4    4    0  501  0.56921522103E+02  0.37400818535E+02 -0.18348797333E+03  0.19576564985E+03  0.41800000000E+01 0.  1.
</event>
<event>
11    1  0.7157190E-009  0.1707286E+03  0.7561462E-02  0.1077399E+00
         22   -1    0    0    0    0  0.00000000000E+00  0.00000000000E+00  0.22068974192E+03  0.22068974192E+03  0.00000000000E+00 0.  1.
         22   -1    0    0    0    0 -0.00000000000E+00 -0.00000000000E+00 -0.12703060002E+04  0.12703060002E+04  0.00000000000E+00 0. -1.
         24    2    1    2    0    0 -0.11617143399E+03  0.11265724299E+02 -0.11626261717E+04  0.11714223025E+04  0.83113640474E+02 0.  0.
         25    2    1    2    0    0  0.96653964800E+02 -0.77602720264E+02  0.18524353052E+02  0.17707299199E+03  0.12509005448E+03 0.  0.
        -24    2    1    2    0    0  0.19517469186E+02  0.66336995965E+02  0.94485560352E+02  0.14250044757E+03  0.81223936168E+02 0.  0.
        -13    1    3    3    0    0 -0.62315986039E+02 -0.21505726134E+02 -0.33664825058E+03  0.34304201345E+03  0.00000000000E+00 0.  1.
         14    1    3    3    0    0 -0.53855447948E+02  0.32771450434E+02 -0.82597792108E+03  0.82838028909E+03  0.00000000000E+00 0. -1.
         13    1    5    5    0    0  0.43549483639E+02  0.16011421628E+02  0.22864567336E+02  0.51727280881E+02  0.00000000000E+00 0. -1.
        -14    1    5    5    0    0 -0.24032014453E+02  0.50325574337E+02  0.71620993015E+02  0.90773166693E+02  0.00000000000E+00 0.  1.
          5    1    4    4  501    0 -0.15476038884E+01 -0.38284588862E+01  0.49891452662E+02  0.50236258061E+02  0.41800000000E+01 0. -1.
         -5    1    4    4    0  501  0.98201568689E+02 -0.73774261378E+02 -0.31367099610E+02  0.12683673392E+03  0.41800000000E+01 0. -1.
</event>
<event>
11    1  0.7157190E-009  0.1824586E+03  0.7561462E-02  0.1067671E+00
         22   -1    0    0    0    0  0.00000000000E+00  0.00000000000E+00  0.70233578541E+03  0.70233578541E+03  0.00000000000E+00 0.  1.
         22   -1    0    0    0    0 -0.00000000000E+00 -0.00000000000E+00 -0.18570284939E+04  0.18570284939E+04  0.00000000000E+00 0. -1.
        -24    2    1    2    0    0  0.17751079744E+02 -0.13054015014E+03 -0.17847475207E+04  0.17915797683E+04  0.84133953431E+02 0.  0.
         25    2    1    2    0    0 -0.32829206461E+01  0.24651475033E+03  0.29673350282E+03  0.40555926676E+03  0.12508895817E+03 0.  0.
         24    2    1    2    0    0 -0.14468159098E+02 -0.11597460020E+03  0.33332130934E+03  0.36222524425E+03  0.80278246054E+02 0.  0.
        -11    1    5    5    0    0  0.21813631275E+02 -0.58106920155E+02  0.23106872474E+03  0.23925928243E+03  0.00000000000E+00 0.  1.
         12    1    5    5    0    0 -0.36281790373E+02 -0.57867680042E+02  0.10225258461E+03  0.12296596181E+03  0.00000000000E+00 0. -1.
         11    1    3    3    0    0  0.79089970809E+01 -0.13698323527E+03 -0.17367499173E+04  0.17421616556E+04  0.00000000000E+00 0. -1.
        -12    1    3    3    0    0  0.98420826634E+01  0.64430851284E+01 -0.47997603370E+02  0.49418112736E+02  0.00000000000E+00 0.  1.
          5    1    4    4  501    0 -0.56338805798E+02  0.11969280937E+03  0.18956990407E+03  0.23120261803E+03  0.41800000000E+01 0. -1.
         -5    1    4    4    0  501  0.53055885151E+02  0.12682194097E+03  0.10716359875E+03  0.17435664873E+03  0.41800000000E+01 0. -1.
</event>
<event>
11    1  0.7157190E-009  0.2248724E+03  0.7561462E-02  0.1038208E+00
         22   -1    0    0    0    0  0.00000000000E+00  0.00000000000E+00  0.10790912845E+04  0.10790912845E+04  0.00000000000E+00 0. -1.
         22   -1    0    0    0    0 -0.00000000000E+00 -0.00000000000E+00 -0.20141595332E+03  0.20141595332E+03  0.00000000000E+00 0. -1.
        -24    2    1    2    0    0 -0.19164791946E+03  0.81686240229E+01 -0.10098962326E+03  0.23854118547E+03  0.99535630336E+02 0.  0.
         25    2    1    2    0    0  0.15922941810E+03 -0.27473908871E+02  0.33863901592E+03  0.39551569344E+03  0.12508979734E+03 0.  0.
         24    2    1    2    0    0  0.32418501364E+02  0.19305284848E+02  0.64002593850E+03  0.64645035889E+03  0.82711615260E+02 0.  0.
        -11    1    5    5    0    0  0.11133374639E+02  0.37198562339E+02  0.13019778323E+03  0.13586444653E+03  0.00000000000E+00 0.  1.
         12    1    5    5    0    0  0.21285126725E+02 -0.17893277492E+02  0.50982815527E+03  0.51058591237E+03  0.00000000000E+00 0. -1.
         11    1    3    3    0    0 -0.93240025262E+02  0.28560449042E+02 -0.97626128489E+02  0.13798645776E+03  0.00000000000E+00 0. -1.
        -12    1    3    3    0    0 -0.98407894203E+02 -0.20391825019E+02 -0.33634947744E+01  0.10055472772E+03  0.00000000000E+00 0.  1.
          5    1    4    4  501    0  0.12560464502E+03 -0.49189772086E+02  0.32679233628E+03  0.35356309759E+03  0.41800000000E+01 0.  1.
         -5    1    4    4    0  501  0.33624773080E+02  0.21715863215E+02  0.11846679637E+02  0.41952595846E+02  0.41800000000E+01 0.  1.
</event>
<event>
11    1  0.7157190E-009  0.1501944E+03  0.7561462E-02  0.1096680E+00
         22   -1    0    0    0    0  0.00000000000E+00  0.00000000000E+00  0.16076414181E+03  0.16076414181E+03  0.00000000000E+00 0. -1.
         22   -1    0    0    0    0 -0.00000000000E+00 -0.00000000000E+00 -0.26096209825E+04  0.26096209825E+04  0.00000000000E+00 0. -1.
         24    2    1    2    0    0  0.48678700231E+02  0.63397854236E+02 -0.11772034543E+04  0.11825949925E+04  0.79586680773E+02 0.  0.
         25    2    1    2    0    0 -0.32917771727E+02 -0.83914991202E+02 -0.14115688034E+04  0.14199653713E+04  0.12509941469E+03 0.  0.
        -24    2    1    2    0    0 -0.15760928504E+02  0.20517136966E+02  0.13991541696E+03  0.16782476052E+03  0.88991384778E+02 0.  0.
        -11    1    3    3    0    0  0.38652834909E+02 -0.78193607338E+01 -0.51147222936E+03  0.51299027813E+03  0.00000000000E+00 0.  1.
         12    1    3    3    0    0  0.10025865322E+02  0.71217214970E+02 -0.66573122493E+03  0.66960471439E+03  0.00000000000E+00 0. -1.
         13    1    5    5    0    0 -0.22020614567E+02  0.29325790512E+02  0.14916097134E+03  0.15360307557E+03  0.00000000000E+00 0. -1.
        -14    1    5    5    0    0  0.62596860631E+01 -0.88086535463E+01 -0.92455543809E+01  0.14221684946E+02  0.00000000000E+00 0.  1.
          5    1    4    4  501    0 -0.63429893343E+02 -0.67364335865E+02 -0.55439367324E+03  0.56207750573E+03  0.41800000000E+01 0.  1.
         -5    1    4    4    0  501  0.30512121616E+02 -0.16550655337E+02 -0.85717513012E+03  0.85788786555E+03  0.41800000000E+01 0.  1.
</event>
<event>
11    1  0.7157190E-009  0.1360917E+03  0.7561462E-02  0.1112003E+00
         22   -1    0    0    0    0  0.00000000000E+00  0.00000000000E+00  0.68159380254E+03  0.68159380254E+03  0.00000000000E+00 0. -1.
         22   -1    0    0    0    0 -0.00000000000E+00 -0.00000000000E+00 -0.24884899719E+03  0.24884899719E+03  0.00000000000E+00 0. -1.
        -24    2    1    2    0    0  0.10800472880E+02  0.52343887556E+02 -0.19061215513E+03  0.21358114352E+03  0.80170932415E+02 0.  0.
         25    2    1    2    0    0 -0.40814240056E+02 -0.47049080929E+02  0.69679832977E+02  0.15614904845E+03  0.12509127867E+03 0.  0.
         24    2    1    2    0    0  0.30013767176E+02 -0.52948066271E+01  0.55367712751E+03  0.56071260776E+03  0.83134864950E+02 0.  0.
        -11    1    5    5    0    0  0.42427582341E+02  0.17108479808E+02  0.16593915567E+03  0.17212961166E+03  0.00000000000E+00 0.  1.
         12    1    5    5    0    0 -0.12413815165E+02 -0.22403286435E+02  0.38773797184E+03  0.38858299610E+03  0.00000000000E+00 0. -1.
         13    1    3    3    0    0 -0.27865924424E+02  0.28076371006E+02 -0.13973179166E+03  0.14522315915E+03  0.00000000000E+00 0. -1.
        -14    1    3    3    0    0  0.38666397304E+02  0.24267516551E+02 -0.50880363469E+02  0.68357984367E+02  0.00000000000E+00 0.  1.
          5    1    4    4  501    0  0.55989079312E+01 -0.75498457327E+02  0.67488574794E+02  0.10150637890E+03  0.41800000000E+01 0. -1.
         -5    1    4    4    0  501 -0.46413147987E+02  0.28449376398E+02  0.21912581835E+01  0.54642669554E+02  0.41800000000E+01 0. -1.
</event>
<event>
11    1  0.7157190E-009  0.1830761E+03  0.7561462E-02  0.1067181E+00
         22   -1    0    0    0    0  0.00000000000E+00  0.00000000000E+00  0.13148598193E+04  0.13148598193E+04  0.00000000000E+00 0.  1.
         22   -1    0    0    0    0 -0.00000000000E+00 -0.00000000000E+00 -0.10177792250E+03  0.10177792250E+03  0.00000000000E+00 0.  1.
        -24    2    1    2    0    0 -0.10832448102E+03 -0.51788158592E+02  0.69295789060E+02  0.15850765045E+03  0.76854162623E+02 0.  0.
         25    2    1    2    0    0  0.17729895964E+03 -0.29049425421E+02  0.17445207347E+03  0.27992804658E+03  0.12508954839E+03 0.  0.
         24    2    1    2    0    0 -0.68974478615E+02  0.80837584013E+02  0.96933403428E+03  0.97820204478E+03  0.77321256556E+02 0.  0.
        -11    1    5    5    0    0 -0.82061706057E+02  0.50907790741E+02  0.79399422871E+03  0.79984533629E+03  0.00000000000E+00 0.  1.
         12    1    5    5    0    0  0.13087227442E+02  0.29929793273E+02  0.17533980557E+03  0.17835670849E+03  0.00000000000E+00 0. -1.
         11    1    3    3    0    0 -0.11151697065E+02  0.17411775430E+02  0.21966930491E+02  0.30167470995E+02  0.00000000000E+00 0. -1.
        -12    1    3    3    0    0 -0.97172783955E+02 -0.69199934022E+02  0.47328858569E+02  0.12834017946E+03  0.00000000000E+00 0.  1.
          5    1    4    4  501    0  0.16269981422E+03 -0.67488454399E+02  0.15306161631E+03  0.23339077063E+03  0.41800000000E+01 0.  1.
         -5    1    4    4    0  501  0.14599145414E+02  0.38439028978E+02  0.21390457161E+02  0.46537275953E+02  0.41800000000E+01 0.  1.
</event>
<event>
11    1  0.7157190E-009  0.1439938E+03  0.7561462E-02  0.1103179E+00
         22   -1    0    0    0    0  0.00000000000E+00  0.00000000000E+00  0.26970032563E+03  0.26970032563E+03  0.00000000000E+00 0.  1.
         22   -1    0    0    0    0 -0.00000000000E+00 -0.00000000000E+00 -0.82401622971E+03  0.82401622971E+03  0.00000000000E+00 0. -1.
         24    2    1    2    0    0  0.10149334245E+02 -0.19765928343E+02 -0.76213475796E+03  0.76688326121E+03  0.82260842001E+02 0.  0.
         25    2    1    2    0    0 -0.82379747222E+01 -0.60082095546E+02  0.10962552472E+03  0.17703930606E+03  0.12508971895E+03 0.  0.
        -24    2    1    2    0    0 -0.19113595225E+01  0.79848023889E+02  0.98193329159E+02  0.14979398807E+03  0.80105859680E+02 0.  0.
        -11    1    3    3    0    0 -0.54591745096E+01 -0.28471054139E+01 -0.21078016899E+01  0.65077971333E+01  0.00000000000E+00 0.  1.
         12    1    3    3    0    0  0.15608508754E+02 -0.16918822929E+02 -0.76002695627E+03  0.76037546408E+03  0.00000000000E+00 0. -1.
         11    1    5    5    0    0 -0.18578220311E+02  0.13359299177E+01 -0.47858322873E+01  0.19231203014E+02  0.00000000000E+00 0. -1.
        -12    1    5    5    0    0  0.16666860789E+02  0.78512093972E+02  0.10297916145E+03  0.13056278505E+03  0.00000000000E+00 0.  1.
          5    1    4    4  501    0 -0.55378130514E+02 -0.54508419017E+02  0.10275373333E+03  0.12889417053E+03  0.41800000000E+01 0. -1.
         -5    1    4    4    0  501  0.47140155792E+02 -0.55736765288E+01  0.68717913889E+01  0.48145135528E+02  0.41800000000E+01 0. -1.
</event>
<event>
11    1  0.7157190E-009  0.1441206E+03  0.7561462E-02  0.1103042E+00
         22   -1    0    0    0    0  0.00000000000E+00  0.00000000000E+00  0.49653049278E+03  0.49653049278E+03  0.00000000000E+00 0. -1.
         22   -1    0    0    0    0 -0.00000000000E+00 -0.00000000000E+00 -0.27869664322E+03  0.27869664322E+03  0.00000000000E+00 0. -1.
         24    2    1    2    0    0 -0.59460679661E+02 -0.38964064725E+02 -0.22352886609E+03  0.24756100441E+03  0.79167709090E+02 0.  0.
         25    2    1    2    0    0  0.54942113167E+02  0.57282184157E+02  0.10533088222E+03  0.18177066343E+03  0.12508435120E+03 0.  0.
        -24    2    1    2    0    0  0.45185664949E+01 -0.18318119432E+02  0.33603183343E+03  0.34589546817E+03  0.79814227281E+02 0.  0.
        -13    1    3    3    0    0 -0.69997604293E+01  0.63714542770E+01  0.35679013715E+01  0.10115433548E+02  0.00000000000E+00 0.  1.
         14    1    3    3    0    0 -0.52460919232E+02 -0.45335519002E+02 -0.22709676746E+03  0.23744557086E+03  0.00000000000E+00 0. -1.
         13    1    5    5    0    0 -0.34119294701E+02  0.77765327039E+01  0.16109673706E+03  0.16485375162E+03  0.00000000000E+00 0. -1.
        -14    1    5    5    0    0  0.38637861196E+02 -0.26094652136E+02  0.17493509637E+03  0.18104171655E+03  0.00000000000E+00 0.  1.
          5    1    4    4  501    0 -0.27589350841E+02  0.28102509533E+01  0.72105246042E+02  0.77367361962E+02  0.41800000000E+01 0. -1.
         -5    1    4    4    0  501  0.82531464008E+02  0.54471933203E+02  0.33225636176E+02  0.10440330147E+03  0.41800000000E+01 0. -1.
</event>
<event>
11    1  0.7157190E-009  0.3243866E+03  0.7561462E-02  0.9903677E-01
         22   -1    0    0    0    0  0.00000000000E+00  0.00000000000E+00  0.10553905811E+04  0.10553905811E+04  0.00000000000E+00 0. -1.
         22   -1    0    0    0    0 -0.00000000000E+00 -0.00000000000E+00 -0.13667390823E+04  0.13667390823E+04  0.00000000000E+00 0.  1.
        -24    2    1    2    0    0  0.81060033963E+02 -0.11570235323E+03 -0.86465697698E+03  0.87984272739E+03  0.80831760137E+02 0.  0.
         25    2    1    2    0    0 -0.18691103833E+03 -0.16844237999E+03 -0.42792970539E+03  0.51193770624E+03  0.12509120949E+03 0.  0.
         24    2    1    2    0    0  0.10585100437E+03  0.28414473323E+03  0.98123818115E+03  0.10303492298E+04  0.82755680361E+02 0.  0.
        -11    1    5    5    0    0  0.43962555096E+01  0.68841969887E+02  0.32610982946E+03  0.33332591371E+03  0.00000000000E+00 0.  1.
         12    1    5    5    0    0  0.10145474886E+03  0.21530276334E+03  0.65512835169E+03  0.69702331608E+03  0.00000000000E+00 0. -1.
         11    1    3    3    0    0  0.19714790075E+02  0.66771617437E+01 -0.57327504401E+02  0.60989344950E+02  0.00000000000E+00 0. -1.
        -12    1    3    3    0    0  0.61345243887E+02 -0.12237951498E+03 -0.80732947258E+03  0.81885338244E+03  0.00000000000E+00 0.  1.
          5    1    4    4  501    0 -0.19141497018E+03 -0.16964490684E+03 -0.34873487671E+03  0.43249574779E+03  0.41800000000E+01 0. -1.
         -5    1    4    4    0  501  0.45039318494E+01  0.12025268432E+01 -0.79194828676E+02  0.79441958448E+02  0.41800000000E+01 0. -1.
</event>
<event>
11    1  0.7157190E-009  0.1769259E+03  0.7561462E-02  0.1072157E+00
         22   -1    0    0    0    0  0.00000000000E+00  0.00000000000E+00  0.20007043528E+03  0.20007043528E+03  0.00000000000E+00 0. -1.
         22   -1    0    0    0    0 -0.00000000000E+00 -0.00000000000E+00 -0.58154680526E+03  0.58154680526E+03  0.00000000000E+00 0.  1.
        -24    2    1    2    0    0 -0.11097700616E+03 -0.48305396325E+02 -0.36151379563E+03  0.38892973369E+03  0.76972762134E+02 0.  0.
         25    2    1    2    0    0  0.14781887625E+03  0.47017792622E+01 -0.13799079409E+03  0.23782773326E+03  0.12509214424E+03 0.  0.
         24    2    1    2    0    0 -0.36841870085E+02  0.43603617063E+02  0.11802821973E+03  0.15485977359E+03  0.82415350582E+02 0.  0.
        -11    1    5    5    0    0 -0.99490955751E+01 -0.22841500917E+02  0.50823723807E+02  0.56601851281E+02  0.00000000000E+00 0.  1.
         12    1    5    5    0    0 -0.26892774509E+02  0.66445117979E+02  0.67204495923E+02  0.98257922308E+02  0.00000000000E+00 0. -1.
         13    1    3    3    0    0 -0.39475981085E+02 -0.43175411573E+02 -0.24696627481E+03  0.25380072920E+03  0.00000000000E+00 0. -1.
        -14    1    3    3    0    0 -0.71501025079E+02 -0.51299847520E+01 -0.11454752082E+03  0.13512900450E+03  0.00000000000E+00 0.  1.
          5    1    4    4  501    0  0.44595888153E+02  0.22569635864E+02 -0.12182684562E+03  0.13174761636E+03  0.41800000000E+01 0. -1.
         -5    1    4    4    0  501  0.10322298810E+03 -0.17867856602E+02 -0.16163948469E+02  0.10608011690E+03  0.41800000000E+01 0. -1.
</event>
<event>
11    1  0.7157190E-009  0.1523284E+03  0.7561462E-02  0.1094523E+00
         22   -1    0    0    0    0  0.00000000000E+00  0.00000000000E+00  0.54076710227E+03  0.54076710227E+03  0.00000000000E+00 0.  1.
         22   -1    0    0    0    0 -0.00000000000E+00 -0.00000000000E+00 -0.51237019950E+03  0.51237019950E+03  0.00000000000E+00 0. -1.
         24    2    1    2    0    0 -0.39437909706E+02 -0.15537944378E+02 -0.26663512330E+03  0.28218616314E+03  0.82085109805E+02 0.  0.
         25    2    1    2    0    0 -0.46206488909E+02 -0.54061629525E+01 -0.21162615169E+03  0.25019596366E+03  0.12509246956E+03 0.  0.
        -24    2    1    2    0    0  0.85644398615E+02  0.20944107331E+02  0.50665817776E+03  0.52075517497E+03  0.81913518563E+02 0.  0.
        -11    1    3    3    0    0  0.39939800460E+01  0.67320081758E+00  0.51069295014E+01  0.65181135983E+01  0.00000000000E+00 0.  1.
         12    1    3    3    0    0 -0.43431889752E+02 -0.16211145196E+02 -0.27174205280E+03  0.27566804954E+03  0.00000000000E+00 0. -1.
         11    1    5    5    0    0 -0.44191465541E+01  0.25291394761E+02  0.63072181978E+02  0.68097603811E+02  0.00000000000E+00 0. -1.
        -12    1    5    5    0    0  0.90063545169E+02 -0.43472874309E+01  0.44358599578E+03  0.45265757116E+03  0.00000000000E+00 0.  1.
          5    1    4    4  501    0 -0.56441773881E+02 -0.37884329943E+02 -0.48774048007E+02  0.83769185582E+02  0.41800000000E+01 0.  1.
         -5    1    4    4    0  501  0.10235284972E+02  0.32478166990E+02 -0.16285210368E+03  0.16642677808E+03  0.41800000000E+01 0.  1.
</event>
<event>
11    1  0.7157190E-009  0.1630753E+03  0.7561462E-02  0.1084220E+00
         22   -1    0    0    0    0  0.00000000000E+00  0.00000000000E+00  0.24666452305E+03  0.24666452305E+03  0.00000000000E+00 0.  1.
         22   -1    0    0    0    0 -0.00000000000E+00 -0.00000000000E+00 -0.17219077881E+04  0.17219077881E+04  0.00000000000E+00 0.  1.
         24    2    1    2    0    0 -0.40323267723E+02  0.87249224341E+02 -0.15589557120E+04  0.15640021601E+04  0.80755504810E+02 0.  0.
         25    2    1    2    0    0 -0.28383059627E+02  0.11476314965E+02 -0.10289192042E+03  0.16482638349E+03  0.12507471978E+03 0.  0.
        -24    2    1    2    0    0  0.68706327350E+02 -0.98725539307E+02  0.18660436741E+03  0.23974376758E+03  0.90490842799E+02 0.  0.
        -13    1    3    3    0    0  0.10331630627E+02  0.51714160952E+01 -0.61961768841E+03  0.61972539558E+03  0.00000000000E+00 0.  1.
         14    1    3    3    0    0 -0.50654898351E+02  0.82077808246E+02 -0.93933802362E+03  0.94427676448E+03  0.00000000000E+00 0. -1.
         11    1    5    5    0    0  0.36829247988E+02 -0.84266085242E+02  0.63490628972E+02  0.11175073421E+03  0.00000000000E+00 0. -1.
        -12    1    5    5    0    0  0.31877079362E+02 -0.14459454065E+02  0.12311373844E+03  0.12799303337E+03  0.00000000000E+00 0.  1.
          5    1    4    4  501    0 -0.11672739020E+02  0.13582297536E+02  0.27610935256E+02  0.33174806530E+02  0.41800000000E+01 0.  1.
         -5    1    4    4    0  501 -0.16710320607E+02 -0.21059825706E+01 -0.13050285567E+03  0.13165157696E+03  0.41800000000E+01 0.  1.
</event>
<event>
11    1  0.7157190E-009  0.2525749E+03  0.7561462E-02  0.1022536E+00
         22   -1    0    0    0    0  0.00000000000E+00  0.00000000000E+00  0.22056890126E+04  0.22056890126E+04  0.00000000000E+00 0. -1.
         22   -1    0    0    0    0 -0.00000000000E+00 -0.00000000000E+00 -0.16938132611E+04  0.16938132611E+04  0.00000000000E+00 0.  1.
        -24    2    1    2    0    0  0.23636424103E+02 -0.20701675421E+03 -0.12221927980E+04  0.12425605879E+04  0.82383020008E+02 0.  0.
         25    2    1    2    0    0 -0.82303859874E+02  0.26571383368E+03 -0.40935440448E+03  0.51048585041E+03  0.12508800202E+03 0.  0.
         24    2    1    2    0    0  0.58667435771E+02 -0.58697079470E+02  0.21434229540E+04  0.21464558354E+04  0.78252656353E+02 0.  0.
        -11    1    5    5    0    0 -0.10910936561E+02 -0.31277905969E+01  0.80216015124E+03  0.80224045014E+03  0.00000000000E+00 0.  1.
         12    1    5    5    0    0  0.69578372332E+02 -0.55569288873E+02  0.13412628028E+04  0.13442153852E+04  0.00000000000E+00 0. -1.
         13    1    3    3    0    0  0.35785093110E+02 -0.43210154405E+02 -0.22256134573E+03  0.22952394852E+03  0.00000000000E+00 0. -1.
        -14    1    3    3    0    0 -0.12148669007E+02 -0.16380659980E+03 -0.99963145230E+03  0.10130366394E+04  0.00000000000E+00 0.  1.
          5    1    4    4  501    0 -0.86239507807E+02  0.24601441260E+03 -0.41417656430E+03  0.48940784907E+03  0.41800000000E+01 0.  1.
         -5    1    4    4    0  501  0.39356479331E+01  0.19699421077E+02  0.48221598214E+01  0.21078001347E+02  0.41800000000E+01 0.  1.
</event>
<event>
11    1  0.7157190E-009  0.2048150E+03  0.7561462E-02  0.1051170E+00
         22   -1    0    0    0    0  0.00000000000E+00  0.00000000000E+00  0.66958455150E+03  0.66958455150E+03  0.00000000000E+00 0.  1.
         22   -1    0    0    0    0 -0.00000000000E+00 -0.00000000000E+00 -0.12239464167E+03  0.12239464167E+03  0.00000000000E+00 0.  1.
         24    2    1    2    0    0  0.20980492821E+02  0.17914813089E+03  0.33404838848E+02  0.20736400652E+03  0.96693919462E+02 0.  0.
         25    2    1    2    0    0  0.23938194583E+02 -0.12005072261E+03  0.26812721233E+03  0.32019382355E+03  0.12508664792E+03 0.  0.
        -24    2    1    2    0    0 -0.44918687404E+02 -0.59097408275E+02  0.24565785865E+03  0.26442136310E+03  0.63723477668E+02 0.  0.
        -11    1    3    3    0    0  0.15985627183E+02  0.89828000271E+02 -0.31844456021E+02  0.96636842294E+02  0.00000000000E+00 0.  1.
         12    1    3    3    0    0  0.49948656376E+01  0.89320130615E+02  0.65249294869E+02  0.11072716422E+03  0.00000000000E+00 0. -1.
         11    1    5    5    0    0 -0.49673439833E+02 -0.63824697757E+02  0.16778259468E+03  0.18625799781E+03  0.00000000000E+00 0. -1.
        -12    1    5    5    0    0  0.47547524288E+01  0.47272894822E+01  0.77875263967E+02  0.78163365296E+02  0.00000000000E+00 0.  1.
          5    1    4    4  501    0  0.28879820106E+02  0.61957534040E+01  0.12818293299E+03  0.13160838909E+03  0.41800000000E+01 0. -1.
         -5    1    4    4    0  501 -0.49416255228E+01 -0.12624647602E+03  0.13994427934E+03  0.18858543445E+03  0.41800000000E+01 0. -1.
</event>
<event>
11    1  0.7157190E-009  0.1713565E+03  0.7561462E-02  0.1076857E+00
         22   -1    0    0    0    0  0.00000000000E+00  0.00000000000E+00  0.15742646253E+04  0.15742646253E+04  0.00000000000E+00 0. -1.
         22   -1    0    0    0    0 -0.00000000000E+00 -0.00000000000E+00 -0.18318797755E+03  0.18318797755E+03  0.00000000000E+00 0. -1.
        -24    2    1    2    0    0 -0.11009783792E+02  0.11401630115E+03 -0.10706102760E+03  0.17699289661E+03  0.82118752748E+02 0.  0.
         25    2    1    2    0    0  0.62189715446E+02 -0.12687131935E+03  0.18641174413E+03  0.26525682165E+03  0.12509176912E+03 0.  0.
         24    2    1    2    0    0 -0.51179931655E+02  0.12855018196E+02  0.13117259312E+04  0.13152028845E+04  0.79681064774E+02 0.  0.
        -13    1    5    5    0    0  0.20944083708E+02  0.59668055950E+01  0.40604581758E+03  0.40662939316E+03  0.00000000000E+00 0.  1.
         14    1    5    5    0    0 -0.72124015363E+02  0.68882126006E+01  0.90568011359E+03  0.90857349137E+03  0.00000000000E+00 0. -1.
         13    1    3    3    0    0 -0.16161309367E+02  0.10330036591E+03 -0.12017403647E+03  0.15929203546E+03  0.00000000000E+00 0. -1.
        -14    1    3    3    0    0  0.51515255755E+01  0.10715935236E+02  0.13113008875E+02  0.17700861151E+02  0.00000000000E+00 0.  1.
          5    1    4    4  501    0  0.28903447128E+02 -0.11915637050E+03  0.64553881334E+02  0.13863017667E+03  0.41800000000E+01 0.  1.
         -5    1    4    4    0  501  0.33286268318E+02 -0.77149488421E+01  0.12185786280E+03  0.12662664498E+03  0.41800000000E+01 0.  1.
</event>
<event>
11    1  0.7157190E-009  0.1282877E+03  0.7561462E-02  0.1121391E+00
         22   -1    0    0    0    0  0.00000000000E+00  0.00000000000E+00  0.35925984351E+03  0.35925984351E+03  0.00000000000E+00 0. -1.
         22   -1    0    0    0    0 -0.00000000000E+00 -0.00000000000E+00 -0.71602484534E+03  0.71602484534E+03  0.00000000000E+00 0. -1.
         24    2    1    2    0    0  0.16264528501E+02  0.35773628496E+02 -0.40216402983E+03  0.41176669318E+03  0.79193530924E+02 0.  0.
         25    2    1    2    0    0  0.12504150805E+02 -0.35490989602E+02 -0.28903895290E+03  0.31718658064E+03  0.12509135268E+03 0.  0.
        -24    2    1    2    0    0 -0.28768679306E+02 -0.28263889397E+00  0.33443798090E+03  0.34633141502E+03  0.85258249869E+02 0.  0.
        -13    1    3    3    0    0  0.13480074478E+02 -0.16975682453E+01 -0.79002740147E+01  0.15716503281E+02  0.00000000000E+00 0.  1.
         14    1    3    3    0    0  0.27844540232E+01  0.37471196742E+02 -0.39426375581E+03  0.39605018990E+03  0.00000000000E+00 0. -1.
         13    1    5    5    0    0 -0.43918524067E+02  0.22021398072E+02  0.29163236919E+03  0.29574180883E+03  0.00000000000E+00 0. -1.
        -14    1    5    5    0    0  0.15149844761E+02 -0.22304036966E+02  0.42805611709E+02  0.50589606196E+02  0.00000000000E+00 0.  1.
          5    1    4    4  501    0 -0.18533731712E+01 -0.71229941556E+01  0.11867184622E+02  0.14576505367E+02  0.41800000000E+01 0. -1.
         -5    1    4    4    0  501  0.14357523976E+02 -0.28367995447E+02 -0.30090613752E+03  0.30261007528E+03  0.41800000000E+01 0. -1.
</event>
<event>
11    1  0.7157190E-009  0.1464892E+03  0.7561462E-02  0.1100521E+00
         22   -1    0    0    0    0  0.00000000000E+00  0.00000000000E+00  0.24514361041E+03  0.24514361041E+03  0.00000000000E+00 0. -1.
         22   -1    0    0    0    0 -0.00000000000E+00 -0.00000000000E+00 -0.74543963758E+03  0.74543963758E+03  0.00000000000E+00 0. -1.
        -24    2    1    2    0    0  0.55003239295E+01 -0.19680497471E+02 -0.43448326219E+03  0.44226397146E+03  0.80025869474E+02 0.  0.
         25    2    1    2    0    0 -0.81285653316E+02  0.24195819134E+02 -0.27335017036E+03  0.31234702523E+03  0.12509018120E+03 0.  0.
         24    2    1    2    0    0  0.75785329386E+02 -0.45153216630E+01  0.20753740538E+03  0.23597225130E+03  0.82748561745E+02 0.  0.
        -13    1    5    5    0    0 -0.18049817511E+02 -0.45341591173E+00  0.40434532771E+02  0.44282648279E+02  0.00000000000E+00 0.  1.
         14    1    5    5    0    0  0.93835146897E+02 -0.40619057512E+01  0.16710287261E+03  0.19168960302E+03  0.00000000000E+00 0. -1.
         11    1    3    3    0    0 -0.12566611972E+02 -0.18784135955E+02 -0.41523549989E+03  0.41585007378E+03  0.00000000000E+00 0. -1.
        -12    1    3    3    0    0  0.18066935901E+02 -0.89636151669E+00 -0.19247762305E+02  0.26413897678E+02  0.00000000000E+00 0.  1.
          5    1    4    4  501    0 -0.95863843646E+02  0.46803974208E+02 -0.13900982121E+03  0.17527604318E+03  0.41800000000E+01 0. -1.
         -5    1    4    4    0  501  0.14578190330E+02 -0.22608155073E+02 -0.13434034916E+03  0.13707098205E+03  0.41800000000E+01 0. -1.
</event>
<event>
11    1  0.7157190E-009  0.1568105E+03  0.7561462E-02  0.1090116E+00
         22   -1    0    0    0    0  0.00000000000E+00  0.00000000000E+00  0.87021927688E+03  0.87021927688E+03  0.00000000000E+00 0.  1.
         22   -1    0    0    0    0 -0.00000000000E+00 -0.00000000000E+00 -0.24934583931E+03  0.24934583931E+03  0.00000000000E+00 0.  1.
        -24    2    1    2    0    0  0.17742225143E+02  0.43871156671E+02 -0.17644646336E+03  0.19914927037E+03  0.79294467110E+02 0.  0.
         25    2    1    2    0    0  0.35470131211E+02  0.39008692009E+02  0.25426491094E+02  0.13810903225E+03  0.12509112710E+03 0.  0.
         24    2    1    2    0    0 -0.53212356354E+02 -0.82879848681E+02  0.77189340983E+03  0.78230681357E+03  0.80522607014E+02 0.  0.
        -13    1    5    5    0    0 -0.63429249030E+02 -0.43614586556E+02  0.63131276446E+03  0.63598844986E+03  0.00000000000E+00 0.  1.
         14    1    5    5    0    0  0.10216892677E+02 -0.39265262125E+02  0.14058064537E+03  0.14631836371E+03  0.00000000000E+00 0. -1.
         11    1    3    3    0    0  0.11912987683E+01 -0.23046771439E+02 -0.51872278106E+02  0.56774167562E+02  0.00000000000E+00 0. -1.
        -12    1    3    3    0    0  0.16550926375E+02  0.66917928111E+02 -0.12457418525E+03  0.14237510280E+03  0.00000000000E+00 0.  1.
          5    1    4    4  501    0  0.71293179588E+02 -0.10531072880E+02  0.11481010413E+01  0.72197032403E+02  0.41800000000E+01 0. -1.
         -5    1    4    4    0  501 -0.35823048378E+02  0.49539764889E+02  0.24278390053E+02  0.65911999847E+02  0.41800000000E+01 0. -1.
</event>
<event>
11    1  0.7157190E-009  0.1444449E+03  0.7561462E-02  0.1102694E+00
         22   -1    0    0    0    0  0.00000000000E+00  0.00000000000E+00  0.10176840141E+03  0.10176840141E+03  0.00000000000E+00 0.  1.
         22   -1    0    0    0    0 -0.00000000000E+00 -0.00000000000E+00 -0.19575273734E+04  0.19575273734E+04  0.00000000000E+00 0. -1.
         24    2    1    2    0    0 -0.39418329940E+02  0.43453080657E+02 -0.17294765869E+04  0.17323957032E+04  0.81631077196E+02 0.  0.
         25    2    1    2    0    0 -0.18701780581E+02 -0.86783128189E+02 -0.15657612578E+03  0.21919179993E+03  0.12509154271E+03 0.  0.
        -24    2    1    2    0    0  0.58120110521E+02  0.43330047532E+02  0.30293740767E+02  0.10770827163E+03  0.73674424207E+02 0.  0.
        -13    1    3    3    0    0 -0.65956445640E+00 -0.21790649854E+02 -0.58487569062E+03  0.58528184742E+03  0.00000000000E+00 0.  1.
         14    1    3    3    0    0 -0.38758765484E+02  0.65243730511E+02 -0.11446008963E+04  0.11471138558E+04  0.00000000000E+00 0. -1.
         11    1    5    5    0    0  0.25482606956E+01  0.38212029974E+01 -0.21561522872E+02  0.22045282795E+02  0.00000000000E+00 0. -1.
        -12    1    5    5    0    0  0.55571849825E+02  0.39508844535E+02  0.51855263639E+02  0.85662988837E+02  0.00000000000E+00 0.  1.
          5    1    4    4  501    0 -0.14225357205E+02 -0.11057015686E+03 -0.76082440905E+02  0.13503381277E+03  0.41800000000E+01 0.  1.
         -5    1    4    4    0  501 -0.44764233756E+01  0.23787028672E+02 -0.80493684872E+02  0.84157987165E+02  0.41800000000E+01 0.  1.
</event>
<event>
11    1  0.7157190E-009  0.1960018E+03  0.7561462E-02  0.1057388E+00
         22   -1    0    0    0    0  0.00000000000E+00  0.00000000000E+00  0.29149498990E+04  0.29149498990E+04  0.00000000000E+00 0. -1.
         22   -1    0    0    0    0 -0.00000000000E+00 -0.00000000000E+00 -0.43141511468E+03  0.43141511468E+03  0.00000000000E+00 0.  1.
         24    2    1    2    0    0  0.43458459463E+02 -0.14035735931E+03 -0.36099565072E+03  0.39796977312E+03  0.80456537731E+02 0.  0.
         25    2    1    2    0    0 -0.14605874327E+03  0.19633895705E+03  0.32717820304E+03  0.42728798088E+03  0.12508916627E+03 0.  0.
        -24    2    1    2    0    0  0.10260028381E+03 -0.55981597741E+02  0.25173522320E+04  0.25211072597E+04  0.72517565701E+02 0.  0.
        -13    1    3    3    0    0 -0.40196741215E+01 -0.66121682540E+02 -0.23540737006E+03  0.24455033135E+03  0.00000000000E+00 0.  1.
         14    1    3    3    0    0  0.47478133584E+02 -0.74235676772E+02 -0.12558828066E+03  0.15341944177E+03  0.00000000000E+00 0. -1.
         13    1    5    5    0    0  0.10543767176E+03 -0.30830865736E+02  0.18345183891E+04  0.18378044958E+04  0.00000000000E+00 0. -1.
        -14    1    5    5    0    0 -0.28373879483E+01 -0.25150732004E+02  0.68283384292E+03  0.68330276388E+03  0.00000000000E+00 0.  1.
          5    1    4    4  501    0 -0.91377371912E+02  0.10556119751E+03  0.27642687619E+03  0.30971322348E+03  0.41800000000E+01 0. -1.
         -5    1    4    4    0  501 -0.54681371362E+02  0.90777759544E+02  0.50751326851E+02  0.11757475741E+03  0.41800000000E+01 0. -1.
</event>
<event>
11    1  0.7157190E-009  0.1754247E+03  0.7561462E-02  0.1073405E+00
         22   -1    0    0    0    0  0.00000000000E+00  0.00000000000E+00  0.60639160614E+03  0.60639160614E+03  0.00000000000E+00 0.  1.
         22   -1    0    0    0    0 -0.00000000000E+00 -0.00000000000E+00 -0.17179324443E+04  0.17179324443E+04  0.00000000000E+00 0.  1.
        -24    2    1    2    0    0 -0.21880940160E+02 -0.85805103617E+01 -0.16187644508E+04  0.16208972718E+04  0.79732162435E+02 0.  0.
         25    2    1    2    0    0 -0.48327079527E+02 -0.94909580129E+02 -0.10619650803E+02  0.16462727333E+03  0.12508408022E+03 0.  0.
         24    2    1    2    0    0  0.70208019688E+02  0.10349009049E+03  0.51784326348E+03  0.53879950531E+03  0.80646739147E+02 0.  0.
        -11    1    5    5    0    0  0.82890266807E+02  0.10345141783E+03  0.42781713154E+03  0.44788446079E+03  0.00000000000E+00 0.  1.
         12    1    5    5    0    0 -0.12682247119E+02  0.38672661017E-01  0.90026131938E+02  0.90915044515E+02  0.00000000000E+00 0. -1.
         11    1    3    3    0    0 -0.27750990943E+02 -0.28143486904E+02 -0.39710715292E+03  0.39906924745E+03  0.00000000000E+00 0. -1.
        -12    1    3    3    0    0  0.58700507827E+01  0.19562976542E+02 -0.12216572979E+04  0.12218280244E+04  0.00000000000E+00 0.  1.
          5    1    4    4  501    0 -0.73997191547E+02 -0.45734732416E+02 -0.46206917906E+02  0.98589055013E+02  0.41800000000E+01 0.  1.
         -5    1    4    4    0  501  0.25670112020E+02 -0.49174847713E+02  0.35587267103E+02  0.66038218317E+02  0.41800000000E+01 0.  1.
</event>
<event>
11    1  0.7157190E-009  0.1417692E+03  0.7561462E-02  0.1105599E+00
         22   -1    0    0    0    0  0.00000000000E+00  0.00000000000E+00  0.40463263354E+03  0.40463263354E+03  0.00000000000E+00 0.  1.
         22   -1    0    0    0    0 -0.00000000000E+00 -0.00000000000E+00 -0.39147456781E+03  0.39147456781E+03  0.00000000000E+00 0.  1.
        -24    2    1    2    0    0 -0.63359442217E+01  0.48391990182E+02 -0.33249129473E+03  0.34577511975E+03  0.81412796656E+02 0.  0.
         25    2    1    2    0    0  0.66022793014E+02 -0.66540359051E+02  0.10132531923E+03  0.18628498342E+03  0.12509454885E+03 0.  0.
         24    2    1    2    0    0 -0.59686848793E+02  0.18148368869E+02  0.24432404123E+03  0.26404709818E+03  0.78324643147E+02 0.  0.
        -11    1    5    5    0    0 -0.69329462295E+02  0.31989892589E+02  0.22849348899E+03  0.24091326671E+03  0.00000000000E+00 0.  1.
         12    1    5    5    0    0  0.96426135021E+01 -0.13841523720E+02  0.15830552244E+02  0.23133831468E+02  0.00000000000E+00 0. -1.
         13    1    3    3    0    0 -0.57482024755E+00 -0.11258696930E+02 -0.41552134427E+01  0.12014760657E+02  0.00000000000E+00 0. -1.
        -14    1    3    3    0    0 -0.57611239741E+01  0.59650687112E+02 -0.32833608129E+03  0.33376035909E+03  0.00000000000E+00 0.  1.
          5    1    4    4  501    0  0.37519235125E+02 -0.88752536239E+02  0.21867247740E+02  0.98895675421E+02  0.41800000000E+01 0.  1.
         -5    1    4    4    0  501  0.28503557889E+02  0.22212177187E+02  0.79458071492E+02  0.87389308001E+02  0.41800000000E+01 0.  1.
</event>
<event>
11    1  0.7157190E-009  0.1376084E+03  0.7561462E-02  0.1110259E+00
         22   -1    0    0    0    0  0.00000000000E+00  0.00000000000E+00  0.14949339135E+03  0.14949339135E+03  0.00000000000E+00 0. -1.
         22   -1    0    0    0    0 -0.00000000000E+00 -0.00000000000E+00 -0.72575528068E+03  0.72575528068E+03  0.00000000000E+00 0. -1.
         24    2    1    2    0    0 -0.14525363006E+02  0.24164264594E+02 -0.62534436263E+03  0.63102029673E+03  0.79599906782E+02 0.  0.
         25    2    1    2    0    0  0.34916987740E+02  0.37528423943E+02  0.34936603815E+02  0.13963863071E+03  0.12510316648E+03 0.  0.
        -24    2    1    2    0    0 -0.20391624734E+02 -0.61692688538E+02  0.14145869478E+02  0.10458974459E+03  0.80728575312E+02 0.  0.
        -13    1    3    3    0    0 -0.39864624878E+01  0.78436182516E+01 -0.45192856498E+01  0.98913180733E+01  0.00000000000E+00 0.  1.
         14    1    3    3    0    0 -0.10538900518E+02  0.16320646343E+02 -0.62082507698E+03  0.62112897865E+03  0.00000000000E+00 0. -1.
         11    1    5    5    0    0 -0.11465121314E+02 -0.74297860642E+02  0.31365237543E+02  0.81457959886E+02  0.00000000000E+00 0. -1.
        -12    1    5    5    0    0 -0.89265034196E+01  0.12605172104E+02 -0.17219368065E+02  0.23131784705E+02  0.00000000000E+00 0.  1.
          5    1    4    4  501    0 -0.56908150582E+01 -0.49707996229E+01  0.70356112954E+02  0.70884055012E+02  0.41800000000E+01 0. -1.
         -5    1    4    4    0  501  0.40607802798E+02  0.42499223566E+02 -0.35419509139E+02  0.68754575699E+02  0.41800000000E+01 0. -1.
</event>
<event>
11    1  0.7157190E-009  0.1943246E+03  0.7561462E-02  0.1058611E+00
         22   -1    0    0    0    0  0.00000000000E+00  0.00000000000E+00  0.57296462966E+03  0.57296462966E+03  0.00000000000E+00 0. -1.
         22   -1    0    0    0    0 -0.00000000000E+00 -0.00000000000E+00 -0.37598909630E+03  0.37598909630E+03  0.00000000000E+00 0.  1.
         24    2    1    2    0    0 -0.12680405861E+03  0.58159542111E+02 -0.22454983579E+03  0.27611364444E+03  0.79713952808E+02 0.  0.
         25    2    1    2    0    0  0.19918659571E+03 -0.17213124156E+02  0.78375601049E+00  0.23583626146E+03  0.12508611591E+03 0.  0.
        -24    2    1    2    0    0 -0.72382537098E+02 -0.40946417955E+02  0.42074161314E+03  0.43700382006E+03  0.83862941186E+02 0.  0.
        -11    1    3    3    0    0 -0.96127844623E+02  0.34652916967E+02 -0.21223380606E+03  0.23555164105E+03  0.00000000000E+00 0.  1.
         12    1    3    3    0    0 -0.30676213991E+02  0.23506625144E+02 -0.12316029726E+02  0.40562003386E+02  0.00000000000E+00 0. -1.
         11    1    5    5    0    0 -0.51915642354E+02  0.18434106786E+02  0.20949314171E+03  0.21661585039E+03  0.00000000000E+00 0. -1.
        -12    1    5    5    0    0 -0.20466894744E+02 -0.59380524741E+02  0.21124847143E+03  0.22038796968E+03  0.00000000000E+00 0.  1.
          5    1    4    4  501    0 -0.16561509599E+02 -0.53248413470E+01  0.80028814343E+01  0.19599899153E+02  0.41800000000E+01 0.  1.
         -5    1    4    4    0  501  0.21574810531E+03 -0.11888282809E+02 -0.72191254238E+01  0.21623636231E+03  0.41800000000E+01 0.  1.
</event>
<event>
11    1  0.7157190E-009  0.1482355E+03  0.7561462E-02  0.1098695E+00
         22   -1    0    0    0    0  0.00000000000E+00  0.00000000000E+00  0.23287146481E+03  0.23287146481E+03  0.00000000000E+00 0.  1.
         22   -1    0    0    0    0 -0.00000000000E+00 -0.00000000000E+00 -0.33605531386E+03  0.33605531386E+03  0.00000000000E+00 0. -1.
        -24    2    1    2    0    0 -0.55833574486E+02 -0.26614032726E+02 -0.19649780593E+03  0.22348095102E+03  0.86640942715E+02 0.  0.
         25    2    1    2    0    0  0.12415261780E+03  0.56330123816E+01 -0.30408527447E+02  0.17894503492E+03  0.12510413122E+03 0.  0.
         24    2    1    2    0    0 -0.68319043311E+02  0.20981020345E+02  0.12372248433E+03  0.16650079273E+03  0.85484302400E+02 0.  0.
        -13    1    5    5    0    0 -0.86646742901E+02  0.53673102886E+01  0.10325334694E+03  0.13489892412E+03  0.00000000000E+00 0.  1.
         14    1    5    5    0    0  0.18327699590E+02  0.15613710056E+02  0.20469137395E+02  0.31601868610E+02  0.00000000000E+00 0. -1.
         13    1    3    3    0    0 -0.30462104207E+02 -0.48343253481E+02 -0.59598579704E+02  0.82565129762E+02  0.00000000000E+00 0. -1.
        -14    1    3    3    0    0 -0.25371470279E+02  0.21729220755E+02 -0.13689922623E+03  0.14091582126E+03  0.00000000000E+00 0.  1.
          5    1    4    4  501    0  0.54366530016E+02 -0.32714678203E+02  0.37833703731E+02  0.73992102916E+02  0.41800000000E+01 0. -1.
         -5    1    4    4    0  501  0.69786087781E+02  0.38347690585E+02 -0.68242231177E+02  0.10495293201E+03  0.41800000000E+01 0. -1.
</event>
<event>
11    1  0.7157190E-009  0.1387976E+03  0.7561462E-02  0.1108909E+00
         22   -1    0    0    0    0  0.00000000000E+00  0.00000000000E+00  0.14972571762E+04  0.14972571762E+04  0.00000000000E+00 0. -1.
         22   -1    0    0    0    0 -0.00000000000E+00 -0.00000000000E+00 -0.94319399413E+02  0.94319399413E+02  0.00000000000E+00 0. -1.
        -24    2    1    2    0    0 -0.58528605565E+02 -0.20544116769E+02 -0.44186735305E+02  0.11048078152E+03  0.80036723481E+02 0.  0.
         25    2    1    2    0    0  0.37969761189E+02  0.24117784053E+02  0.26825328633E+03  0.29938582028E+03  0.12509465811E+03 0.  0.
         24    2    1    2    0    0  0.20558844375E+02 -0.35736672840E+01  0.11788712257E+04  0.11817099738E+04  0.79155910023E+02 0.  0.
        -13    1    5    5    0    0  0.38212581640E+02 -0.11072971712E+02  0.29965077385E+03  0.30228033076E+03  0.00000000000E+00 0.  1.
         14    1    5    5    0    0 -0.17653737265E+02  0.74993044278E+01  0.87922045189E+03  0.87942964302E+03  0.00000000000E+00 0. -1.
         11    1    3    3    0    0 -0.18011884406E+02 -0.48174563989E+02 -0.29481861577E+02  0.59282347773E+02  0.00000000000E+00 0. -1.
        -12    1    3    3    0    0 -0.40516721159E+02  0.27630447220E+02 -0.14704873728E+02  0.51198433749E+02  0.00000000000E+00 0.  1.
          5    1    4    4  501    0  0.66444227456E+02 -0.22414027058E+02  0.98138575635E+02  0.12068917267E+03  0.41800000000E+01 0. -1.
         -5    1    4    4    0  501 -0.28474466266E+02  0.46531811112E+02  0.17011471069E+03  0.17869664761E+03  0.41800000000E+01 0. -1.
</event>
<event>
11    1  0.7157190E-009  0.1699144E+03  0.7561462E-02  0.1078106E+00
         22   -1    0    0    0    0  0.00000000000E+00  0.00000000000E+00  0.12537580119E+04  0.12537580119E+04  0.00000000000E+00 0. -1.
         22   -1    0    0    0    0 -0.00000000000E+00 -0.00000000000E+00 -0.62495800296E+03  0.62495800296E+03  0.00000000000E+00 0.  1.
         24    2    1    2    0    0  0.11044484825E+03 -0.45305193829E+02 -0.55992269476E+03  0.57814943660E+03  0.80577427598E+02 0.  0.
         25    2    1    2    0    0 -0.18037600065E+02  0.97760790724E+02  0.70667729509E+02  0.17471529246E+03  0.12509587606E+03 0.  0.
        -24    2    1    2    0    0 -0.92407248188E+02 -0.52455596895E+02  0.11180549742E+04  0.11258512858E+04  0.78762321305E+02 0.  0.
        -11    1    3    3    0    0  0.11787864769E+03 -0.24875203150E+02 -0.50273604516E+03  0.51696971132E+03  0.00000000000E+00 0.  1.
         12    1    3    3    0    0 -0.74337994413E+01 -0.20429990680E+02 -0.57186649603E+02  0.61179725287E+02  0.00000000000E+00 0. -1.
         11    1    5    5    0    0 -0.17811240514E+02 -0.42900201040E+02  0.66286069509E+03  0.66448624413E+03  0.00000000000E+00 0. -1.
        -12    1    5    5    0    0 -0.74596007674E+02 -0.95553958553E+01  0.45519427912E+03  0.46136504169E+03  0.00000000000E+00 0.  1.
          5    1    4    4  501    0  0.34134609400E+02 -0.13190372580E+02  0.20717625554E+02  0.42259317272E+02  0.41800000000E+01 0.  1.
         -5    1    4    4    0  501 -0.52172209465E+02  0.11095116330E+03  0.49950103955E+02  0.13245597519E+03  0.41800000000E+01 0.  1.
</event>
<event>
11    1  0.7157190E-009  0.2180513E+03  0.7561462E-02  0.1042445E+00
         22   -1    0    0    0    0  0.00000000000E+00  0.00000000000E+00  0.41188304291E+02  0.41188304291E+02  0.00000000000E+00 0. -1.
         22   -1    0    0    0    0 -0.00000000000E+00 -0.00000000000E+00 -0.20447802115E+04  0.20447802115E+04  0.00000000000E+00 0. -1.
        -24    2    1    2    0    0 -0.18522853260E+02  0.14879461708E+03 -0.77236408212E+03  0.79095498300E+03  0.81120747136E+02 0.  0.
         25    2    1    2    0    0  0.53376280592E+01 -0.22909861034E+03 -0.10357944620E+04  0.10681912329E+04  0.12509068326E+03 0.  0.
         24    2    1    2    0    0  0.13185225201E+02  0.80303993256E+02 -0.19543336313E+03  0.22682229992E+03  0.81434481750E+02 0.  0.
        -11    1    5    5    0    0  0.27815132259E+02  0.67731053162E+02 -0.19414019002E+03  0.20748877205E+03  0.00000000000E+00 0.  1.
         12    1    5    5    0    0 -0.14629907059E+02  0.12572940095E+02 -0.12931731127E+01  0.19333527869E+02  0.00000000000E+00 0. -1.
         13    1    3    3    0    0 -0.48846803169E+02  0.72331857986E+02 -0.43902846672E+03  0.44762026591E+03  0.00000000000E+00 0. -1.
        -14    1    3    3    0    0  0.30323949910E+02  0.76462759099E+02 -0.33333561540E+03  0.34333471709E+03  0.00000000000E+00 0.  1.
          5    1    4    4  501    0  0.46477559541E+02 -0.10425258511E+03 -0.66560295901E+03  0.67533216752E+03  0.41800000000E+01 0. -1.
         -5    1    4    4    0  501 -0.41139931482E+02 -0.12484602523E+03 -0.37019150295E+03  0.39285906536E+03  0.41800000000E+01 0. -1.
</event>
<event>
11    1  0.7157190E-009  0.1600221E+03  0.7561462E-02  0.1087056E+00
         22   -1    0    0    0    0  0.00000000000E+00  0.00000000000E+00  0.30687055051E+03  0.30687055051E+03  0.00000000000E+00 0.  1.
         22   -1    0    0    0    0 -0.00000000000E+00 -0.00000000000E+00 -0.25686018471E+04  0.25686018471E+04  0.00000000000E+00 0. -1.
        -24    2    1    2    0    0 -0.13931809415E+02 -0.76682370623E+02 -0.23186946736E+04  0.23213630007E+04  0.79416059663E+02 0.  0.
         25    2    1    2    0    0  0.10610051630E+03  0.35883466564E+02 -0.20328710617E+03  0.26366586573E+03  0.12509635679E+03 0.  0.
         24    2    1    2    0    0 -0.92168706886E+02  0.40798904059E+02  0.26025048319E+03  0.29044353114E+03  0.80420828632E+02 0.  0.
        -13    1    5    5    0    0 -0.35940201568E+02  0.43494601331E+02  0.20077299293E+03  0.20855040907E+03  0.00000000000E+00 0.  1.
         14    1    5    5    0    0 -0.56228505318E+02 -0.26956972729E+01  0.59477490256E+02  0.81893122063E+02  0.00000000000E+00 0. -1.
         13    1    3    3    0    0  0.25420519317E+00 -0.38550353720E+02 -0.19582465099E+04  0.19586259438E+04  0.00000000000E+00 0. -1.
        -14    1    3    3    0    0 -0.14186014608E+02 -0.38132016903E+02 -0.36044816373E+03  0.36273705692E+03  0.00000000000E+00 0.  1.
          5    1    4    4  501    0  0.85609107852E+02  0.47673960294E+02 -0.53016807102E+02  0.11148982049E+03  0.41800000000E+01 0.  1.
         -5    1    4    4    0  501  0.20491408449E+02 -0.11790493729E+02 -0.15027029907E+03  0.15217604524E+03  0.41800000000E+01 0.  1.
</event>
<event>
11    1  0.7157190E-009  0.1310445E+03  0.7561462E-02  0.1117992E+00
         22   -1    0    0    0    0  0.00000000000E+00  0.00000000000E+00  0.15754744358E+04  0.15754744358E+04  0.00000000000E+00 0.  1.
         22   -1    0    0    0    0 -0.00000000000E+00 -0.00000000000E+00 -0.28670897427E+03  0.28670897427E+03  0.00000000000E+00 0. -1.
         24    2    1    2    0    0  0.27596247285E+02 -0.28186814280E+02 -0.24435215779E+03  0.25984942362E+03  0.79105603944E+02 0.  0.
         25    2    1    2    0    0 -0.27133337009E+02  0.19075566430E+02  0.91767818736E+02  0.15864797495E+03  0.12509097564E+03 0.  0.
        -24    2    1    2    0    0 -0.46291027591E+00  0.91112478502E+01  0.14413498005E+04  0.14436860115E+04  0.81589356223E+02 0.  0.
        -11    1    3    3    0    0  0.29153517323E+02  0.86011915932E+01 -0.31267837748E+02  0.43607175402E+02  0.00000000000E+00 0.  1.
         12    1    3    3    0    0 -0.15572700390E+01 -0.36788005874E+02 -0.21308432004E+03  0.21624224822E+03  0.00000000000E+00 0. -1.
         11    1    5    5    0    0 -0.60765332627E+01 -0.14645654596E+02  0.58213982002E+02  0.60334792248E+02  0.00000000000E+00 0. -1.
        -12    1    5    5    0    0  0.56136229868E+01  0.23756902446E+02  0.13831358185E+04  0.13833512192E+04  0.00000000000E+00 0.  1.
          5    1    4    4  501    0  0.99568983785E+01  0.27061589972E+02 -0.23368165664E+02  0.37349873408E+02  0.41800000000E+01 0.  1.
         -5    1    4    4    0  501 -0.37090235387E+02 -0.79860235414E+01  0.11513598440E+03  0.12129810154E+03  0.41800000000E+01 0.  1.
</event>
<event>
11    1  0.7157190E-009  0.2029458E+03  0.7561462E-02  0.1052460E+00
         22   -1    0    0    0    0  0.00000000000E+00  0.00000000000E+00  0.64869564724E+03  0.64869564724E+03  0.00000000000E+00 0.  1.
         22   -1    0    0    0    0 -0.00000000000E+00 -0.00000000000E+00 -0.35105757060E+03  0.35105757060E+03  0.00000000000E+00 0. -1.
        -24    2    1    2    0    0  0.42822174502E+02  0.29090860575E+02 -0.22437869411E+03  0.24647537438E+03  0.87887968498E+02 0.  0.
         25    2    1    2    0    0 -0.18968480566E+03 -0.73183416278E+02  0.41230745154E+02  0.24224798383E+03  0.12509185987E+03 0.  0.
         24    2    1    2    0    0  0.14686263116E+03  0.44092555703E+02  0.48078602559E+03  0.51102985963E+03  0.80520364716E+02 0.  0.
        -13    1    5    5    0    0  0.14542738876E+03  0.48183684671E+02  0.37408108589E+03  0.40423687572E+03  0.00000000000E+00 0.  1.
         14    1    5    5    0    0  0.14352424005E+01 -0.40911289673E+01  0.10670493970E+03  0.10679298391E+03  0.00000000000E+00 0. -1.
         11    1    3    3    0    0 -0.19737034119E+02 -0.13246996074E+00 -0.11808811222E+03  0.11972623068E+03  0.00000000000E+00 0. -1.
        -12    1    3    3    0    0  0.62559208621E+02  0.29223330536E+02 -0.10629058189E+03  0.12674914370E+03  0.00000000000E+00 0.  1.
          5    1    4    4  501    0 -0.51525541299E+02  0.31715303069E+02 -0.96745284000E+01  0.61415069444E+02  0.41800000000E+01 0.  1.
         -5    1    4    4    0  501 -0.13815926436E+03 -0.10489871935E+03  0.50905273554E+02  0.18083291439E+03  0.41800000000E+01 0.  1.
</event>
<event>
11    1  0.1245310E-008  0.1800468E+03  0.7561462E-02  0.1069605E+00
         22   -1    0    0    0    0  0.00000000000E+00  0.00000000000E+00  0.12465629862E+04  0.12465629862E+04  0.00000000000E+00 0. -1.
         22   -1    0    0    0    0 -0.00000000000E+00 -0.00000000000E+00 -0.30366036275E+03  0.30366036275E+03  0.00000000000E+00 0. -1.
         24    2    1    2    0    0  0.57480932811E+02  0.81220165107E+02 -0.23078480836E+03  0.26424961054E+03  0.81642244250E+02 0.  0.
         25    2    1    2    0    0 -0.24306161658E+01  0.46537116987E+02  0.37563415630E+02  0.13870168106E+03  0.12512208032E+03 0.  0.
        -24    2    1    2    0    0 -0.55050316645E+02 -0.12775728209E+03  0.11361240161E+04  0.11472720573E+04  0.78121270826E+02 0.  0.
        -11    1    3    3    0    0  0.43144334886E+01  0.50722157568E+01  0.65808381102E+01  0.93621119009E+01  0.00000000000E+00 0.  1.
         12    1    3    3    0    0  0.53166499322E+02  0.76147949351E+02 -0.23736564647E+03  0.25488749864E+03  0.00000000000E+00 0. -1.
         11    1    5    5    0    0 -0.67706126850E+02 -0.93132626070E+02  0.98543885264E+03  0.99214290198E+03  0.00000000000E+00 0. -1.
        -12    1    5    5    0    0  0.12655810205E+02 -0.34624656025E+02  0.15068516349E+03  0.15512915533E+03  0.00000000000E+00 0.  1.
          5    1    4    4  501    0  0.60799135878E+02  0.17941577959E+02  0.23740315607E+02  0.67819688353E+02  0.41800000000E+01 0.  1.
         -5    1    4    4    0  501 -0.63229752044E+02  0.28595539028E+02  0.13823100023E+02  0.70881992707E+02  0.41800000000E+01 0.  1.
</event>
<event>
11    1  0.7157190E-009  0.1294461E+03  0.7561462E-02  0.1119951E+00
         22   -1    0    0    0    0  0.00000000000E+00  0.00000000000E+00  0.37043035839E+04  0.37043035839E+04  0.00000000000E+00 0.  1.
         22   -1    0    0    0    0 -0.00000000000E+00 -0.00000000000E+00 -0.11285939229E+02  0.11285939229E+02  0.00000000000E+00 0. -1.
         24    2    1    2    0    0 -0.29499134507E+02  0.10370940653E+01  0.27240263610E+03  0.28560038833E+03  0.80579843376E+02 0.  0.
         25    2    1    2    0    0  0.56244922471E+02 -0.10030848923E+02  0.12255054296E+04  0.12331962261E+04  0.12508103260E+03 0.  0.
        -24    2    1    2    0    0 -0.26745787965E+02  0.89937548573E+01  0.21951095789E+04  0.21967929087E+04  0.81220659116E+02 0.  0.
        -13    1    3    3    0    0  0.23364611770E+02 -0.17052296708E+02  0.73124354384E+02  0.78637504476E+02  0.00000000000E+00 0.  1.
         14    1    3    3    0    0 -0.52863746276E+02  0.18089390773E+02  0.19927828171E+03  0.20696288385E+03  0.00000000000E+00 0. -1.
         13    1    5    5    0    0 -0.34761571030E+02  0.40375056525E+02  0.14544983663E+04  0.14554738093E+04  0.00000000000E+00 0. -1.
        -14    1    5    5    0    0  0.80157830655E+01 -0.31381301668E+02  0.74061121258E+03  0.74131909935E+03  0.00000000000E+00 0.  1.
          5    1    4    4  501    0  0.59979288833E+01 -0.37640612256E+02  0.99122468159E+03  0.99196604410E+03  0.41800000000E+01 0. -1.
         -5    1    4    4    0  501  0.50246993588E+02  0.27609763333E+02  0.23428074804E+03  0.24123018198E+03  0.41800000000E+01 0. -1.
</event>
<event>
11    1  0.7157190E-009  0.1287443E+03  0.7561462E-02  0.1120822E+00
         22   -1    0    0    0    0  0.00000000000E+00  0.00000000000E+00  0.10081797726E+04  0.10081797726E+04  0.00000000000E+00 0. -1.
         22   -1    0    0    0    0 -0.00000000000E+00 -0.00000000000E+00 -0.48668109836E+03  0.48668109836E+03  0.00000000000E+00 0. -1.
         24    2    1    2    0    0 -0.25733258300E+02  0.16042662036E+02 -0.46495319848E+03  0.47347483928E+03  0.84127160064E+02 0.  0.
         25    2    1    2    0    0  0.29756495809E+02 -0.28627420352E+02  0.27040885587E+03  0.30078636288E+03  0.12508600452E+03 0.  0.
        -24    2    1    2    0    0 -0.40232375090E+01  0.12584758316E+02  0.71604301683E+03  0.72059966876E+03  0.79823042343E+02 0.  0.
        -13    1    3    3    0    0 -0.22487223086E+02  0.25965613068E+02 -0.66164598093E+02  0.74549596276E+02  0.00000000000E+00 0.  1.
         14    1    3    3    0    0 -0.32460352140E+01 -0.99229510323E+01 -0.39878860039E+03  0.39892524300E+03  0.00000000000E+00 0. -1.
         11    1    5    5    0    0  0.33118296441E+02  0.16226705846E+02  0.49989303991E+03  0.50125161236E+03  0.00000000000E+00 0. -1.
        -12    1    5    5    0    0 -0.37141533950E+02 -0.36419475292E+01  0.21614997692E+03  0.21934805640E+03  0.00000000000E+00 0.  1.
          5    1    4    4  501    0  0.66725694924E+02 -0.12884281123E+02  0.24200873907E+03  0.25140410747E+03  0.41800000000E+01 0. -1.
         -5    1    4    4    0  501 -0.36969199115E+02 -0.15743139230E+02  0.28400116793E+02  0.49382255415E+02  0.41800000000E+01 0. -1.
</event>
<event>
11    1  0.7157190E-009  0.1706550E+03  0.7561462E-02  0.1077463E+00
         22   -1    0    0    0    0  0.00000000000E+00  0.00000000000E+00  0.10879626626E+03  0.10879626626E+03  0.00000000000E+00 0. -1.
         22   -1    0    0    0    0 -0.00000000000E+00 -0.00000000000E+00 -0.12464692858E+04  0.12464692858E+04  0.00000000000E+00 0. -1.
         24    2    1    2    0    0  0.78748704715E+02 -0.16907873862E+02 -0.97085497076E+03  0.97770927709E+03  0.82878354040E+02 0.  0.
         25    2    1    2    0    0  0.22793992127E+02 -0.74307703028E+02 -0.16163326207E+03  0.21867505588E+03  0.12510902386E+03 0.  0.
        -24    2    1    2    0    0 -0.10154269684E+03  0.91215576889E+02 -0.51847867081E+01  0.15888121909E+03  0.81148992701E+02 0.  0.
        -11    1    3    3    0    0  0.27715193863E+02  0.26561093451E+02 -0.56967519525E+03  0.57096711966E+03  0.00000000000E+00 0.  1.
         12    1    3    3    0    0  0.51033510853E+02 -0.43468967313E+02 -0.40117977552E+03  0.40674215743E+03  0.00000000000E+00 0. -1.
         13    1    5    5    0    0 -0.10342439505E+03  0.52694046278E+02  0.11931918277E+02  0.11668606891E+03  0.00000000000E+00 0. -1.
        -14    1    5    5    0    0  0.18816982075E+01  0.38521530611E+02 -0.17116704985E+02  0.42195150175E+02  0.00000000000E+00 0.  1.
          5    1    4    4  501    0  0.15564769769E+02 -0.49722431044E+02 -0.17963190686E+03  0.18708200493E+03  0.41800000000E+01 0. -1.
         -5    1    4    4    0  501  0.72292223577E+01 -0.24585271983E+02  0.17998644787E+02  0.31593050954E+02  0.41800000000E+01 0. -1.
</event>
<event>
11    1  0.7157190E-009  0.1570125E+03  0.7561462E-02  0.1089921E+00
         22   -1    0    0    0    0  0.00000000000E+00  0.00000000000E+00  0.14785262298E+04  0.14785262298E+04  0.00000000000E+00 0. -1.
         22   -1    0    0    0    0 -0.00000000000E+00 -0.00000000000E+00 -0.21713459055E+03  0.21713459055E+03  0.00000000000E+00 0.  1.
         24    2    1    2    0    0  0.19592686480E+02 -0.13268913561E+03 -0.83288791045E+02  0.17742416015E+03  0.80944609575E+02 0.  0.
         25    2    1    2    0    0 -0.50842032722E+02  0.34624328689E+02 -0.25860710919E+02  0.14178017573E+03  0.12509630463E+03 0.  0.
        -24    2    1    2    0    0  0.31249346242E+02  0.98064806922E+02  0.13705411413E+04  0.13764564845E+04  0.75207751536E+02 0.  0.
        -11    1    3    3    0    0  0.41649286737E+02 -0.36467119394E+02 -0.45728062955E+02  0.71802295396E+02  0.00000000000E+00 0.  1.
         12    1    3    3    0    0 -0.22056600257E+02 -0.96222016217E+02 -0.37560728090E+02  0.10562186476E+03  0.00000000000E+00 0. -1.
         11    1    5    5    0    0  0.36252794830E+02  0.10779126810E+03  0.13106572783E+04  0.13155818955E+04  0.00000000000E+00 0. -1.
        -12    1    5    5    0    0 -0.50034485886E+01 -0.97264611812E+01  0.59883862910E+02  0.60874588967E+02  0.00000000000E+00 0.  1.
          5    1    4    4  501    0 -0.31410145722E+01  0.51671313260E+02  0.34893278458E+02  0.62568393524E+02  0.41800000000E+01 0.  1.
         -5    1    4    4    0  501 -0.47701018149E+02 -0.17046984572E+02 -0.60753989378E+02  0.79211782209E+02  0.41800000000E+01 0.  1.
</event>
<event>
11    1  0.7157190E-009  0.1387005E+03  0.7561462E-02  0.1109018E+00
         22   -1    0    0    0    0  0.00000000000E+00  0.00000000000E+00  0.10530184283E+04  0.10530184283E+04  0.00000000000E+00 0.  1.
         22   -1    0    0    0    0 -0.00000000000E+00 -0.00000000000E+00 -0.18287228682E+04  0.18287228682E+04  0.00000000000E+00 0.  1.
        -24    2    1    2    0    0 -0.40140911244E+02 -0.45136189914E+02 -0.17585923933E+04  0.17614337812E+04  0.79706910135E+02 0.  0.
         25    2    1    2    0    0  0.14785322702E+02  0.36582124708E+02 -0.22239866387E+01  0.13119166873E+03  0.12509776262E+03 0.  0.
         24    2    1    2    0    0  0.25355588542E+02  0.85540652051E+01  0.98511194002E+03  0.98911584647E+03  0.84785290403E+02 0.  0.
        -13    1    5    5    0    0 -0.10779787039E+01 -0.22785600786E+02  0.75733803460E+03  0.75768149264E+03  0.00000000000E+00 0.  1.
         14    1    5    5    0    0  0.26433567246E+02  0.31339665991E+02  0.22777390541E+03  0.23143435382E+03  0.00000000000E+00 0. -1.
         11    1    3    3    0    0 -0.10768692161E+01 -0.37413916178E+02 -0.30387344280E+03  0.30616993649E+03  0.00000000000E+00 0. -1.
        -12    1    3    3    0    0 -0.39064042028E+02 -0.77222737353E+01 -0.14547189505E+04  0.14552638448E+04  0.00000000000E+00 0.  1.
          5    1    4    4  501    0 -0.36322310830E+01  0.78580333994E+02 -0.20898132301E+02  0.81500100165E+02  0.41800000000E+01 0. -1.
         -5    1    4    4    0  501  0.18417553785E+02 -0.41998209286E+02  0.18674145662E+02  0.49691568569E+02  0.41800000000E+01 0. -1.
</event>
<event>
11    1  0.7157190E-009  0.1806839E+03  0.7561462E-02  0.1069091E+00
         22   -1    0    0    0    0  0.00000000000E+00  0.00000000000E+00  0.11032903732E+04  0.11032903732E+04  0.00000000000E+00 0. -1.
         22   -1    0    0    0    0 -0.00000000000E+00 -0.00000000000E+00 -0.72441629375E+03  0.72441629375E+03  0.00000000000E+00 0.  1.
         24    2    1    2    0    0  0.43812876445E+02 -0.40624178584E+02 -0.64837817672E+03  0.65727277094E+03  0.89684688420E+02 0.  0.
         25    2    1    2    0    0 -0.16714495912E+03  0.79569247780E+01  0.10106200970E+03  0.23208869414E+03  0.12510348568E+03 0.  0.
        -24    2    1    2    0    0  0.12333208268E+03  0.32667253806E+02  0.92619024646E+03  0.93834520186E+03  0.79908654873E+02 0.  0.
        -11    1    3    3    0    0  0.55610049137E+02  0.81201514133E+00 -0.48976225514E+03  0.49290993446E+03  0.00000000000E+00 0.  1.
         12    1    3    3    0    0 -0.11797172692E+02 -0.41436193726E+02 -0.15861592159E+03  0.16436283648E+03  0.00000000000E+00 0. -1.
         13    1    5    5    0    0  0.13179716871E+03  0.41388975199E+02  0.86469973563E+03  0.87566498945E+03  0.00000000000E+00 0. -1.
        -14    1    5    5    0    0 -0.84650860305E+01 -0.87217213926E+01  0.61490510823E+02  0.62680212403E+02  0.00000000000E+00 0.  1.
          5    1    4    4  501    0 -0.63587057470E+02  0.54965419744E+02  0.70033979933E+01  0.84445433440E+02  0.41800000000E+01 0. -1.
         -5    1    4    4    0  501 -0.10355790165E+03 -0.47008494966E+02  0.94058611707E+02  0.14764326070E+03  0.41800000000E+01 0. -1.
</event>
<event>
11    1  0.7157190E-009  0.1438380E+03  0.7561462E-02  0.1103347E+00
         22   -1    0    0    0    0  0.00000000000E+00  0.00000000000E+00  0.14686060202E+03  0.14686060202E+03  0.00000000000E+00 0.  1.
         22   -1    0    0    0    0 -0.00000000000E+00 -0.00000000000E+00 -0.45586750493E+03  0.45586750493E+03  0.00000000000E+00 0.  1.
         24    2    1    2    0    0  0.29694083278E+02 -0.69231442577E+02 -0.34129574083E+03  0.36017762677E+03  0.87008096707E+02 0.  0.
         25    2    1    2    0    0  0.10967101492E+02  0.50129090225E+02 -0.11299896946E+02  0.13567373555E+03  0.12508585789E+03 0.  0.
        -24    2    1    2    0    0 -0.40661184771E+02  0.19102352352E+02  0.43588734861E+02  0.10687674463E+03  0.86628107011E+02 0.  0.
        -11    1    3    3    0    0  0.43727632806E+02 -0.57940282671E+02 -0.13658440509E+03  0.15467540832E+03  0.00000000000E+00 0.  1.
         12    1    3    3    0    0 -0.14033549528E+02 -0.11291159906E+02 -0.20471133574E+03  0.20550221844E+03  0.00000000000E+00 0. -1.
         13    1    5    5    0    0 -0.20867016723E+02 -0.18060282106E+02 -0.17503667064E+02  0.32680032701E+02  0.00000000000E+00 0. -1.
        -14    1    5    5    0    0 -0.19794168047E+02  0.37162634458E+02  0.61092401925E+02  0.74196711932E+02  0.00000000000E+00 0.  1.
          5    1    4    4  501    0 -0.30726775593E+02  0.35376041817E+02  0.44223188270E+02  0.64565949647E+02  0.41800000000E+01 0. -1.
         -5    1    4    4    0  501  0.41693877085E+02  0.14753048408E+02 -0.55523085216E+02  0.71107785900E+02  0.41800000000E+01 0. -1.
</event>
<event>
11    1  0.7157190E-009  0.1282938E+03  0.7561462E-02  0.1121383E+00
         22   -1    0    0    0    0  0.00000000000E+00  0.00000000000E+00  0.44691178480E+03  0.44691178480E+03  0.00000000000E+00 0.  1.
         22   -1    0    0    0    0 -0.00000000000E+00 -0.00000000000E+00 -0.32599333676E+03  0.32599333676E+03  0.00000000000E+00 0.  1.
         24    2    1    2    0    0 -0.23601599859E+02 -0.17966309932E+02 -0.21302538132E+03  0.22978635035E+03  0.80883434093E+02 0.  0.
         25    2    1    2    0    0  0.26797659011E+02  0.12165498157E+01 -0.59539210091E+02  0.14111132633E+03  0.12509154391E+03 0.  0.
        -24    2    1    2    0    0 -0.31960591523E+01  0.16749760117E+02  0.39348303946E+03  0.40200744488E+03  0.80562485932E+02 0.  0.
        -13    1    3    3    0    0 -0.37295838637E+02  0.11215303941E+02 -0.48841878429E+02  0.62468325658E+02  0.00000000000E+00 0.  1.
         14    1    3    3    0    0  0.13694238778E+02 -0.29181613873E+02 -0.16418350289E+03  0.16731802469E+03  0.00000000000E+00 0. -1.
         13    1    5    5    0    0  0.30780372740E+02  0.19018929045E+02  0.96179344346E+02  0.10275999848E+03  0.00000000000E+00 0. -1.
        -14    1    5    5    0    0 -0.33976431892E+02 -0.22691689280E+01  0.29730369511E+03  0.29924744640E+03  0.00000000000E+00 0.  1.
          5    1    4    4  501    0  0.17504746094E+02 -0.32142700381E+02 -0.88444954382E+02  0.95809976930E+02  0.41800000000E+01 0.  1.
         -5    1    4    4    0  501  0.92929129172E+01  0.33359250197E+02  0.28905744292E+02  0.45301349398E+02  0.41800000000E+01 0.  1.
</event>
<event>
11    1  0.7157190E-009  0.1858109E+03  0.7561462E-02  0.1065037E+00
         22   -1    0    0    0    0  0.00000000000E+00  0.00000000000E+00  0.37413398759E+03  0.37413398759E+03  0.00000000000E+00 0.  1.
         22   -1    0    0    0    0 -0.00000000000E+00 -0.00000000000E+00 -0.17012475804E+04  0.17012475804E+04  0.00000000000E+00 0. -1.
         24    2    1    2    0    0  0.78088786154E+01 -0.41004514885E+02 -0.15970576879E+04  0.15996295092E+04  0.80491983147E+02 0.  0.
         25    2    1    2    0    0 -0.95767353606E+02  0.13516499350E+03  0.59264686447E+02  0.21587553312E+03  0.12509588824E+03 0.  0.
        -24    2    1    2    0    0  0.87958474991E+02 -0.94160478615E+02  0.21067940866E+03  0.25987652568E+03  0.80914191029E+02 0.  0.
        -13    1    3    3    0    0  0.17009097686E+02  0.20922050974E+02 -0.37416079161E+03  0.37513109655E+03  0.00000000000E+00 0.  1.
         14    1    3    3    0    0 -0.92002190701E+01 -0.61926565859E+02 -0.12228968963E+04  0.12244984126E+04  0.00000000000E+00 0. -1.
         13    1    5    5    0    0  0.12879692082E+02 -0.72980006559E+02  0.99884928466E+02  0.12437430104E+03  0.00000000000E+00 0. -1.
        -14    1    5    5    0    0  0.75078782909E+02 -0.21180472057E+02  0.11079448019E+03  0.13550222463E+03  0.00000000000E+00 0.  1.
          5    1    4    4  501    0  0.27385656036E+02  0.13990202434E+02 -0.51107637102E+01  0.31453016173E+02  0.41800000000E+01 0. -1.
         -5    1    4    4    0  501 -0.12315300964E+03  0.12117479107E+03  0.64375450157E+02  0.18442251695E+03  0.41800000000E+01 0. -1.
</event>
<event>
11    1  0.7157190E-009  0.1382346E+03  0.7561462E-02  0.1109546E+00
         22   -1    0    0    0    0  0.00000000000E+00  0.00000000000E+00  0.39362842783E+03  0.39362842783E+03  0.00000000000E+00 0.  1.
         22   -1    0    0    0    0 -0.00000000000E+00 -0.00000000000E+00 -0.36141346903E+03  0.36141346903E+03  0.00000000000E+00 0. -1.
        -24    2    1    2    0    0  0.46931561280E+02 -0.40473049114E+02 -0.29587090936E+03  0.31661617416E+03  0.94157143031E+02 0.  0.
         25    2    1    2    0    0  0.13049508779E-03  0.45736553038E+02  0.44192608258E+02  0.14032946256E+03  0.12509012413E+03 0.  0.
         24    2    1    2    0    0 -0.46931691775E+02 -0.52635039239E+01  0.28389325990E+03  0.29809626015E+03  0.77689826433E+02 0.  0.
        -11    1    5    5    0    0 -0.21595778561E+02  0.11236341104E+02  0.25537832135E+03  0.25653600143E+03  0.00000000000E+00 0.  1.
         12    1    5    5    0    0 -0.25335913215E+02 -0.16499845028E+02  0.28514938550E+02  0.41560258720E+02  0.00000000000E+00 0. -1.
         11    1    3    3    0    0  0.72756867616E+02 -0.29273647643E+02 -0.25647145250E+03  0.26819417253E+03  0.00000000000E+00 0. -1.
        -12    1    3    3    0    0 -0.25825306336E+02 -0.11199401471E+02 -0.39399456854E+02  0.48422001622E+02  0.00000000000E+00 0.  1.
          5    1    4    4  501    0  0.76564378643E+01 -0.30190756189E+02 -0.22697248187E+02  0.38765194122E+02  0.41800000000E+01 0.  1.
         -5    1    4    4    0  501 -0.76563073692E+01  0.75927309227E+02  0.66889856445E+02  0.10156426844E+03  0.41800000000E+01 0.  1.
</event>
<event>
11    1  0.7157190E-009  0.1423239E+03  0.7561462E-02  0.1104991E+00
         22   -1    0    0    0    0  0.00000000000E+00  0.00000000000E+00  0.14984459713E+04  0.14984459713E+04  0.00000000000E+00 0.  1.
         22   -1    0    0    0    0 -0.00000000000E+00 -0.00000000000E+00 -0.40263582369E+03  0.40263582369E+03  0.00000000000E+00 0.  1.
         24    2    1    2    0    0  0.34232748978E+02  0.55800807710E+02 -0.34995274861E+03  0.36640349134E+03  0.86596656772E+02 0.  0.
         25    2    1    2    0    0 -0.87755590690E+02 -0.89033613439E+02  0.14210397944E+03  0.22687024708E+03  0.12509412463E+03 0.  0.
        -24    2    1    2    0    0  0.53522841712E+02  0.33232805729E+02  0.13036589167E+04  0.13078080565E+04  0.82862703257E+02 0.  0.
        -11    1    3    3    0    0  0.42282999425E+01  0.48292958944E+02 -0.31894170490E+03  0.32260486594E+03  0.00000000000E+00 0.  1.
         12    1    3    3    0    0  0.30004449036E+02  0.75078487666E+01 -0.31011043709E+02  0.43798625400E+02  0.00000000000E+00 0. -1.
         13    1    5    5    0    0 -0.12822651801E+02 -0.22890780751E+01  0.43606377072E+02  0.45510179070E+02  0.00000000000E+00 0. -1.
        -14    1    5    5    0    0  0.66345493513E+02  0.35521883804E+02  0.12600525397E+04  0.12622978775E+04  0.00000000000E+00 0.  1.
          5    1    4    4  501    0 -0.28031421235E+02  0.45130574821E+01 -0.16607353639E+02  0.33157274604E+02  0.41800000000E+01 0.  1.
         -5    1    4    4    0  501 -0.59724169455E+02 -0.93546670921E+02  0.15871133308E+03  0.19371297248E+03  0.41800000000E+01 0.  1.
</event>
<event>
11    1  0.7157190E-009  0.1735154E+03  0.7561462E-02  0.1075012E+00
         22   -1    0    0    0    0  0.00000000000E+00  0.00000000000E+00  0.29981841697E+03  0.29981841697E+03  0.00000000000E+00 0.  1.
         22   -1    0    0    0    0 -0.00000000000E+00 -0.00000000000E+00 -0.40954943017E+03  0.40954943017E+03  0.00000000000E+00 0. -1.
         24    2    1    2    0    0 -0.61606240436E+01  0.90941817213E+02 -0.17507439883E+03  0.21275938169E+03  0.79417516744E+02 0.  0.
         25    2    1    2    0    0 -0.19645287205E+02 -0.19904582558E+03 -0.12109830596E+03  0.26517256796E+03  0.12508602281E+03 0.  0.
        -24    2    1    2    0    0  0.25805911248E+02  0.10810400836E+03  0.18644169159E+03  0.23143589749E+03  0.80309704297E+02 0.  0.
        -13    1    3    3    0    0  0.11685399126E+01  0.25898965018E+02 -0.81163711485E-01  0.25925440442E+02  0.00000000000E+00 0.  1.
         14    1    3    3    0    0 -0.73291639563E+01  0.65042852195E+02 -0.17499323512E+03  0.18683394125E+03  0.00000000000E+00 0. -1.
         13    1    5    5    0    0  0.18316313512E+01 -0.79850484948E+01 -0.23430134583E+01  0.85208910882E+01  0.00000000000E+00 0. -1.
        -14    1    5    5    0    0  0.23974279897E+02  0.11608905686E+03  0.18878470505E+03  0.22291500640E+03  0.00000000000E+00 0.  1.
          5    1    4    4  501    0 -0.44722783177E+02 -0.46565901798E+02 -0.84303844952E+02  0.10626909814E+03  0.41800000000E+01 0.  1.
         -5    1    4    4    0  501  0.25077495972E+02 -0.15247992378E+03 -0.36794461007E+02  0.15890346982E+03  0.41800000000E+01 0.  1.
</event>
<event>
11    1  0.7157190E-009  0.1320815E+03  0.7561462E-02  0.1116738E+00
         22   -1    0    0    0    0  0.00000000000E+00  0.00000000000E+00  0.13270337036E+03  0.13270337036E+03  0.00000000000E+00 0.  1.
         22   -1    0    0    0    0 -0.00000000000E+00 -0.00000000000E+00 -0.64767632004E+03  0.64767632004E+03  0.00000000000E+00 0.  1.
        -24    2    1    2    0    0  0.87716757606E+01  0.97473183919E+01 -0.36985074855E+03  0.37852166720E+03  0.79480336065E+02 0.  0.
         25    2    1    2    0    0 -0.18548957735E+01 -0.51037176067E+02 -0.23744143990E+03  0.27319100362E+03  0.12508658239E+03 0.  0.
         24    2    1    2    0    0 -0.69167799872E+01  0.41289857676E+02  0.92319238769E+02  0.12866701959E+03  0.79244342952E+02 0.  0.
        -13    1    5    5    0    0 -0.76579299228E+00  0.59984906366E+02  0.90931518290E+02  0.10893721334E+03  0.00000000000E+00 0.  1.
         14    1    5    5    0    0 -0.61509869949E+01 -0.18695048691E+02  0.13877204789E+01  0.19729806251E+02  0.00000000000E+00 0. -1.
         11    1    3    3    0    0  0.98160683264E+01 -0.32495175081E+01 -0.21140060108E+01  0.10553842089E+02  0.00000000000E+00 0. -1.
        -12    1    3    3    0    0 -0.10443925658E+01  0.12996835900E+02 -0.36773674254E+03  0.36796782511E+03  0.00000000000E+00 0.  1.
          5    1    4    4  501    0 -0.50196483849E+02  0.46305842719E+01 -0.15233164489E+03  0.16051022316E+03  0.41800000000E+01 0. -1.
         -5    1    4    4    0  501  0.48341588075E+02 -0.55667760339E+02 -0.85109795007E+02  0.11268078046E+03  0.41800000000E+01 0. -1.
</event>
<event>
11    1  0.7157190E-009  0.1541179E+03  0.7561462E-02  0.1092744E+00
         22   -1    0    0    0    0  0.00000000000E+00  0.00000000000E+00  0.23362864756E+03  0.23362864756E+03  0.00000000000E+00 0. -1.
         22   -1    0    0    0    0 -0.00000000000E+00 -0.00000000000E+00 -0.49254270453E+03  0.49254270453E+03  0.00000000000E+00 0. -1.
        -24    2    1    2    0    0 -0.19101043966E+02  0.67149679295E+02 -0.34797529076E+03  0.36332848693E+03  0.77761540140E+02 0.  0.
         25    2    1    2    0    0  0.53927672089E+02 -0.13733940475E+03 -0.31361662744E+02  0.19596177080E+03  0.12508859185E+03 0.  0.
         24    2    1    2    0    0 -0.34826628123E+02  0.70189725457E+02  0.12042289653E+03  0.16688109436E+03  0.84900730622E+02 0.  0.
        -11    1    5    5    0    0 -0.22261008899E+02 -0.24009808529E+01 -0.35510698409E+01  0.22669965224E+02  0.00000000000E+00 0.  1.
         12    1    5    5    0    0 -0.12565619224E+02  0.72590706310E+02  0.12397396637E+03  0.14421112914E+03  0.00000000000E+00 0. -1.
         11    1    3    3    0    0 -0.32829378424E+02  0.79217166742E+02 -0.29901150108E+03  0.31106431067E+03  0.00000000000E+00 0. -1.
        -12    1    3    3    0    0  0.13728334458E+02 -0.12067487447E+02 -0.48963789679E+02  0.52264176259E+02  0.00000000000E+00 0.  1.
          5    1    4    4  501    0  0.47862895836E+02 -0.14385774742E+03  0.11387628699E+02  0.15209555805E+03  0.41800000000E+01 0.  1.
         -5    1    4    4    0  501  0.60647762526E+01  0.65183426723E+01 -0.42749291442E+02  0.43866212750E+02  0.41800000000E+01 0.  1.
</event>
<event>
11    1  0.7157190E-009  0.1367721E+03  0.7561462E-02  0.1111217E+00
         22   -1    0    0    0    0  0.00000000000E+00  0.00000000000E+00  0.16100138128E+03  0.16100138128E+03  0.00000000000E+00 0.  1.
         22   -1    0    0    0    0 -0.00000000000E+00 -0.00000000000E+00 -0.20199463067E+04  0.20199463067E+04  0.00000000000E+00 0. -1.
         24    2    1    2    0    0 -0.27759874483E+02  0.49893768381E+02 -0.18163864415E+04  0.18191976093E+04  0.83428040764E+02 0.  0.
         25    2    1    2    0    0  0.44687405108E+02 -0.30521633139E+01 -0.16187154376E+03  0.20941832679E+03  0.12508940419E+03 0.  0.
        -24    2    1    2    0    0 -0.16927530625E+02 -0.46841605067E+02  0.11931305991E+03  0.15233175183E+03  0.80552337592E+02 0.  0.
        -13    1    3    3    0    0  0.79117303969E+01 -0.10222291201E+02 -0.58031188909E+02  0.59453423799E+02  0.00000000000E+00 0.  1.
         14    1    3    3    0    0 -0.35671604880E+02  0.60116059581E+02 -0.17583552526E+04  0.17597441855E+04  0.00000000000E+00 0. -1.
         11    1    5    5    0    0  0.14359145214E+02 -0.58980435712E+02  0.69613217798E+02  0.92362746496E+02  0.00000000000E+00 0. -1.
        -12    1    5    5    0    0 -0.31286675839E+02  0.12138830645E+02  0.49699842115E+02  0.59969005335E+02  0.00000000000E+00 0.  1.
          5    1    4    4  501    0  0.68789135203E+02  0.39490554959E+02 -0.72906125562E+02  0.10781569736E+03  0.41800000000E+01 0. -1.
         -5    1    4    4    0  501 -0.24101730095E+02 -0.42542718272E+02 -0.88965418198E+02  0.10160262943E+03  0.41800000000E+01 0. -1.
</event>
<event>
11    1  0.8285149E-009  0.1422613E+03  0.7561462E-02  0.1105059E+00
         22   -1    0    0    0    0  0.00000000000E+00  0.00000000000E+00  0.48105817029E+03  0.48105817029E+03  0.00000000000E+00 0.  1.
         22   -1    0    0    0    0 -0.00000000000E+00 -0.00000000000E+00 -0.10028627461E+04  0.10028627461E+04  0.00000000000E+00 0.  1.
        -24    2    1    2    0    0  0.27670776620E+02 -0.17509059192E+02 -0.76190380615E+03  0.76895148698E+03  0.98573528276E+02 0.  0.
         25    2    1    2    0    0 -0.70923844770E+02  0.68622480035E+02 -0.20392971530E+03  0.25879280583E+03  0.12508857280E+03 0.  0.
         24    2    1    2    0    0  0.43253068151E+02 -0.51113420843E+02  0.44402894559E+03  0.45617662361E+03  0.80324328280E+02 0.  0.
        -11    1    5    5    0    0  0.59652483260E+02 -0.11752957623E+02  0.29312594956E+03  0.29936494964E+03  0.00000000000E+00 0.  1.
         12    1    5    5    0    0 -0.16399415109E+02 -0.39360463220E+02  0.15090299604E+03  0.15681167397E+03  0.00000000000E+00 0. -1.
         13    1    3    3    0    0 -0.98565323358E+00  0.65211997616E+00  0.30369151124E+01  0.32587767889E+01  0.00000000000E+00 0. -1.
        -14    1    3    3    0    0  0.28656429853E+02 -0.18161179168E+02 -0.76494072126E+03  0.76569271019E+03  0.00000000000E+00 0.  1.
          5    1    4    4  501    0 -0.99910805139E+02  0.20002839078E+02 -0.12010253109E+03  0.15755752260E+03  0.41800000000E+01 0. -1.
         -5    1    4    4    0  501  0.28986960369E+02  0.48619640957E+02 -0.83827184210E+02  0.10123528323E+03  0.41800000000E+01 0. -1.
</event>
<event>
11    1  0.7157190E-009  0.3112601E+03  0.7561462E-02  0.9955352E-01
         22   -1    0    0    0    0  0.00000000000E+00  0.00000000000E+00  0.18362827983E+04  0.18362827983E+04  0.00000000000E+00 0.  1.
         22   -1    0    0    0    0 -0.00000000000E+00 -0.00000000000E+00 -0.28558179156E+03  0.28558179156E+03  0.00000000000E+00 0. -1.
        -24    2    1    2    0    0  0.25661679431E+03 -0.29814226869E+01 -0.80531950430E+02  0.28212781003E+03  0.85144806915E+02 0.  0.
         25    2    1    2    0    0 -0.43642558226E+03  0.15503889463E+02  0.44241681600E+03  0.63410265587E+03  0.12508349077E+03 0.  0.
         24    2    1    2    0    0  0.17980878795E+03 -0.12522466776E+02  0.11888161412E+04  0.12056341240E+04  0.88214573381E+02 0.  0.
        -11    1    5    5    0    0  0.16895650261E+03 -0.60944373335E+01  0.11742816110E+04  0.11863897942E+04  0.00000000000E+00 0.  1.
         12    1    5    5    0    0  0.10852285336E+02 -0.64280294425E+01  0.14534530205E+02  0.19244329757E+02  0.00000000000E+00 0. -1.
         11    1    3    3    0    0  0.20143813602E+03  0.33040404712E+02 -0.67114807098E+02  0.21487993932E+03  0.00000000000E+00 0. -1.
        -12    1    3    3    0    0  0.55178658290E+02 -0.36021827399E+02 -0.13417143332E+02  0.67247870710E+02  0.00000000000E+00 0.  1.
          5    1    4    4  501    0 -0.35711240743E+03 -0.11677435837E+02  0.41064439319E+03  0.54434540883E+03  0.41800000000E+01 0. -1.
         -5    1    4    4    0  501 -0.79313174826E+02  0.27181325300E+02  0.31772422810E+02  0.89757247046E+02  0.41800000000E+01 0. -1.
</event>
<event>
11    1  0.7157190E-009  0.1468063E+03  0.7561462E-02  0.1100187E+00
         22   -1    0    0    0    0  0.00000000000E+00  0.00000000000E+00  0.12223301058E+04  0.12223301058E+04  0.00000000000E+00 0. -1.
         22   -1    0    0    0    0 -0.00000000000E+00 -0.00000000000E+00 -0.32955890918E+03  0.32955890918E+03  0.00000000000E+00 0.  1.
        -24    2    1    2    0    0 -0.73757989464E+01 -0.15562569162E+02 -0.28839976294E+03  0.29979776774E+03  0.80048000034E+02 0.  0.
         25    2    1    2    0    0  0.50320435189E+02  0.77565922661E+02  0.15362095721E+03  0.21862167827E+03  0.12508965248E+03 0.  0.
         24    2    1    2    0    0 -0.42944636242E+02 -0.62003353499E+02  0.10275500024E+04  0.10334695690E+04  0.80695012528E+02 0.  0.
        -11    1    5    5    0    0  0.19903453219E+02 -0.79258551316E+01  0.38452747486E+03  0.38512380549E+03  0.00000000000E+00 0.  1.
         12    1    5    5    0    0 -0.62848089462E+02 -0.54077498368E+02  0.64302252750E+03  0.64834576351E+03  0.00000000000E+00 0. -1.
         13    1    3    3    0    0 -0.40213002474E+02  0.78042841416E+00 -0.98627190521E+02  0.10651299144E+03  0.00000000000E+00 0. -1.
        -14    1    3    3    0    0  0.32837203527E+02 -0.16342997576E+02 -0.18977257242E+03  0.19328477629E+03  0.00000000000E+00 0.  1.
          5    1    4    4  501    0  0.57189508661E+02  0.86906135196E+02  0.52231140691E+02  0.11648553856E+03  0.41800000000E+01 0.  1.
         -5    1    4    4    0  501 -0.68690734726E+01 -0.93402125343E+01  0.10138981652E+03  0.10213613971E+03  0.41800000000E+01 0.  1.
</event>
