<event>
11    1  0.6763327E-009  0.1496123E+03  0.7561462E-02  0.1097276E+00
         22   -1    0    0    0    0  0.00000000000E+00  0.00000000000E+00  0.28705909521E+04  0.28705909521E+04  0.00000000000E+00 0.  1.
         22   -1    0    0    0    0 -0.00000000000E+00 -0.00000000000E+00 -0.14333755112E+03  0.14333755112E+03  0.00000000000E+00 0.  1.
        -24    2    1    2    0    0  0.39835352125E+02  0.77596823475E+02 -0.10244341465E+03  0.15636599809E+03  0.79671512230E+02 0.  0.
         25    2    1    2    0    0 -0.42564760212E+02  0.45854115689E+01  0.33304303266E+03  0.35832641674E+03  0.12508946608E+03 0.  0.
         24    2    1    2    0    0  0.27294080874E+01 -0.82182235044E+02  0.24966537829E+04  0.24992360884E+04  0.78355242310E+02 0.  0.
        -13    1    5    5    0    0 -0.37628379999E+02 -0.45015253456E+02  0.13259286680E+04  0.13272260925E+04  0.00000000000E+00 0.  1.
         14    1    5    5    0    0  0.40357788087E+02 -0.37166981588E+02  0.11707251150E+04  0.11720099959E+04  0.00000000000E+00 0. -1.
         13    1    3    3    0    0  0.38393929861E+02  0.18992696069E+01 -0.16506459938E+02  0.41834964980E+02  0.00000000000E+00 0. -1.
        -14    1    3    3    0    0  0.14414222635E+01  0.75697553869E+02 -0.85936954714E+02  0.11453103311E+03  0.00000000000E+00 0.  1.
          5    1    4    4  501    0 -0.51605957186E+02  0.53671050511E+02  0.25425729726E+03  0.26496792653E+03  0.41800000000E+01 0. -1.
         -5    1    4    4    0  501  0.90411969739E+01 -0.49085638942E+02  0.78785735395E+02  0.93358490213E+02  0.41800000000E+01 0. -1.
</event>
<event>
11    1  0.6763327E-009  0.1505868E+03  0.7561462E-02  0.1096281E+00
         22   -1    0    0    0    0  0.00000000000E+00  0.00000000000E+00  0.24057576441E+04  0.24057576441E+04  0.00000000000E+00 0.  1.
         22   -1    0    0    0    0 -0.00000000000E+00 -0.00000000000E+00 -0.45831764956E+02  0.45831764956E+02  0.00000000000E+00 0. -1.
        -24    2    1    2    0    0 -0.74480764638E+02  0.13674603763E+02  0.79770658574E+02  0.13621151376E+03  0.80348238454E+02 0.  0.
         25    2    1    2    0    0  0.11851200381E+03 -0.46959953581E+01  0.43420993177E+03  0.46717407820E+03  0.12508479951E+03 0.  0.
         24    2    1    2    0    0 -0.44031239176E+02 -0.89786084054E+01  0.18459452888E+04  0.18482038171E+04  0.79523423396E+02 0.  0.
        -13    1    5    5    0    0 -0.45567075159E+02  0.19057379237E+02  0.15816954757E+04  0.15824664672E+04  0.00000000000E+00 0.  1.
         14    1    5    5    0    0  0.15358359828E+01 -0.28035987643E+02  0.26424981309E+03  0.26573734986E+03  0.00000000000E+00 0. -1.
         11    1    3    3    0    0 -0.48574644044E+02  0.11763443257E+02 -0.23963208964E+01  0.50036156878E+02  0.00000000000E+00 0. -1.
        -12    1    3    3    0    0 -0.25906120594E+02  0.19111605063E+01  0.82166979471E+02  0.86175356884E+02  0.00000000000E+00 0.  1.
          5    1    4    4  501    0  0.97203805826E+02  0.49651997940E+02  0.33059447318E+03  0.34817248435E+03  0.41800000000E+01 0.  1.
         -5    1    4    4    0  501  0.21308197989E+02 -0.54347993298E+02  0.10361545860E+03  0.11900159384E+03  0.41800000000E+01 0.  1.
</event>
<event>
11    1  0.6763327E-009  0.1403812E+03  0.7561462E-02  0.1107133E+00
         22   -1    0    0    0    0  0.00000000000E+00  0.00000000000E+00  0.12302702761E+03  0.12302702761E+03  0.00000000000E+00 0. -1.
         22   -1    0    0    0    0 -0.00000000000E+00 -0.00000000000E+00 -0.97537447841E+03  0.97537447841E+03  0.00000000000E+00 0.  1.
        -24    2    1    2    0    0  0.29268478452E+02 -0.59820502474E+01 -0.55422512000E+03  0.56078556257E+03  0.80140718699E+02 0.  0.
         25    2    1    2    0    0 -0.90857038985E+02 -0.15951249377E+01 -0.37832983324E+03  0.40870464353E+03  0.12509387262E+03 0.  0.
         24    2    1    2    0    0  0.61588560533E+02  0.75771751851E+01  0.80207502436E+02  0.12891129993E+03  0.79588412660E+02 0.  0.
        -13    1    5    5    0    0  0.47588319786E+02 -0.28355232204E+02  0.23136962791E+02  0.60033210980E+02  0.00000000000E+00 0.  1.
         14    1    5    5    0    0  0.14000240747E+02  0.35932407389E+02  0.57070539645E+02  0.68878088948E+02  0.00000000000E+00 0. -1.
         11    1    3    3    0    0 -0.14840984558E+01  0.13183517710E+02 -0.13784984249E+02  0.19132001416E+02  0.00000000000E+00 0. -1.
        -12    1    3    3    0    0  0.30752576908E+02 -0.19165567958E+02 -0.54044013575E+03  0.54165356115E+03  0.00000000000E+00 0.  1.
          5    1    4    4  501    0 -0.41397639240E+02  0.61188560178E+02 -0.16403888038E+03  0.17995563650E+03  0.41800000000E+01 0.  1.
         -5    1    4    4    0  501 -0.49459399745E+02 -0.62783685115E+02 -0.21429095286E+03  0.22874900703E+03  0.41800000000E+01 0.  1.
</event>
<event>
11    1  0.6763327E-009  0.1364423E+03  0.7561462E-02  0.1111597E+00
         22   -1    0    0    0    0  0.00000000000E+00  0.00000000000E+00  0.15054837026E+04  0.15054837026E+04  0.00000000000E+00 0. -1.
         22   -1    0    0    0    0 -0.00000000000E+00 -0.00000000000E+00 -0.20716520118E+03  0.20716520118E+03  0.00000000000E+00 0.  1.
        -24    2    1    2    0    0 -0.49976343861E+02  0.17817394453E+02 -0.17076770664E+03  0.19641547584E+03  0.81254753892E+02 0.  0.
         25    2    1    2    0    0  0.77748657655E+02 -0.28319667503E+02  0.23287173861E+03  0.27699208184E+03  0.12509400234E+03 0.  0.
         24    2    1    2    0    0 -0.27772313794E+02  0.10502273050E+02  0.12362144694E+04  0.12392413461E+04  0.81309902724E+02 0.  0.
        -11    1    5    5    0    0 -0.53456362606E+00  0.14897350076E+02  0.39662650108E+02  0.42371483466E+02  0.00000000000E+00 0.  1.
         12    1    5    5    0    0 -0.27237750168E+02 -0.43950770262E+01  0.11965518193E+04  0.11968698626E+04  0.00000000000E+00 0. -1.
         13    1    3    3    0    0  0.67118453154E+01 -0.25442045119E+01  0.61955784518E+01  0.94819321073E+01  0.00000000000E+00 0. -1.
        -14    1    3    3    0    0 -0.56688189177E+02  0.20361598965E+02 -0.17696328509E+03  0.18693354374E+03  0.00000000000E+00 0.  1.
          5    1    4    4  501    0  0.95385699097E+02 -0.60409878581E+02  0.17021898880E+03  0.20430311199E+03  0.41800000000E+01 0.  1.
         -5    1    4    4    0  501 -0.17637041442E+02  0.32090211078E+02  0.62652749818E+02  0.72688969849E+02  0.41800000000E+01 0.  1.
</event>
<event>
11    1  0.6763327E-009  0.2174744E+03  0.7561462E-02  0.1042811E+00
         22   -1    0    0    0    0  0.00000000000E+00  0.00000000000E+00  0.29240595098E+03  0.29240595098E+03  0.00000000000E+00 0. -1.
         22   -1    0    0    0    0 -0.00000000000E+00 -0.00000000000E+00 -0.10956587268E+04  0.10956587268E+04  0.00000000000E+00 0.  1.
        -24    2    1    2    0    0 -0.19203365159E+01  0.18651793160E+03 -0.10025076421E+04  0.10230290255E+04  0.82305456187E+02 0.  0.
         25    2    1    2    0    0 -0.15152144512E+02 -0.93475138259E+02  0.39203923276E+02  0.16171681574E+03  0.12509273335E+03 0.  0.
         24    2    1    2    0    0  0.17072481028E+02 -0.93042793345E+02  0.16005094303E+03  0.20331883649E+03  0.82303182834E+02 0.  0.
        -11    1    5    5    0    0  0.47481476828E+02 -0.58923194519E+02  0.73772283731E+02  0.10568246468E+03  0.00000000000E+00 0.  1.
         12    1    5    5    0    0 -0.30408995799E+02 -0.34119598826E+02  0.86278659296E+02  0.97636371807E+02  0.00000000000E+00 0. -1.
         11    1    3    3    0    0 -0.40269087250E+02  0.87602924476E+02 -0.53688482830E+03  0.54547336380E+03  0.00000000000E+00 0. -1.
        -12    1    3    3    0    0  0.38348750734E+02  0.98915007128E+02 -0.46562281379E+03  0.47755566172E+03  0.00000000000E+00 0.  1.
          5    1    4    4  501    0 -0.49107498359E+02 -0.10247274468E+03  0.50729238872E+02  0.12451159735E+03  0.41800000000E+01 0.  1.
         -5    1    4    4    0  501  0.33955353846E+02  0.89976064188E+01 -0.11525315596E+02  0.37205218393E+02  0.41800000000E+01 0.  1.
</event>
<event>
11    1  0.6763327E-009  0.1816183E+03  0.7561462E-02  0.1068341E+00
         22   -1    0    0    0    0  0.00000000000E+00  0.00000000000E+00  0.35378536512E+02  0.35378536512E+02  0.00000000000E+00 0.  1.
         22   -1    0    0    0    0 -0.00000000000E+00 -0.00000000000E+00 -0.28720488061E+04  0.28720488061E+04  0.00000000000E+00 0. -1.
        -24    2    1    2    0    0 -0.46646952909E+01 -0.13763876790E+03 -0.18603939753E+04  0.18672013157E+04  0.80055107454E+02 0.  0.
         25    2    1    2    0    0 -0.30085265240E+02  0.11726569155E+03 -0.94113086966E+03  0.95709515218E+03  0.12508977136E+03 0.  0.
         24    2    1    2    0    0  0.34749960531E+02  0.20373076353E+02 -0.35145424689E+02  0.83130874789E+02  0.63662543694E+02 0.  0.
        -13    1    5    5    0    0  0.44524365345E+02  0.35735181705E+02 -0.25525713303E+02  0.62537863415E+02  0.00000000000E+00 0.  1.
         14    1    5    5    0    0 -0.97744048135E+01 -0.15362105352E+02 -0.96197113862E+01  0.20593011374E+02  0.00000000000E+00 0. -1.
         11    1    3    3    0    0 -0.26148368830E+02 -0.11961632451E+03 -0.16975954483E+04  0.17020053198E+04  0.00000000000E+00 0. -1.
        -12    1    3    3    0    0  0.21483673539E+02 -0.18022443393E+02 -0.16279852691E+03  0.16519599590E+03  0.00000000000E+00 0.  1.
          5    1    4    4  501    0  0.12242350995E+02  0.12702073248E+03 -0.61974239619E+03  0.63275765635E+03  0.41800000000E+01 0.  1.
         -5    1    4    4    0  501 -0.42327616235E+02 -0.97550409328E+01 -0.32138847347E+03  0.32433749583E+03  0.41800000000E+01 0.  1.
</event>
<event>
11    1  0.6763327E-009  0.1524533E+03  0.7561462E-02  0.1094398E+00
         22   -1    0    0    0    0  0.00000000000E+00  0.00000000000E+00  0.13778707450E+04  0.13778707450E+04  0.00000000000E+00 0. -1.
         22   -1    0    0    0    0 -0.00000000000E+00 -0.00000000000E+00 -0.21431032927E+03  0.21431032927E+03  0.00000000000E+00 0. -1.
        -24    2    1    2    0    0  0.88879470508E+02 -0.15584158404E+02 -0.16089866372E+03  0.20047523438E+03  0.78482567123E+02 0.  0.
         25    2    1    2    0    0 -0.66088245671E+02 -0.18821517770E+02  0.12611743093E+03  0.19046103672E+03  0.12509154398E+03 0.  0.
         24    2    1    2    0    0 -0.22791224837E+02  0.34405676174E+02  0.11983416485E+04  0.12012448032E+04  0.72547777811E+02 0.  0.
        -13    1    5    5    0    0  0.24670821698E+02  0.22651509612E+02  0.58452294055E+03  0.58548168917E+03  0.00000000000E+00 0.  1.
         14    1    5    5    0    0 -0.47462046536E+02  0.11754166562E+02  0.61381870799E+03  0.61576311401E+03  0.00000000000E+00 0. -1.
         11    1    3    3    0    0  0.40608459024E+02 -0.33941942999E+02 -0.12983727459E+03  0.14020991517E+03  0.00000000000E+00 0. -1.
        -12    1    3    3    0    0  0.48271011485E+02  0.18357784595E+02 -0.31061389130E+02  0.60265319212E+02  0.00000000000E+00 0.  1.
          5    1    4    4  501    0 -0.10031811505E+03 -0.31093305332E+02  0.10303743310E+03  0.14718934358E+03  0.41800000000E+01 0. -1.
         -5    1    4    4    0  501  0.34229869375E+02  0.12271787563E+02  0.23079997831E+02  0.43271693141E+02  0.41800000000E+01 0. -1.
</event>
<event>
11    1  0.6763327E-009  0.1787269E+03  0.7561462E-02  0.1070677E+00
         22   -1    0    0    0    0  0.00000000000E+00  0.00000000000E+00  0.65046962811E+03  0.65046962811E+03  0.00000000000E+00 0. -1.
         22   -1    0    0    0    0 -0.00000000000E+00 -0.00000000000E+00 -0.16179106369E+04  0.16179106369E+04  0.00000000000E+00 0.  1.
        -24    2    1    2    0    0 -0.10741500549E+03 -0.68301284518E+02 -0.15691849906E+04  0.15763658205E+04  0.79903796174E+02 0.  0.
         25    2    1    2    0    0  0.12981515674E+03  0.78777589070E+02  0.19933776976E+03  0.28007392102E+03  0.12509185153E+03 0.  0.
         24    2    1    2    0    0 -0.22400151251E+02 -0.10476304552E+02  0.40240621200E+03  0.41194052348E+03  0.84573729344E+02 0.  0.
        -13    1    5    5    0    0 -0.33264451721E+01  0.36837468071E+02  0.17954897617E+03  0.18331911830E+03  0.00000000000E+00 0.  1.
         14    1    5    5    0    0 -0.19073706079E+02 -0.47313772623E+02  0.22285723583E+03  0.22862140518E+03  0.00000000000E+00 0. -1.
         11    1    3    3    0    0  0.12351053699E+02 -0.23320791233E+01 -0.89784611035E+02  0.90660153867E+02  0.00000000000E+00 0. -1.
        -12    1    3    3    0    0 -0.11976605919E+03 -0.65969205395E+02 -0.14794003795E+04  0.14857056667E+04  0.00000000000E+00 0.  1.
          5    1    4    4  501    0  0.26147970986E+02  0.65566964495E+01 -0.15076766334E+02  0.31168701258E+02  0.41800000000E+01 0.  1.
         -5    1    4    4    0  501  0.10366718576E+03  0.72220892621E+02  0.21441453610E+03  0.24890521976E+03  0.41800000000E+01 0.  1.
</event>
<event>
11    1  0.6763327E-009  0.1575997E+03  0.7561462E-02  0.1089357E+00
         22   -1    0    0    0    0  0.00000000000E+00  0.00000000000E+00  0.43276830839E+03  0.43276830839E+03  0.00000000000E+00 0. -1.
         22   -1    0    0    0    0 -0.00000000000E+00 -0.00000000000E+00 -0.13163273175E+03  0.13163273175E+03  0.00000000000E+00 0. -1.
        -24    2    1    2    0    0 -0.96605212164E+02  0.19451212422E+02 -0.52751860852E+02  0.13711397129E+03  0.79413888067E+02 0.  0.
         25    2    1    2    0    0  0.73560564235E+02 -0.23918777613E+02  0.28047750638E+03  0.31669990983E+03  0.12509171344E+03 0.  0.
         24    2    1    2    0    0  0.23044647929E+02  0.44675651914E+01  0.73409931115E+02  0.11058715902E+03  0.79306284858E+02 0.  0.
        -11    1    5    5    0    0  0.33207692743E+02 -0.23504642585E+02  0.12116334193E+02  0.42450260714E+02  0.00000000000E+00 0.  1.
         12    1    5    5    0    0 -0.10163044814E+02  0.27972207777E+02  0.61293596922E+02  0.68136898311E+02  0.00000000000E+00 0. -1.
         13    1    3    3    0    0 -0.65484996510E+02  0.49563198945E+02 -0.25694868233E+02  0.86052435823E+02  0.00000000000E+00 0. -1.
        -14    1    3    3    0    0 -0.31120215654E+02 -0.30111986523E+02 -0.27056992619E+02  0.51061535468E+02  0.00000000000E+00 0.  1.
          5    1    4    4  501    0  0.82013475882E+02  0.73098516552E+01  0.27019972525E+03  0.28249780191E+03  0.41800000000E+01 0.  1.
         -5    1    4    4    0  501 -0.84529116469E+01 -0.31228629268E+02  0.10277781122E+02  0.34202107919E+02  0.41800000000E+01 0.  1.
</event>
<event>
11    1  0.6763327E-009  0.2064249E+03  0.7561462E-02  0.1050071E+00
         22   -1    0    0    0    0  0.00000000000E+00  0.00000000000E+00  0.14419574916E+04  0.14419574916E+04  0.00000000000E+00 0.  1.
         22   -1    0    0    0    0 -0.00000000000E+00 -0.00000000000E+00 -0.21418517604E+03  0.21418517604E+03  0.00000000000E+00 0. -1.
         24    2    1    2    0    0  0.15165806103E+03  0.59698889481E+02 -0.14970446201E+03  0.23515769116E+03  0.79520996513E+02 0.  0.
         25    2    1    2    0    0 -0.19216305784E+03 -0.16408583811E+02  0.72221957663E+03  0.75792162864E+03  0.12509274903E+03 0.  0.
        -24    2    1    2    0    0  0.40504996815E+02 -0.43290305670E+02  0.65525720089E+03  0.66306334779E+03  0.82318275840E+02 0.  0.
        -13    1    3    3    0    0  0.48476330048E+02  0.50439041135E+02 -0.28053026615E+02  0.75372566281E+02  0.00000000000E+00 0.  1.
         14    1    3    3    0    0  0.10318173098E+03  0.92598483463E+01 -0.12165143539E+03  0.15978512488E+03  0.00000000000E+00 0. -1.
         13    1    5    5    0    0 -0.12402579171E+02 -0.29135956729E+02  0.95064001415E+02  0.10019926302E+03  0.00000000000E+00 0. -1.
        -14    1    5    5    0    0  0.52907575987E+02 -0.14154348941E+02  0.56019319947E+03  0.56286408477E+03  0.00000000000E+00 0.  1.
          5    1    4    4  501    0 -0.19053774281E+03  0.12053038820E+02  0.68338917955E+03  0.70956898911E+03  0.41800000000E+01 0.  1.
         -5    1    4    4    0  501 -0.16253150393E+01 -0.28461622631E+02  0.38830397082E+02  0.48352639528E+02  0.41800000000E+01 0.  1.
</event>
<event>
11    1  0.6763327E-009  0.1408622E+03  0.7561462E-02  0.1106599E+00
         22   -1    0    0    0    0  0.00000000000E+00  0.00000000000E+00  0.16444355631E+04  0.16444355631E+04  0.00000000000E+00 0. -1.
         22   -1    0    0    0    0 -0.00000000000E+00 -0.00000000000E+00 -0.23986721368E+03  0.23986721368E+03  0.00000000000E+00 0.  1.
         24    2    1    2    0    0 -0.14025045776E+02  0.14251873468E+02 -0.14254312473E+03  0.16447520728E+03  0.79584757318E+02 0.  0.
         25    2    1    2    0    0  0.77742105405E+02 -0.38619659959E+01 -0.20915803328E+02  0.14881076824E+03  0.12509366164E+03 0.  0.
        -24    2    1    2    0    0 -0.63717059629E+02 -0.10389907472E+02  0.15680272774E+04  0.15710168012E+04  0.72224878465E+02 0.  0.
        -13    1    3    3    0    0  0.22130143157E+02  0.15555208586E+02 -0.11725493660E+03  0.12033464965E+03  0.00000000000E+00 0.  1.
         14    1    3    3    0    0 -0.36155188933E+02 -0.13033351179E+01 -0.25288188133E+02  0.44140557634E+02  0.00000000000E+00 0. -1.
         13    1    5    5    0    0 -0.11283665554E+01  0.15902507895E+01  0.88985206199E+03  0.88985419835E+03  0.00000000000E+00 0. -1.
        -14    1    5    5    0    0 -0.62588693073E+02 -0.11980158262E+02  0.67817521546E+03  0.68116260288E+03  0.00000000000E+00 0.  1.
          5    1    4    4  501    0  0.51648359047E+02  0.54974099215E+02  0.11845547380E+02  0.76468908515E+02  0.41800000000E+01 0.  1.
         -5    1    4    4    0  501  0.26093746358E+02 -0.58836065211E+02 -0.32761350708E+02  0.72341859727E+02  0.41800000000E+01 0.  1.
</event>
<event>
11    1  0.6763327E-009  0.1754510E+03  0.7561462E-02  0.1073383E+00
         22   -1    0    0    0    0  0.00000000000E+00  0.00000000000E+00  0.13405510027E+04  0.13405510027E+04  0.00000000000E+00 0.  1.
         22   -1    0    0    0    0 -0.00000000000E+00 -0.00000000000E+00 -0.26533694819E+03  0.26533694819E+03  0.00000000000E+00 0.  1.
        -24    2    1    2    0    0 -0.37213332551E+01 -0.15071208000E+02 -0.22912951549E+03  0.24389689459E+03  0.82124117592E+02 0.  0.
         25    2    1    2    0    0 -0.72670996928E+02  0.10921785886E+03  0.32758163294E+03  0.37438991714E+03  0.12509384211E+03 0.  0.
         24    2    1    2    0    0  0.76392330183E+02 -0.94146650858E+02  0.97676193705E+03  0.98760113914E+03  0.81195741192E+02 0.  0.
        -11    1    5    5    0    0  0.52212879596E+02 -0.12646965579E+02  0.53829674953E+03  0.54097090596E+03  0.00000000000E+00 0.  1.
         12    1    5    5    0    0  0.24179450587E+02 -0.81499685279E+02  0.43846518751E+03  0.44663023318E+03  0.00000000000E+00 0. -1.
         13    1    3    3    0    0  0.30217911804E+02  0.17640364778E+02 -0.75817373509E+02  0.83501968774E+02  0.00000000000E+00 0. -1.
        -14    1    3    3    0    0 -0.33939245059E+02 -0.32711572778E+02 -0.15331214198E+03  0.16039492582E+03  0.00000000000E+00 0.  1.
          5    1    4    4  501    0 -0.10442456614E+03  0.54636557977E+02  0.20873766494E+03  0.23974680112E+03  0.41800000000E+01 0.  1.
         -5    1    4    4    0  501  0.31753569215E+02  0.54581300881E+02  0.11884396800E+03  0.13464311603E+03  0.41800000000E+01 0.  1.
</event>
<event>
11    1  0.6763327E-009  0.1532562E+03  0.7561462E-02  0.1093597E+00
         22   -1    0    0    0    0  0.00000000000E+00  0.00000000000E+00  0.11450493153E+04  0.11450493153E+04  0.00000000000E+00 0.  1.
         22   -1    0    0    0    0 -0.00000000000E+00 -0.00000000000E+00 -0.36690235508E+03  0.36690235508E+03  0.00000000000E+00 0.  1.
        -24    2    1    2    0    0  0.29153110806E+02  0.18456346494E+02 -0.33408051440E+03  0.34495668454E+03  0.78706947065E+02 0.  0.
         25    2    1    2    0    0  0.41371721854E+02 -0.74511014455E+02  0.22209701146E+03  0.26877140072E+03  0.12508985850E+03 0.  0.
         24    2    1    2    0    0 -0.70524832659E+02  0.56054667961E+02  0.89013046318E+03  0.89822358515E+03  0.79733867383E+02 0.  0.
        -13    1    5    5    0    0 -0.57649824346E+02  0.61935686290E+02  0.86690653311E+03  0.87102610101E+03  0.00000000000E+00 0.  1.
         14    1    5    5    0    0 -0.12875008313E+02 -0.58810183291E+01  0.23223930072E+02  0.27197484142E+02  0.00000000000E+00 0. -1.
         11    1    3    3    0    0  0.24586675659E+02 -0.29122761976E+02 -0.15249075861E+03  0.15718165080E+03  0.00000000000E+00 0. -1.
        -12    1    3    3    0    0  0.45664351464E+01  0.47579108470E+02 -0.18158975579E+03  0.18777503375E+03  0.00000000000E+00 0.  1.
          5    1    4    4  501    0  0.11675963338E+02  0.28694793575E+02  0.10622897322E+03  0.11073295106E+03  0.41800000000E+01 0. -1.
         -5    1    4    4    0  501  0.29695758515E+02 -0.10320580803E+03  0.11586803824E+03  0.15803844966E+03  0.41800000000E+01 0. -1.
</event>
<event>
11    1  0.6763327E-009  0.1505675E+03  0.7561462E-02  0.1096300E+00
         22   -1    0    0    0    0  0.00000000000E+00  0.00000000000E+00  0.14926907740E+04  0.14926907740E+04  0.00000000000E+00 0. -1.
         22   -1    0    0    0    0 -0.00000000000E+00 -0.00000000000E+00 -0.18762388976E+03  0.18762388976E+03  0.00000000000E+00 0.  1.
         24    2    1    2    0    0 -0.18392109719E+02  0.73922209393E+02 -0.89509600329E+02  0.14416129346E+03  0.83473033011E+02 0.  0.
         25    2    1    2    0    0  0.12013580706E+02 -0.11302124492E+03  0.33692900738E+02  0.17230585446E+03  0.12504386429E+03 0.  0.
        -24    2    1    2    0    0  0.63785290139E+01  0.39099035529E+02  0.13608835838E+04  0.13638475158E+04  0.80662863144E+02 0.  0.
        -13    1    3    3    0    0 -0.86066606515E+01  0.87982617992E+02 -0.91119020350E+02  0.12695547072E+03  0.00000000000E+00 0.  1.
         14    1    3    3    0    0 -0.97854490680E+01 -0.14060408599E+02  0.16094200211E+01  0.17205822742E+02  0.00000000000E+00 0. -1.
         13    1    5    5    0    0  0.22266277854E+02  0.56498506894E+02  0.72908565976E+03  0.73161039336E+03  0.00000000000E+00 0. -1.
        -14    1    5    5    0    0 -0.15887748840E+02 -0.17399471364E+02  0.63179792407E+03  0.63223712247E+03  0.00000000000E+00 0.  1.
          5    1    4    4  501    0  0.45079797803E+02 -0.89006333180E+02 -0.22826454494E+02  0.10243453978E+03  0.41800000000E+01 0.  1.
         -5    1    4    4    0  501 -0.33066217098E+02 -0.24014911743E+02  0.56519355233E+02  0.69871314680E+02  0.41800000000E+01 0.  1.
</event>
<event>
11    1  0.6763327E-009  0.1541765E+03  0.7561462E-02  0.1092686E+00
         22   -1    0    0    0    0  0.00000000000E+00  0.00000000000E+00  0.61372868975E+03  0.61372868975E+03  0.00000000000E+00 0.  1.
         22   -1    0    0    0    0 -0.00000000000E+00 -0.00000000000E+00 -0.12680281697E+04  0.12680281697E+04  0.00000000000E+00 0.  1.
        -24    2    1    2    0    0 -0.42931952197E+02  0.44921170209E+02 -0.11835887518E+04  0.11873495637E+04  0.71102665566E+02 0.  0.
         25    2    1    2    0    0  0.11148038038E+03  0.12853206655E+02  0.17812526438E+02  0.16899049194E+03  0.12508964840E+03 0.  0.
         24    2    1    2    0    0 -0.68548428184E+02 -0.57774376864E+02  0.51147674541E+03  0.52541680377E+03  0.80109868053E+02 0.  0.
        -11    1    5    5    0    0 -0.18568203532E+02 -0.66869054912E+02  0.28987999597E+03  0.29807156985E+03  0.00000000000E+00 0.  1.
         12    1    5    5    0    0 -0.49980224652E+02  0.90946780479E+01  0.22159674944E+03  0.22734523393E+03  0.00000000000E+00 0. -1.
         13    1    3    3    0    0 -0.74965252785E+00 -0.18843042756E+01  0.56204642419E-01  0.20287287836E+01  0.00000000000E+00 0. -1.
        -14    1    3    3    0    0 -0.42182299669E+02  0.46805474484E+02 -0.11836449564E+04  0.11853208349E+04  0.00000000000E+00 0.  1.
          5    1    4    4  501    0  0.99394195160E+02 -0.44390566948E+02  0.17509073245E+02  0.11033480191E+03  0.41800000000E+01 0.  1.
         -5    1    4    4    0  501  0.12086185221E+02  0.57243773603E+02  0.30345319317E+00  0.58655690034E+02  0.41800000000E+01 0.  1.
</event>
<event>
11    1  0.6763327E-009  0.1605498E+03  0.7561462E-02  0.1086561E+00
         22   -1    0    0    0    0  0.00000000000E+00  0.00000000000E+00  0.62830819152E+03  0.62830819152E+03  0.00000000000E+00 0. -1.
         22   -1    0    0    0    0 -0.00000000000E+00 -0.00000000000E+00 -0.31644203866E+03  0.31644203866E+03  0.00000000000E+00 0.  1.
        -24    2    1    2    0    0 -0.91544128509E+02  0.47664928809E+02 -0.27402232923E+03  0.30451008860E+03  0.83581602277E+02 0.  0.
         25    2    1    2    0    0  0.66270305395E+02 -0.40605734013E+01  0.21457419347E+03  0.25709581705E+03  0.12509169840E+03 0.  0.
         24    2    1    2    0    0  0.25273823114E+02 -0.43604355408E+02  0.37131428862E+03  0.38314432453E+03  0.79907237087E+02 0.  0.
        -13    1    5    5    0    0 -0.78851416733E+01 -0.36294658658E+02  0.64284626766E+02  0.74242783789E+02  0.00000000000E+00 0.  1.
         14    1    5    5    0    0  0.33158964788E+02 -0.73096967500E+01  0.30702966185E+03  0.30890154074E+03  0.00000000000E+00 0. -1.
         13    1    3    3    0    0 -0.17408842964E+02  0.55559351583E+02 -0.11688294978E+03  0.13058151979E+03  0.00000000000E+00 0. -1.
        -14    1    3    3    0    0 -0.74135285545E+02 -0.78944227738E+01 -0.15713937944E+03  0.17392856880E+03  0.00000000000E+00 0.  1.
          5    1    4    4  501    0  0.18434999507E+02  0.38243983475E+02  0.17872054513E+03  0.18374154982E+03  0.41800000000E+01 0. -1.
         -5    1    4    4    0  501  0.47835305888E+02 -0.42304556876E+02  0.35853648344E+02  0.73354267234E+02  0.41800000000E+01 0. -1.
</event>
<event>
11    1  0.6763327E-009  0.1360208E+03  0.7561462E-02  0.1112085E+00
         22   -1    0    0    0    0  0.00000000000E+00  0.00000000000E+00  0.48354825580E+03  0.48354825580E+03  0.00000000000E+00 0. -1.
         22   -1    0    0    0    0 -0.00000000000E+00 -0.00000000000E+00 -0.63718860161E+03  0.63718860161E+03  0.00000000000E+00 0. -1.
         24    2    1    2    0    0 -0.87271911780E+01  0.11952304065E+02 -0.54163353288E+03  0.54772569236E+03  0.80109479448E+02 0.  0.
         25    2    1    2    0    0 -0.30141932119E+02  0.25941186861E+02 -0.37597033826E+02  0.13653716101E+03  0.12508948052E+03 0.  0.
        -24    2    1    2    0    0  0.38869123297E+02 -0.37893490926E+02  0.42559022090E+03  0.43647400404E+03  0.80223404793E+02 0.  0.
        -11    1    3    3    0    0 -0.30647469182E+01 -0.16626667753E+02 -0.24472260385E+02  0.29744415990E+02  0.00000000000E+00 0.  1.
         12    1    3    3    0    0 -0.56624442598E+01  0.28578971819E+02 -0.51716127249E+03  0.51798127637E+03  0.00000000000E+00 0. -1.
         13    1    5    5    0    0  0.92809844009E+00  0.45087587035E+01  0.28176854941E+03  0.28180614917E+03  0.00000000000E+00 0. -1.
        -14    1    5    5    0    0  0.37941024856E+02 -0.42402249630E+02  0.14382167149E+03  0.15466785487E+03  0.00000000000E+00 0.  1.
          5    1    4    4  501    0 -0.50187154401E+02  0.28561351449E+02  0.30458677962E+02  0.65419452204E+02  0.41800000000E+01 0.  1.
         -5    1    4    4    0  501  0.20045222282E+02 -0.26201645879E+01 -0.68055711788E+02  0.71117708805E+02  0.41800000000E+01 0.  1.
</event>
<event>
11    1  0.6763327E-009  0.1277857E+03  0.7561462E-02  0.1122020E+00
         22   -1    0    0    0    0  0.00000000000E+00  0.00000000000E+00  0.15897079170E+04  0.15897079170E+04  0.00000000000E+00 0. -1.
         22   -1    0    0    0    0 -0.00000000000E+00 -0.00000000000E+00 -0.11950044924E+03  0.11950044924E+03  0.00000000000E+00 0.  1.
        -24    2    1    2    0    0 -0.10388065480E+02 -0.24840306783E+02 -0.91309231090E+02  0.12524919198E+03  0.81394297488E+02 0.  0.
         25    2    1    2    0    0 -0.71285401007E+01  0.10203453802E+02  0.39598068073E+03  0.41545495163E+03  0.12508873158E+03 0.  0.
         24    2    1    2    0    0  0.17516605581E+02  0.14636852981E+02  0.11655360182E+04  0.11685042227E+04  0.80042737627E+02 0.  0.
        -13    1    5    5    0    0 -0.64432173952E+01  0.36632441419E+02  0.29152179037E+03  0.29388502016E+03  0.00000000000E+00 0.  1.
         14    1    5    5    0    0  0.23959822976E+02 -0.21995588438E+02  0.87401422779E+03  0.87461920251E+03  0.00000000000E+00 0. -1.
         13    1    3    3    0    0  0.35573976783E+02 -0.88124201821E+01 -0.45309644841E+02  0.58276328721E+02  0.00000000000E+00 0. -1.
        -14    1    3    3    0    0 -0.45962042263E+02 -0.16027886601E+02 -0.45999586250E+02  0.66972863258E+02  0.00000000000E+00 0.  1.
          5    1    4    4  501    0  0.55470798245E+02 -0.14609534490E+02  0.16020210511E+03  0.17021349781E+03  0.41800000000E+01 0. -1.
         -5    1    4    4    0  501 -0.62599338345E+02  0.24812988292E+02  0.23577857562E+03  0.24524145381E+03  0.41800000000E+01 0. -1.
</event>
<event>
11    1  0.6763327E-009  0.1475590E+03  0.7561462E-02  0.1099399E+00
         22   -1    0    0    0    0  0.00000000000E+00  0.00000000000E+00  0.17011103431E+03  0.17011103431E+03  0.00000000000E+00 0.  1.
         22   -1    0    0    0    0 -0.00000000000E+00 -0.00000000000E+00 -0.34871752775E+03  0.34871752775E+03  0.00000000000E+00 0.  1.
         24    2    1    2    0    0 -0.49945029944E+02  0.47996500998E+02 -0.16790445122E+03  0.19874762659E+03  0.80687943396E+02 0.  0.
         25    2    1    2    0    0  0.74064482581E+02 -0.73604209479E+02 -0.10352907127E+03  0.19305013989E+03  0.12508781187E+03 0.  0.
        -24    2    1    2    0    0 -0.24119452637E+02  0.25607708481E+02  0.92827029058E+02  0.12703079558E+03  0.79261989463E+02 0.  0.
        -11    1    3    3    0    0 -0.61888818506E+02  0.15146208251E+02 -0.14070087073E+03  0.15445506953E+03  0.00000000000E+00 0.  1.
         12    1    3    3    0    0  0.11943788563E+02  0.32850292747E+02 -0.27203580496E+02  0.44292557056E+02  0.00000000000E+00 0. -1.
         13    1    5    5    0    0  0.76953345994E+01 -0.90645175566E+01 -0.89628580586E+01  0.14890147001E+02  0.00000000000E+00 0. -1.
        -14    1    5    5    0    0 -0.31814787236E+02  0.34672226037E+02  0.10178988712E+03  0.11214064858E+03  0.00000000000E+00 0.  1.
          5    1    4    4  501    0  0.95866254778E+02 -0.57778406879E+02 -0.11756948513E+03  0.16238454157E+03  0.41800000000E+01 0. -1.
         -5    1    4    4    0  501 -0.21801772198E+02 -0.15825802600E+02  0.14040413860E+02  0.30665598319E+02  0.41800000000E+01 0. -1.
</event>
<event>
11    1  0.6763327E-009  0.1332792E+03  0.7561462E-02  0.1115304E+00
         22   -1    0    0    0    0  0.00000000000E+00  0.00000000000E+00  0.18519588300E+03  0.18519588300E+03  0.00000000000E+00 0.  1.
         22   -1    0    0    0    0 -0.00000000000E+00 -0.00000000000E+00 -0.63949081385E+03  0.63949081385E+03  0.00000000000E+00 0. -1.
        -24    2    1    2    0    0  0.17799727173E+02  0.44181210463E+01 -0.36302370348E+03  0.37243667880E+03  0.81157380104E+02 0.  0.
         25    2    1    2    0    0  0.27032474552E+02  0.94004203227E+01 -0.24229539774E+03  0.27417754078E+03  0.12508853473E+03 0.  0.
         24    2    1    2    0    0 -0.44832201725E+02 -0.13818541369E+02  0.15102417037E+03  0.17807247727E+03  0.81857368188E+02 0.  0.
        -11    1    5    5    0    0 -0.34624625860E+02  0.19484837419E+02  0.13309074327E+03  0.13889445471E+03  0.00000000000E+00 0.  1.
         12    1    5    5    0    0 -0.10207575865E+02 -0.33303378788E+02  0.17933427098E+02  0.39178022554E+02  0.00000000000E+00 0. -1.
         11    1    3    3    0    0  0.25568321033E+01 -0.38097094115E+01 -0.35172666379E+03  0.35175658813E+03  0.00000000000E+00 0. -1.
        -12    1    3    3    0    0  0.15242895070E+02  0.82278304578E+01 -0.11297039695E+02  0.20680090668E+02  0.00000000000E+00 0.  1.
          5    1    4    4  501    0  0.23463820857E+02  0.62569076271E+02 -0.18024578163E+03  0.19227962552E+03  0.41800000000E+01 0. -1.
         -5    1    4    4    0  501  0.35686536950E+01 -0.53168655949E+02 -0.62049616110E+02  0.81897915261E+02  0.41800000000E+01 0. -1.
</event>
<event>
11    1  0.6763327E-009  0.1704460E+03  0.7561462E-02  0.1077644E+00
         22   -1    0    0    0    0  0.00000000000E+00  0.00000000000E+00  0.12839725850E+03  0.12839725850E+03  0.00000000000E+00 0.  1.
         22   -1    0    0    0    0 -0.00000000000E+00 -0.00000000000E+00 -0.16798725234E+04  0.16798725234E+04  0.00000000000E+00 0.  1.
        -24    2    1    2    0    0 -0.66331461156E+02  0.10429213522E+03 -0.15210985061E+04  0.15282204424E+04  0.80251748934E+02 0.  0.
         25    2    1    2    0    0  0.12303474223E+02 -0.34151892123E+02 -0.79369112356E+02  0.15252662572E+03  0.12508872189E+03 0.  0.
         24    2    1    2    0    0  0.54027986933E+02 -0.70140243098E+02  0.48992353567E+02  0.12752271375E+03  0.77608728498E+02 0.  0.
        -11    1    5    5    0    0  0.65519447214E+02 -0.56467061290E+02  0.61140504409E+02  0.10592208577E+03  0.00000000000E+00 0.  1.
         12    1    5    5    0    0 -0.11491460281E+02 -0.13673181808E+02 -0.12148150843E+02  0.21600627978E+02  0.00000000000E+00 0. -1.
         11    1    3    3    0    0 -0.44041756853E+02  0.36193934151E+02 -0.10653065321E+04  0.10668306728E+04  0.00000000000E+00 0. -1.
        -12    1    3    3    0    0 -0.22289704303E+02  0.68098201070E+02 -0.45579197399E+03  0.46138976957E+03  0.00000000000E+00 0.  1.
          5    1    4    4  501    0 -0.14767651112E+02  0.44208390224E+02 -0.34723415972E+02  0.58272234403E+02  0.41800000000E+01 0. -1.
         -5    1    4    4    0  501  0.27071125335E+02 -0.78360282348E+02 -0.44645696384E+02  0.94254391315E+02  0.41800000000E+01 0. -1.
</event>
<event>
11    1  0.6763327E-009  0.2282280E+03  0.7561462E-02  0.1036182E+00
         22   -1    0    0    0    0  0.00000000000E+00  0.00000000000E+00  0.21643384853E+03  0.21643384853E+03  0.00000000000E+00 0. -1.
         22   -1    0    0    0    0 -0.00000000000E+00 -0.00000000000E+00 -0.15096502805E+04  0.15096502805E+04  0.00000000000E+00 0. -1.
         24    2    1    2    0    0  0.14625978123E+03 -0.14661438663E+03 -0.12302135776E+04  0.12501084580E+04  0.80361733995E+02 0.  0.
         25    2    1    2    0    0 -0.14043663807E+03  0.38122563501E+02 -0.20452681448E+03  0.28045848132E+03  0.12509981112E+03 0.  0.
        -24    2    1    2    0    0 -0.58231431569E+01  0.10849182313E+03  0.14152396016E+03  0.19551718965E+03  0.79959711514E+02 0.  0.
        -13    1    3    3    0    0 -0.10336619582E+01 -0.22603396851E+01  0.23436700876E+00  0.24965016385E+01  0.00000000000E+00 0.  1.
         14    1    3    3    0    0  0.14729344318E+03 -0.14435404694E+03 -0.12304479446E+04  0.12476119564E+04  0.00000000000E+00 0. -1.
         11    1    5    5    0    0  0.13892024272E+02  0.10889710187E+03  0.95724051603E+02  0.14565253582E+03  0.00000000000E+00 0. -1.
        -12    1    5    5    0    0 -0.19715167429E+02 -0.40527874288E+00  0.45799908561E+02  0.49864653832E+02  0.00000000000E+00 0.  1.
          5    1    4    4  501    0 -0.26131313782E+02 -0.19330966878E+02  0.67237654402E+01  0.33454644851E+02  0.41800000000E+01 0. -1.
         -5    1    4    4    0  501 -0.11430532429E+03  0.57453530379E+02 -0.21125057992E+03  0.24700383647E+03  0.41800000000E+01 0. -1.
</event>
<event>
11    1  0.6763327E-009  0.3278959E+03  0.7561462E-02  0.9890306E-01
         22   -1    0    0    0    0  0.00000000000E+00  0.00000000000E+00  0.18996789167E+04  0.18996789167E+04  0.00000000000E+00 0.  1.
         22   -1    0    0    0    0 -0.00000000000E+00 -0.00000000000E+00 -0.65279182963E+03  0.65279182963E+03  0.00000000000E+00 0.  1.
         24    2    1    2    0    0  0.15679729203E+03  0.29636299071E+03 -0.43245451897E+03  0.55332320997E+03  0.82056387089E+02 0.  0.
         25    2    1    2    0    0  0.25838266532E+02 -0.26155480478E+03 -0.16202828695E+02  0.29153042163E+03  0.12509565601E+03 0.  0.
        -24    2    1    2    0    0 -0.18263555856E+03 -0.34808185933E+02  0.16955444348E+04  0.17076171148E+04  0.80733656773E+02 0.  0.
        -13    1    3    3    0    0  0.97175809028E+02  0.24725485402E+03 -0.30692212101E+03  0.40593015293E+03  0.00000000000E+00 0.  1.
         14    1    3    3    0    0  0.59621483003E+02  0.49108136697E+02 -0.12553239796E+03  0.14739305704E+03  0.00000000000E+00 0. -1.
         13    1    5    5    0    0 -0.11577602499E+02 -0.28886808209E+02  0.30268754581E+03  0.30428315589E+03  0.00000000000E+00 0. -1.
        -14    1    5    5    0    0 -0.17105795606E+03 -0.59213777248E+01  0.13928568890E+04  0.14033339589E+04  0.00000000000E+00 0.  1.
          5    1    4    4  501    0  0.35961979230E+02 -0.36879271368E+02  0.32936656994E+02  0.61283279781E+02  0.41800000000E+01 0. -1.
         -5    1    4    4    0  501 -0.10123712698E+02 -0.22467553341E+03 -0.49139485689E+02  0.23024714184E+03  0.41800000000E+01 0. -1.
</event>
<event>
11    1  0.6763327E-009  0.1616699E+03  0.7561462E-02  0.1085517E+00
         22   -1    0    0    0    0  0.00000000000E+00  0.00000000000E+00  0.38182596969E+03  0.38182596969E+03  0.00000000000E+00 0.  1.
         22   -1    0    0    0    0 -0.00000000000E+00 -0.00000000000E+00 -0.13805231630E+04  0.13805231630E+04  0.00000000000E+00 0. -1.
         24    2    1    2    0    0  0.32903176804E+01 -0.58076609473E+02 -0.10689575434E+04  0.10735804260E+04  0.80752601858E+02 0.  0.
         25    2    1    2    0    0  0.64576460877E+02  0.13265701513E+03 -0.26583445117E+03  0.32875860485E+03  0.12508501856E+03 0.  0.
        -24    2    1    2    0    0 -0.67866778558E+02 -0.74580405655E+02  0.33609480126E+03  0.36001010187E+03  0.80494853745E+02 0.  0.
        -13    1    3    3    0    0 -0.37051108521E+02 -0.42230635213E+02 -0.60459094573E+03  0.60719553923E+03  0.00000000000E+00 0.  1.
         14    1    3    3    0    0  0.40341426202E+02 -0.15845974260E+02 -0.46436659769E+03  0.46638488679E+03  0.00000000000E+00 0. -1.
         11    1    5    5    0    0 -0.11833811452E+02 -0.68867849033E+02  0.14806107566E+03  0.16372202616E+03  0.00000000000E+00 0. -1.
        -12    1    5    5    0    0 -0.56032967106E+02 -0.57125566221E+01  0.18803372560E+03  0.19628807572E+03  0.00000000000E+00 0.  1.
          5    1    4    4  501    0  0.93152231059E+02  0.13140277152E+03 -0.24455903904E+03  0.29286621945E+03  0.41800000000E+01 0.  1.
         -5    1    4    4    0  501 -0.28575770182E+02  0.12542436074E+01 -0.21275412130E+02  0.35892385402E+02  0.41800000000E+01 0.  1.
</event>
<event>
11    1  0.6763327E-009  0.1584272E+03  0.7561462E-02  0.1088566E+00
         22   -1    0    0    0    0  0.00000000000E+00  0.00000000000E+00  0.19550785611E+04  0.19550785611E+04  0.00000000000E+00 0. -1.
         22   -1    0    0    0    0 -0.00000000000E+00 -0.00000000000E+00 -0.12294117515E+04  0.12294117515E+04  0.00000000000E+00 0. -1.
        -24    2    1    2    0    0  0.35676808659E+01  0.41614655100E+02 -0.11998914797E+04  0.12033124517E+04  0.80478478318E+02 0.  0.
         25    2    1    2    0    0 -0.94346103441E+02 -0.72180379192E+02  0.26621670126E+03  0.31722223989E+03  0.12508966016E+03 0.  0.
         24    2    1    2    0    0  0.90778422575E+02  0.30565724092E+02  0.16593415881E+04  0.16639556211E+04  0.78478133762E+02 0.  0.
        -13    1    5    5    0    0  0.62472160571E+02 -0.89259661100E+00  0.50669716292E+03  0.51053460460E+03  0.00000000000E+00 0.  1.
         14    1    5    5    0    0  0.28306262004E+02  0.31458320703E+02  0.11526444251E+04  0.11534210165E+04  0.00000000000E+00 0. -1.
         11    1    3    3    0    0  0.25712255115E+02  0.86865732846E+01 -0.94155656501E+03  0.94194763216E+03  0.00000000000E+00 0. -1.
        -12    1    3    3    0    0 -0.22144574249E+02  0.32928081815E+02 -0.25833491471E+03  0.26136481955E+03  0.00000000000E+00 0.  1.
          5    1    4    4  501    0 -0.31991705403E+02 -0.85109649131E+02  0.82896483540E+02  0.12311141691E+03  0.41800000000E+01 0. -1.
         -5    1    4    4    0  501 -0.62354398038E+02  0.12929269939E+02  0.18332021772E+03  0.19411082298E+03  0.41800000000E+01 0. -1.
</event>
<event>
11    1  0.6763327E-009  0.1418357E+03  0.7561462E-02  0.1105526E+00
         22   -1    0    0    0    0  0.00000000000E+00  0.00000000000E+00  0.95109591202E+02  0.95109591202E+02  0.00000000000E+00 0.  1.
         22   -1    0    0    0    0 -0.00000000000E+00 -0.00000000000E+00 -0.87091407929E+03  0.87091407929E+03  0.00000000000E+00 0.  1.
        -24    2    1    2    0    0 -0.61696336542E+02  0.15679573512E+02 -0.68088036152E+03  0.68910159075E+03  0.84915538630E+02 0.  0.
         25    2    1    2    0    0  0.92706398311E+02 -0.42333413534E+02 -0.10301781668E+03  0.19145678818E+03  0.12512568480E+03 0.  0.
         24    2    1    2    0    0 -0.31010061769E+02  0.26653840022E+02  0.80936901148E+01  0.85465291559E+02  0.74610703808E+02 0.  0.
        -11    1    5    5    0    0 -0.55630170411E+02  0.18874155648E+02  0.12687042887E+01  0.58758482127E+02  0.00000000000E+00 0.  1.
         12    1    5    5    0    0  0.24620108641E+02  0.77796843744E+01  0.68249858261E+01  0.26706809431E+02  0.00000000000E+00 0. -1.
         13    1    3    3    0    0 -0.11404212652E+00 -0.24290398410E+02 -0.76133033518E+02  0.79914174294E+02  0.00000000000E+00 0. -1.
        -14    1    3    3    0    0 -0.61582294415E+02  0.39969971921E+02 -0.60474732800E+03  0.60918741646E+03  0.00000000000E+00 0.  1.
          5    1    4    4  501    0  0.10976624294E+03 -0.67723457353E+02 -0.92757960403E+02  0.15892327200E+03  0.41800000000E+01 0.  1.
         -5    1    4    4    0  501 -0.17059844632E+02  0.25390043819E+02 -0.10259856274E+02  0.32533516176E+02  0.41800000000E+01 0.  1.
</event>
<event>
11    1  0.6763327E-009  0.1740206E+03  0.7561462E-02  0.1074585E+00
         22   -1    0    0    0    0  0.00000000000E+00  0.00000000000E+00  0.28830094527E+04  0.28830094527E+04  0.00000000000E+00 0.  1.
         22   -1    0    0    0    0 -0.00000000000E+00 -0.00000000000E+00 -0.36661399087E+02  0.36661399087E+02  0.00000000000E+00 0.  1.
         24    2    1    2    0    0  0.15245224139E+02 -0.24431831438E+02  0.68341855506E+02  0.11010376001E+03  0.81381186448E+02 0.  0.
         25    2    1    2    0    0 -0.10508402105E+03  0.99008612244E+02  0.67013786001E+03  0.69683344153E+03  0.12508691797E+03 0.  0.
        -24    2    1    2    0    0  0.89838796912E+02 -0.74576780806E+02  0.21078683381E+04  0.21127336502E+04  0.83077316048E+02 0.  0.
        -13    1    3    3    0    0  0.12257436814E+02  0.82154886385E+01 -0.14697729359E+02  0.20826959911E+02  0.00000000000E+00 0.  1.
         14    1    3    3    0    0  0.29877873244E+01 -0.32647320077E+02  0.83039584865E+02  0.89276800099E+02  0.00000000000E+00 0. -1.
         11    1    5    5    0    0  0.57882193315E+02 -0.13802766158E+02  0.52220955336E+03  0.52558889093E+03  0.00000000000E+00 0. -1.
        -12    1    5    5    0    0  0.31956603597E+02 -0.60774014648E+02  0.15856587847E+04  0.15871447593E+04  0.00000000000E+00 0.  1.
          5    1    4    4  501    0  0.20194747023E+02 -0.89313062398E+01  0.13017177741E+03  0.13209754000E+03  0.41800000000E+01 0.  1.
         -5    1    4    4    0  501 -0.12527876807E+03  0.10793991848E+03  0.53996608259E+03  0.56473590154E+03  0.41800000000E+01 0.  1.
</event>
<event>
11    1  0.6763327E-009  0.1347364E+03  0.7561462E-02  0.1113583E+00
         22   -1    0    0    0    0  0.00000000000E+00  0.00000000000E+00  0.41157320553E+03  0.41157320553E+03  0.00000000000E+00 0. -1.
         22   -1    0    0    0    0 -0.00000000000E+00 -0.00000000000E+00 -0.16275443695E+04  0.16275443695E+04  0.00000000000E+00 0.  1.
         24    2    1    2    0    0 -0.35912713602E+02 -0.34149617216E+02 -0.15665348998E+04  0.15693372458E+04  0.79573106815E+02 0.  0.
         25    2    1    2    0    0  0.58135141077E+02  0.71389508712E+02  0.62274491125E+02  0.16733819324E+03  0.12509117510E+03 0.  0.
        -24    2    1    2    0    0 -0.22222427475E+02 -0.37239891496E+02  0.28828924470E+03  0.30244213601E+03  0.80497895773E+02 0.  0.
        -13    1    3    3    0    0 -0.29057080779E+02  0.39645036108E+01 -0.12631959599E+04  0.12635363328E+04  0.00000000000E+00 0.  1.
         14    1    3    3    0    0 -0.68556328229E+01 -0.38114120827E+02 -0.30333893990E+03  0.30580091296E+03  0.00000000000E+00 0. -1.
         13    1    5    5    0    0  0.18362332943E+02  0.18414912816E+01  0.17444634059E+03  0.17541975974E+03  0.00000000000E+00 0. -1.
        -14    1    5    5    0    0 -0.40584760419E+02 -0.39081382777E+02  0.11384290411E+03  0.12702237628E+03  0.00000000000E+00 0.  1.
          5    1    4    4  501    0 -0.13714197235E+02  0.57426598249E+02 -0.14751953609E+02  0.60999884651E+02  0.41800000000E+01 0.  1.
         -5    1    4    4    0  501  0.71849338312E+02  0.13962910463E+02  0.77026444734E+02  0.10633830859E+03  0.41800000000E+01 0.  1.
</event>
<event>
11    1  0.6763327E-009  0.1352145E+03  0.7561462E-02  0.1113023E+00
         22   -1    0    0    0    0  0.00000000000E+00  0.00000000000E+00  0.39208945369E+03  0.39208945369E+03  0.00000000000E+00 0.  1.
         22   -1    0    0    0    0 -0.00000000000E+00 -0.00000000000E+00 -0.88035139048E+03  0.88035139048E+03  0.00000000000E+00 0. -1.
         24    2    1    2    0    0 -0.14002685108E+02 -0.31722519192E+02 -0.70281787078E+03  0.70752360145E+03  0.73717662138E+02 0.  0.
         25    2    1    2    0    0  0.61769956652E+02  0.13111085378E+02 -0.13981489301E+03  0.19794772127E+03  0.12509063892E+03 0.  0.
        -24    2    1    2    0    0 -0.47767271544E+02  0.18611433814E+02  0.35437082700E+03  0.36696952144E+03  0.80373185473E+02 0.  0.
        -13    1    3    3    0    0 -0.24139973661E+02 -0.51308201300E+02 -0.41402666275E+03  0.41789154971E+03  0.00000000000E+00 0.  1.
         14    1    3    3    0    0  0.10137288553E+02  0.19585682108E+02 -0.28879120803E+03  0.28963205174E+03  0.00000000000E+00 0. -1.
         13    1    5    5    0    0 -0.32149801241E+02  0.42882163480E+01  0.38297517365E+02  0.50186635229E+02  0.00000000000E+00 0. -1.
        -14    1    5    5    0    0 -0.15617470303E+02  0.14323217466E+02  0.31607330963E+03  0.31678288621E+03  0.00000000000E+00 0.  1.
          5    1    4    4  501    0 -0.34151012742E+02 -0.18285987588E+02 -0.34923035335E+02  0.52323606627E+02  0.41800000000E+01 0.  1.
         -5    1    4    4    0  501  0.95920969394E+02  0.31397072966E+02 -0.10489185767E+03  0.14562411464E+03  0.41800000000E+01 0.  1.
</event>
<event>
11    1  0.6763327E-009  0.1604236E+03  0.7561462E-02  0.1086680E+00
         22   -1    0    0    0    0  0.00000000000E+00  0.00000000000E+00  0.14190007811E+04  0.14190007811E+04  0.00000000000E+00 0.  1.
         22   -1    0    0    0    0 -0.00000000000E+00 -0.00000000000E+00 -0.29072367858E+03  0.29072367858E+03  0.00000000000E+00 0.  1.
         24    2    1    2    0    0  0.97390099909E+01  0.21577844539E+02 -0.23543903171E+03  0.25076746991E+03  0.83020085646E+02 0.  0.
         25    2    1    2    0    0 -0.79035947469E+02  0.51975970058E+02  0.94500372875E+02  0.18310229503E+03  0.12509175639E+03 0.  0.
        -24    2    1    2    0    0  0.69296937478E+02 -0.73553814598E+02  0.12692157614E+04  0.12758546948E+04  0.81757715332E+02 0.  0.
        -13    1    3    3    0    0 -0.22945454535E+02  0.65919000003E+01 -0.19580027216E+03  0.19725033234E+03  0.00000000000E+00 0.  1.
         14    1    3    3    0    0  0.32684464526E+02  0.14985944539E+02 -0.39638759555E+02  0.53517137574E+02  0.00000000000E+00 0. -1.
         11    1    5    5    0    0  0.53279880798E+01 -0.55958114203E+02  0.37601355377E+03  0.38019191289E+03  0.00000000000E+00 0. -1.
        -12    1    5    5    0    0  0.63968949398E+02 -0.17595700395E+02  0.89320220762E+03  0.89566278189E+03  0.00000000000E+00 0.  1.
          5    1    4    4  501    0  0.11409511879E+02  0.34307105657E+01  0.78042565105E+02  0.79057327962E+02  0.41800000000E+01 0. -1.
         -5    1    4    4    0  501 -0.90445459348E+02  0.48545259493E+02  0.16457807770E+02  0.10404496707E+03  0.41800000000E+01 0. -1.
</event>
<event>
11    1  0.6763327E-009  0.2043112E+03  0.7561462E-02  0.1051516E+00
         22   -1    0    0    0    0  0.00000000000E+00  0.00000000000E+00  0.91423945271E+03  0.91423945271E+03  0.00000000000E+00 0. -1.
         22   -1    0    0    0    0 -0.00000000000E+00 -0.00000000000E+00 -0.77306644349E+03  0.77306644349E+03  0.00000000000E+00 0. -1.
        -24    2    1    2    0    0  0.15978038027E+03 -0.72656741273E+01 -0.63531617650E+03  0.66002616333E+03  0.80158170035E+02 0.  0.
         25    2    1    2    0    0 -0.17045126505E+03  0.68362366434E+02 -0.21287991065E+02  0.22321834523E+03  0.12508478797E+03 0.  0.
         24    2    1    2    0    0  0.10670884778E+02 -0.61096692307E+02  0.79777717679E+03  0.80406138763E+03  0.78864552800E+02 0.  0.
        -13    1    5    5    0    0 -0.76477900467E+01  0.34562227707E+01  0.85284682379E+01  0.11965322349E+02  0.00000000000E+00 0.  1.
         14    1    5    5    0    0  0.18318674825E+02 -0.64552915077E+02  0.78924870855E+03  0.79209606528E+03  0.00000000000E+00 0. -1.
         11    1    3    3    0    0  0.50481472075E+02 -0.38840993381E+02 -0.26964638755E+03  0.27706709676E+03  0.00000000000E+00 0. -1.
        -12    1    3    3    0    0  0.10929890820E+03  0.31575319254E+02 -0.36566978895E+03  0.38295906657E+03  0.00000000000E+00 0.  1.
          5    1    4    4  501    0 -0.11572919933E+03  0.10052998079E+02  0.39409123932E+02  0.12273899868E+03  0.41800000000E+01 0. -1.
         -5    1    4    4    0  501 -0.54722065724E+02  0.58309368356E+02 -0.60697114997E+02  0.10047934655E+03  0.41800000000E+01 0. -1.
</event>
<event>
11    1  0.6763327E-009  0.1573373E+03  0.7561462E-02  0.1089609E+00
         22   -1    0    0    0    0  0.00000000000E+00  0.00000000000E+00  0.42200149851E+03  0.42200149851E+03  0.00000000000E+00 0. -1.
         22   -1    0    0    0    0 -0.00000000000E+00 -0.00000000000E+00 -0.52700684358E+03  0.52700684358E+03  0.00000000000E+00 0.  1.
         24    2    1    2    0    0 -0.21912321635E+02  0.13786980785E+02 -0.32239417807E+03  0.33341429321E+03  0.80974404491E+02 0.  0.
         25    2    1    2    0    0 -0.30357591651E+02 -0.93649537372E+02 -0.15531796468E+03  0.22240306758E+03  0.12509050762E+03 0.  0.
        -24    2    1    2    0    0  0.52269913286E+02  0.79862556587E+02  0.37270679768E+03  0.39319098130E+03  0.81108686057E+02 0.  0.
        -11    1    3    3    0    0 -0.23656151851E+02 -0.51521478689E+01 -0.30947871573E+03  0.31042428004E+03  0.00000000000E+00 0.  1.
         12    1    3    3    0    0  0.17438302160E+01  0.18939128654E+02 -0.12915462340E+02  0.22990013167E+02  0.00000000000E+00 0. -1.
         11    1    5    5    0    0  0.65782491120E+02  0.61922359897E+02  0.34912742769E+03  0.36062678153E+03  0.00000000000E+00 0. -1.
        -12    1    5    5    0    0 -0.13512577834E+02  0.17940196690E+02  0.23579369994E+02  0.32564199765E+02  0.00000000000E+00 0.  1.
          5    1    4    4  501    0  0.88044125379E+01 -0.45010426268E+02 -0.15299364861E+03  0.15977479484E+03  0.41800000000E+01 0. -1.
         -5    1    4    4    0  501 -0.39162004189E+02 -0.48639111103E+02 -0.23243160728E+01  0.62628272739E+02  0.41800000000E+01 0. -1.
</event>
<event>
11    1  0.6763327E-009  0.1809144E+03  0.7561462E-02  0.1068906E+00
         22   -1    0    0    0    0  0.00000000000E+00  0.00000000000E+00  0.14823814995E+04  0.14823814995E+04  0.00000000000E+00 0. -1.
         22   -1    0    0    0    0 -0.00000000000E+00 -0.00000000000E+00 -0.73039130264E+03  0.73039130264E+03  0.00000000000E+00 0. -1.
        -24    2    1    2    0    0  0.12273658006E+03  0.53668704906E+02 -0.68649449682E+03  0.70433276409E+03  0.82857410239E+02 0.  0.
         25    2    1    2    0    0 -0.54429202690E+02 -0.52605603773E+02  0.13020106937E+03  0.19578285259E+03  0.12509484101E+03 0.  0.
         24    2    1    2    0    0 -0.68307377373E+02 -0.10631011330E+01  0.13082836243E+04  0.13126571855E+04  0.82436745177E+02 0.  0.
        -11    1    5    5    0    0  0.29380015978E+00 -0.31805187902E+02  0.36565939361E+03  0.36704011828E+03  0.00000000000E+00 0.  1.
         12    1    5    5    0    0 -0.68601177533E+02  0.30742086769E+02  0.94262423072E+03  0.94561706721E+03  0.00000000000E+00 0. -1.
         11    1    3    3    0    0  0.83103248513E+02  0.12410633226E+02 -0.24201081372E+03  0.25618237193E+03  0.00000000000E+00 0. -1.
        -12    1    3    3    0    0  0.39633331549E+02  0.41258071679E+02 -0.44448368310E+03  0.44815039216E+03  0.00000000000E+00 0.  1.
          5    1    4    4  501    0  0.38232551909E+02 -0.34489612802E+02  0.48374280829E+02  0.70772910513E+02  0.41800000000E+01 0.  1.
         -5    1    4    4    0  501 -0.92661754598E+02 -0.18115990971E+02  0.81826788544E+02  0.12500994207E+03  0.41800000000E+01 0.  1.
</event>
<event>
11    1  0.6763327E-009  0.1486144E+03  0.7561462E-02  0.1098303E+00
         22   -1    0    0    0    0  0.00000000000E+00  0.00000000000E+00  0.85011796922E+03  0.85011796922E+03  0.00000000000E+00 0.  1.
         22   -1    0    0    0    0 -0.00000000000E+00 -0.00000000000E+00 -0.39699820400E+03  0.39699820400E+03  0.00000000000E+00 0.  1.
        -24    2    1    2    0    0  0.48668868271E+02 -0.65841283409E+02 -0.23074168822E+03  0.25737631441E+03  0.79354314298E+02 0.  0.
         25    2    1    2    0    0 -0.75121116835E+02 -0.11214348809E+02 -0.11286111740E+03  0.18480783478E+03  0.12508940867E+03 0.  0.
         24    2    1    2    0    0  0.26452248564E+02  0.77055632218E+02  0.79672257084E+03  0.80493202402E+03  0.80693348543E+02 0.  0.
        -13    1    5    5    0    0  0.46558298559E+02  0.16398321070E+02  0.41072922205E+03  0.41368475189E+03  0.00000000000E+00 0.  1.
         14    1    5    5    0    0 -0.20106049995E+02  0.60657311148E+02  0.38599334879E+03  0.39124727214E+03  0.00000000000E+00 0. -1.
         11    1    3    3    0    0  0.20056694926E+02  0.15487808009E+02 -0.32602098846E+02  0.41292130697E+02  0.00000000000E+00 0. -1.
        -12    1    3    3    0    0  0.28612173344E+02 -0.81329091418E+02 -0.19813958938E+03  0.21608418372E+03  0.00000000000E+00 0.  1.
          5    1    4    4  501    0  0.24117536042E+02 -0.36362160576E+02 -0.36030137741E+02  0.56740686391E+02  0.41800000000E+01 0. -1.
         -5    1    4    4    0  501 -0.99238652877E+02  0.25147811767E+02 -0.76830979660E+02  0.12806714839E+03  0.41800000000E+01 0. -1.
</event>
<event>
11    1  0.6763327E-009  0.1956010E+03  0.7561462E-02  0.1057679E+00
         22   -1    0    0    0    0  0.00000000000E+00  0.00000000000E+00  0.71952557535E+03  0.71952557535E+03  0.00000000000E+00 0. -1.
         22   -1    0    0    0    0 -0.00000000000E+00 -0.00000000000E+00 -0.24411579418E+04  0.24411579418E+04  0.00000000000E+00 0.  1.
         24    2    1    2    0    0 -0.27971661032E+02 -0.21417750255E+02 -0.16524878994E+04  0.16547668447E+04  0.79346826117E+02 0.  0.
         25    2    1    2    0    0 -0.12061767592E+03 -0.40521141623E+01 -0.76752645274E+03  0.78696679668E+03  0.12511930325E+03 0.  0.
        -24    2    1    2    0    0  0.14858933695E+03  0.25469864417E+02  0.69838198571E+03  0.71894987575E+03  0.80149989641E+02 0.  0.
        -13    1    3    3    0    0  0.33177167321E+01 -0.41145260047E+02 -0.12206229324E+04  0.12213207125E+04  0.00000000000E+00 0.  1.
         14    1    3    3    0    0 -0.31289377764E+02  0.19727509792E+02 -0.43186496705E+03  0.43344613226E+03  0.00000000000E+00 0. -1.
         13    1    5    5    0    0  0.50942605743E+02 -0.88533338276E+01  0.39561960250E+03  0.39898421082E+03  0.00000000000E+00 0. -1.
        -14    1    5    5    0    0  0.97646731210E+02  0.34323198245E+02  0.30276238320E+03  0.31996566493E+03  0.00000000000E+00 0.  1.
          5    1    4    4  501    0 -0.12098756367E+03  0.13833238971E+02 -0.38112420728E+03  0.40012808304E+03  0.41800000000E+01 0. -1.
         -5    1    4    4    0  501  0.36988774579E+00 -0.17885353133E+02 -0.38640224546E+03  0.38683871364E+03  0.41800000000E+01 0. -1.
</event>
<event>
11    1  0.6763327E-009  0.1702815E+03  0.7561462E-02  0.1077787E+00
         22   -1    0    0    0    0  0.00000000000E+00  0.00000000000E+00  0.11282354085E+04  0.11282354085E+04  0.00000000000E+00 0.  1.
         22   -1    0    0    0    0 -0.00000000000E+00 -0.00000000000E+00 -0.73803072295E+02  0.73803072295E+02  0.00000000000E+00 0. -1.
        -24    2    1    2    0    0 -0.96455374062E+02 -0.67422753821E+02  0.38683219661E+02  0.14730647061E+03  0.79707828229E+02 0.  0.
         25    2    1    2    0    0  0.90430756827E+02  0.56095363089E+02  0.38372293531E+03  0.41739065297E+03  0.12508898659E+03 0.  0.
         24    2    1    2    0    0  0.60246172349E+01  0.11327390732E+02  0.63202618122E+03  0.63734135720E+03  0.81131412279E+02 0.  0.
        -13    1    5    5    0    0 -0.22501109621E+02  0.35970109922E+02  0.40381694851E+03  0.40603974761E+03  0.00000000000E+00 0.  1.
         14    1    5    5    0    0  0.28525726856E+02 -0.24642719190E+02  0.22820923271E+03  0.23130160959E+03  0.00000000000E+00 0. -1.
         13    1    3    3    0    0 -0.81302820469E+02 -0.19444919708E+02 -0.39949667613E+00  0.83596729100E+02  0.00000000000E+00 0. -1.
        -14    1    3    3    0    0 -0.15152553593E+02 -0.47977834113E+02  0.39082716337E+02  0.63709741507E+02  0.00000000000E+00 0.  1.
          5    1    4    4  501    0  0.90393673347E+02 -0.14491048916E+02  0.18482951742E+03  0.20630179250E+03  0.41800000000E+01 0.  1.
         -5    1    4    4    0  501  0.37083480035E-01  0.70586412004E+02  0.19889341789E+03  0.21108886047E+03  0.41800000000E+01 0.  1.
</event>
<event>
11    1  0.6763327E-009  0.1983102E+03  0.7561462E-02  0.1055725E+00
         22   -1    0    0    0    0  0.00000000000E+00  0.00000000000E+00  0.24581628620E+03  0.24581628620E+03  0.00000000000E+00 0. -1.
         22   -1    0    0    0    0 -0.00000000000E+00 -0.00000000000E+00 -0.26463562645E+04  0.26463562645E+04  0.00000000000E+00 0. -1.
         24    2    1    2    0    0 -0.11589490332E+03 -0.98511400262E+02 -0.22136042251E+04  0.22203478030E+04  0.82247043478E+02 0.  0.
         25    2    1    2    0    0  0.95535189694E+02  0.14625114220E+03 -0.39138407633E+03  0.44648134712E+03  0.12509088319E+03 0.  0.
        -24    2    1    2    0    0  0.20359713623E+02 -0.47739741936E+02  0.20444832308E+03  0.22534340067E+03  0.79290166557E+02 0.  0.
        -11    1    3    3    0    0 -0.20485211029E+02 -0.63897292748E+02 -0.65040456730E+03  0.65385671906E+03  0.00000000000E+00 0.  1.
         12    1    3    3    0    0 -0.95409692288E+02 -0.34614107515E+02 -0.15631996578E+04  0.15664910839E+04  0.00000000000E+00 0. -1.
         11    1    5    5    0    0  0.51104860536E+02 -0.29784986329E+02  0.12598368457E+03  0.13917880930E+03  0.00000000000E+00 0. -1.
        -12    1    5    5    0    0 -0.30745146913E+02 -0.17954755608E+02  0.78464638516E+02  0.86164591365E+02  0.00000000000E+00 0.  1.
          5    1    4    4  501    0  0.14377158946E+02  0.13006337862E+03 -0.21752000641E+03  0.25388109569E+03  0.41800000000E+01 0. -1.
         -5    1    4    4    0  501  0.81158030748E+02  0.16187763581E+02 -0.17386406991E+03  0.19260025143E+03  0.41800000000E+01 0. -1.
</event>
<event>
11    1  0.6763327E-009  0.1346556E+03  0.7561462E-02  0.1113677E+00
         22   -1    0    0    0    0  0.00000000000E+00  0.00000000000E+00  0.44660902152E+03  0.44660902152E+03  0.00000000000E+00 0. -1.
         22   -1    0    0    0    0 -0.00000000000E+00 -0.00000000000E+00 -0.79949315976E+03  0.79949315976E+03  0.00000000000E+00 0.  1.
         24    2    1    2    0    0  0.49626137937E+02 -0.19432530463E+01 -0.69166691233E+03  0.69799370462E+03  0.79533416114E+02 0.  0.
         25    2    1    2    0    0 -0.53078787932E+02 -0.28822336264E+02 -0.51739840679E+02  0.14823409995E+03  0.12509297534E+03 0.  0.
        -24    2    1    2    0    0  0.34526499957E+01  0.30765589310E+02  0.39052261477E+03  0.39987437670E+03  0.80206996085E+02 0.  0.
        -13    1    3    3    0    0  0.26732387478E+02  0.34335942463E+02 -0.48339380106E+03  0.48534847727E+03  0.00000000000E+00 0.  1.
         14    1    3    3    0    0  0.22893750459E+02 -0.36279195509E+02 -0.20827311127E+03  0.21264522735E+03  0.00000000000E+00 0. -1.
         13    1    5    5    0    0  0.49395988375E+01 -0.27330229562E+02  0.11802687071E+03  0.12125049812E+03  0.00000000000E+00 0. -1.
        -14    1    5    5    0    0 -0.14869488418E+01  0.58095818873E+02  0.27249574406E+03  0.27862387858E+03  0.00000000000E+00 0.  1.
          5    1    4    4  501    0 -0.29240679438E+02  0.33295392923E+02 -0.66435996877E+02  0.79967584713E+02  0.41800000000E+01 0. -1.
         -5    1    4    4    0  501 -0.23838108495E+02 -0.62117729187E+02  0.14696156198E+02  0.68266515239E+02  0.41800000000E+01 0. -1.
</event>
<event>
11    1  0.6763327E-009  0.1343456E+03  0.7561462E-02  0.1114042E+00
         22   -1    0    0    0    0  0.00000000000E+00  0.00000000000E+00  0.23052979677E+04  0.23052979677E+04  0.00000000000E+00 0.  1.
         22   -1    0    0    0    0 -0.00000000000E+00 -0.00000000000E+00 -0.12441740946E+04  0.12441740946E+04  0.00000000000E+00 0.  1.
         24    2    1    2    0    0 -0.23660636667E+02 -0.43058336125E+02 -0.12200278171E+04  0.12237236122E+04  0.81349607588E+02 0.  0.
         25    2    1    2    0    0  0.35129252594E+02  0.20251784314E+02  0.17953513313E+03  0.22254178482E+03  0.12509109804E+03 0.  0.
        -24    2    1    2    0    0 -0.11468615927E+02  0.22806551811E+02  0.21016165570E+04  0.21032066653E+04  0.77681763210E+02 0.  0.
        -11    1    3    3    0    0 -0.29388515662E+02 -0.65138331698E+02 -0.85332382001E+03  0.85631082494E+03  0.00000000000E+00 0.  1.
         12    1    3    3    0    0  0.57278789947E+01  0.22079995573E+02 -0.36670399704E+03  0.36741278727E+03  0.00000000000E+00 0. -1.
         13    1    5    5    0    0 -0.78460074552E+01  0.47839811489E+02  0.88469305428E+03  0.88602032013E+03  0.00000000000E+00 0. -1.
        -14    1    5    5    0    0 -0.36226084718E+01 -0.25033259678E+02  0.12169235027E+04  0.12171863451E+04  0.00000000000E+00 0.  1.
          5    1    4    4  501    0  0.82161950114E+02  0.15804849518E+02  0.12173367145E+03  0.14777326713E+03  0.41800000000E+01 0.  1.
         -5    1    4    4    0  501 -0.47032697520E+02  0.44469347952E+01  0.57801461681E+02  0.74768517690E+02  0.41800000000E+01 0.  1.
</event>
<event>
11    1  0.6763327E-009  0.1287086E+03  0.7561462E-02  0.1120866E+00
         22   -1    0    0    0    0  0.00000000000E+00  0.00000000000E+00  0.82580691405E+03  0.82580691405E+03  0.00000000000E+00 0. -1.
         22   -1    0    0    0    0 -0.00000000000E+00 -0.00000000000E+00 -0.21537817061E+04  0.21537817061E+04  0.00000000000E+00 0. -1.
         24    2    1    2    0    0  0.13640328828E+02 -0.26933719959E+02 -0.21261376876E+04  0.21280212255E+04  0.84269720846E+02 0.  0.
         25    2    1    2    0    0 -0.21752365122E+02  0.50361583421E+02  0.17072461595E+03  0.21864038572E+03  0.12508904550E+03 0.  0.
        -24    2    1    2    0    0  0.81120362940E+01 -0.23427863463E+02  0.62743827959E+03  0.63292700890E+03  0.79392279095E+02 0.  0.
        -11    1    3    3    0    0  0.44311178027E+02 -0.11461850734E+01 -0.75650652974E+03  0.75780401410E+03  0.00000000000E+00 0.  1.
         12    1    3    3    0    0 -0.30670849199E+02 -0.25787534885E+02 -0.13696311579E+04  0.13702172115E+04  0.00000000000E+00 0. -1.
         13    1    5    5    0    0  0.40209087723E+02 -0.23183031221E+02  0.46759005159E+03  0.46988794410E+03  0.00000000000E+00 0. -1.
        -14    1    5    5    0    0 -0.32097051429E+02 -0.24483224129E+00  0.15984822801E+03  0.16303906480E+03  0.00000000000E+00 0.  1.
          5    1    4    4  501    0 -0.58494130400E+01  0.86806701506E+02  0.75158273046E+02  0.11504719669E+03  0.41800000000E+01 0.  1.
         -5    1    4    4    0  501 -0.15902952082E+02 -0.36445118084E+02  0.95566342901E+02  0.10359318903E+03  0.41800000000E+01 0.  1.
</event>
<event>
11    1  0.6763327E-009  0.1883821E+03  0.7561462E-02  0.1063057E+00
         22   -1    0    0    0    0  0.00000000000E+00  0.00000000000E+00  0.14244718583E+04  0.14244718583E+04  0.00000000000E+00 0. -1.
         22   -1    0    0    0    0 -0.00000000000E+00 -0.00000000000E+00 -0.10536944129E+03  0.10536944129E+03  0.00000000000E+00 0. -1.
        -24    2    1    2    0    0  0.53908411613E+02  0.52750338335E+02 -0.16077852908E+02  0.10939511880E+03  0.77589172097E+02 0.  0.
         25    2    1    2    0    0 -0.18707825949E+03 -0.51649685822E+02  0.32684051701E+03  0.40017300153E+03  0.12509093641E+03 0.  0.
         24    2    1    2    0    0  0.13316984788E+03 -0.11006525127E+01  0.10083397530E+04  0.10202731793E+04  0.80454230559E+02 0.  0.
        -13    1    5    5    0    0  0.49724136475E+01  0.16054691655E+02  0.40792758146E+02  0.44119464398E+02  0.00000000000E+00 0.  1.
         14    1    5    5    0    0  0.12819743423E+03 -0.17155344168E+02  0.96754699481E+03  0.97615371491E+03  0.00000000000E+00 0. -1.
         11    1    3    3    0    0  0.45910331442E+02  0.39698305549E+02 -0.45751322430E+02  0.76005904381E+02  0.00000000000E+00 0. -1.
        -12    1    3    3    0    0  0.79980801709E+01  0.13052032786E+02  0.29673469522E+02  0.33389214423E+02  0.00000000000E+00 0.  1.
          5    1    4    4  501    0 -0.15020203158E+03 -0.97072546276E+01  0.14176053910E+03  0.20680523187E+03  0.41800000000E+01 0.  1.
         -5    1    4    4    0  501 -0.36876227915E+02 -0.41942431195E+02  0.18507997791E+03  0.19336776966E+03  0.41800000000E+01 0.  1.
</event>
<event>
11    1  0.6763327E-009  0.1475113E+03  0.7561462E-02  0.1099449E+00
         22   -1    0    0    0    0  0.00000000000E+00  0.00000000000E+00  0.14560295945E+04  0.14560295945E+04  0.00000000000E+00 0.  1.
         22   -1    0    0    0    0 -0.00000000000E+00 -0.00000000000E+00 -0.14163733984E+03  0.14163733984E+03  0.00000000000E+00 0.  1.
        -24    2    1    2    0    0  0.56678538015E+02 -0.29784305939E+02  0.18241294611E+02  0.10572404361E+03  0.82129574556E+02 0.  0.
         25    2    1    2    0    0 -0.90185064835E+02  0.24759116756E+02 -0.33226009093E+02  0.15967776937E+03  0.12508662026E+03 0.  0.
         24    2    1    2    0    0  0.33506526820E+02  0.50251891821E+01  0.13293769691E+04  0.13322651213E+04  0.80865862110E+02 0.  0.
        -13    1    5    5    0    0  0.51478076599E+02 -0.60560905943E+01  0.12045870863E+04  0.12057017529E+04  0.00000000000E+00 0.  1.
         14    1    5    5    0    0 -0.17971549779E+02  0.11081279776E+02  0.12478988283E+03  0.12656336839E+03  0.00000000000E+00 0. -1.
         13    1    3    3    0    0  0.42122938727E+02 -0.54688359821E+02  0.29085252925E+02  0.74907346800E+02  0.00000000000E+00 0. -1.
        -14    1    3    3    0    0  0.14555599288E+02  0.24904053883E+02 -0.10843958314E+02  0.30816696811E+02  0.00000000000E+00 0.  1.
          5    1    4    4  501    0 -0.33458371031E+02  0.62244105471E+02 -0.53354176591E+02  0.88644976268E+02  0.41800000000E+01 0. -1.
         -5    1    4    4    0  501 -0.56726693804E+02 -0.37484988715E+02  0.20128167497E+02  0.71032793100E+02  0.41800000000E+01 0. -1.
</event>
<event>
11    1  0.6763327E-009  0.2929401E+03  0.7561462E-02  0.1003224E+00
         22   -1    0    0    0    0  0.00000000000E+00  0.00000000000E+00  0.91707271773E+03  0.91707271773E+03  0.00000000000E+00 0. -1.
         22   -1    0    0    0    0 -0.00000000000E+00 -0.00000000000E+00 -0.35475926004E+03  0.35475926004E+03  0.00000000000E+00 0. -1.
         24    2    1    2    0    0  0.58318045985E+02 -0.11783198813E+03 -0.31324488790E+03  0.34856801781E+03  0.78050825296E+02 0.  0.
         25    2    1    2    0    0  0.10620792276E+01  0.39457200410E+01  0.25072069765E+03  0.28022363531E+03  0.12509085033E+03 0.  0.
        -24    2    1    2    0    0 -0.59380125212E+02  0.11388626809E+03  0.62483764794E+03  0.64304032464E+03  0.81133787718E+02 0.  0.
        -13    1    3    3    0    0  0.17724773272E+02 -0.81927220030E+02 -0.25759472496E+03  0.27088979180E+03  0.00000000000E+00 0.  1.
         14    1    3    3    0    0  0.40593272713E+02 -0.35904768103E+02 -0.55650162939E+02  0.77678226018E+02  0.00000000000E+00 0. -1.
         11    1    5    5    0    0 -0.54934181027E+02  0.48543789345E+02  0.45761119620E+03  0.46344608167E+03  0.00000000000E+00 0. -1.
        -12    1    5    5    0    0 -0.44459441857E+01  0.65342478746E+02  0.16722645173E+03  0.17959424297E+03  0.00000000000E+00 0.  1.
          5    1    4    4  501    0  0.51684172264E+02  0.26740338293E+02  0.70019080561E+02  0.91139691667E+02  0.41800000000E+01 0.  1.
         -5    1    4    4    0  501 -0.50622093036E+02 -0.22794618252E+02  0.18070161709E+03  0.18908394365E+03  0.41800000000E+01 0.  1.
</event>
<event>
11    1  0.6763327E-009  0.1587305E+03  0.7561462E-02  0.1088277E+00
         22   -1    0    0    0    0  0.00000000000E+00  0.00000000000E+00  0.10954178975E+04  0.10954178975E+04  0.00000000000E+00 0.  1.
         22   -1    0    0    0    0 -0.00000000000E+00 -0.00000000000E+00 -0.22937580575E+03  0.22937580575E+03  0.00000000000E+00 0. -1.
         24    2    1    2    0    0 -0.19794979066E+02  0.72942069521E+02 -0.16638151546E+03  0.19944423909E+03  0.79892484725E+02 0.  0.
         25    2    1    2    0    0 -0.89340606068E+01  0.28206698677E+02  0.56687806958E+02  0.14048051904E+03  0.12508330617E+03 0.  0.
        -24    2    1    2    0    0  0.28729039673E+02 -0.10114876820E+03  0.97573580029E+03  0.98486894515E+03  0.82765065858E+02 0.  0.
        -11    1    3    3    0    0 -0.22108422618E+02 -0.92417583630E+01 -0.18607282381E+02  0.30338480613E+02  0.00000000000E+00 0.  1.
         12    1    3    3    0    0  0.23134435513E+01  0.82183827884E+02 -0.14777423308E+03  0.16910575848E+03  0.00000000000E+00 0. -1.
         11    1    5    5    0    0  0.68316654128E+01 -0.74935198893E+01  0.96203856366E+01  0.13977707696E+02  0.00000000000E+00 0. -1.
        -12    1    5    5    0    0  0.21897374260E+02 -0.93655248308E+02  0.96611541465E+03  0.97089123745E+03  0.00000000000E+00 0.  1.
          5    1    4    4  501    0 -0.65391863469E+02  0.29328125642E+02  0.28642714728E+02  0.77292381698E+02  0.41800000000E+01 0. -1.
         -5    1    4    4    0  501  0.56457802862E+02 -0.11214269650E+01  0.28045092230E+02  0.63188137341E+02  0.41800000000E+01 0. -1.
</event>
<event>
11    1  0.6763327E-009  0.1487295E+03  0.7561462E-02  0.1098184E+00
         22   -1    0    0    0    0  0.00000000000E+00  0.00000000000E+00  0.14771227431E+04  0.14771227431E+04  0.00000000000E+00 0. -1.
         22   -1    0    0    0    0 -0.00000000000E+00 -0.00000000000E+00 -0.69455790747E+03  0.69455790747E+03  0.00000000000E+00 0.  1.
        -24    2    1    2    0    0  0.15826785760E+02 -0.29785841493E+02 -0.65437092844E+03  0.66028339265E+03  0.81456510615E+02 0.  0.
         25    2    1    2    0    0  0.42046981066E+02 -0.29145785900E+02  0.96666580431E+02  0.16616563245E+03  0.12509661939E+03 0.  0.
         24    2    1    2    0    0 -0.57873766827E+02  0.58931627392E+02  0.13402691836E+04  0.13452316254E+04  0.80649438534E+02 0.  0.
        -11    1    5    5    0    0 -0.10706833569E+02 -0.16986201416E+02  0.11775181862E+03  0.11945148852E+03  0.00000000000E+00 0.  1.
         12    1    5    5    0    0 -0.47166933257E+02  0.75917828808E+02  0.12225173650E+04  0.12257801369E+04  0.00000000000E+00 0. -1.
         11    1    3    3    0    0  0.39065093503E+02 -0.42259790282E+02 -0.34270708668E+03  0.34750556638E+03  0.00000000000E+00 0. -1.
        -12    1    3    3    0    0 -0.23238307743E+02  0.12473948790E+02 -0.31166384176E+03  0.31277782627E+03  0.00000000000E+00 0.  1.
          5    1    4    4  501    0 -0.93875196060E+01  0.41663513663E+02  0.12559695660E+02  0.44712327721E+02  0.41800000000E+01 0.  1.
         -5    1    4    4    0  501  0.51434500672E+02 -0.70809299563E+02  0.84106884771E+02  0.12145330473E+03  0.41800000000E+01 0.  1.
</event>
<event>
11    1  0.8767819E-009  0.1802775E+03  0.7561462E-02  0.1069419E+00
         22   -1    0    0    0    0  0.00000000000E+00  0.00000000000E+00  0.63335002411E+03  0.63335002411E+03  0.00000000000E+00 0.  1.
         22   -1    0    0    0    0 -0.00000000000E+00 -0.00000000000E+00 -0.13483306362E+04  0.13483306362E+04  0.00000000000E+00 0.  1.
        -24    2    1    2    0    0  0.14359942640E+01 -0.27671371817E+02 -0.74948854326E+03  0.75434031018E+03  0.80798887258E+02 0.  0.
         25    2    1    2    0    0 -0.65865986684E+02  0.13993074934E+03 -0.57038885253E+03  0.60407805666E+03  0.12509161696E+03 0.  0.
         24    2    1    2    0    0  0.64429992420E+02 -0.11225937752E+03  0.60489678366E+03  0.62326229351E+03  0.76173327738E+02 0.  0.
        -11    1    5    5    0    0  0.65595171995E+02 -0.86634970214E+02  0.56814823488E+03  0.57844685274E+03  0.00000000000E+00 0.  1.
         12    1    5    5    0    0 -0.11651795749E+01 -0.25624407304E+02  0.36748548783E+02  0.44815440763E+02  0.00000000000E+00 0. -1.
         11    1    3    3    0    0  0.16499400005E+02  0.12879698199E+02 -0.60944413403E+02  0.64438640203E+02  0.00000000000E+00 0. -1.
        -12    1    3    3    0    0 -0.15063405741E+02 -0.40551070016E+02 -0.68854412986E+03  0.68990166998E+03  0.00000000000E+00 0.  1.
          5    1    4    4  501    0 -0.51822358608E+01  0.29591982994E+02 -0.34115351975E+03  0.34249925177E+03  0.41800000000E+01 0. -1.
         -5    1    4    4    0  501 -0.60683750823E+02  0.11033876634E+03 -0.22923533278E+03  0.26157880489E+03  0.41800000000E+01 0. -1.
</event>
<event>
11    1  0.6763327E-009  0.1528443E+03  0.7561462E-02  0.1094007E+00
         22   -1    0    0    0    0  0.00000000000E+00  0.00000000000E+00  0.81305211195E+03  0.81305211195E+03  0.00000000000E+00 0. -1.
         22   -1    0    0    0    0 -0.00000000000E+00 -0.00000000000E+00 -0.70901667526E+03  0.70901667526E+03  0.00000000000E+00 0. -1.
        -24    2    1    2    0    0  0.45093748613E+01  0.88456544461E+02 -0.67128150444E+03  0.68210860349E+03  0.82512993125E+02 0.  0.
         25    2    1    2    0    0  0.70850298145E+02 -0.59189956710E+02  0.20633095642E+03  0.25834501866E+03  0.12508584798E+03 0.  0.
         24    2    1    2    0    0 -0.75359673006E+02 -0.29266587751E+02  0.56898598471E+03  0.58161516505E+03  0.89417760822E+02 0.  0.
        -11    1    5    5    0    0 -0.27453912862E+02 -0.35945987207E+02  0.95551356021E+02  0.10571609606E+03  0.00000000000E+00 0.  1.
         12    1    5    5    0    0 -0.47905760144E+02  0.66793994562E+01  0.47343462869E+03  0.47589906900E+03  0.00000000000E+00 0. -1.
         13    1    3    3    0    0  0.24564413377E+02  0.95889307986E+02 -0.57723954566E+03  0.58566514568E+03  0.00000000000E+00 0. -1.
        -14    1    3    3    0    0 -0.20055038516E+02 -0.74327635249E+01 -0.94041958787E+02  0.96443457819E+02  0.00000000000E+00 0.  1.
          5    1    4    4  501    0  0.44123339274E+02 -0.25134454856E+02  0.20865963692E+03  0.21479042430E+03  0.41800000000E+01 0.  1.
         -5    1    4    4    0  501  0.26726958871E+02 -0.34055501854E+02 -0.23286804989E+01  0.43554594361E+02  0.41800000000E+01 0.  1.
</event>
<event>
11    1  0.6763327E-009  0.1470347E+03  0.7561462E-02  0.1099948E+00
         22   -1    0    0    0    0  0.00000000000E+00  0.00000000000E+00  0.33183222071E+03  0.33183222071E+03  0.00000000000E+00 0.  1.
         22   -1    0    0    0    0 -0.00000000000E+00 -0.00000000000E+00 -0.21932319774E+03  0.21932319774E+03  0.00000000000E+00 0. -1.
         24    2    1    2    0    0 -0.29802377171E+02 -0.13731513691E+02 -0.12631231667E+03  0.15325299069E+03  0.80342651548E+02 0.  0.
         25    2    1    2    0    0  0.72731030300E+02  0.72201982065E+02  0.31738963260E+02  0.16479609285E+03  0.12508981352E+03 0.  0.
        -24    2    1    2    0    0 -0.42928653129E+02 -0.58470468374E+02  0.20708237637E+03  0.23310633492E+03  0.78700621616E+02 0.  0.
        -11    1    3    3    0    0 -0.28986969939E+02  0.30065575575E+02 -0.74476283282E+02  0.85386767314E+02  0.00000000000E+00 0.  1.
         12    1    3    3    0    0 -0.81540723251E+00 -0.43797089266E+02 -0.51836033390E+02  0.67866223371E+02  0.00000000000E+00 0. -1.
         13    1    5    5    0    0  0.13860072180E+02 -0.45898940685E+01  0.96626110793E+02  0.97722945184E+02  0.00000000000E+00 0. -1.
        -14    1    5    5    0    0 -0.56788725309E+02 -0.53880574306E+02  0.11045626558E+03  0.13538338973E+03  0.00000000000E+00 0.  1.
          5    1    4    4  501    0  0.38987065848E+02 -0.22833956224E+02  0.43894408051E+02  0.63131389328E+02  0.41800000000E+01 0. -1.
         -5    1    4    4    0  501  0.33743964452E+02  0.95035938290E+02 -0.12155444791E+02  0.10166470352E+03  0.41800000000E+01 0. -1.
</event>
<event>
11    1  0.6763327E-009  0.1310753E+03  0.7561462E-02  0.1117955E+00
         22   -1    0    0    0    0  0.00000000000E+00  0.00000000000E+00  0.71532834401E+03  0.71532834401E+03  0.00000000000E+00 0. -1.
         22   -1    0    0    0    0 -0.00000000000E+00 -0.00000000000E+00 -0.14527449164E+04  0.14527449164E+04  0.00000000000E+00 0. -1.
         24    2    1    2    0    0  0.50302546060E+01 -0.42721095018E+02 -0.93498038423E+03  0.93936561313E+03  0.79806270428E+02 0.  0.
         25    2    1    2    0    0 -0.32519820869E+02  0.18418640747E+02 -0.50450442482E+03  0.52112276226E+03  0.12508970223E+03 0.  0.
        -24    2    1    2    0    0  0.27489566263E+02  0.24302454271E+02  0.70206823662E+03  0.70758488508E+03  0.80188996637E+02 0.  0.
        -13    1    3    3    0    0 -0.88656069635E+01 -0.50799740715E+02 -0.31626778141E+03  0.32044425755E+03  0.00000000000E+00 0.  1.
         14    1    3    3    0    0  0.13895861570E+02  0.80786456968E+01 -0.61871260283E+03  0.61892135557E+03  0.00000000000E+00 0. -1.
         13    1    5    5    0    0  0.27150825168E+02  0.46455586578E+02  0.62728800382E+03  0.62959155694E+03  0.00000000000E+00 0. -1.
        -14    1    5    5    0    0  0.33874109453E+00 -0.22153132306E+02  0.74780232802E+02  0.77993328140E+02  0.00000000000E+00 0.  1.
          5    1    4    4  501    0 -0.60671473058E+02 -0.29818745084E+02 -0.35646615795E+03  0.36284401520E+03  0.41800000000E+01 0.  1.
         -5    1    4    4    0  501  0.28151652189E+02  0.48237385831E+02 -0.14803826687E+03  0.15827874706E+03  0.41800000000E+01 0.  1.
</event>
<event>
11    1  0.6763327E-009  0.1272629E+03  0.7561462E-02  0.1122678E+00
         22   -1    0    0    0    0  0.00000000000E+00  0.00000000000E+00  0.61923086995E+03  0.61923086995E+03  0.00000000000E+00 0.  1.
         22   -1    0    0    0    0 -0.00000000000E+00 -0.00000000000E+00 -0.46469165059E+03  0.46469165059E+03  0.00000000000E+00 0. -1.
         24    2    1    2    0    0 -0.11155853913E+01 -0.12126445875E+02 -0.40389108065E+03  0.41222689399E+03  0.81576417411E+02 0.  0.
         25    2    1    2    0    0  0.10921830297E+02 -0.98214150730E+01  0.21090281971E+02  0.12770270738E+03  0.12508970744E+03 0.  0.
        -24    2    1    2    0    0 -0.98062449058E+01  0.21947860948E+02  0.53734001803E+03  0.54399291917E+03  0.81339597317E+02 0.  0.
        -11    1    3    3    0    0  0.15640722303E+02 -0.43850803662E+02 -0.23489975243E+03  0.23946903530E+03  0.00000000000E+00 0.  1.
         12    1    3    3    0    0 -0.16756307695E+02  0.31724357787E+02 -0.16899132822E+03  0.17275785869E+03  0.00000000000E+00 0. -1.
         11    1    5    5    0    0 -0.12395695020E+02 -0.21164684136E+02  0.61706688184E+02  0.66402654136E+02  0.00000000000E+00 0. -1.
        -12    1    5    5    0    0  0.25894501145E+01  0.43112545084E+02  0.47563332985E+03  0.47759026504E+03  0.00000000000E+00 0.  1.
          5    1    4    4  501    0  0.10266244038E+02 -0.65862668951E+02  0.25122377005E+02  0.71357502439E+02  0.41800000000E+01 0.  1.
         -5    1    4    4    0  501  0.65558625874E+00  0.56041253878E+02 -0.40320950340E+01  0.56345204942E+02  0.41800000000E+01 0.  1.
</event>
<event>
11    1  0.6763327E-009  0.1640269E+03  0.7561462E-02  0.1083350E+00
         22   -1    0    0    0    0  0.00000000000E+00  0.00000000000E+00  0.73902445347E+03  0.73902445347E+03  0.00000000000E+00 0.  1.
         22   -1    0    0    0    0 -0.00000000000E+00 -0.00000000000E+00 -0.38075381276E+03  0.38075381276E+03  0.00000000000E+00 0. -1.
        -24    2    1    2    0    0 -0.97876974305E+02 -0.48545684245E+02 -0.34457058698E+03  0.37094165869E+03  0.83260069540E+02 0.  0.
         25    2    1    2    0    0  0.17444639950E+02  0.46235134189E+02  0.27510356698E+03  0.30622379115E+03  0.12509610147E+03 0.  0.
         24    2    1    2    0    0  0.80432334355E+02  0.23105500555E+01  0.42773766072E+03  0.44261281639E+03  0.80448118581E+02 0.  0.
        -11    1    5    5    0    0 -0.21892259645E+01  0.26615346876E+02  0.12753497289E+03  0.13030095437E+03  0.00000000000E+00 0.  1.
         12    1    5    5    0    0  0.82621560320E+02 -0.24304796821E+02  0.30020268783E+03  0.31231186202E+03  0.00000000000E+00 0. -1.
         11    1    3    3    0    0 -0.69357372924E+02 -0.11696667612E+02 -0.29349104872E+03  0.30180167808E+03  0.00000000000E+00 0. -1.
        -12    1    3    3    0    0 -0.28519601381E+02 -0.36849016633E+02 -0.51079538262E+02  0.69139980611E+02  0.00000000000E+00 0.  1.
          5    1    4    4  501    0 -0.28014904197E+02  0.72314500173E+02  0.12482211471E+03  0.14701106936E+03  0.41800000000E+01 0.  1.
         -5    1    4    4    0  501  0.45459544147E+02 -0.26079365983E+02  0.15028145227E+03  0.15921272179E+03  0.41800000000E+01 0.  1.
</event>
<event>
11    1  0.6763327E-009  0.1618402E+03  0.7561462E-02  0.1085359E+00
         22   -1    0    0    0    0  0.00000000000E+00  0.00000000000E+00  0.51232528110E+02  0.51232528110E+02  0.00000000000E+00 0. -1.
         22   -1    0    0    0    0 -0.00000000000E+00 -0.00000000000E+00 -0.15422785041E+04  0.15422785041E+04  0.00000000000E+00 0.  1.
        -24    2    1    2    0    0  0.26810203573E+02  0.38060863660E+02 -0.71922933726E+03  0.72511073834E+03  0.79544496439E+02 0.  0.
         25    2    1    2    0    0 -0.10860372935E+03 -0.90219680023E+02 -0.70006465225E+03  0.72503321859E+03  0.12509312546E+03 0.  0.
         24    2    1    2    0    0  0.81793525774E+02  0.52158816363E+02 -0.71751986502E+02  0.14336707531E+03  0.77427693577E+02 0.  0.
        -13    1    5    5    0    0  0.49070585566E+02  0.32316023715E+01  0.17417015400E+01  0.49207714293E+02  0.00000000000E+00 0.  1.
         14    1    5    5    0    0  0.32722940208E+02  0.48927213992E+02 -0.73493688042E+02  0.94159361016E+02  0.00000000000E+00 0. -1.
         13    1    3    3    0    0  0.16129405784E+02 -0.91563041402E+00 -0.25380657252E+02  0.30086107633E+02  0.00000000000E+00 0. -1.
        -14    1    3    3    0    0  0.10680797790E+02  0.38976494074E+02 -0.69384868001E+03  0.69502463070E+03  0.00000000000E+00 0.  1.
          5    1    4    4  501    0 -0.42635845286E+02 -0.54153604048E+02 -0.10791660830E+03  0.12811672366E+03  0.41800000000E+01 0.  1.
         -5    1    4    4    0  501 -0.65967884061E+02 -0.36066075975E+02 -0.59214804395E+03  0.59691649493E+03  0.41800000000E+01 0.  1.
</event>
<event>
11    1  0.6763327E-009  0.1733637E+03  0.7561462E-02  0.1075141E+00
         22   -1    0    0    0    0  0.00000000000E+00  0.00000000000E+00  0.12341891331E+04  0.12341891331E+04  0.00000000000E+00 0.  1.
         22   -1    0    0    0    0 -0.00000000000E+00 -0.00000000000E+00 -0.14415157647E+03  0.14415157647E+03  0.00000000000E+00 0.  1.
        -24    2    1    2    0    0 -0.28227176962E+02  0.82040101398E+01 -0.80095375634E+02  0.10630797590E+03  0.63419533592E+02 0.  0.
         25    2    1    2    0    0  0.96254839271E+02 -0.10433296373E+03  0.14878377360E+03  0.24069486144E+03  0.12508814344E+03 0.  0.
         24    2    1    2    0    0 -0.68027662309E+02  0.96128953595E+02  0.10213491587E+04  0.10313378723E+04  0.81456517540E+02 0.  0.
        -11    1    5    5    0    0 -0.71522326885E+02  0.82854198537E+02  0.99989574277E+03  0.10058686584E+04  0.00000000000E+00 0.  1.
         12    1    5    5    0    0  0.34946645763E+01  0.13274755058E+02  0.21453415926E+02  0.25469213911E+02  0.00000000000E+00 0. -1.
         11    1    3    3    0    0 -0.38249406729E+02 -0.16433139093E+02 -0.37164744348E+02  0.55805764918E+02  0.00000000000E+00 0. -1.
        -12    1    3    3    0    0  0.10022229767E+02  0.24637149233E+02 -0.42930631286E+02  0.50502210985E+02  0.00000000000E+00 0.  1.
          5    1    4    4  501    0 -0.74668464221E+01 -0.80986087494E+02  0.78957973303E+02  0.11342986428E+03  0.41800000000E+01 0. -1.
         -5    1    4    4    0  501  0.10372168569E+03 -0.23346876241E+02  0.69825800300E+02  0.12726499715E+03  0.41800000000E+01 0. -1.
</event>
<event>
11    1  0.6763327E-009  0.1798112E+03  0.7561462E-02  0.1069796E+00
         22   -1    0    0    0    0  0.00000000000E+00  0.00000000000E+00  0.63785724359E+03  0.63785724359E+03  0.00000000000E+00 0.  1.
         22   -1    0    0    0    0 -0.00000000000E+00 -0.00000000000E+00 -0.59200647287E+03  0.59200647287E+03  0.00000000000E+00 0.  1.
        -24    2    1    2    0    0 -0.55318700428E+02  0.12582965212E+03 -0.48321800531E+03  0.50894383562E+03  0.81430505283E+02 0.  0.
         25    2    1    2    0    0  0.50384666900E+02 -0.73548886081E+02 -0.27502535327E+02  0.15604995532E+03  0.12508855185E+03 0.  0.
         24    2    1    2    0    0  0.49340335281E+01 -0.52280766043E+02  0.55657131136E+03  0.56486992552E+03  0.80924563269E+02 0.  0.
        -11    1    5    5    0    0 -0.14970800488E+02 -0.65233420873E+02  0.48156815420E+03  0.48619688523E+03  0.00000000000E+00 0.  1.
         12    1    5    5    0    0  0.19904834016E+02  0.12952654830E+02  0.75003157159E+02  0.78673040289E+02  0.00000000000E+00 0. -1.
         13    1    3    3    0    0 -0.10064684988E+02  0.18070572939E+02 -0.13027402907E+02  0.24444973241E+02  0.00000000000E+00 0. -1.
        -14    1    3    3    0    0 -0.45254015440E+02  0.10775907919E+03 -0.47019060240E+03  0.48449886238E+03  0.00000000000E+00 0.  1.
          5    1    4    4  501    0  0.44895671471E+02  0.18511846407E+02  0.19447333125E+02  0.52478385454E+02  0.41800000000E+01 0.  1.
         -5    1    4    4    0  501  0.54889954292E+01 -0.92060732488E+02 -0.46949868452E+02  0.10357156987E+03  0.41800000000E+01 0.  1.
</event>
<event>
11    1  0.6763327E-009  0.1538914E+03  0.7561462E-02  0.1092968E+00
         22   -1    0    0    0    0  0.00000000000E+00  0.00000000000E+00  0.16026045753E+03  0.16026045753E+03  0.00000000000E+00 0. -1.
         22   -1    0    0    0    0 -0.00000000000E+00 -0.00000000000E+00 -0.52220348573E+03  0.52220348573E+03  0.00000000000E+00 0. -1.
         24    2    1    2    0    0  0.29342775321E+02  0.85366382740E+02 -0.41008570486E+03  0.42743630498E+03  0.79894253330E+02 0.  0.
         25    2    1    2    0    0 -0.15958030414E+02 -0.83894927891E+02 -0.14651655352E+02  0.15216996511E+03  0.12509200461E+03 0.  0.
        -24    2    1    2    0    0 -0.13384744908E+02 -0.14714548484E+01  0.62794332009E+02  0.10285767317E+03  0.80344609161E+02 0.  0.
        -13    1    3    3    0    0  0.18339728452E+02  0.10675983375E+02 -0.17067971739E+02  0.27233029945E+02  0.00000000000E+00 0.  1.
         14    1    3    3    0    0  0.11003046870E+02  0.74690399364E+02 -0.39301773312E+03  0.40020327503E+03  0.00000000000E+00 0. -1.
         13    1    5    5    0    0 -0.36700166309E+01 -0.87588210620E+01  0.80680955534E+02  0.81237937901E+02  0.00000000000E+00 0. -1.
        -14    1    5    5    0    0 -0.97147282768E+01  0.72873662136E+01 -0.17886623525E+02  0.21619735266E+02  0.00000000000E+00 0.  1.
          5    1    4    4  501    0 -0.54288045061E+02 -0.87305891373E+02  0.14232923005E+02  0.10387280203E+03  0.41800000000E+01 0.  1.
         -5    1    4    4    0  501  0.38330014648E+02  0.34109634820E+01 -0.28884578357E+02  0.48297163080E+02  0.41800000000E+01 0.  1.
</event>
<event>
11    1  0.6763327E-009  0.1625133E+03  0.7561462E-02  0.1084737E+00
         22   -1    0    0    0    0  0.00000000000E+00  0.00000000000E+00  0.30922406159E+03  0.30922406159E+03  0.00000000000E+00 0.  1.
         22   -1    0    0    0    0 -0.00000000000E+00 -0.00000000000E+00 -0.38053646759E+03  0.38053646759E+03  0.00000000000E+00 0. -1.
        -24    2    1    2    0    0 -0.13602108782E+03  0.99807370433E+02 -0.21374013789E+03  0.28376982421E+03  0.79857492189E+02 0.  0.
         25    2    1    2    0    0 -0.86181445296E+00  0.67141395903E+02  0.95471619467E+02  0.17108581914E+03  0.12508724004E+03 0.  0.
         24    2    1    2    0    0  0.13688290228E+03 -0.16694876634E+03  0.46956112431E+02  0.23490488583E+03  0.79791035693E+02 0.  0.
        -13    1    5    5    0    0  0.84264817060E+02 -0.53068097791E+02 -0.36091067604E+01  0.99648422210E+02  0.00000000000E+00 0.  1.
         14    1    5    5    0    0  0.52618085217E+02 -0.11388066855E+03  0.50565219191E+02  0.13525646362E+03  0.00000000000E+00 0. -1.
         11    1    3    3    0    0 -0.12862661551E+03  0.11312207581E+03 -0.19322911672E+03  0.25822258189E+03  0.00000000000E+00 0. -1.
        -12    1    3    3    0    0 -0.73944723180E+01 -0.13314705379E+02 -0.20511021175E+02  0.25547242314E+02  0.00000000000E+00 0.  1.
          5    1    4    4  501    0 -0.61547028697E+02  0.47919094549E+02  0.50022464034E+02  0.92757725672E+02  0.41800000000E+01 0.  1.
         -5    1    4    4    0  501  0.60685214244E+02  0.19222301354E+02  0.45449155433E+02  0.78328093470E+02  0.41800000000E+01 0.  1.
</event>
<event>
11    1  0.6763327E-009  0.1356282E+03  0.7561462E-02  0.1112541E+00
         22   -1    0    0    0    0  0.00000000000E+00  0.00000000000E+00  0.15173293003E+04  0.15173293003E+04  0.00000000000E+00 0.  1.
         22   -1    0    0    0    0 -0.00000000000E+00 -0.00000000000E+00 -0.10605669705E+04  0.10605669705E+04  0.00000000000E+00 0.  1.
        -24    2    1    2    0    0 -0.87275376436E+01  0.40645947276E+02 -0.95628809570E+03  0.96071256817E+03  0.82179399633E+02 0.  0.
         25    2    1    2    0    0 -0.85394684783E+01  0.95291374087E+01 -0.61159891539E+02  0.13982402691E+03  0.12508596718E+03 0.  0.
         24    2    1    2    0    0  0.17267006122E+02 -0.50175084685E+02  0.14742103170E+04  0.14773596757E+04  0.80497603108E+02 0.  0.
        -11    1    5    5    0    0  0.80038301819E+01 -0.58705203356E+02  0.57177557243E+03  0.57483707903E+03  0.00000000000E+00 0.  1.
         12    1    5    5    0    0  0.92631759400E+01  0.85301186705E+01  0.90243474454E+03  0.90252259668E+03  0.00000000000E+00 0. -1.
         11    1    3    3    0    0  0.73805623600E+01  0.11569465347E+02 -0.22650242738E+02  0.26483178156E+02  0.00000000000E+00 0. -1.
        -12    1    3    3    0    0 -0.16108100004E+02  0.29076481930E+02 -0.93363785296E+03  0.93422939002E+03  0.00000000000E+00 0.  1.
          5    1    4    4  501    0  0.56992568621E+02  0.13311711175E+02 -0.38840411948E+02  0.70366217269E+02  0.41800000000E+01 0. -1.
         -5    1    4    4    0  501 -0.65532037099E+02 -0.37825737663E+01 -0.22319479592E+02  0.69457809640E+02  0.41800000000E+01 0. -1.
</event>
<event>
11    1  0.6763327E-009  0.1742677E+03  0.7561462E-02  0.1074376E+00
         22   -1    0    0    0    0  0.00000000000E+00  0.00000000000E+00  0.10150868408E+03  0.10150868408E+03  0.00000000000E+00 0. -1.
         22   -1    0    0    0    0 -0.00000000000E+00 -0.00000000000E+00 -0.22283961062E+04  0.22283961062E+04  0.00000000000E+00 0.  1.
        -24    2    1    2    0    0  0.11347551679E+03 -0.36660346875E+02 -0.19590520580E+04  0.19642245180E+04  0.77925073216E+02 0.  0.
         25    2    1    2    0    0 -0.14477185473E+03  0.99414013303E+02 -0.13711953536E+03  0.25552663075E+03  0.12510018418E+03 0.  0.
         24    2    1    2    0    0  0.31296337936E+02 -0.62753666429E+02 -0.30715828769E+02  0.11015364159E+03  0.79201510082E+02 0.  0.
        -11    1    5    5    0    0 -0.25300579585E+02 -0.16740661134E+02 -0.20226802559E+02  0.36462207891E+02  0.00000000000E+00 0.  1.
         12    1    5    5    0    0  0.56596917522E+02 -0.46013005295E+02 -0.10489026210E+02  0.73691433695E+02  0.00000000000E+00 0. -1.
         11    1    3    3    0    0  0.49750908572E+01  0.18759959627E+02 -0.19243501887E+03  0.19341128225E+03  0.00000000000E+00 0. -1.
        -12    1    3    3    0    0  0.10850042594E+03 -0.55420306501E+02 -0.17666170392E+04  0.17708132357E+04  0.00000000000E+00 0.  1.
          5    1    4    4  501    0  0.13849966082E+02  0.20712353654E+02  0.80485352536E+01  0.26515551552E+02  0.41800000000E+01 0. -1.
         -5    1    4    4    0  501 -0.15862182081E+03  0.78701659649E+02 -0.14516807061E+03  0.22901107920E+03  0.41800000000E+01 0. -1.
</event>
<event>
11    1  0.6763327E-009  0.1892296E+03  0.7561462E-02  0.1062412E+00
         22   -1    0    0    0    0  0.00000000000E+00  0.00000000000E+00  0.42486202007E+03  0.42486202007E+03  0.00000000000E+00 0. -1.
         22   -1    0    0    0    0 -0.00000000000E+00 -0.00000000000E+00 -0.69568524984E+03  0.69568524984E+03  0.00000000000E+00 0.  1.
         24    2    1    2    0    0 -0.12153762216E+03  0.69560638727E+02 -0.59336235920E+03  0.61485355639E+03  0.79724089402E+02 0.  0.
         25    2    1    2    0    0  0.11187379136E+03 -0.14427755590E+03  0.73606810689E+02  0.23323062525E+03  0.12508718417E+03 0.  0.
        -24    2    1    2    0    0  0.96638308001E+01  0.74716917171E+02  0.24893231874E+03  0.27246308827E+03  0.81196230307E+02 0.  0.
        -13    1    3    3    0    0 -0.11536353907E+03  0.38986129072E+02 -0.53494977705E+03  0.54863460369E+03  0.00000000000E+00 0.  1.
         14    1    3    3    0    0 -0.61740830855E+01  0.30574509654E+02 -0.58412582156E+02  0.66218952700E+02  0.00000000000E+00 0. -1.
         13    1    5    5    0    0  0.96262677208E+01  0.59205887396E+02  0.24982616200E+03  0.25692627999E+03  0.00000000000E+00 0. -1.
        -14    1    5    5    0    0  0.37563079318E-01  0.15511029775E+02 -0.89384325176E+00  0.15536808277E+02  0.00000000000E+00 0.  1.
          5    1    4    4  501    0  0.11920508597E+03 -0.57264839720E+02  0.57825575093E+02  0.14439662019E+03  0.41800000000E+01 0. -1.
         -5    1    4    4    0  501 -0.73312946061E+01 -0.87012716178E+02  0.15781235596E+02  0.88834005055E+02  0.41800000000E+01 0. -1.
</event>
<event>
11    1  0.6763327E-009  0.1455273E+03  0.7561462E-02  0.1101539E+00
         22   -1    0    0    0    0  0.00000000000E+00  0.00000000000E+00  0.10511393108E+03  0.10511393108E+03  0.00000000000E+00 0.  1.
         22   -1    0    0    0    0 -0.00000000000E+00 -0.00000000000E+00 -0.17874411318E+04  0.17874411318E+04  0.00000000000E+00 0. -1.
         24    2    1    2    0    0  0.63771035440E+02  0.13493271485E+02 -0.16131635652E+04  0.16164853545E+04  0.80494719167E+02 0.  0.
         25    2    1    2    0    0  0.35814739488E+02 -0.13077890434E+02 -0.62769679237E+02  0.14505577898E+03  0.12508964626E+03 0.  0.
        -24    2    1    2    0    0 -0.99585774928E+02 -0.41538105117E+00 -0.63939563061E+01  0.13101392946E+03  0.84889739812E+02 0.  0.
        -13    1    3    3    0    0  0.47060042050E+02  0.12601505163E+02 -0.36816888728E+03  0.37137821025E+03  0.00000000000E+00 0.  1.
         14    1    3    3    0    0  0.16710993389E+02  0.89176632173E+00 -0.12449946779E+04  0.12451071442E+04  0.00000000000E+00 0. -1.
         13    1    5    5    0    0 -0.16304327500E+02 -0.35624336921E+02  0.63918387183E+01  0.39696096514E+02  0.00000000000E+00 0. -1.
        -14    1    5    5    0    0 -0.83281447428E+02  0.35208955869E+02 -0.12785795024E+02  0.91317832944E+02  0.00000000000E+00 0.  1.
          5    1    4    4  501    0 -0.21763470748E+02  0.19661525688E+02  0.22357141110E+02  0.37115204566E+02  0.41800000000E+01 0.  1.
         -5    1    4    4    0  501  0.57578210236E+02 -0.32739416122E+02 -0.85126820347E+02  0.10794057441E+03  0.41800000000E+01 0.  1.
</event>
<event>
11    1  0.6763327E-009  0.1370430E+03  0.7561462E-02  0.1110906E+00
         22   -1    0    0    0    0  0.00000000000E+00  0.00000000000E+00  0.65187344455E+03  0.65187344455E+03  0.00000000000E+00 0.  1.
         22   -1    0    0    0    0 -0.00000000000E+00 -0.00000000000E+00 -0.17292669043E+04  0.17292669043E+04  0.00000000000E+00 0. -1.
        -24    2    1    2    0    0  0.20565464471E+02 -0.43147713769E+02 -0.16853071084E+04  0.16880324605E+04  0.83119639518E+02 0.  0.
         25    2    1    2    0    0 -0.41272718586E+02 -0.12695696635E+02  0.77859940716E+02  0.15354090492E+03  0.12509205052E+03 0.  0.
         24    2    1    2    0    0  0.20707254115E+02  0.55843410404E+02  0.53005370790E+03  0.53956698349E+03  0.81414492320E+02 0.  0.
        -11    1    5    5    0    0  0.37077870686E+02  0.57543630782E+02  0.50481978514E+03  0.50943994092E+03  0.00000000000E+00 0.  1.
         12    1    5    5    0    0 -0.16370616571E+02 -0.17002203781E+01  0.25233922761E+02  0.30127042572E+02  0.00000000000E+00 0. -1.
         13    1    3    3    0    0 -0.34564474276E+01 -0.63253166787E+02 -0.12465127141E+04  0.12481213308E+04  0.00000000000E+00 0. -1.
        -14    1    3    3    0    0  0.24021911899E+02  0.20105453018E+02 -0.43879439434E+03  0.43991112966E+03  0.00000000000E+00 0.  1.
          5    1    4    4  501    0 -0.22867857153E+01 -0.65873784157E+02  0.34506384904E+02  0.74516762056E+02  0.41800000000E+01 0.  1.
         -5    1    4    4    0  501 -0.38985932871E+02  0.53178087522E+02  0.43353555812E+02  0.79024142867E+02  0.41800000000E+01 0.  1.
</event>
<event>
11    1  0.6763327E-009  0.1357653E+03  0.7561462E-02  0.1112381E+00
         22   -1    0    0    0    0  0.00000000000E+00  0.00000000000E+00  0.19794961963E+04  0.19794961963E+04  0.00000000000E+00 0. -1.
         22   -1    0    0    0    0 -0.00000000000E+00 -0.00000000000E+00 -0.74806366286E+02  0.74806366286E+02  0.00000000000E+00 0. -1.
        -24    2    1    2    0    0  0.33935630031E+02 -0.44570209342E+02 -0.27578575475E+02  0.10181073870E+03  0.80415907276E+02 0.  0.
         25    2    1    2    0    0 -0.13117790953E+02  0.56067741823E+01  0.44772610196E+03  0.46509428464E+03  0.12510203384E+03 0.  0.
         24    2    1    2    0    0 -0.20817839077E+02  0.38963435160E+02  0.14845423035E+04  0.14873975392E+04  0.80833514622E+02 0.  0.
        -13    1    5    5    0    0  0.10854427120E+02  0.33826673705E+02  0.25786110170E+03  0.26029677334E+03  0.00000000000E+00 0.  1.
         14    1    5    5    0    0 -0.31672266198E+02  0.51367614551E+01  0.12266812018E+04  0.12271007659E+04  0.00000000000E+00 0. -1.
         13    1    3    3    0    0  0.16273106136E+02  0.20241216652E+02 -0.22640393518E+02  0.34454437356E+02  0.00000000000E+00 0. -1.
        -14    1    3    3    0    0  0.17662523895E+02 -0.64811425994E+02 -0.49381819570E+01  0.67356301344E+02  0.00000000000E+00 0.  1.
          5    1    4    4  501    0 -0.59464484105E+02  0.34626825552E+02  0.29084816055E+03  0.29890661889E+03  0.41800000000E+01 0. -1.
         -5    1    4    4    0  501  0.46346693152E+02 -0.29020051370E+02  0.15687794141E+03  0.16618766575E+03  0.41800000000E+01 0. -1.
</event>
<event>
11    1  0.6763327E-009  0.1645944E+03  0.7561462E-02  0.1082834E+00
         22   -1    0    0    0    0  0.00000000000E+00  0.00000000000E+00  0.14256007647E+03  0.14256007647E+03  0.00000000000E+00 0.  1.
         22   -1    0    0    0    0 -0.00000000000E+00 -0.00000000000E+00 -0.13201633907E+04  0.13201633907E+04  0.00000000000E+00 0. -1.
        -24    2    1    2    0    0  0.31142793010E+02 -0.84959497174E+02 -0.51089737017E+03  0.52418481886E+03  0.74603027842E+02 0.  0.
         25    2    1    2    0    0 -0.64584497740E+02  0.11784041713E+03 -0.77499070336E+03  0.79643933009E+03  0.12508994751E+03 0.  0.
         24    2    1    2    0    0  0.33441704730E+02 -0.32880919956E+02  0.10828475928E+03  0.14209931825E+03  0.79165173165E+02 0.  0.
        -13    1    5    5    0    0  0.13288193832E+02 -0.54020908614E+02  0.94826701535E+02  0.10994061118E+03  0.00000000000E+00 0.  1.
         14    1    5    5    0    0  0.20153510897E+02  0.21139988658E+02  0.13458057741E+02  0.32158707065E+02  0.00000000000E+00 0. -1.
         13    1    3    3    0    0  0.26832344050E+02 -0.55118199906E+02 -0.46654027813E+03  0.47055055177E+03  0.00000000000E+00 0. -1.
        -14    1    3    3    0    0  0.43104489596E+01 -0.29841297268E+02 -0.44357092035E+02  0.53634267093E+02  0.00000000000E+00 0.  1.
          5    1    4    4  501    0 -0.57637647821E+02  0.14419584545E+03 -0.68060281912E+03  0.69810615961E+03  0.41800000000E+01 0.  1.
         -5    1    4    4    0  501 -0.69468499182E+01 -0.26355428322E+02 -0.94387884232E+02  0.98333170475E+02  0.41800000000E+01 0.  1.
</event>
<event>
11    1  0.6763327E-009  0.1585976E+03  0.7561462E-02  0.1088404E+00
         22   -1    0    0    0    0  0.00000000000E+00  0.00000000000E+00  0.43386256794E+03  0.43386256794E+03  0.00000000000E+00 0. -1.
         22   -1    0    0    0    0 -0.00000000000E+00 -0.00000000000E+00 -0.60449892737E+03  0.60449892737E+03  0.00000000000E+00 0.  1.
         24    2    1    2    0    0 -0.96519812091E+02  0.18860428278E+02 -0.49734421789E+03  0.51221462923E+03  0.73080540852E+02 0.  0.
         25    2    1    2    0    0  0.85168840767E+02 -0.34816015757E+02 -0.34020041619E+02  0.15896335632E+03  0.12508436765E+03 0.  0.
        -24    2    1    2    0    0  0.11350971325E+02  0.15955587479E+02  0.36072790006E+03  0.36718350976E+03  0.65693885821E+02 0.  0.
        -11    1    3    3    0    0 -0.67266458031E+02 -0.16344496602E+02 -0.38010223833E+03  0.38635428111E+03  0.00000000000E+00 0.  1.
         12    1    3    3    0    0 -0.29253354060E+02  0.35204924880E+02 -0.11724197955E+03  0.12586034812E+03  0.00000000000E+00 0. -1.
         13    1    5    5    0    0  0.19256876761E+02 -0.14885440520E+01  0.33256550020E+03  0.33312588460E+03  0.00000000000E+00 0. -1.
        -14    1    5    5    0    0 -0.79059054366E+01  0.17444131531E+02  0.28162399862E+02  0.34057625161E+02  0.00000000000E+00 0.  1.
          5    1    4    4  501    0  0.10340576053E+02 -0.60957035820E+02 -0.47979365019E+02  0.78372058775E+02  0.41800000000E+01 0. -1.
         -5    1    4    4    0  501  0.74828264713E+02  0.26141020063E+02  0.13959323400E+02  0.80591297543E+02  0.41800000000E+01 0. -1.
</event>
<event>
11    1  0.6763327E-009  0.1579973E+03  0.7561462E-02  0.1088976E+00
         22   -1    0    0    0    0  0.00000000000E+00  0.00000000000E+00  0.50913818570E+03  0.50913818570E+03  0.00000000000E+00 0. -1.
         22   -1    0    0    0    0 -0.00000000000E+00 -0.00000000000E+00 -0.10926925770E+03  0.10926925770E+03  0.00000000000E+00 0. -1.
         24    2    1    2    0    0  0.79781014077E+02  0.15718023711E+02  0.93993318873E+01  0.11425901687E+03  0.79716428788E+02 0.  0.
         25    2    1    2    0    0 -0.14717266881E+03 -0.51190470420E+02  0.19493237582E+03  0.27915318804E+03  0.12509041747E+03 0.  0.
        -24    2    1    2    0    0  0.67391654734E+02  0.35472446709E+02  0.19553722030E+03  0.22499523849E+03  0.81167254608E+02 0.  0.
        -11    1    3    3    0    0 -0.88350933090E+01 -0.39791508445E+01  0.20625943888E+02  0.22788639198E+02  0.00000000000E+00 0.  1.
         12    1    3    3    0    0  0.88616107386E+02  0.19697174555E+02 -0.11226612001E+02  0.91470377668E+02  0.00000000000E+00 0. -1.
         11    1    5    5    0    0  0.63064647217E+01  0.31474520553E+02  0.13550705042E+03  0.13925723556E+03  0.00000000000E+00 0. -1.
        -12    1    5    5    0    0  0.61085190013E+02  0.39979261560E+01  0.60030169877E+02  0.85738002938E+02  0.00000000000E+00 0.  1.
          5    1    4    4  501    0 -0.80271142561E+02 -0.53136672248E+02  0.18860763775E+03  0.21179536275E+03  0.41800000000E+01 0. -1.
         -5    1    4    4    0  501 -0.66901526250E+02  0.19462018283E+01  0.63247380754E+01  0.67357825290E+02  0.41800000000E+01 0. -1.
</event>
<event>
11    1  0.6763327E-009  0.1293772E+03  0.7561462E-02  0.1120037E+00
         22   -1    0    0    0    0  0.00000000000E+00  0.00000000000E+00  0.53134128869E+03  0.53134128869E+03  0.00000000000E+00 0. -1.
         22   -1    0    0    0    0 -0.00000000000E+00 -0.00000000000E+00 -0.15475214705E+03  0.15475214705E+03  0.00000000000E+00 0.  1.
         24    2    1    2    0    0 -0.24646067561E+02 -0.12194381020E+02 -0.58472406259E+02  0.10464552549E+03  0.82313620605E+02 0.  0.
         25    2    1    2    0    0  0.52854789615E+02 -0.30132088817E+01 -0.17069887073E+01  0.13584093209E+03  0.12508851589E+03 0.  0.
        -24    2    1    2    0    0 -0.28208722054E+02  0.15207589901E+02  0.43676853660E+03  0.44560697816E+03  0.82291078652E+02 0.  0.
        -11    1    3    3    0    0 -0.32357387281E+02 -0.33877037550E+02 -0.65549192439E+02  0.80568919654E+02  0.00000000000E+00 0.  1.
         12    1    3    3    0    0  0.77113197197E+01  0.21682656530E+02  0.70767861805E+01  0.24076605838E+02  0.00000000000E+00 0. -1.
         11    1    5    5    0    0 -0.53074016301E+02  0.49109083479E+01  0.36659626694E+03  0.37045079453E+03  0.00000000000E+00 0. -1.
        -12    1    5    5    0    0  0.24865294247E+02  0.10296681553E+02  0.70172269658E+02  0.75156183631E+02  0.00000000000E+00 0.  1.
          5    1    4    4  501    0  0.81295467736E+02 -0.37056071545E+02 -0.11629283514E+02  0.90193226729E+02  0.41800000000E+01 0.  1.
         -5    1    4    4    0  501 -0.28440678121E+02  0.34042862663E+02  0.99222948071E+01  0.45647705359E+02  0.41800000000E+01 0.  1.
</event>
<event>
11    1  0.6763327E-009  0.1310758E+03  0.7561462E-02  0.1117954E+00
         22   -1    0    0    0    0  0.00000000000E+00  0.00000000000E+00  0.14752626555E+04  0.14752626555E+04  0.00000000000E+00 0. -1.
         22   -1    0    0    0    0 -0.00000000000E+00 -0.00000000000E+00 -0.50599754597E+03  0.50599754597E+03  0.00000000000E+00 0.  1.
         24    2    1    2    0    0 -0.11434719176E+02 -0.62786071212E+01 -0.38507828494E+03  0.39318581828E+03  0.78355781201E+02 0.  0.
         25    2    1    2    0    0  0.71838235842E+01 -0.32739354809E+02 -0.79050502869E+02  0.15172425957E+03  0.12509115182E+03 0.  0.
        -24    2    1    2    0    0  0.42508955916E+01  0.39017961930E+02  0.14333938974E+04  0.14363501236E+04  0.83325513685E+02 0.  0.
        -13    1    3    3    0    0 -0.19349710973E+02 -0.40179742761E+02 -0.21133175610E+03  0.21598595830E+03  0.00000000000E+00 0.  1.
         14    1    3    3    0    0  0.79149917973E+01  0.33901135640E+02 -0.17374652884E+03  0.17719985998E+03  0.00000000000E+00 0. -1.
         11    1    5    5    0    0  0.21546787093E+02  0.55864905657E+02  0.12415250731E+04  0.12429680844E+04  0.00000000000E+00 0. -1.
        -12    1    5    5    0    0 -0.17295891501E+02 -0.16846943727E+02  0.19186882425E+03  0.19338203923E+03  0.00000000000E+00 0.  1.
          5    1    4    4  501    0 -0.32723253806E+02  0.34523949162E+02 -0.13587510995E+02  0.49646825281E+02  0.41800000000E+01 0. -1.
         -5    1    4    4    0  501  0.39907077390E+02 -0.67263303971E+02 -0.65462991874E+02  0.10207743429E+03  0.41800000000E+01 0. -1.
</event>
<event>
11    1  0.6763327E-009  0.1880327E+03  0.7561462E-02  0.1063324E+00
         22   -1    0    0    0    0  0.00000000000E+00  0.00000000000E+00  0.49769734239E+03  0.49769734239E+03  0.00000000000E+00 0.  1.
         22   -1    0    0    0    0 -0.00000000000E+00 -0.00000000000E+00 -0.34029355758E+03  0.34029355758E+03  0.00000000000E+00 0. -1.
         24    2    1    2    0    0  0.15104397170E+03  0.32901039212E+01 -0.23942571242E+03  0.29416756133E+03  0.79904794600E+02 0.  0.
         25    2    1    2    0    0 -0.10234482836E+03  0.23057810117E+02  0.29051072008E+02  0.16582556699E+03  0.12509207561E+03 0.  0.
        -24    2    1    2    0    0 -0.48699143336E+02 -0.26347914038E+02  0.36777842522E+03  0.37799777165E+03  0.67494638159E+02 0.  0.
        -11    1    3    3    0    0  0.52006789890E+02  0.25695951208E+02 -0.40257544364E+02  0.70609191904E+02  0.00000000000E+00 0.  1.
         12    1    3    3    0    0  0.99037181810E+02 -0.22405847287E+02 -0.19916816806E+03  0.22355836943E+03  0.00000000000E+00 0. -1.
         11    1    5    5    0    0 -0.24903805803E+02  0.17034212755E+02  0.71336985927E+02  0.77455338801E+02  0.00000000000E+00 0. -1.
        -12    1    5    5    0    0 -0.23795337533E+02 -0.43382126793E+02  0.29644143929E+03  0.30054243285E+03  0.00000000000E+00 0.  1.
          5    1    4    4  501    0 -0.68657607745E+02  0.65302916838E+02  0.50606206851E+02  0.10750255169E+03  0.41800000000E+01 0. -1.
         -5    1    4    4    0  501 -0.33687220620E+02 -0.42245106721E+02 -0.21555134843E+02  0.58323015294E+02  0.41800000000E+01 0. -1.
</event>
<event>
11    1  0.6763327E-009  0.1679800E+03  0.7561462E-02  0.1079803E+00
         22   -1    0    0    0    0  0.00000000000E+00  0.00000000000E+00  0.89652057057E+03  0.89652057057E+03  0.00000000000E+00 0.  1.
         22   -1    0    0    0    0 -0.00000000000E+00 -0.00000000000E+00 -0.22704633683E+03  0.22704633683E+03  0.00000000000E+00 0. -1.
         24    2    1    2    0    0  0.43799629971E+02 -0.10865470846E+03 -0.18176191242E+03  0.23119057359E+03  0.81776740294E+02 0.  0.
         25    2    1    2    0    0  0.19245324605E+02  0.53757179301E+02  0.32490493031E+03  0.35280380145E+03  0.12508833572E+03 0.  0.
        -24    2    1    2    0    0 -0.63044954576E+02  0.54897529161E+02  0.52633121585E+03  0.53957253236E+03  0.84413055248E+02 0.  0.
        -13    1    3    3    0    0 -0.49360247455E+01  0.99752677101E+01 -0.32739237941E+02  0.34579300270E+02  0.00000000000E+00 0.  1.
         14    1    3    3    0    0  0.48735654716E+02 -0.11862997617E+03 -0.14902267447E+03  0.19661127332E+03  0.00000000000E+00 0. -1.
         11    1    5    5    0    0  0.19141990952E+02  0.23625690435E+02  0.11547636197E+03  0.11941264271E+03  0.00000000000E+00 0. -1.
        -12    1    5    5    0    0 -0.82186945528E+02  0.31271838726E+02  0.41085485389E+03  0.42015988965E+03  0.00000000000E+00 0.  1.
          5    1    4    4  501    0  0.66214310498E+02  0.12012094360E+02  0.11150810449E+03  0.13030792414E+03  0.41800000000E+01 0.  1.
         -5    1    4    4    0  501 -0.46968985892E+02  0.41745084941E+02  0.21339682582E+03  0.22249587731E+03  0.41800000000E+01 0.  1.
</event>
<event>
11    1  0.6763327E-009  0.1493760E+03  0.7561462E-02  0.1097518E+00
         22   -1    0    0    0    0  0.00000000000E+00  0.00000000000E+00  0.22192583074E+03  0.22192583074E+03  0.00000000000E+00 0. -1.
         22   -1    0    0    0    0 -0.00000000000E+00 -0.00000000000E+00 -0.13757372303E+04  0.13757372303E+04  0.00000000000E+00 0.  1.
         24    2    1    2    0    0 -0.22546130201E+02  0.55340874305E+01 -0.12816618534E+04  0.12843215536E+04  0.79282989684E+02 0.  0.
         25    2    1    2    0    0 -0.16827855105E+01  0.75454599009E+02  0.90936444213E+01  0.14637760923E+03  0.12508989502E+03 0.  0.
        -24    2    1    2    0    0  0.24228915712E+02 -0.80988686439E+02  0.11875680946E+03  0.16696389818E+03  0.81409801717E+02 0.  0.
        -11    1    3    3    0    0 -0.14089989128E+02 -0.36673731899E+02 -0.66436811626E+03  0.66552872538E+03  0.00000000000E+00 0.  1.
         12    1    3    3    0    0 -0.84561410735E+01  0.42207819329E+02 -0.61729373718E+03  0.61879282825E+03  0.00000000000E+00 0. -1.
         11    1    5    5    0    0 -0.11547949948E+02 -0.54764135388E+02  0.10750308360E+03  0.12119974693E+03  0.00000000000E+00 0. -1.
        -12    1    5    5    0    0  0.35776865660E+02 -0.26224551051E+02  0.11253725865E+02  0.45764151256E+02  0.00000000000E+00 0.  1.
          5    1    4    4  501    0 -0.19766664688E+02 -0.27571587355E+01 -0.45056522229E+02  0.49455895023E+02  0.41800000000E+01 0.  1.
         -5    1    4    4    0  501  0.18083879178E+02  0.78211757744E+02  0.54150166650E+02  0.96921714202E+02  0.41800000000E+01 0.  1.
</event>
<event>
11    1  0.6763327E-009  0.1341755E+03  0.7561462E-02  0.1114242E+00
         22   -1    0    0    0    0  0.00000000000E+00  0.00000000000E+00  0.43740417449E+03  0.43740417449E+03  0.00000000000E+00 0.  1.
         22   -1    0    0    0    0 -0.00000000000E+00 -0.00000000000E+00 -0.13537395019E+03  0.13537395019E+03  0.00000000000E+00 0.  1.
         24    2    1    2    0    0  0.37929454207E+02  0.91354540123E+01 -0.79642325742E+02  0.11893918309E+03  0.79256098864E+02 0.  0.
         25    2    1    2    0    0 -0.31822124728E+02  0.41938087505E+02  0.30557449919E+03  0.33435594254E+03  0.12508665377E+03 0.  0.
        -24    2    1    2    0    0 -0.61073294789E+01 -0.51073541517E+02  0.76098050846E+02  0.11948299904E+03  0.76416409242E+02 0.  0.
        -11    1    3    3    0    0  0.58621385482E+02  0.24517906005E+01 -0.77334202775E+02  0.97072431884E+02  0.00000000000E+00 0.  1.
         12    1    3    3    0    0 -0.20691931276E+02  0.66836634118E+01 -0.23081229672E+01  0.21866751202E+02  0.00000000000E+00 0. -1.
         13    1    5    5    0    0 -0.10504046788E+02  0.15495074765E+02  0.59578099406E+00  0.18729316482E+02  0.00000000000E+00 0. -1.
        -14    1    5    5    0    0  0.43967173088E+01 -0.66568616283E+02  0.75502269852E+02  0.10075368256E+03  0.00000000000E+00 0.  1.
          5    1    4    4  501    0 -0.26511637569E+02 -0.30695922111E+02  0.21106915857E+03  0.21497155314E+03  0.41800000000E+01 0. -1.
         -5    1    4    4    0  501 -0.53104871584E+01  0.72634009616E+02  0.94505340624E+02  0.11938438940E+03  0.41800000000E+01 0. -1.
</event>
<event>
11    1  0.6763327E-009  0.1693416E+03  0.7561462E-02  0.1078606E+00
         22   -1    0    0    0    0  0.00000000000E+00  0.00000000000E+00  0.34419688617E+03  0.34419688617E+03  0.00000000000E+00 0. -1.
         22   -1    0    0    0    0 -0.00000000000E+00 -0.00000000000E+00 -0.64089411402E+03  0.64089411402E+03  0.00000000000E+00 0.  1.
         24    2    1    2    0    0 -0.95012160748E+02  0.40243322880E+02 -0.41383401719E+03  0.43451430256E+03  0.83049681646E+02 0.  0.
         25    2    1    2    0    0  0.16067638762E+03 -0.62818100058E+02 -0.15135392284E+03  0.26137772935E+03  0.12508913705E+03 0.  0.
        -24    2    1    2    0    0 -0.65664226874E+02  0.22574777178E+02  0.26849071217E+03  0.28919896828E+03  0.82020542999E+02 0.  0.
        -13    1    3    3    0    0 -0.10415858474E+03  0.49363926949E+02 -0.39639096505E+03  0.41280940545E+03  0.00000000000E+00 0.  1.
         14    1    3    3    0    0  0.91464239953E+01 -0.91206040691E+01 -0.17443052144E+02  0.21704897110E+02  0.00000000000E+00 0. -1.
         13    1    5    5    0    0 -0.37708405619E+02 -0.24707131001E+02  0.17549521447E+03  0.18119309169E+03  0.00000000000E+00 0. -1.
        -14    1    5    5    0    0 -0.27955821255E+02  0.47281908179E+02  0.92995497708E+02  0.10800587659E+03  0.00000000000E+00 0.  1.
          5    1    4    4  501    0  0.13770364903E+03  0.85143343605E+01 -0.96821837681E+02  0.16860228201E+03  0.41800000000E+01 0. -1.
         -5    1    4    4    0  501  0.22972738591E+02 -0.71332434418E+02 -0.54532085157E+02  0.92775447345E+02  0.41800000000E+01 0. -1.
</event>
<event>
11    1  0.6763327E-009  0.1368733E+03  0.7561462E-02  0.1111101E+00
         22   -1    0    0    0    0  0.00000000000E+00  0.00000000000E+00  0.18030154055E+03  0.18030154055E+03  0.00000000000E+00 0. -1.
         22   -1    0    0    0    0 -0.00000000000E+00 -0.00000000000E+00 -0.52413128132E+03  0.52413128132E+03  0.00000000000E+00 0.  1.
         24    2    1    2    0    0 -0.34262112583E+02  0.43595239059E+02 -0.36254823136E+03  0.37538339533E+03  0.79981474113E+02 0.  0.
         25    2    1    2    0    0  0.51124749967E+02 -0.30311072942E+02 -0.10942042898E+03  0.17650422338E+03  0.12509360252E+03 0.  0.
        -24    2    1    2    0    0 -0.16862637384E+02 -0.13284166117E+02  0.12813891957E+03  0.15254520316E+03  0.79935215583E+02 0.  0.
        -11    1    3    3    0    0 -0.33344454783E+02  0.48563084967E+02 -0.36503142626E+03  0.36975419950E+03  0.00000000000E+00 0.  1.
         12    1    3    3    0    0 -0.91765779976E+00 -0.49678459086E+01  0.24831949034E+01  0.56291958340E+01  0.00000000000E+00 0. -1.
         13    1    5    5    0    0 -0.44410323095E+02 -0.77506609431E+01  0.11056874319E+03  0.11940601540E+03  0.00000000000E+00 0. -1.
        -14    1    5    5    0    0  0.27547685711E+02 -0.55335051740E+01  0.17570176373E+02  0.33139187759E+02  0.00000000000E+00 0.  1.
          5    1    4    4  501    0  0.46983999752E+02  0.40061164179E+02 -0.77035805672E+02  0.98814881793E+02  0.41800000000E+01 0.  1.
         -5    1    4    4    0  501  0.41407502151E+01 -0.70372237121E+02 -0.32384623311E+02  0.77689341590E+02  0.41800000000E+01 0.  1.
</event>
<event>
11    1  0.6763327E-009  0.2998557E+03  0.7561462E-02  0.1000252E+00
         22   -1    0    0    0    0  0.00000000000E+00  0.00000000000E+00  0.16872000569E+04  0.16872000569E+04  0.00000000000E+00 0.  1.
         22   -1    0    0    0    0 -0.00000000000E+00 -0.00000000000E+00 -0.32517490520E+03  0.32517490520E+03  0.00000000000E+00 0. -1.
         24    2    1    2    0    0  0.45742914012E+02 -0.19753927638E+02 -0.24443021900E+03  0.26190984543E+03  0.79799770283E+02 0.  0.
         25    2    1    2    0    0 -0.28575760920E+03 -0.92792830415E+02  0.41600273369E+03  0.52817956480E+03  0.12508979832E+03 0.  0.
        -24    2    1    2    0    0  0.24001469519E+03  0.11254675805E+03  0.11904526370E+04  0.12222855518E+04  0.80812515640E+02 0.  0.
        -13    1    3    3    0    0 -0.87337081354E+01 -0.32790706802E+02 -0.57489929232E+02  0.66757771634E+02  0.00000000000E+00 0.  1.
         14    1    3    3    0    0  0.54476622147E+02  0.13036779164E+02 -0.18694028976E+03  0.19515207380E+03  0.00000000000E+00 0. -1.
         13    1    5    5    0    0 -0.19910314203E+01  0.97486186138E+01  0.10375527181E+03  0.10423126306E+03  0.00000000000E+00 0. -1.
        -14    1    5    5    0    0  0.24200572661E+03  0.10279813944E+03  0.10866973651E+04  0.11180542888E+04  0.00000000000E+00 0.  1.
          5    1    4    4  501    0 -0.39499568711E+02  0.30439768664E+02  0.64403229157E+02  0.81560062350E+02  0.41800000000E+01 0. -1.
         -5    1    4    4    0  501 -0.24625804049E+03 -0.12323259908E+03  0.35159950454E+03  0.44661950245E+03  0.41800000000E+01 0. -1.
</event>
<event>
11    1  0.6763327E-009  0.1459990E+03  0.7561462E-02  0.1101039E+00
         22   -1    0    0    0    0  0.00000000000E+00  0.00000000000E+00  0.50527317691E+03  0.50527317691E+03  0.00000000000E+00 0. -1.
         22   -1    0    0    0    0 -0.00000000000E+00 -0.00000000000E+00 -0.26062176218E+04  0.26062176218E+04  0.00000000000E+00 0.  1.
         24    2    1    2    0    0  0.69245241478E+02  0.28771113871E+02 -0.23813294034E+04  0.23838669762E+04  0.80432284150E+02 0.  0.
         25    2    1    2    0    0 -0.67385667447E+02 -0.49848301344E+02 -0.19433634941E+03  0.24584441339E+03  0.12508867881E+03 0.  0.
        -24    2    1    2    0    0 -0.18595740313E+01  0.21077187472E+02  0.47472130793E+03  0.48177940910E+03  0.79393784277E+02 0.  0.
        -13    1    3    3    0    0  0.41600914792E+02 -0.24005749373E+02 -0.82430542350E+03  0.82570354445E+03  0.00000000000E+00 0.  1.
         14    1    3    3    0    0  0.27644326686E+02  0.52776863244E+02 -0.15570239799E+04  0.15581634317E+04  0.00000000000E+00 0. -1.
         11    1    5    5    0    0  0.25693941958E+02  0.22168385405E+02  0.41034547263E+03  0.41174630888E+03  0.00000000000E+00 0. -1.
        -12    1    5    5    0    0 -0.27553515990E+02 -0.10911979327E+01  0.64375835298E+02  0.70033100221E+02  0.00000000000E+00 0.  1.
          5    1    4    4  501    0 -0.33346865072E+02 -0.59544511039E+02 -0.25004648248E+02  0.72802932901E+02  0.41800000000E+01 0.  1.
         -5    1    4    4    0  501 -0.34038802375E+02  0.96962096951E+01 -0.16933170117E+03  0.17304148049E+03  0.41800000000E+01 0.  1.
</event>
<event>
11    1  0.6763327E-009  0.1758231E+03  0.7561462E-02  0.1073072E+00
         22   -1    0    0    0    0  0.00000000000E+00  0.00000000000E+00  0.34725846992E+03  0.34725846992E+03  0.00000000000E+00 0. -1.
         22   -1    0    0    0    0 -0.00000000000E+00 -0.00000000000E+00 -0.24425909471E+04  0.24425909471E+04  0.00000000000E+00 0. -1.
        -24    2    1    2    0    0  0.10575922629E+03  0.67990249441E+02 -0.22387802505E+04  0.22435971594E+04  0.76049431629E+02 0.  0.
         25    2    1    2    0    0 -0.11864924742E+03  0.26439445002E+02 -0.14839325796E+03  0.22900807726E+03  0.12508977687E+03 0.  0.
         24    2    1    2    0    0  0.12890021129E+02 -0.94429694443E+02  0.29184103125E+03  0.31724418030E+03  0.79934739472E+02 0.  0.
        -13    1    5    5    0    0  0.34746470786E+02 -0.13389919157E+02  0.59337434011E+02  0.70053823894E+02  0.00000000000E+00 0.  1.
         14    1    5    5    0    0 -0.21856449657E+02 -0.81039775286E+02  0.23250359724E+03  0.24719035640E+03  0.00000000000E+00 0. -1.
         11    1    3    3    0    0  0.16489181951E+02 -0.79371727027E+01 -0.74577265736E+03  0.74599715032E+03  0.00000000000E+00 0. -1.
        -12    1    3    3    0    0  0.89270044339E+02  0.75927422144E+02 -0.14930075931E+04  0.14976000091E+04  0.00000000000E+00 0.  1.
          5    1    4    4  501    0 -0.97055554139E+02  0.20918285882E+02 -0.17049590225E+03  0.19734153226E+03  0.41800000000E+01 0. -1.
         -5    1    4    4    0  501 -0.21593693281E+02  0.55211591196E+01  0.22102644288E+02  0.31666544997E+02  0.41800000000E+01 0. -1.
</event>
<event>
11    1  0.8055698E-009  0.1463048E+03  0.7561462E-02  0.1100715E+00
         22   -1    0    0    0    0  0.00000000000E+00  0.00000000000E+00  0.41519272927E+03  0.41519272927E+03  0.00000000000E+00 0. -1.
         22   -1    0    0    0    0 -0.00000000000E+00 -0.00000000000E+00 -0.10015717940E+04  0.10015717940E+04  0.00000000000E+00 0.  1.
         24    2    1    2    0    0 -0.60043347304E+02  0.20160152409E+02 -0.56340886247E+03  0.57278491112E+03  0.81494618260E+02 0.  0.
         25    2    1    2    0    0  0.11178385176E+03 -0.59615796198E+02 -0.40812332356E+03  0.44526719200E+03  0.12509417401E+03 0.  0.
        -24    2    1    2    0    0 -0.51740504454E+02  0.39455643789E+02  0.38515312128E+03  0.39871242016E+03  0.79967740563E+02 0.  0.
        -13    1    3    3    0    0 -0.65479417764E+02  0.40120379738E+02 -0.34733147755E+03  0.35571948825E+03  0.00000000000E+00 0.  1.
         14    1    3    3    0    0  0.54360704593E+01 -0.19960227329E+02 -0.21607738491E+03  0.21706542287E+03  0.00000000000E+00 0. -1.
         11    1    5    5    0    0 -0.57126592338E+02  0.17310498023E+02  0.35939825456E+03  0.36432156988E+03  0.00000000000E+00 0. -1.
        -12    1    5    5    0    0  0.53860878847E+01  0.22145145766E+02  0.25754866718E+02  0.34390850286E+02  0.00000000000E+00 0.  1.
          5    1    4    4  501    0 -0.10623735578E+02  0.25484551225E+02 -0.82918840566E+02  0.87494757726E+02  0.41800000000E+01 0.  1.
         -5    1    4    4    0  501  0.12240758734E+03 -0.85100347423E+02 -0.32520448299E+03  0.35777243427E+03  0.41800000000E+01 0.  1.
</event>
<event>
11    1  0.6763327E-009  0.1412718E+03  0.7561462E-02  0.1106146E+00
         22   -1    0    0    0    0  0.00000000000E+00  0.00000000000E+00  0.75752471344E+02  0.75752471344E+02  0.00000000000E+00 0. -1.
         22   -1    0    0    0    0 -0.00000000000E+00 -0.00000000000E+00 -0.12300247808E+04  0.12300247808E+04  0.00000000000E+00 0. -1.
         24    2    1    2    0    0 -0.34859333206E+02 -0.58257038534E+02 -0.84485929518E+03  0.85173486736E+03  0.83999999796E+02 0.  0.
         25    2    1    2    0    0  0.12590661828E+02  0.57983976846E+02 -0.33800017478E+03  0.36525673779E+03  0.12509076709E+03 0.  0.
        -24    2    1    2    0    0  0.22268671378E+02  0.27306168825E+00  0.28587160474E+02  0.88785647032E+02  0.81053667945E+02 0.  0.
        -11    1    3    3    0    0 -0.12121613079E+02 -0.15131199391E+02 -0.32001403355E+02  0.37416260039E+02  0.00000000000E+00 0.  1.
         12    1    3    3    0    0 -0.22737720127E+02 -0.43125839143E+02 -0.81285789183E+03  0.81431860732E+03  0.00000000000E+00 0. -1.
         13    1    5    5    0    0  0.36185952185E+02  0.20023582112E+02  0.43795463970E+02  0.60236281762E+02  0.00000000000E+00 0. -1.
        -14    1    5    5    0    0 -0.13917280807E+02 -0.19750520424E+02 -0.15208303497E+02  0.28549365270E+02  0.00000000000E+00 0.  1.
          5    1    4    4  501    0  0.53390470784E+02  0.76510259386E+02 -0.23288745770E+03  0.25091513010E+03  0.41800000000E+01 0. -1.
         -5    1    4    4    0  501 -0.40799808956E+02 -0.18526282540E+02 -0.10511271709E+03  0.11434160769E+03  0.41800000000E+01 0. -1.
</event>
<event>
11    1  0.6763327E-009  0.1298360E+03  0.7561462E-02  0.1119471E+00
         22   -1    0    0    0    0  0.00000000000E+00  0.00000000000E+00  0.22782783776E+02  0.22782783776E+02  0.00000000000E+00 0.  1.
         22   -1    0    0    0    0 -0.00000000000E+00 -0.00000000000E+00 -0.20623992440E+04  0.20623992440E+04  0.00000000000E+00 0.  1.
        -24    2    1    2    0    0  0.51368444211E+01 -0.11436744697E+02 -0.43153577213E+03  0.43934293373E+03  0.81497880257E+02 0.  0.
         25    2    1    2    0    0  0.21569515695E+02  0.33389671655E+02 -0.15090982298E+04  0.15147946765E+04  0.12508129571E+03 0.  0.
         24    2    1    2    0    0 -0.26706360116E+02 -0.21952926958E+02 -0.98982458306E+02  0.13104441758E+03  0.78612668531E+02 0.  0.
        -11    1    5    5    0    0 -0.13905725869E+02  0.18653657490E+02  0.29325188099E-01  0.23266478239E+02  0.00000000000E+00 0.  1.
         12    1    5    5    0    0 -0.12800634247E+02 -0.40606584448E+02 -0.99011783494E+02  0.10777793934E+03  0.00000000000E+00 0. -1.
         11    1    3    3    0    0 -0.22383755995E+02  0.17933054053E+02 -0.30982631584E+03  0.31115104522E+03  0.00000000000E+00 0. -1.
        -12    1    3    3    0    0  0.27520600416E+02 -0.29369798750E+02 -0.12170945630E+03  0.12819188850E+03  0.00000000000E+00 0.  1.
          5    1    4    4  501    0  0.59649185368E+02 -0.14967499958E+02 -0.10132810182E+04  0.10151541487E+04  0.41800000000E+01 0.  1.
         -5    1    4    4    0  501 -0.38079669673E+02  0.48357171613E+02 -0.49581721157E+03  0.49964052776E+03  0.41800000000E+01 0.  1.
</event>
<event>
11    1  0.6763327E-009  0.1406286E+03  0.7561462E-02  0.1106858E+00
         22   -1    0    0    0    0  0.00000000000E+00  0.00000000000E+00  0.33365674785E+03  0.33365674785E+03  0.00000000000E+00 0.  1.
         22   -1    0    0    0    0 -0.00000000000E+00 -0.00000000000E+00 -0.28122420875E+03  0.28122420875E+03  0.00000000000E+00 0. -1.
        -24    2    1    2    0    0  0.64408884703E+02  0.79017723033E+01 -0.16291305454E+03  0.19303544787E+03  0.80691253315E+02 0.  0.
         25    2    1    2    0    0 -0.57003252308E+02 -0.34441764196E+02 -0.44778141316E+02  0.14862019328E+03  0.12508906433E+03 0.  0.
         24    2    1    2    0    0 -0.74056323949E+01  0.26539991893E+02  0.26012373496E+03  0.27322531546E+03  0.78920852501E+02 0.  0.
        -11    1    5    5    0    0 -0.19032074642E+02  0.37485754932E+02  0.25167041139E+03  0.25515759377E+03  0.00000000000E+00 0.  1.
         12    1    5    5    0    0  0.11626442247E+02 -0.10945763039E+02  0.84533235662E+01  0.18067721692E+02  0.00000000000E+00 0. -1.
         11    1    3    3    0    0  0.48236617441E+02  0.24497522827E+02 -0.38298715676E+02  0.66284926713E+02  0.00000000000E+00 0. -1.
        -12    1    3    3    0    0  0.16172267262E+02 -0.16595750524E+02 -0.12461433886E+03  0.12675052116E+03  0.00000000000E+00 0.  1.
          5    1    4    4  501    0 -0.13569215792E+02 -0.46866917115E+02 -0.78201238298E+02  0.92268833354E+02  0.41800000000E+01 0.  1.
         -5    1    4    4    0  501 -0.43434036517E+02  0.12425152919E+02  0.33423096982E+02  0.56351359922E+02  0.41800000000E+01 0.  1.
</event>
<event>
11    1  0.6763327E-009  0.1786111E+03  0.7561462E-02  0.1070772E+00
         22   -1    0    0    0    0  0.00000000000E+00  0.00000000000E+00  0.13259025924E+04  0.13259025924E+04  0.00000000000E+00 0.  1.
         22   -1    0    0    0    0 -0.00000000000E+00 -0.00000000000E+00 -0.43628139699E+03  0.43628139699E+03  0.00000000000E+00 0. -1.
         24    2    1    2    0    0 -0.89929521997E+02 -0.90809684071E+02 -0.40500154151E+03  0.43195942827E+03  0.78923896265E+02 0.  0.
         25    2    1    2    0    0  0.22401009357E+02  0.13471022047E+03  0.65789529675E+03  0.68346379554E+03  0.12509152493E+03 0.  0.
        -24    2    1    2    0    0  0.67528512640E+02 -0.43900536401E+02  0.63672744020E+03  0.64676076560E+03  0.79939337652E+02 0.  0.
        -13    1    3    3    0    0 -0.65539828156E+02 -0.12680571401E+02 -0.15103232800E+03  0.16512731472E+03  0.00000000000E+00 0.  1.
         14    1    3    3    0    0 -0.24389693840E+02 -0.78129112670E+02 -0.25396921351E+03  0.26683211356E+03  0.00000000000E+00 0. -1.
         11    1    5    5    0    0  0.39390968626E+02 -0.60086937783E+02  0.30049203393E+03  0.30896205424E+03  0.00000000000E+00 0. -1.
        -12    1    5    5    0    0  0.28137544014E+02  0.16186401382E+02  0.33623540627E+03  0.33779871136E+03  0.00000000000E+00 0.  1.
          5    1    4    4  501    0 -0.14099674199E+02 -0.88798251590E+01  0.12441480908E+02  0.21211198800E+02  0.41800000000E+01 0.  1.
         -5    1    4    4    0  501  0.36500683556E+02  0.14359004563E+03  0.64545381584E+03  0.66225259674E+03  0.41800000000E+01 0.  1.
</event>
<event>
11    1  0.6763327E-009  0.2636915E+03  0.7561462E-02  0.1016848E+00
         22   -1    0    0    0    0  0.00000000000E+00  0.00000000000E+00  0.12041896079E+04  0.12041896079E+04  0.00000000000E+00 0.  1.
         22   -1    0    0    0    0 -0.00000000000E+00 -0.00000000000E+00 -0.43417705298E+03  0.43417705298E+03  0.00000000000E+00 0.  1.
        -24    2    1    2    0    0  0.25528697666E+02 -0.43938358188E+02 -0.35697675617E+03  0.36980487507E+03  0.82103273099E+02 0.  0.
         25    2    1    2    0    0  0.19637751328E+03  0.11903862408E+03  0.26537228608E+03  0.37256412749E+03  0.12508899685E+03 0.  0.
         24    2    1    2    0    0 -0.22190621094E+03 -0.75100265897E+02  0.86161702503E+03  0.89599765834E+03  0.74468043716E+02 0.  0.
        -11    1    5    5    0    0 -0.58285105226E+02 -0.56378177343E+02  0.29208816991E+03  0.30313553301E+03  0.00000000000E+00 0.  1.
         12    1    5    5    0    0 -0.16362110572E+03 -0.18722088554E+02  0.56952885511E+03  0.59286212532E+03  0.00000000000E+00 0. -1.
         11    1    3    3    0    0 -0.94453244673E+01  0.70088711392E+01 -0.55845024385E+01  0.13020180353E+02  0.00000000000E+00 0. -1.
        -12    1    3    3    0    0  0.34974022133E+02 -0.50947229327E+02 -0.35139225373E+03  0.35678469471E+03  0.00000000000E+00 0.  1.
          5    1    4    4  501    0  0.13897551795E+03  0.13283674371E+03  0.15368070013E+03  0.24616056764E+03  0.41800000000E+01 0.  1.
         -5    1    4    4    0  501  0.57401995333E+02 -0.13798119622E+02  0.11169158595E+03  0.12640355986E+03  0.41800000000E+01 0.  1.
</event>
<event>
11    1  0.6763327E-009  0.1366757E+03  0.7561462E-02  0.1111328E+00
         22   -1    0    0    0    0  0.00000000000E+00  0.00000000000E+00  0.73854756834E+03  0.73854756834E+03  0.00000000000E+00 0. -1.
         22   -1    0    0    0    0 -0.00000000000E+00 -0.00000000000E+00 -0.53500280390E+02  0.53500280390E+02  0.00000000000E+00 0.  1.
        -24    2    1    2    0    0 -0.28697615055E+02  0.55677825817E+02  0.36190352551E+02  0.10641523867E+03  0.78044141397E+02 0.  0.
         25    2    1    2    0    0 -0.69330910989E+01 -0.23270630311E+02  0.33808473163E+03  0.36130120448E+03  0.12509070554E+03 0.  0.
         24    2    1    2    0    0  0.35630706154E+02 -0.32407195506E+02  0.31077220378E+03  0.32433140558E+03  0.79320391229E+02 0.  0.
        -11    1    5    5    0    0  0.47414873934E+01  0.35407801740E+01 -0.32507691121E+01  0.67517647147E+01  0.00000000000E+00 0.  1.
         12    1    5    5    0    0  0.30889218760E+02 -0.35947975680E+02  0.31402297289E+03  0.31757964087E+03  0.00000000000E+00 0. -1.
         11    1    3    3    0    0 -0.18468661027E+02 -0.14865349318E+02  0.24659612978E+02  0.34207697419E+02  0.00000000000E+00 0. -1.
        -12    1    3    3    0    0 -0.10228954028E+02  0.70543175136E+02  0.11530739572E+02  0.72207541253E+02  0.00000000000E+00 0.  1.
          5    1    4    4  501    0  0.33008821172E+02 -0.32710971493E+02  0.30464104846E+03  0.30819349561E+03  0.41800000000E+01 0. -1.
         -5    1    4    4    0  501 -0.39941912271E+02  0.94403411826E+01  0.33443683170E+02  0.53107708870E+02  0.41800000000E+01 0. -1.
</event>
<event>
11    1  0.6763327E-009  0.1897703E+03  0.7561462E-02  0.1062003E+00
         22   -1    0    0    0    0  0.00000000000E+00  0.00000000000E+00  0.90775296656E+03  0.90775296656E+03  0.00000000000E+00 0.  1.
         22   -1    0    0    0    0 -0.00000000000E+00 -0.00000000000E+00 -0.18046869195E+03  0.18046869195E+03  0.00000000000E+00 0.  1.
         24    2    1    2    0    0  0.77257275452E+02 -0.10685392313E+03 -0.73489045457E+02  0.16924912154E+03  0.76538734262E+02 0.  0.
         25    2    1    2    0    0 -0.15160843555E+03  0.14284629537E+03  0.22337343763E+03  0.33005222941E+03  0.12509436308E+03 0.  0.
        -24    2    1    2    0    0  0.74351160095E+02 -0.35992372236E+02  0.57739988243E+03  0.58892030755E+03  0.81320099306E+02 0.  0.
        -11    1    3    3    0    0  0.70139747975E+02 -0.10060948888E+03 -0.88681149897E+02  0.15134794298E+03  0.00000000000E+00 0.  1.
         12    1    3    3    0    0  0.71175274776E+01 -0.62444342525E+01  0.15192104440E+02  0.17901178560E+02  0.00000000000E+00 0. -1.
         13    1    5    5    0    0 -0.30132627521E+01 -0.35222101187E+02  0.12292975125E+03  0.12791168792E+03  0.00000000000E+00 0. -1.
        -14    1    5    5    0    0  0.77364422847E+02 -0.77027104938E+00  0.45447013118E+03  0.46100861963E+03  0.00000000000E+00 0.  1.
          5    1    4    4  501    0 -0.10988469221E+03  0.13574775900E+03  0.22804185694E+03  0.28726757661E+03  0.41800000000E+01 0.  1.
         -5    1    4    4    0  501 -0.41723743338E+02  0.70985363706E+01 -0.46684193094E+01  0.42784652805E+02  0.41800000000E+01 0.  1.
</event>
<event>
11    1  0.6763327E-009  0.1994599E+03  0.7561462E-02  0.1054906E+00
         22   -1    0    0    0    0  0.00000000000E+00  0.00000000000E+00  0.15857501721E+04  0.15857501721E+04  0.00000000000E+00 0. -1.
         22   -1    0    0    0    0 -0.00000000000E+00 -0.00000000000E+00 -0.66234173286E+03  0.66234173286E+03  0.00000000000E+00 0. -1.
        -24    2    1    2    0    0  0.54070625076E+02 -0.13338563515E+03 -0.47067853834E+03  0.49898593555E+03  0.82056792926E+02 0.  0.
         25    2    1    2    0    0 -0.10512757702E+03  0.21681605652E+03 -0.69306279523E+02  0.28019985008E+03  0.12509031052E+03 0.  0.
         24    2    1    2    0    0  0.51056951943E+02 -0.83430421371E+02  0.14633932571E+04  0.14689061193E+04  0.81227550230E+02 0.  0.
        -11    1    5    5    0    0 -0.87939847092E+01 -0.22469188642E+02  0.75419295917E+03  0.75457883502E+03  0.00000000000E+00 0.  1.
         12    1    5    5    0    0  0.59850936652E+02 -0.60961232729E+02  0.70920029794E+03  0.71432728431E+03  0.00000000000E+00 0. -1.
         13    1    3    3    0    0  0.50483535727E+02 -0.10295234804E+03 -0.44331177467E+03  0.45790075662E+03  0.00000000000E+00 0. -1.
        -14    1    3    3    0    0  0.35870893481E+01 -0.30433287116E+02 -0.27366763664E+02  0.41085178935E+02  0.00000000000E+00 0.  1.
          5    1    4    4  501    0  0.22204437201E+02  0.62056830515E+01  0.30765292947E+01  0.23632286518E+02  0.41800000000E+01 0. -1.
         -5    1    4    4    0  501 -0.12733201422E+03  0.21061037347E+03 -0.72382808818E+02  0.25656756356E+03  0.41800000000E+01 0. -1.
</event>
<event>
11    1  0.6763327E-009  0.1294205E+03  0.7561462E-02  0.1119983E+00
         22   -1    0    0    0    0  0.00000000000E+00  0.00000000000E+00  0.15022107653E+03  0.15022107653E+03  0.00000000000E+00 0. -1.
         22   -1    0    0    0    0 -0.00000000000E+00 -0.00000000000E+00 -0.82517014084E+03  0.82517014084E+03  0.00000000000E+00 0. -1.
        -24    2    1    2    0    0 -0.28398145639E+02 -0.18813798564E+02 -0.72352623429E+03  0.72843157278E+03  0.77213540472E+02 0.  0.
         25    2    1    2    0    0  0.17262195157E+01  0.24573899631E+02 -0.31018103643E+02  0.13121432093E+03  0.12509284107E+03 0.  0.
         24    2    1    2    0    0  0.26671926124E+02 -0.57601010673E+01  0.79595273615E+02  0.11574532365E+03  0.79479569439E+02 0.  0.
        -11    1    5    5    0    0  0.47286980659E+02 -0.85623277688E+01  0.18995897261E+02  0.51674133853E+02  0.00000000000E+00 0.  1.
         12    1    5    5    0    0 -0.20615054535E+02  0.28022267015E+01  0.60599376354E+02  0.64071189801E+02  0.00000000000E+00 0. -1.
         13    1    3    3    0    0  0.17793149783E+02 -0.27945910044E+02 -0.41653523385E+03  0.41785065646E+03  0.00000000000E+00 0. -1.
        -14    1    3    3    0    0 -0.46191295423E+02  0.91321114799E+01 -0.30699100044E+03  0.31058091632E+03  0.00000000000E+00 0.  1.
          5    1    4    4  501    0  0.21589837118E+02  0.23394295535E+02 -0.75643194407E+02  0.82175296717E+02  0.41800000000E+01 0.  1.
         -5    1    4    4    0  501 -0.19863617602E+02  0.11796040960E+01  0.44625090765E+02  0.49039024214E+02  0.41800000000E+01 0.  1.
</event>
<event>
11    1  0.6763327E-009  0.1461113E+03  0.7561462E-02  0.1100920E+00
         22   -1    0    0    0    0  0.00000000000E+00  0.00000000000E+00  0.68713354813E+03  0.68713354813E+03  0.00000000000E+00 0. -1.
         22   -1    0    0    0    0 -0.00000000000E+00 -0.00000000000E+00 -0.99860838248E+02  0.99860838248E+02  0.00000000000E+00 0. -1.
         24    2    1    2    0    0 -0.13854841529E+02 -0.36825542639E+02 -0.45044856312E+02  0.10071251429E+03  0.81030205659E+02 0.  0.
         25    2    1    2    0    0  0.53444197270E+02  0.85752212740E+02  0.34137442214E+03  0.37735257396E+03  0.12509494301E+03 0.  0.
        -24    2    1    2    0    0 -0.39589355741E+02 -0.48926670100E+02  0.29094314405E+03  0.30892929813E+03  0.82633298620E+02 0.  0.
        -13    1    3    3    0    0 -0.61417117934E+01  0.10590465012E+02  0.17803761169E+02  0.21606769418E+02  0.00000000000E+00 0.  1.
         14    1    3    3    0    0 -0.77131297352E+01 -0.47416007651E+02 -0.62848617481E+02  0.79105744868E+02  0.00000000000E+00 0. -1.
         13    1    5    5    0    0 -0.55307100852E+02 -0.80860905988E+01  0.20503920431E+03  0.21252137673E+03  0.00000000000E+00 0. -1.
        -14    1    5    5    0    0  0.15717745111E+02 -0.40840579502E+02  0.85903939743E+02  0.96407921400E+02  0.00000000000E+00 0.  1.
          5    1    4    4  501    0  0.13231963118E+02  0.95139549259E+02  0.12859973039E+03  0.16056768584E+03  0.41800000000E+01 0. -1.
         -5    1    4    4    0  501  0.40212234152E+02 -0.93873365195E+01  0.21277469176E+03  0.21678488811E+03  0.41800000000E+01 0. -1.
</event>
<event>
11    1  0.6763327E-009  0.1277671E+03  0.7561462E-02  0.1122043E+00
         22   -1    0    0    0    0  0.00000000000E+00  0.00000000000E+00  0.56065600326E+03  0.56065600326E+03  0.00000000000E+00 0.  1.
         22   -1    0    0    0    0 -0.00000000000E+00 -0.00000000000E+00 -0.53504149243E+02  0.53504149243E+02  0.00000000000E+00 0. -1.
        -24    2    1    2    0    0 -0.71307439313E+01  0.22924282728E+02  0.52251479445E+02  0.98909860244E+02  0.80477158881E+02 0.  0.
         25    2    1    2    0    0  0.22899814685E+01 -0.30767246066E+02  0.13808766475E+03  0.18885912814E+03  0.12509076577E+03 0.  0.
         24    2    1    2    0    0  0.48407624628E+01  0.78429633380E+01  0.31681270983E+03  0.32639116412E+03  0.77948405063E+02 0.  0.
        -11    1    5    5    0    0  0.24265916274E+02  0.35895959584E+02  0.20304770451E+03  0.20761918244E+03  0.00000000000E+00 0.  1.
         12    1    5    5    0    0 -0.19425153811E+02 -0.28052996246E+02  0.11376500532E+03  0.11877198169E+03  0.00000000000E+00 0. -1.
         13    1    3    3    0    0 -0.19564618978E+02  0.47426135491E+02  0.16647204247E+02  0.53936463108E+02  0.00000000000E+00 0. -1.
        -14    1    3    3    0    0  0.12433875047E+02 -0.24501852763E+02  0.35604275198E+02  0.44973397135E+02  0.00000000000E+00 0.  1.
          5    1    4    4  501    0 -0.21428300688E+02  0.42060823368E+02  0.78630863916E+02  0.91807244229E+02  0.41800000000E+01 0.  1.
         -5    1    4    4    0  501  0.23718282157E+02 -0.72828069434E+02  0.59456800830E+02  0.97051883913E+02  0.41800000000E+01 0.  1.
</event>
<event>
11    1  0.6763327E-009  0.1774869E+03  0.7561462E-02  0.1071694E+00
         22   -1    0    0    0    0  0.00000000000E+00  0.00000000000E+00  0.85901296274E+02  0.85901296274E+02  0.00000000000E+00 0. -1.
         22   -1    0    0    0    0 -0.00000000000E+00 -0.00000000000E+00 -0.90846985975E+03  0.90846985975E+03  0.00000000000E+00 0. -1.
         24    2    1    2    0    0 -0.18672049352E+02  0.41829949233E+02 -0.43570261174E+03  0.44555114842E+03  0.81121328241E+02 0.  0.
         25    2    1    2    0    0 -0.28220871762E+02  0.85095636026E+02 -0.35563831628E+03  0.38751171022E+03  0.12509607779E+03 0.  0.
        -24    2    1    2    0    0  0.46892921114E+02 -0.12692558526E+03 -0.31227635450E+02  0.16130829738E+03  0.82074060121E+02 0.  0.
        -11    1    3    3    0    0 -0.26815976552E+01  0.54217752589E+02 -0.15708100108E+03  0.16619625917E+03  0.00000000000E+00 0.  1.
         12    1    3    3    0    0 -0.15990451697E+02 -0.12387803356E+02 -0.27862161066E+03  0.27935488924E+03  0.00000000000E+00 0. -1.
         11    1    5    5    0    0  0.68627360134E+02 -0.10372041662E+03 -0.35231920296E+02  0.12926301710E+03  0.00000000000E+00 0. -1.
        -12    1    5    5    0    0 -0.21734439020E+02 -0.23205168639E+02  0.40042848457E+01  0.32045280280E+02  0.00000000000E+00 0.  1.
          5    1    4    4  501    0  0.43152891508E+02  0.34366990553E+02 -0.21317413188E+03  0.22023611191E+03  0.41800000000E+01 0.  1.
         -5    1    4    4    0  501 -0.71373763270E+02  0.50728645473E+02 -0.14246418440E+03  0.16727559832E+03  0.41800000000E+01 0.  1.
</event>
<event>
11    1  0.6763327E-009  0.1279589E+03  0.7561462E-02  0.1121803E+00
         22   -1    0    0    0    0  0.00000000000E+00  0.00000000000E+00  0.25122889155E+03  0.25122889155E+03  0.00000000000E+00 0.  1.
         22   -1    0    0    0    0 -0.00000000000E+00 -0.00000000000E+00 -0.13113803883E+03  0.13113803883E+03  0.00000000000E+00 0. -1.
         24    2    1    2    0    0  0.11590963510E+02 -0.19302723645E+02 -0.51821849676E+02  0.98155010036E+02  0.80261798610E+02 0.  0.
         25    2    1    2    0    0  0.13231093096E+02  0.30171583132E+02  0.55633396552E+02  0.14081096221E+03  0.12508903235E+03 0.  0.
        -24    2    1    2    0    0 -0.24822056607E+02 -0.10868859486E+02  0.11627930584E+03  0.14340095813E+03  0.79427270049E+02 0.  0.
        -11    1    3    3    0    0  0.38195412596E+02  0.77894706777E+01 -0.73329792855E+01  0.39665324680E+02  0.00000000000E+00 0.  1.
         12    1    3    3    0    0 -0.26604449085E+02 -0.27092194323E+02 -0.44488870391E+02  0.58489685356E+02  0.00000000000E+00 0. -1.
         13    1    5    5    0    0  0.71805190719E+00  0.23062816403E+02  0.40787575046E+01  0.23431717004E+02  0.00000000000E+00 0. -1.
        -14    1    5    5    0    0 -0.25540108514E+02 -0.33931675889E+02  0.11220054833E+03  0.11996924113E+03  0.00000000000E+00 0.  1.
          5    1    4    4  501    0  0.31156895357E+02  0.73846419218E+02  0.45796292126E+02  0.92405727810E+02  0.41800000000E+01 0. -1.
         -5    1    4    4    0  501 -0.17925802261E+02 -0.43674836086E+02  0.98371044260E+01  0.48405234400E+02  0.41800000000E+01 0. -1.
</event>
<event>
11    1  0.6763327E-009  0.1404473E+03  0.7561462E-02  0.1107060E+00
         22   -1    0    0    0    0  0.00000000000E+00  0.00000000000E+00  0.24038395581E+03  0.24038395581E+03  0.00000000000E+00 0. -1.
         22   -1    0    0    0    0 -0.00000000000E+00 -0.00000000000E+00 -0.77368496210E+03  0.77368496210E+03  0.00000000000E+00 0.  1.
        -24    2    1    2    0    0  0.52554915062E+02  0.52026004995E+02 -0.58269944359E+03  0.59297715734E+03  0.81329842466E+02 0.  0.
         25    2    1    2    0    0 -0.44603907474E+01 -0.21530710146E+02 -0.15152298811E+03  0.19771103352E+03  0.12508785026E+03 0.  0.
         24    2    1    2    0    0 -0.48094524315E+02 -0.30495294849E+02  0.20092142541E+03  0.22338072705E+03  0.79287349265E+02 0.  0.
        -13    1    5    5    0    0 -0.16290562156E+02 -0.15328447392E+02  0.32616038586E+01  0.22604905984E+02  0.00000000000E+00 0.  1.
         14    1    5    5    0    0 -0.31803962159E+02 -0.15166847457E+02  0.19765982155E+03  0.20077582107E+03  0.00000000000E+00 0. -1.
         11    1    3    3    0    0 -0.55034850254E+01  0.24838251047E+01 -0.79659471868E+00  0.60903446307E+01  0.00000000000E+00 0. -1.
        -12    1    3    3    0    0  0.58058400088E+02  0.49542179890E+02 -0.58190284887E+03  0.58688681271E+03  0.00000000000E+00 0.  1.
          5    1    4    4  501    0 -0.40579715375E+02  0.35154664667E+02 -0.97468623789E+02  0.11135604506E+03  0.41800000000E+01 0.  1.
         -5    1    4    4    0  501  0.36119324627E+02 -0.56685374814E+02 -0.54054364322E+02  0.86354988457E+02  0.41800000000E+01 0.  1.
</event>
<event>
11    1  0.6763327E-009  0.1370204E+03  0.7561462E-02  0.1110932E+00
         22   -1    0    0    0    0  0.00000000000E+00  0.00000000000E+00  0.18185206862E+03  0.18185206862E+03  0.00000000000E+00 0. -1.
         22   -1    0    0    0    0 -0.00000000000E+00 -0.00000000000E+00 -0.13706524345E+04  0.13706524345E+04  0.00000000000E+00 0. -1.
        -24    2    1    2    0    0 -0.52015707609E+02  0.13820644536E+02 -0.11046757056E+04  0.11089827723E+04  0.81472269723E+02 0.  0.
         25    2    1    2    0    0  0.64326304055E+02 -0.57256850433E+02 -0.22752088950E+03  0.27355566213E+03  0.12510285693E+03 0.  0.
         24    2    1    2    0    0 -0.12310596447E+02  0.43436205897E+02  0.14339622924E+03  0.16996606863E+03  0.79295215232E+02 0.  0.
        -13    1    5    5    0    0  0.29864289448E+02  0.10425668034E+01  0.33787401449E+02  0.45105999894E+02  0.00000000000E+00 0.  1.
         14    1    5    5    0    0 -0.42174885894E+02  0.42393639094E+02  0.10960882779E+03  0.12486006874E+03  0.00000000000E+00 0. -1.
         11    1    3    3    0    0  0.16235232865E+02  0.22561641164E+02 -0.39605837720E+03  0.39703255356E+03  0.00000000000E+00 0. -1.
        -12    1    3    3    0    0 -0.68250940474E+02 -0.87409966277E+01 -0.70861732839E+03  0.71195021876E+03  0.00000000000E+00 0.  1.
          5    1    4    4  501    0  0.78752293752E+01 -0.27802501373E+02 -0.20316952270E+03  0.20525673113E+03  0.41800000000E+01 0. -1.
         -5    1    4    4    0  501  0.56451074680E+02 -0.29454349060E+02 -0.24351366797E+02  0.68298931002E+02  0.41800000000E+01 0. -1.
</event>
<event>
11    1  0.6763327E-009  0.1411965E+03  0.7561462E-02  0.1106230E+00
         22   -1    0    0    0    0  0.00000000000E+00  0.00000000000E+00  0.92346166088E+03  0.92346166088E+03  0.00000000000E+00 0.  1.
         22   -1    0    0    0    0 -0.00000000000E+00 -0.00000000000E+00 -0.22575727067E+03  0.22575727067E+03  0.00000000000E+00 0.  1.
         24    2    1    2    0    0  0.60607420596E+02 -0.28748973713E+02 -0.16081616415E+03  0.19306846605E+03  0.83149449846E+02 0.  0.
         25    2    1    2    0    0 -0.38497237940E+02  0.46515096340E+02  0.56669298226E+02  0.15001000498E+03  0.12508357493E+03 0.  0.
        -24    2    1    2    0    0 -0.22110182656E+02 -0.17766122628E+02  0.80185125613E+03  0.80614046052E+03  0.78054531214E+02 0.  0.
        -13    1    3    3    0    0  0.74790396852E+02 -0.34287906559E+02 -0.15718412353E+03  0.17741508585E+03  0.00000000000E+00 0.  1.
         14    1    3    3    0    0 -0.14182976256E+02  0.55389328459E+01 -0.36320406183E+01  0.15653380197E+02  0.00000000000E+00 0. -1.
         11    1    5    5    0    0 -0.47487312305E+02  0.61131595134E+01  0.42850579431E+03  0.43117239164E+03  0.00000000000E+00 0. -1.
        -12    1    5    5    0    0  0.25377129650E+02 -0.23879282141E+02  0.37334546182E+03  0.37496806889E+03  0.00000000000E+00 0.  1.
          5    1    4    4  501    0 -0.15363055025E+02  0.48765416107E+02 -0.30511740798E+02  0.59686916442E+02  0.41800000000E+01 0.  1.
         -5    1    4    4    0  501 -0.23134182916E+02 -0.22503197668E+01  0.87181039024E+02  0.90323088541E+02  0.41800000000E+01 0.  1.
</event>
<event>
11    1  0.6763327E-009  0.1259669E+03  0.7561462E-02  0.1124326E+00
         22   -1    0    0    0    0  0.00000000000E+00  0.00000000000E+00  0.98053120123E+02  0.98053120123E+02  0.00000000000E+00 0. -1.
         22   -1    0    0    0    0 -0.00000000000E+00 -0.00000000000E+00 -0.11220447125E+04  0.11220447125E+04  0.00000000000E+00 0.  1.
        -24    2    1    2    0    0  0.59328856941E+01  0.88363107830E+00 -0.90830724918E+03  0.91184899536E+03  0.80065919648E+02 0.  0.
         25    2    1    2    0    0 -0.18693525837E+02 -0.70477022441E+01 -0.16919123798E+03  0.21136377490E+03  0.12509936976E+03 0.  0.
         24    2    1    2    0    0  0.12760640143E+02  0.61640711658E+01  0.53506894811E+02  0.96885062335E+02  0.79516651093E+02 0.  0.
        -11    1    5    5    0    0  0.35817804247E+02  0.95198814794E+01 -0.15573479035E+01  0.37094050426E+02  0.00000000000E+00 0.  1.
         12    1    5    5    0    0 -0.23057164105E+02 -0.33558103136E+01  0.55064242715E+02  0.59791011909E+02  0.00000000000E+00 0. -1.
         11    1    3    3    0    0 -0.69181366655E+01  0.11952577887E+02 -0.26535749696E+02  0.29914390266E+02  0.00000000000E+00 0. -1.
        -12    1    3    3    0    0  0.12851022360E+02 -0.11068946809E+02 -0.88177149949E+03  0.88193460510E+03  0.00000000000E+00 0.  1.
          5    1    4    4  501    0  0.11627785736E+02  0.23437584680E+02 -0.16594008632E+03  0.16804199006E+03  0.41800000000E+01 0.  1.
         -5    1    4    4    0  501 -0.30321311573E+02 -0.30485286924E+02 -0.32511516609E+01  0.43321784837E+02  0.41800000000E+01 0.  1.
</event>
<event>
11    1  0.6763327E-009  0.1390752E+03  0.7561462E-02  0.1108596E+00
         22   -1    0    0    0    0  0.00000000000E+00  0.00000000000E+00  0.59981823874E+02  0.59981823874E+02  0.00000000000E+00 0.  1.
         22   -1    0    0    0    0 -0.00000000000E+00 -0.00000000000E+00 -0.16903233399E+04  0.16903233399E+04  0.00000000000E+00 0. -1.
        -24    2    1    2    0    0  0.17729502677E+02 -0.39869741311E+02 -0.13827812985E+04  0.13858037497E+04  0.80398891266E+02 0.  0.
         25    2    1    2    0    0 -0.25076040872E+01  0.90556017502E+02 -0.21119434003E+03  0.26164044275E+03  0.12508393837E+03 0.  0.
         24    2    1    2    0    0 -0.15221898589E+02 -0.50686276191E+02 -0.36365877427E+02  0.10286097123E+03  0.80356067418E+02 0.  0.
        -13    1    5    5    0    0  0.67748930050E+01 -0.62455397474E+02 -0.53387240893E+01  0.63048218244E+02  0.00000000000E+00 0.  1.
         14    1    5    5    0    0 -0.21996791594E+02  0.11769121283E+02 -0.31027153338E+02  0.39812752988E+02  0.00000000000E+00 0. -1.
         13    1    3    3    0    0  0.20286590163E+02 -0.65662862634E+01 -0.11871517327E+04  0.11873432100E+04  0.00000000000E+00 0. -1.
        -14    1    3    3    0    0 -0.25570874868E+01 -0.33303455047E+02 -0.19562956578E+03  0.19846053971E+03  0.00000000000E+00 0.  1.
          5    1    4    4  501    0  0.22791818197E+02  0.42164260786E+02 -0.50858875183E+01  0.48380063210E+02  0.41800000000E+01 0.  1.
         -5    1    4    4    0  501 -0.25299422284E+02  0.48391756716E+02 -0.20610845251E+03  0.21326037954E+03  0.41800000000E+01 0.  1.
</event>
<event>
11    1  0.6763327E-009  0.1281589E+03  0.7561462E-02  0.1121552E+00
         22   -1    0    0    0    0  0.00000000000E+00  0.00000000000E+00  0.38331557156E+03  0.38331557156E+03  0.00000000000E+00 0. -1.
         22   -1    0    0    0    0 -0.00000000000E+00 -0.00000000000E+00 -0.31608285044E+03  0.31608285044E+03  0.00000000000E+00 0.  1.
         24    2    1    2    0    0  0.30437095279E+01 -0.10540496921E+02 -0.20486988970E+03  0.21975928302E+03  0.78753441343E+02 0.  0.
         25    2    1    2    0    0 -0.19329631039E+02  0.32438491941E+02 -0.54198370497E+02  0.14145961215E+03  0.12508984015E+03 0.  0.
        -24    2    1    2    0    0  0.16285921511E+02 -0.21897995020E+02  0.32630098131E+03  0.33817952683E+03  0.84547670216E+02 0.  0.
        -11    1    3    3    0    0  0.53044523350E+01 -0.21804956627E+02 -0.20688182431E+03  0.20809536895E+03  0.00000000000E+00 0.  1.
         12    1    3    3    0    0 -0.22607428071E+01  0.11264459707E+02  0.20119346097E+01  0.11663914068E+02  0.00000000000E+00 0. -1.
         11    1    5    5    0    0  0.35120375999E+02 -0.99099899001E+01  0.30547868464E+03  0.30765057367E+03  0.00000000000E+00 0. -1.
        -12    1    5    5    0    0 -0.18834454488E+02 -0.11988005120E+02  0.20822296675E+02  0.30528953167E+02  0.00000000000E+00 0.  1.
          5    1    4    4  501    0 -0.85031939727E+01 -0.16755708118E+02 -0.81686570263E+02  0.83923931173E+02  0.41800000000E+01 0. -1.
         -5    1    4    4    0  501 -0.10826437066E+02  0.49194200059E+02  0.27488199766E+02  0.57535680976E+02  0.41800000000E+01 0. -1.
</event>
<event>
11    1  0.6763327E-009  0.1282556E+03  0.7561462E-02  0.1121431E+00
         22   -1    0    0    0    0  0.00000000000E+00  0.00000000000E+00  0.29767295102E+03  0.29767295102E+03  0.00000000000E+00 0.  1.
         22   -1    0    0    0    0 -0.00000000000E+00 -0.00000000000E+00 -0.17573064389E+04  0.17573064389E+04  0.00000000000E+00 0.  1.
         24    2    1    2    0    0  0.24981121575E+02 -0.12642013751E+02 -0.16455938702E+04  0.16478796901E+04  0.82124359575E+02 0.  0.
         25    2    1    2    0    0 -0.46080760842E+02 -0.26085653001E+01 -0.60458115201E+02  0.14640109927E+03  0.12509139475E+03 0.  0.
        -24    2    1    2    0    0  0.21099639267E+02  0.15250579051E+02  0.24641849755E+03  0.26069860053E+03  0.81017957552E+02 0.  0.
        -11    1    3    3    0    0 -0.13640628001E+02 -0.17363212938E+02 -0.12855299984E+04  0.12857196136E+04  0.00000000000E+00 0.  1.
         12    1    3    3    0    0  0.38621749576E+02  0.47211991873E+01 -0.36006387180E+03  0.36216007654E+03  0.00000000000E+00 0. -1.
         13    1    5    5    0    0  0.34674468152E+01 -0.67631900375E+01 -0.40739494644E+01  0.86232819239E+01  0.00000000000E+00 0. -1.
        -14    1    5    5    0    0  0.17632192452E+02  0.22013769088E+02  0.25049244701E+03  0.25207531861E+03  0.00000000000E+00 0.  1.
          5    1    4    4  501    0 -0.43074786464E+02  0.28386323041E+02  0.23437089683E+02  0.56815404051E+02  0.41800000000E+01 0.  1.
         -5    1    4    4    0  501 -0.30059743781E+01 -0.30994888341E+02 -0.83895204884E+02  0.89585695218E+02  0.41800000000E+01 0.  1.
</event>
<event>
11    1  0.6763327E-009  0.1368180E+03  0.7561462E-02  0.1111165E+00
         22   -1    0    0    0    0  0.00000000000E+00  0.00000000000E+00  0.93695137790E+03  0.93695137790E+03  0.00000000000E+00 0.  1.
         22   -1    0    0    0    0 -0.00000000000E+00 -0.00000000000E+00 -0.70647579749E+03  0.70647579749E+03  0.00000000000E+00 0. -1.
        -24    2    1    2    0    0  0.40068406637E+02 -0.39167682332E+02 -0.65989307345E+03  0.66743808494E+03  0.82916489832E+02 0.  0.
         25    2    1    2    0    0 -0.27614000654E+02  0.26482920374E+02  0.63929923954E+02  0.14559995632E+03  0.12509370089E+03 0.  0.
         24    2    1    2    0    0 -0.12454405983E+02  0.12684761958E+02  0.82643872990E+03  0.83038913413E+03  0.78924802052E+02 0.  0.
        -13    1    5    5    0    0  0.24707559007E+02 -0.71660845305E+01  0.56431287571E+03  0.56489896259E+03  0.00000000000E+00 0.  1.
         14    1    5    5    0    0 -0.37161964990E+02  0.19850846489E+02  0.26212585419E+03  0.26549017154E+03  0.00000000000E+00 0. -1.
         13    1    3    3    0    0  0.22003768092E+02  0.10418719352E+02 -0.46162428629E+03  0.46226582960E+03  0.00000000000E+00 0. -1.
        -14    1    3    3    0    0  0.18064638544E+02 -0.49586401684E+02 -0.19826878716E+03  0.20517225534E+03  0.00000000000E+00 0.  1.
          5    1    4    4  501    0 -0.15341842474E+02 -0.48688433953E+02  0.10015733789E+02  0.52189300193E+02  0.41800000000E+01 0.  1.
         -5    1    4    4    0  501 -0.12272158179E+02  0.75171354327E+02  0.53914190165E+02  0.93410656132E+02  0.41800000000E+01 0.  1.
</event>
<event>
11    1  0.6763327E-009  0.1355351E+03  0.7561462E-02  0.1112649E+00
         22   -1    0    0    0    0  0.00000000000E+00  0.00000000000E+00  0.29838543108E+03  0.29838543108E+03  0.00000000000E+00 0.  1.
         22   -1    0    0    0    0 -0.00000000000E+00 -0.00000000000E+00 -0.14920113199E+04  0.14920113199E+04  0.00000000000E+00 0.  1.
        -24    2    1    2    0    0 -0.41574450358E+02 -0.31686283252E+02 -0.14410760858E+04  0.14441156804E+04  0.77700436680E+02 0.  0.
         25    2    1    2    0    0  0.35125905107E+02  0.28406782606E+02  0.68071740641E+02  0.14940580664E+03  0.12509020216E+03 0.  0.
         24    2    1    2    0    0  0.64485452515E+01  0.32795006460E+01  0.17937845639E+03  0.19687526388E+03  0.80813984274E+02 0.  0.
        -11    1    5    5    0    0 -0.52243557752E+01 -0.32640851244E+02  0.13308564698E+03  0.13712953181E+03  0.00000000000E+00 0.  1.
         12    1    5    5    0    0  0.11672901027E+02  0.35920351890E+02  0.46292809410E+02  0.59745732076E+02  0.00000000000E+00 0. -1.
         13    1    3    3    0    0 -0.22856209263E+02  0.22705404360E+02 -0.33523069197E+03  0.33677523443E+03  0.00000000000E+00 0. -1.
        -14    1    3    3    0    0 -0.18718241095E+02 -0.54391687612E+02 -0.11058453939E+04  0.11073404460E+04  0.00000000000E+00 0.  1.
          5    1    4    4  501    0  0.34538122746E+02 -0.96546633945E+01 -0.28189953410E+02  0.45806553257E+02  0.41800000000E+01 0.  1.
         -5    1    4    4    0  501  0.58778236059E+00  0.38061446001E+02  0.96261694051E+02  0.10359925338E+03  0.41800000000E+01 0.  1.
</event>
<event>
11    1  0.6763327E-009  0.3145933E+03  0.7561462E-02  0.9941974E-01
         22   -1    0    0    0    0  0.00000000000E+00  0.00000000000E+00  0.58579327399E+03  0.58579327399E+03  0.00000000000E+00 0.  1.
         22   -1    0    0    0    0 -0.00000000000E+00 -0.00000000000E+00 -0.80666424296E+03  0.80666424296E+03  0.00000000000E+00 0. -1.
        -24    2    1    2    0    0 -0.23854104239E+03 -0.17655311416E+03 -0.62190833885E+03  0.69364887689E+03  0.79410021086E+02 0.  0.
         25    2    1    2    0    0  0.28419971238E+03  0.16627859021E+02  0.68290680582E+02  0.31836596083E+03  0.12508919116E+03 0.  0.
         24    2    1    2    0    0 -0.45658669988E+02  0.15992525514E+03  0.33274668929E+03  0.38044267923E+03  0.79721211515E+02 0.  0.
        -13    1    5    5    0    0 -0.64773899377E+02  0.94672839500E+02  0.18297855401E+03  0.21596239443E+03  0.00000000000E+00 0.  1.
         14    1    5    5    0    0  0.19115229389E+02  0.65252415644E+02  0.14976813528E+03  0.16448028480E+03  0.00000000000E+00 0. -1.
         11    1    3    3    0    0 -0.18967041583E+03 -0.99365087142E+02 -0.46821538145E+03  0.51485330980E+03  0.00000000000E+00 0. -1.
        -12    1    3    3    0    0 -0.48870626561E+02 -0.77188027023E+02 -0.15369295740E+03  0.17879556709E+03  0.00000000000E+00 0.  1.
          5    1    4    4  501    0  0.12797486399E+03 -0.40664864871E+02  0.70874633342E+02  0.15189431556E+03  0.41800000000E+01 0. -1.
         -5    1    4    4    0  501  0.15622484839E+03  0.57292723892E+02 -0.25839527598E+01  0.16647164527E+03  0.41800000000E+01 0. -1.
</event>
<event>
11    1  0.6763327E-009  0.1371954E+03  0.7561462E-02  0.1110731E+00
         22   -1    0    0    0    0  0.00000000000E+00  0.00000000000E+00  0.17421075382E+04  0.17421075382E+04  0.00000000000E+00 0.  1.
         22   -1    0    0    0    0 -0.00000000000E+00 -0.00000000000E+00 -0.49729169486E+03  0.49729169486E+03  0.00000000000E+00 0. -1.
         24    2    1    2    0    0  0.31513088544E+02  0.17996012007E+02 -0.39790312833E+03  0.40727153742E+03  0.78906745302E+02 0.  0.
         25    2    1    2    0    0 -0.19658381360E+02 -0.72897259390E+02 -0.36001424921E+02  0.15048311561E+03  0.12509437679E+03 0.  0.
        -24    2    1    2    0    0 -0.11854707184E+02  0.54901247384E+02  0.16787203966E+04  0.16816445800E+04  0.81680123542E+02 0.  0.
        -11    1    3    3    0    0  0.32281516138E+02  0.83985150088E+01 -0.55636388069E+02  0.64869399688E+02  0.00000000000E+00 0.  1.
         12    1    3    3    0    0 -0.76842759413E+00  0.95974969980E+01 -0.34226674026E+03  0.34240213773E+03  0.00000000000E+00 0. -1.
         11    1    5    5    0    0 -0.12396596597E+01 -0.10175359802E+02  0.31937947521E+02  0.33542617593E+02  0.00000000000E+00 0. -1.
        -12    1    5    5    0    0 -0.10615047524E+02  0.65076607185E+02  0.16467824491E+04  0.16481019624E+04  0.00000000000E+00 0.  1.
          5    1    4    4  501    0  0.43731895406E+01 -0.23218179854E+02  0.45808291297E+02  0.51711513361E+02  0.41800000000E+01 0.  1.
         -5    1    4    4    0  501 -0.24031570901E+02 -0.49679079536E+02 -0.81809716218E+02  0.98771602251E+02  0.41800000000E+01 0.  1.
</event>
<event>
11    1  0.6763327E-009  0.1406085E+03  0.7561462E-02  0.1106881E+00
         22   -1    0    0    0    0  0.00000000000E+00  0.00000000000E+00  0.10812994084E+03  0.10812994084E+03  0.00000000000E+00 0.  1.
         22   -1    0    0    0    0 -0.00000000000E+00 -0.00000000000E+00 -0.36275715897E+04  0.36275715897E+04  0.00000000000E+00 0. -1.
        -24    2    1    2    0    0 -0.36245304904E+02 -0.15482769565E+02 -0.32382368156E+04  0.32396884494E+04  0.88601000255E+02 0.  0.
         25    2    1    2    0    0  0.77758395359E+02  0.60938066020E+02 -0.34221298124E+03  0.37751229508E+03  0.12508394167E+03 0.  0.
         24    2    1    2    0    0 -0.41513090455E+02 -0.45455296454E+02  0.61008147996E+02  0.11850078601E+03  0.80814117003E+02 0.  0.
        -13    1    5    5    0    0  0.19979646930E+02 -0.32150803090E+02  0.30324096084E+02  0.48501662178E+02  0.00000000000E+00 0.  1.
         14    1    5    5    0    0 -0.61492737385E+02 -0.13304493365E+02  0.30684051912E+02  0.69999123827E+02  0.00000000000E+00 0. -1.
         13    1    3    3    0    0 -0.45727812054E+02  0.24041060524E+02 -0.22873311240E+04  0.22879144818E+04  0.00000000000E+00 0. -1.
        -14    1    3    3    0    0  0.94825071504E+01 -0.39523830090E+02 -0.95090569159E+03  0.95177396759E+03  0.00000000000E+00 0.  1.
          5    1    4    4  501    0  0.83425837869E+02  0.80913767618E+02 -0.18251949374E+03  0.21642029990E+03  0.41800000000E+01 0.  1.
         -5    1    4    4    0  501 -0.56674425094E+01 -0.19975701598E+02 -0.15969348750E+03  0.16109199517E+03  0.41800000000E+01 0.  1.
</event>
<event>
11    1  0.6763327E-009  0.1494978E+03  0.7561462E-02  0.1097393E+00
         22   -1    0    0    0    0  0.00000000000E+00  0.00000000000E+00  0.26207620657E+03  0.26207620657E+03  0.00000000000E+00 0. -1.
         22   -1    0    0    0    0 -0.00000000000E+00 -0.00000000000E+00 -0.14495654170E+04  0.14495654170E+04  0.00000000000E+00 0.  1.
         24    2    1    2    0    0 -0.32264267059E+02  0.73170948739E+02 -0.12190576567E+04  0.12243992142E+04  0.81589795232E+02 0.  0.
         25    2    1    2    0    0  0.10149090111E+03 -0.70217753537E+02 -0.17715409092E+03  0.24953791985E+03  0.12511860611E+03 0.  0.
        -24    2    1    2    0    0 -0.69226634046E+02 -0.29531952014E+01  0.20872253712E+03  0.23770448960E+03  0.90206865869E+02 0.  0.
        -11    1    3    3    0    0 -0.43183312863E+02  0.29830891681E+02 -0.96601449462E+03  0.96743924069E+03  0.00000000000E+00 0.  1.
         12    1    3    3    0    0  0.10919045804E+02  0.43340057058E+02 -0.25304316205E+03  0.25695997348E+03  0.00000000000E+00 0. -1.
         11    1    5    5    0    0 -0.24407253618E+02  0.60056573521E+01  0.18406164128E+03  0.18576993766E+03  0.00000000000E+00 0. -1.
        -12    1    5    5    0    0 -0.44819380429E+02 -0.89588525535E+01  0.24660895846E+02  0.51934551938E+02  0.00000000000E+00 0.  1.
          5    1    4    4  501    0  0.11219228105E+03 -0.11023782745E+02 -0.13518595284E+03  0.17607199085E+03  0.41800000000E+01 0.  1.
         -5    1    4    4    0  501 -0.10701379947E+02 -0.59193970793E+02 -0.41968138078E+02  0.73465929006E+02  0.41800000000E+01 0.  1.
</event>
<event>
11    1  0.6763327E-009  0.1474957E+03  0.7561462E-02  0.1099466E+00
         22   -1    0    0    0    0  0.00000000000E+00  0.00000000000E+00  0.81622475548E+03  0.81622475548E+03  0.00000000000E+00 0.  1.
         22   -1    0    0    0    0 -0.00000000000E+00 -0.00000000000E+00 -0.13251925366E+03  0.13251925366E+03  0.00000000000E+00 0. -1.
        -24    2    1    2    0    0 -0.37159531436E+02  0.33710869002E+00 -0.81349315379E+02  0.12129059088E+03  0.81931385350E+02 0.  0.
         25    2    1    2    0    0 -0.47554135667E+02 -0.38636144611E+01  0.14934005145E+03  0.20056756743E+03  0.12509426366E+03 0.  0.
         24    2    1    2    0    0  0.84713667103E+02  0.35265057710E+01  0.61571476576E+03  0.62688585082E+03  0.81806818529E+02 0.  0.
        -11    1    5    5    0    0  0.98779074471E+02 -0.47152519951E+01  0.56577548442E+03  0.57435306034E+03  0.00000000000E+00 0.  1.
         12    1    5    5    0    0 -0.14065407368E+02  0.82417577661E+01  0.49939281340E+02  0.52532790486E+02  0.00000000000E+00 0. -1.
         13    1    3    3    0    0  0.21981065927E+02  0.13587434336E+02 -0.10085285284E+02  0.27739837966E+02  0.00000000000E+00 0. -1.
        -14    1    3    3    0    0 -0.59140597363E+02 -0.13250325646E+02 -0.71264030095E+02  0.93550752918E+02  0.00000000000E+00 0.  1.
          5    1    4    4  501    0 -0.63358165347E+02  0.19451517782E+02  0.21811625421E+02  0.69898770116E+02  0.41800000000E+01 0.  1.
         -5    1    4    4    0  501  0.15804029680E+02 -0.23315132243E+02  0.12752842603E+03  0.13066879731E+03  0.41800000000E+01 0.  1.
</event>
<event>
11    1  0.6763327E-009  0.1400638E+03  0.7561462E-02  0.1107487E+00
         22   -1    0    0    0    0  0.00000000000E+00  0.00000000000E+00  0.20090804044E+03  0.20090804044E+03  0.00000000000E+00 0.  1.
         22   -1    0    0    0    0 -0.00000000000E+00 -0.00000000000E+00 -0.30699397767E+03  0.30699397767E+03  0.00000000000E+00 0. -1.
         24    2    1    2    0    0 -0.19917284663E+02  0.31477035098E+01 -0.15453806461E+03  0.17509386627E+03  0.79807533004E+02 0.  0.
         25    2    1    2    0    0 -0.12633792176E+02 -0.58105533407E+02 -0.86378129261E+02  0.16323313940E+03  0.12509200960E+03 0.  0.
        -24    2    1    2    0    0  0.32551076840E+02  0.54957829897E+02  0.13483025665E+03  0.16957501244E+03  0.80601185268E+02 0.  0.
        -11    1    3    3    0    0 -0.45691848922E+01 -0.37905956845E+02 -0.79514881099E+02  0.88206322512E+02  0.00000000000E+00 0.  1.
         12    1    3    3    0    0 -0.15348099771E+02  0.41053660355E+02 -0.75023183515E+02  0.86887543755E+02  0.00000000000E+00 0. -1.
         13    1    5    5    0    0  0.29292837722E+02 -0.27554371382E+01  0.84645191326E+01  0.30615532982E+02  0.00000000000E+00 0. -1.
        -14    1    5    5    0    0  0.32582391179E+01  0.57713267035E+02  0.12636573752E+03  0.13895947946E+03  0.00000000000E+00 0.  1.
          5    1    4    4  501    0 -0.14380798781E+02 -0.84588294733E+02 -0.15311978962E+02  0.87257756556E+02  0.41800000000E+01 0.  1.
         -5    1    4    4    0  501  0.17470066046E+01  0.26482761326E+02 -0.71066150299E+02  0.75975382841E+02  0.41800000000E+01 0.  1.
</event>
<event>
11    1  0.6763327E-009  0.1664685E+03  0.7561462E-02  0.1081146E+00
         22   -1    0    0    0    0  0.00000000000E+00  0.00000000000E+00  0.86048191647E+03  0.86048191647E+03  0.00000000000E+00 0.  1.
         22   -1    0    0    0    0 -0.00000000000E+00 -0.00000000000E+00 -0.66032584254E+03  0.66032584254E+03  0.00000000000E+00 0. -1.
         24    2    1    2    0    0 -0.11059777486E+03  0.72176414846E+01 -0.56951743982E+03  0.58569069510E+03  0.79996961928E+02 0.  0.
         25    2    1    2    0    0  0.10063326977E+03  0.87781569227E+01 -0.33465021538E+00  0.16078558731E+03  0.12509109509E+03 0.  0.
        -24    2    1    2    0    0  0.99645050883E+01 -0.15995798407E+02  0.77000816396E+03  0.77433147660E+03  0.79507899971E+02 0.  0.
        -11    1    3    3    0    0 -0.35082991892E+02  0.15177251951E+02 -0.64340886850E+02  0.74839261204E+02  0.00000000000E+00 0.  1.
         12    1    3    3    0    0 -0.75514782969E+02 -0.79596104661E+01 -0.50517655297E+03  0.51085143390E+03  0.00000000000E+00 0. -1.
         13    1    5    5    0    0  0.15762851001E+02  0.73060509955E+01  0.36433540020E+02  0.40363952868E+02  0.00000000000E+00 0. -1.
        -14    1    5    5    0    0 -0.57983459123E+01 -0.23301849403E+02  0.73357462394E+03  0.73396752373E+03  0.00000000000E+00 0.  1.
          5    1    4    4  501    0  0.69317137547E+02 -0.14002604024E+01  0.60090908208E+02  0.91843431644E+02  0.41800000000E+01 0.  1.
         -5    1    4    4    0  501  0.31316132226E+02  0.10178417325E+02 -0.60425558423E+02  0.68942155664E+02  0.41800000000E+01 0.  1.
</event>
<event>
11    1  0.6763327E-009  0.1497934E+03  0.7561462E-02  0.1097090E+00
         22   -1    0    0    0    0  0.00000000000E+00  0.00000000000E+00  0.60329524662E+03  0.60329524662E+03  0.00000000000E+00 0. -1.
         22   -1    0    0    0    0 -0.00000000000E+00 -0.00000000000E+00 -0.15782048798E+03  0.15782048798E+03  0.00000000000E+00 0.  1.
         24    2    1    2    0    0  0.53551487555E+02 -0.27732851765E+02 -0.88288484550E+02  0.13237986487E+03  0.78055744392E+02 0.  0.
         25    2    1    2    0    0 -0.86473493756E+02 -0.47881798635E+02  0.12107451203E+03  0.20019027209E+03  0.12508707293E+03 0.  0.
        -24    2    1    2    0    0  0.32922006201E+02  0.75614650400E+02  0.41268873116E+03  0.42854559763E+03  0.80857322308E+02 0.  0.
        -11    1    3    3    0    0 -0.60707052427E+00  0.11699246960E+02 -0.57445840159E+02  0.58628196848E+02  0.00000000000E+00 0.  1.
         12    1    3    3    0    0  0.54158558079E+02 -0.39432098725E+02 -0.30842644391E+02  0.73751668022E+02  0.00000000000E+00 0. -1.
         13    1    5    5    0    0  0.35615404304E+02  0.83801050375E+02  0.25763207141E+03  0.27324962449E+03  0.00000000000E+00 0. -1.
        -14    1    5    5    0    0 -0.26933981036E+01 -0.81863999743E+01  0.15505665975E+03  0.15529597313E+03  0.00000000000E+00 0.  1.
          5    1    4    4  501    0 -0.28696844974E+02 -0.45817744168E+02  0.13063593783E+03  0.14144255104E+03  0.41800000000E+01 0.  1.
         -5    1    4    4    0  501 -0.57776648782E+02 -0.20640544672E+01 -0.95614258041E+01  0.58747721051E+02  0.41800000000E+01 0.  1.
</event>
<event>
11    1  0.6763327E-009  0.1286126E+03  0.7561462E-02  0.1120985E+00
         22   -1    0    0    0    0  0.00000000000E+00  0.00000000000E+00  0.55732647705E+03  0.55732647705E+03  0.00000000000E+00 0. -1.
         22   -1    0    0    0    0 -0.00000000000E+00 -0.00000000000E+00 -0.17158818414E+03  0.17158818414E+03  0.00000000000E+00 0. -1.
         24    2    1    2    0    0 -0.20043262755E+02  0.19802126646E+02 -0.13043224936E+03  0.15614080679E+03  0.81077267287E+02 0.  0.
         25    2    1    2    0    0  0.37715471369E+02 -0.43038552652E+02  0.18302754263E+03  0.22895980654E+03  0.12509491539E+03 0.  0.
        -24    2    1    2    0    0 -0.17672208615E+02  0.23236426006E+02  0.33314299965E+03  0.34381404786E+03  0.79822320444E+02 0.  0.
        -11    1    3    3    0    0 -0.34082835597E+02  0.25309003838E+02 -0.24244380166E+02  0.48887373904E+02  0.00000000000E+00 0.  1.
         12    1    3    3    0    0  0.14039572843E+02 -0.55068771915E+01 -0.10618786919E+03  0.10725343289E+03  0.00000000000E+00 0. -1.
         13    1    5    5    0    0  0.10248651240E+02 -0.73125343687E+01  0.25566884954E+03  0.25597864879E+03  0.00000000000E+00 0. -1.
        -14    1    5    5    0    0 -0.27920859855E+02  0.30548960375E+02  0.77474150110E+02  0.87835399073E+02  0.00000000000E+00 0.  1.
          5    1    4    4  501    0 -0.30246146393E+02  0.20892723580E+02  0.22686099322E+02  0.43398925939E+02  0.41800000000E+01 0.  1.
         -5    1    4    4    0  501  0.67961617762E+02 -0.63931276232E+02  0.16034144331E+03  0.18556088060E+03  0.41800000000E+01 0.  1.
</event>
<event>
11    1  0.6763327E-009  0.1410488E+03  0.7561462E-02  0.1106393E+00
         22   -1    0    0    0    0  0.00000000000E+00  0.00000000000E+00  0.55222041368E+02  0.55222041368E+02  0.00000000000E+00 0. -1.
         22   -1    0    0    0    0 -0.00000000000E+00 -0.00000000000E+00 -0.12929378004E+04  0.12929378004E+04  0.00000000000E+00 0. -1.
        -24    2    1    2    0    0 -0.38915427529E+02 -0.48387127187E+02 -0.72384783957E+03  0.73113126774E+03  0.82106706493E+02 0.  0.
         25    2    1    2    0    0 -0.30634418887E+02  0.49709344367E+02 -0.48634945968E+03  0.50556149500E+03  0.12508853568E+03 0.  0.
         24    2    1    2    0    0  0.69549846416E+02 -0.13222171804E+01 -0.27518459764E+02  0.11146707900E+03  0.82636037408E+02 0.  0.
        -11    1    5    5    0    0  0.60500086052E+02 -0.19733760654E+02 -0.50074965484E+02  0.80976440339E+02  0.00000000000E+00 0.  1.
         12    1    5    5    0    0  0.90497603641E+01  0.18411543473E+02  0.22556505720E+02  0.30490638662E+02  0.00000000000E+00 0. -1.
         11    1    3    3    0    0 -0.18604658302E+02  0.13619615345E+02 -0.40606253047E+03  0.40671661619E+03  0.00000000000E+00 0. -1.
        -12    1    3    3    0    0 -0.20310769227E+02 -0.62006742532E+02 -0.31778530909E+03  0.32441465155E+03  0.00000000000E+00 0.  1.
          5    1    4    4  501    0  0.16644578665E-01 -0.37784977342E+02 -0.77624278757E+02  0.86433245007E+02  0.41800000000E+01 0. -1.
         -5    1    4    4    0  501 -0.30651063466E+02  0.87494321709E+02 -0.40872518092E+03  0.41912824999E+03  0.41800000000E+01 0. -1.
</event>
<event>
11    1  0.6763327E-009  0.2322678E+03  0.7561462E-02  0.1033794E+00
         22   -1    0    0    0    0  0.00000000000E+00  0.00000000000E+00  0.39170062314E+03  0.39170062314E+03  0.00000000000E+00 0. -1.
         22   -1    0    0    0    0 -0.00000000000E+00 -0.00000000000E+00 -0.31475249651E+03  0.31475249651E+03  0.00000000000E+00 0.  1.
        -24    2    1    2    0    0  0.50289015713E+02 -0.11356704152E+03 -0.12080255169E+03  0.19021165658E+03  0.78490507591E+02 0.  0.
         25    2    1    2    0    0 -0.86857473668E+01 -0.12023383853E+03 -0.31022711998E+02  0.17646815156E+03  0.12508789598E+03 0.  0.
         24    2    1    2    0    0 -0.41603268347E+02  0.23380088005E+03  0.22877339031E+03  0.33977331152E+03  0.81944833005E+02 0.  0.
        -11    1    5    5    0    0 -0.10609830820E+02  0.59883365246E+02  0.11369770452E+03  0.12894089327E+03  0.00000000000E+00 0.  1.
         12    1    5    5    0    0 -0.30993437526E+02  0.17391751480E+03  0.11507568579E+03  0.21083241825E+03  0.00000000000E+00 0. -1.
         11    1    3    3    0    0 -0.51188452787E+01 -0.68496309109E+02 -0.87951616218E+02  0.11159495389E+03  0.00000000000E+00 0. -1.
        -12    1    3    3    0    0  0.55407860992E+02 -0.45070732413E+02 -0.32850935469E+02  0.78616702686E+02  0.00000000000E+00 0.  1.
          5    1    4    4  501    0 -0.33665703845E+02 -0.37765863850E+02 -0.66096062170E+02  0.83341477801E+02  0.41800000000E+01 0.  1.
         -5    1    4    4    0  501  0.24979956478E+02 -0.82467974677E+02  0.35073350172E+02  0.93126673758E+02  0.41800000000E+01 0.  1.
</event>
<event>
11    1  0.6763327E-009  0.1493832E+03  0.7561462E-02  0.1097511E+00
         22   -1    0    0    0    0  0.00000000000E+00  0.00000000000E+00  0.27459950685E+03  0.27459950685E+03  0.00000000000E+00 0.  1.
         22   -1    0    0    0    0 -0.00000000000E+00 -0.00000000000E+00 -0.89349019752E+03  0.89349019752E+03  0.00000000000E+00 0.  1.
         24    2    1    2    0    0  0.83725539830E+02  0.10727615064E+02 -0.66324149778E+03  0.67338839623E+03  0.80234656209E+02 0.  0.
         25    2    1    2    0    0 -0.63263839287E+02 -0.38720673832E+02 -0.19420932170E+03  0.24261643727E+03  0.12507546144E+03 0.  0.
        -24    2    1    2    0    0 -0.20461700543E+02  0.27993058768E+02  0.23856012880E+03  0.25208487087E+03  0.73712648424E+02 0.  0.
        -13    1    3    3    0    0  0.55365755705E+02 -0.13533412412E+02 -0.57166007498E+03  0.57449435287E+03  0.00000000000E+00 0.  1.
         14    1    3    3    0    0  0.28359784125E+02  0.24261027476E+02 -0.91581422798E+02  0.98894043357E+02  0.00000000000E+00 0. -1.
         13    1    5    5    0    0 -0.29399166627E+02  0.45371831381E+02  0.11604465508E+03  0.12802060792E+03  0.00000000000E+00 0. -1.
        -14    1    5    5    0    0  0.89374660838E+01 -0.17378772613E+02  0.12251547373E+03  0.12406426295E+03  0.00000000000E+00 0.  1.
          5    1    4    4  501    0 -0.90857670099E+02 -0.19620836086E+02 -0.18575699261E+03  0.20775761389E+03  0.41800000000E+01 0. -1.
         -5    1    4    4    0  501  0.27593830812E+02 -0.19099837746E+02 -0.84523290955E+01  0.34858823387E+02  0.41800000000E+01 0. -1.
</event>
<event>
11    1  0.6763327E-009  0.1840664E+03  0.7561462E-02  0.1066400E+00
         22   -1    0    0    0    0  0.00000000000E+00  0.00000000000E+00  0.37050312761E+03  0.37050312761E+03  0.00000000000E+00 0.  1.
         22   -1    0    0    0    0 -0.00000000000E+00 -0.00000000000E+00 -0.35631915531E+03  0.35631915531E+03  0.00000000000E+00 0. -1.
        -24    2    1    2    0    0  0.38257513554E+02 -0.19670021049E+01 -0.11038127150E+03  0.14341363050E+03  0.83162118024E+02 0.  0.
         25    2    1    2    0    0 -0.15685234961E+03  0.59920070516E+02 -0.15746615908E+03  0.26198549326E+03  0.12509089892E+03 0.  0.
         24    2    1    2    0    0  0.11859483606E+03 -0.57953068411E+02  0.28203140289E+03  0.32142315917E+03  0.79673344094E+02 0.  0.
        -13    1    5    5    0    0  0.13005276662E+03 -0.55544886951E+02  0.24870454838E+03  0.28609947388E+03  0.00000000000E+00 0.  1.
         14    1    5    5    0    0 -0.11457930565E+02 -0.24081814602E+01  0.33326854510E+02  0.35323685287E+02  0.00000000000E+00 0. -1.
         11    1    3    3    0    0  0.54624545911E+02 -0.13063459564E+02 -0.11014496746E+03  0.12363821759E+03  0.00000000000E+00 0. -1.
        -12    1    3    3    0    0 -0.16367032357E+02  0.11096457459E+02 -0.23630404557E+00  0.19775412914E+02  0.00000000000E+00 0.  1.
          5    1    4    4  501    0 -0.91942297108E+02  0.88732243372E+02 -0.59754957406E+02  0.14112024782E+03  0.41800000000E+01 0. -1.
         -5    1    4    4    0  501 -0.64910052502E+02 -0.28812172857E+02 -0.97711201677E+02  0.12086524543E+03  0.41800000000E+01 0. -1.
</event>
<event>
11    1  0.6763327E-009  0.1432987E+03  0.7561462E-02  0.1103930E+00
         22   -1    0    0    0    0  0.00000000000E+00  0.00000000000E+00  0.19533828747E+03  0.19533828747E+03  0.00000000000E+00 0.  1.
         22   -1    0    0    0    0 -0.00000000000E+00 -0.00000000000E+00 -0.73443428434E+03  0.73443428434E+03  0.00000000000E+00 0. -1.
        -24    2    1    2    0    0 -0.64402068966E+01  0.27122470680E+02 -0.63695805237E+03  0.64256911197E+03  0.80014989200E+02 0.  0.
         25    2    1    2    0    0 -0.64232460418E+02 -0.83404428450E+01  0.20496620906E+01  0.14087610275E+03  0.12508598344E+03 0.  0.
         24    2    1    2    0    0  0.70672667315E+02 -0.18782027835E+02  0.95812393413E+02  0.14632735709E+03  0.82971623026E+02 0.  0.
        -13    1    5    5    0    0  0.54821126912E+02 -0.22800675470E+02  0.10978905406E+03  0.12481531617E+03  0.00000000000E+00 0.  1.
         14    1    5    5    0    0  0.15851540404E+02  0.40186476349E+01 -0.13976660649E+02  0.21512040928E+02  0.00000000000E+00 0. -1.
         11    1    3    3    0    0 -0.19743681418E+01  0.18546750110E+02 -0.63086477563E+03  0.63114043224E+03  0.00000000000E+00 0. -1.
        -12    1    3    3    0    0 -0.44658387548E+01  0.85757205701E+01 -0.60932767420E+01  0.11428679737E+02  0.00000000000E+00 0.  1.
          5    1    4    4  501    0 -0.29373049522E+02 -0.65668942782E+02  0.11560727221E+02  0.72981565468E+02  0.41800000000E+01 0. -1.
         -5    1    4    4    0  501 -0.34859410896E+02  0.57328499937E+02 -0.95110651304E+01  0.67894537283E+02  0.41800000000E+01 0. -1.
</event>
<event>
11    1  0.6763327E-009  0.1607141E+03  0.7561462E-02  0.1086408E+00
         22   -1    0    0    0    0  0.00000000000E+00  0.00000000000E+00  0.89997765412E+02  0.89997765412E+02  0.00000000000E+00 0. -1.
         22   -1    0    0    0    0 -0.00000000000E+00 -0.00000000000E+00 -0.10239715678E+04  0.10239715678E+04  0.00000000000E+00 0. -1.
        -24    2    1    2    0    0  0.58202927533E+02 -0.10062217899E+03 -0.42581450163E+03  0.44880115463E+03  0.81191643179E+02 0.  0.
         25    2    1    2    0    0  0.19311892707E+02  0.97161572353E+02 -0.52847924124E+03  0.55204325287E+03  0.12509246290E+03 0.  0.
         24    2    1    2    0    0 -0.77514820241E+02  0.34606066411E+01  0.20319940489E+02  0.11312492570E+03  0.79773590107E+02 0.  0.
        -13    1    5    5    0    0 -0.27482937076E+02  0.28195267472E+02 -0.20105991080E+02  0.44210132497E+02  0.00000000000E+00 0.  1.
         14    1    5    5    0    0 -0.50031883164E+02 -0.24734660830E+02  0.40425931569E+02  0.68914793206E+02  0.00000000000E+00 0. -1.
         13    1    3    3    0    0  0.38113448791E+02 -0.85381551147E+02 -0.40628808631E+03  0.41690844718E+03  0.00000000000E+00 0. -1.
        -14    1    3    3    0    0  0.20089478742E+02 -0.15240627847E+02 -0.19526415323E+02  0.31892707453E+02  0.00000000000E+00 0.  1.
          5    1    4    4  501    0  0.34573266493E+02  0.46970557340E+02 -0.46897447404E+03  0.47260562175E+03  0.41800000000E+01 0. -1.
         -5    1    4    4    0  501 -0.15261373786E+02  0.50191015013E+02 -0.59504767209E+02  0.79437631123E+02  0.41800000000E+01 0. -1.
</event>
<event>
11    1  0.6763327E-009  0.1480067E+03  0.7561462E-02  0.1098933E+00
         22   -1    0    0    0    0  0.00000000000E+00  0.00000000000E+00  0.21598725131E+04  0.21598725131E+04  0.00000000000E+00 0. -1.
         22   -1    0    0    0    0 -0.00000000000E+00 -0.00000000000E+00 -0.57249542008E+03  0.57249542008E+03  0.00000000000E+00 0. -1.
        -24    2    1    2    0    0 -0.71571403674E+02 -0.33232652398E+02 -0.55697463590E+03  0.56796259861E+03  0.78319176284E+02 0.  0.
         25    2    1    2    0    0  0.11106151128E+03  0.23109250961E+02  0.85029620556E+03  0.86690236829E+03  0.12508949670E+03 0.  0.
         24    2    1    2    0    0 -0.39490107604E+02  0.10123401437E+02  0.12940555233E+04  0.12975029662E+04  0.85277770288E+02 0.  0.
        -11    1    5    5    0    0  0.15184849792E+02 -0.24125539005E+02  0.51081969844E+03  0.51161448925E+03  0.00000000000E+00 0.  1.
         12    1    5    5    0    0 -0.54674957396E+02  0.34248940441E+02  0.78323582488E+03  0.78588847699E+03  0.00000000000E+00 0. -1.
         11    1    3    3    0    0 -0.77124363498E+02 -0.48962080263E+02 -0.41055471798E+03  0.42059556489E+03  0.00000000000E+00 0. -1.
        -12    1    3    3    0    0  0.55529598236E+01  0.15729427866E+02 -0.14641991793E+03  0.14736703373E+03  0.00000000000E+00 0.  1.
          5    1    4    4  501    0  0.29004187660E+02 -0.23219496166E+02  0.57968228312E+02  0.68979531730E+02  0.41800000000E+01 0. -1.
         -5    1    4    4    0  501  0.82057323619E+02  0.46328747127E+02  0.79232797725E+03  0.79792283656E+03  0.41800000000E+01 0. -1.
</event>
<event>
11    1  0.6763327E-009  0.2038695E+03  0.7561462E-02  0.1051821E+00
         22   -1    0    0    0    0  0.00000000000E+00  0.00000000000E+00  0.40348249591E+03  0.40348249591E+03  0.00000000000E+00 0. -1.
         22   -1    0    0    0    0 -0.00000000000E+00 -0.00000000000E+00 -0.61662290286E+03  0.61662290286E+03  0.00000000000E+00 0. -1.
         24    2    1    2    0    0 -0.66667388202E+01  0.21802168154E+02 -0.49345767887E+03  0.49961200687E+03  0.74778985270E+02 0.  0.
         25    2    1    2    0    0 -0.15564798494E+03 -0.79325074420E+01  0.17245949510E+02  0.20059176758E+03  0.12510161693E+03 0.  0.
        -24    2    1    2    0    0  0.16231472376E+03 -0.13869660712E+02  0.26307132240E+03  0.31990162431E+03  0.81191696181E+02 0.  0.
        -13    1    3    3    0    0  0.10496576409E+02 -0.42467213782E+01 -0.98751416324E+01  0.15024352932E+02  0.00000000000E+00 0.  1.
         14    1    3    3    0    0 -0.17163315229E+02  0.26048889532E+02 -0.48358253723E+03  0.48458765394E+03  0.00000000000E+00 0. -1.
         11    1    5    5    0    0  0.73846017637E+02 -0.44678381394E+02  0.15006204993E+03  0.17311271159E+03  0.00000000000E+00 0. -1.
        -12    1    5    5    0    0  0.88468706119E+02  0.30808720682E+02  0.11300927247E+03  0.14678891272E+03  0.00000000000E+00 0.  1.
          5    1    4    4  501    0 -0.62955249211E+02  0.11881995597E+02  0.67557295070E+02  0.93198743230E+02  0.41800000000E+01 0. -1.
         -5    1    4    4    0  501 -0.92692735725E+02 -0.19814503039E+02 -0.50311345559E+02  0.10739302435E+03  0.41800000000E+01 0. -1.
</event>
<event>
11    1  0.6763327E-009  0.1618862E+03  0.7561462E-02  0.1085317E+00
         22   -1    0    0    0    0  0.00000000000E+00  0.00000000000E+00  0.10495087455E+04  0.10495087455E+04  0.00000000000E+00 0.  1.
         22   -1    0    0    0    0 -0.00000000000E+00 -0.00000000000E+00 -0.18884482857E+03  0.18884482857E+03  0.00000000000E+00 0. -1.
         24    2    1    2    0    0 -0.17413140954E+02  0.45599855870E+01 -0.14062823771E+03  0.16246034643E+03  0.79328758816E+02 0.  0.
         25    2    1    2    0    0  0.75021783745E+02  0.79463411902E+02  0.18258656527E+03  0.24684164541E+03  0.12510092814E+03 0.  0.
        -24    2    1    2    0    0 -0.57608642791E+02 -0.84023397489E+02  0.81870558937E+03  0.82905158225E+03  0.81663926615E+02 0.  0.
        -11    1    3    3    0    0  0.29121934162E+02  0.13546510713E+02 -0.74244254020E+02  0.80893783796E+02  0.00000000000E+00 0.  1.
         12    1    3    3    0    0 -0.46535075116E+02 -0.89865251255E+01 -0.66383983687E+02  0.81566562635E+02  0.00000000000E+00 0. -1.
         11    1    5    5    0    0  0.20257712095E+02 -0.96936107514E+01  0.16958941344E+03  0.17106989840E+03  0.00000000000E+00 0. -1.
        -12    1    5    5    0    0 -0.77866354886E+02 -0.74329786738E+02  0.64911617594E+03  0.65798168385E+03  0.00000000000E+00 0.  1.
          5    1    4    4  501    0 -0.29631662781E+02 -0.17666888056E+01  0.16068602744E+02  0.34012189324E+02  0.41800000000E+01 0. -1.
         -5    1    4    4    0  501  0.10465344653E+03  0.81230100708E+02  0.16651796253E+03  0.21282945608E+03  0.41800000000E+01 0. -1.
</event>
<event>
11    1  0.6763327E-009  0.1589298E+03  0.7561462E-02  0.1088088E+00
         22   -1    0    0    0    0  0.00000000000E+00  0.00000000000E+00  0.52926186276E+03  0.52926186276E+03  0.00000000000E+00 0. -1.
         22   -1    0    0    0    0 -0.00000000000E+00 -0.00000000000E+00 -0.13270673828E+04  0.13270673828E+04  0.00000000000E+00 0. -1.
         24    2    1    2    0    0  0.68809358982E+01  0.10123793506E+03 -0.10682447815E+04  0.10761503931E+04  0.81586081192E+02 0.  0.
         25    2    1    2    0    0  0.51608758356E+01 -0.79476120300E+02 -0.22942616661E+03  0.27317913771E+03  0.12508951603E+03 0.  0.
        -24    2    1    2    0    0 -0.12041811734E+02 -0.21761814763E+02  0.49986542805E+03  0.50699971475E+03  0.81022730069E+02 0.  0.
        -13    1    3    3    0    0 -0.28181229116E+02  0.18950609171E+02 -0.16317521036E+03  0.16667170288E+03  0.00000000000E+00 0.  1.
         14    1    3    3    0    0  0.35062165014E+02  0.82287325892E+02 -0.90506957115E+03  0.90947869026E+03  0.00000000000E+00 0. -1.
         11    1    5    5    0    0 -0.81792703479E+01 -0.49261515446E+02  0.40755403904E+03  0.41060186569E+03  0.00000000000E+00 0. -1.
        -12    1    5    5    0    0 -0.38625413859E+01  0.27499700682E+02  0.92311389007E+02  0.96397849063E+02  0.00000000000E+00 0.  1.
          5    1    4    4  501    0 -0.33777651972E+01 -0.62672049914E+02 -0.24206433004E+03  0.25010359336E+03  0.41800000000E+01 0.  1.
         -5    1    4    4    0  501  0.85386410328E+01 -0.16804070385E+02  0.12638163429E+02  0.23075544350E+02  0.41800000000E+01 0.  1.
</event>
<event>
11    1  0.6763327E-009  0.1303015E+03  0.7561462E-02  0.1118899E+00
         22   -1    0    0    0    0  0.00000000000E+00  0.00000000000E+00  0.72754442463E+03  0.72754442463E+03  0.00000000000E+00 0.  1.
         22   -1    0    0    0    0 -0.00000000000E+00 -0.00000000000E+00 -0.65085042776E+03  0.65085042776E+03  0.00000000000E+00 0.  1.
         24    2    1    2    0    0 -0.24974247335E+02  0.89416678560E+01 -0.49700926752E+03  0.50421467711E+03  0.80688054626E+02 0.  0.
         25    2    1    2    0    0  0.31081165413E+02 -0.44671240122E+02 -0.11583762112E+03  0.17895920994E+03  0.12508591374E+03 0.  0.
        -24    2    1    2    0    0 -0.61069180783E+01  0.35729572266E+02  0.68954088551E+03  0.69522096534E+03  0.80942331767E+02 0.  0.
        -13    1    3    3    0    0  0.22252703091E+02 -0.19681525789E+02 -0.17649401626E+03  0.17897676672E+03  0.00000000000E+00 0.  1.
         14    1    3    3    0    0 -0.47226950426E+02  0.28623193645E+02 -0.32051525127E+03  0.32523791039E+03  0.00000000000E+00 0. -1.
         13    1    5    5    0    0 -0.17164086916E+01 -0.23330446225E+02  0.99390982937E+02  0.10210692077E+03  0.00000000000E+00 0. -1.
        -14    1    5    5    0    0 -0.43905093866E+01  0.59060018490E+02  0.59014990258E+03  0.59311404457E+03  0.00000000000E+00 0.  1.
          5    1    4    4  501    0  0.32080051664E+02 -0.74979502204E+02 -0.12288778304E+03  0.14754638283E+03  0.41800000000E+01 0.  1.
         -5    1    4    4    0  501 -0.99888625107E+00  0.30308262082E+02  0.70501619135E+01  0.31412827113E+02  0.41800000000E+01 0.  1.
</event>
<event>
11    1  0.6763327E-009  0.1426265E+03  0.7561462E-02  0.1104660E+00
         22   -1    0    0    0    0  0.00000000000E+00  0.00000000000E+00  0.40858206486E+03  0.40858206486E+03  0.00000000000E+00 0. -1.
         22   -1    0    0    0    0 -0.00000000000E+00 -0.00000000000E+00 -0.54722075360E+03  0.54722075360E+03  0.00000000000E+00 0.  1.
         24    2    1    2    0    0  0.30270490241E+02  0.57629631543E+02 -0.38163601331E+03  0.39555314461E+03  0.81109595849E+02 0.  0.
         25    2    1    2    0    0 -0.64444741445E+02  0.36650892119E+01 -0.11820106919E+03  0.18380887330E+03  0.12509057345E+03 0.  0.
        -24    2    1    2    0    0  0.34174251204E+02 -0.61294720755E+02  0.36119839376E+03  0.37644080056E+03  0.79488832120E+02 0.  0.
        -13    1    3    3    0    0 -0.82377739087E+01  0.14878585846E+02 -0.26452599097E+03  0.26507212817E+03  0.00000000000E+00 0.  1.
         14    1    3    3    0    0  0.38508264150E+02  0.42751045698E+02 -0.11711002235E+03  0.13048101644E+03  0.00000000000E+00 0. -1.
         11    1    5    5    0    0  0.24216833329E+02 -0.25280817845E+02  0.31538539353E+03  0.31732242471E+03  0.00000000000E+00 0. -1.
        -12    1    5    5    0    0  0.99574178741E+01 -0.36013902910E+02  0.45813000228E+02  0.59118375852E+02  0.00000000000E+00 0.  1.
          5    1    4    4  501    0 -0.27492834368E+02  0.63603799893E+02 -0.48800738218E+02  0.84854485757E+02  0.41800000000E+01 0. -1.
         -5    1    4    4    0  501 -0.36951907077E+02 -0.59938710681E+02 -0.69400330970E+02  0.98954387540E+02  0.41800000000E+01 0. -1.
</event>
<event>
11    1  0.6763327E-009  0.1729902E+03  0.7561462E-02  0.1075458E+00
         22   -1    0    0    0    0  0.00000000000E+00  0.00000000000E+00  0.39676596937E+03  0.39676596937E+03  0.00000000000E+00 0.  1.
         22   -1    0    0    0    0 -0.00000000000E+00 -0.00000000000E+00 -0.26411593338E+03  0.26411593338E+03  0.00000000000E+00 0.  1.
        -24    2    1    2    0    0 -0.37367320931E+02  0.65379415027E+02 -0.16816732656E+03  0.20054963046E+03  0.79177774506E+02 0.  0.
         25    2    1    2    0    0 -0.67449762180E+02  0.25631675100E+02  0.32287287157E+02  0.14798045978E+03  0.12509713977E+03 0.  0.
         24    2    1    2    0    0  0.10481708311E+03 -0.91011090127E+02  0.26853007539E+03  0.31235181250E+03  0.78648674161E+02 0.  0.
        -11    1    5    5    0    0  0.95676393278E+02 -0.40209370949E+02  0.14358986917E+03  0.17716889194E+03  0.00000000000E+00 0.  1.
         12    1    5    5    0    0  0.91406898325E+01 -0.50801719178E+02  0.12494020621E+03  0.13518292056E+03  0.00000000000E+00 0. -1.
         13    1    3    3    0    0  0.17150430574E+02 -0.27576624793E+01 -0.10369274804E+02  0.20230270171E+02  0.00000000000E+00 0. -1.
        -14    1    3    3    0    0 -0.54517751504E+02  0.68137077506E+02 -0.15779805175E+03  0.18031936029E+03  0.00000000000E+00 0.  1.
          5    1    4    4  501    0 -0.31539806037E+02  0.58219766365E+02  0.62124014070E+02  0.90890957112E+02  0.41800000000E+01 0. -1.
         -5    1    4    4    0  501 -0.35909956142E+02 -0.32588091265E+02 -0.29836726913E+02  0.57089502672E+02  0.41800000000E+01 0. -1.
</event>
<event>
11    1  0.6763327E-009  0.1264084E+03  0.7561462E-02  0.1123762E+00
         22   -1    0    0    0    0  0.00000000000E+00  0.00000000000E+00  0.15693457100E+03  0.15693457100E+03  0.00000000000E+00 0. -1.
         22   -1    0    0    0    0 -0.00000000000E+00 -0.00000000000E+00 -0.75018221306E+03  0.75018221306E+03  0.00000000000E+00 0. -1.
         24    2    1    2    0    0  0.29848115150E+02 -0.31088116666E+02 -0.66763105789E+03  0.67299437504E+03  0.73026148771E+02 0.  0.
         25    2    1    2    0    0 -0.27276120520E+02  0.48782013740E+01  0.15843922499E+02  0.12909667610E+03  0.12508852186E+03 0.  0.
        -24    2    1    2    0    0 -0.25719946297E+01  0.26209915292E+02  0.58539493332E+02  0.10502573292E+03  0.83126154007E+02 0.  0.
        -11    1    3    3    0    0  0.40475332661E+02 -0.18512881715E+02 -0.19251087810E+03  0.19758901167E+03  0.00000000000E+00 0.  1.
         12    1    3    3    0    0 -0.10627217512E+02 -0.12575234951E+02 -0.47512017979E+03  0.47540536338E+03  0.00000000000E+00 0. -1.
         11    1    5    5    0    0  0.16368281970E+02  0.32013439748E+02  0.72408303672E+02  0.80843944855E+02  0.00000000000E+00 0. -1.
        -12    1    5    5    0    0 -0.18940276600E+02 -0.58035244555E+01 -0.13868810340E+02  0.24181788065E+02  0.00000000000E+00 0.  1.
          5    1    4    4  501    0 -0.28276733398E+02 -0.57737812780E+02  0.25545170827E+00  0.64426441248E+02  0.41800000000E+01 0. -1.
         -5    1    4    4    0  501  0.10006128784E+01  0.62616014154E+02  0.15588470791E+02  0.64670234855E+02  0.41800000000E+01 0. -1.
</event>
<event>
11    1  0.6763327E-009  0.1667016E+03  0.7561462E-02  0.1080938E+00
         22   -1    0    0    0    0  0.00000000000E+00  0.00000000000E+00  0.24247981508E+04  0.24247981508E+04  0.00000000000E+00 0.  1.
         22   -1    0    0    0    0 -0.00000000000E+00 -0.00000000000E+00 -0.20595016708E+03  0.20595016708E+03  0.00000000000E+00 0.  1.
         24    2    1    2    0    0  0.11077759052E+03  0.84673624339E+01 -0.12641448693E+03  0.18690674967E+03  0.81302766124E+02 0.  0.
         25    2    1    2    0    0 -0.10655136342E+03  0.48971876882E+01  0.90579311017E+02  0.18769437862E+03  0.12508953868E+03 0.  0.
        -24    2    1    2    0    0 -0.42262270972E+01 -0.13364550122E+02  0.22546831597E+04  0.22561471896E+04  0.80046977176E+02 0.  0.
        -13    1    3    3    0    0  0.69346848449E+02 -0.13604658509E+02 -0.24663391586E+02  0.74848881137E+02  0.00000000000E+00 0.  1.
         14    1    3    3    0    0  0.41430742068E+02  0.22072020943E+02 -0.10175109534E+03  0.11205786853E+03  0.00000000000E+00 0. -1.
         13    1    5    5    0    0  0.23941862341E+02 -0.11078904843E+02  0.27503355394E+03  0.27629587528E+03  0.00000000000E+00 0. -1.
        -14    1    5    5    0    0 -0.28168089438E+02 -0.22856452787E+01  0.19796496057E+04  0.19798513143E+04  0.00000000000E+00 0.  1.
          5    1    4    4  501    0  0.10182254708E+02 -0.28687299475E+02  0.51601062432E+02  0.60056485963E+02  0.41800000000E+01 0.  1.
         -5    1    4    4    0  501 -0.11673361813E+03  0.33584487163E+02  0.38978248585E+02  0.12763789266E+03  0.41800000000E+01 0.  1.
</event>
<event>
11    1  0.6763327E-009  0.1863853E+03  0.7561462E-02  0.1064592E+00
         22   -1    0    0    0    0  0.00000000000E+00  0.00000000000E+00  0.17698068605E+04  0.17698068605E+04  0.00000000000E+00 0. -1.
         22   -1    0    0    0    0 -0.00000000000E+00 -0.00000000000E+00 -0.14379033373E+03  0.14379033373E+03  0.00000000000E+00 0.  1.
        -24    2    1    2    0    0 -0.52024335097E+02  0.42533190622E+02 -0.10222092534E+03  0.14707971692E+03  0.81656119215E+02 0.  0.
         25    2    1    2    0    0  0.13422199191E+03  0.67549702527E+02  0.72792435102E+03  0.75372536264E+03  0.12509818567E+03 0.  0.
         24    2    1    2    0    0 -0.82197656809E+02 -0.11008289315E+03  0.10003131011E+04  0.10127921147E+04  0.79037137860E+02 0.  0.
        -13    1    5    5    0    0  0.56031875933E+01 -0.21244352327E+02  0.34388937470E+03  0.34459051097E+03  0.00000000000E+00 0.  1.
         14    1    5    5    0    0 -0.87800844402E+02 -0.88838540822E+02  0.65642372638E+03  0.66820160369E+03  0.00000000000E+00 0. -1.
         11    1    3    3    0    0 -0.14976720041E+02 -0.24721362882E+02 -0.25709046438E+02  0.38683368451E+02  0.00000000000E+00 0. -1.
        -12    1    3    3    0    0 -0.37047615056E+02  0.67254553504E+02 -0.76511878905E+02  0.10839634847E+03  0.00000000000E+00 0.  1.
          5    1    4    4  501    0  0.72772737714E+02  0.99504735576E+02  0.40205369619E+03  0.42054929649E+03  0.41800000000E+01 0.  1.
         -5    1    4    4    0  501  0.61449254192E+02 -0.31955033049E+02  0.32587065483E+03  0.33317606615E+03  0.41800000000E+01 0.  1.
</event>
<event>
11    1  0.6763327E-009  0.5094162E+03  0.7561462E-02  0.9372723E-01
         22   -1    0    0    0    0  0.00000000000E+00  0.00000000000E+00  0.25032787871E+04  0.25032787871E+04  0.00000000000E+00 0.  1.
         22   -1    0    0    0    0 -0.00000000000E+00 -0.00000000000E+00 -0.78127111182E+03  0.78127111182E+03  0.00000000000E+00 0. -1.
        -24    2    1    2    0    0  0.95782747606E+02  0.93000915507E+02 -0.49096296343E+03  0.51453871573E+03  0.76693894836E+02 0.  0.
         25    2    1    2    0    0  0.31610779709E+03  0.20298977953E+03 -0.93656971558E+02  0.40687482683E+03  0.12508599608E+03 0.  0.
         24    2    1    2    0    0 -0.41189054470E+03 -0.29599069504E+03  0.23066276103E+04  0.23631363564E+04  0.81352282860E+02 0.  0.
        -11    1    5    5    0    0 -0.25690187565E+03 -0.14545449793E+03  0.14432052536E+04  0.14730909641E+04  0.00000000000E+00 0.  1.
         12    1    5    5    0    0 -0.15498866904E+03 -0.15053619711E+03  0.86342235674E+03  0.89004539226E+03  0.00000000000E+00 0. -1.
         13    1    3    3    0    0  0.99447916702E+02  0.83028160665E+02 -0.48570165468E+03  0.50268246534E+03  0.00000000000E+00 0. -1.
        -14    1    3    3    0    0 -0.36651690961E+01  0.99727548416E+01 -0.52613087463E+01  0.11856250392E+02  0.00000000000E+00 0.  1.
          5    1    4    4  501    0  0.10316131240E+03  0.78392195661E+02  0.26662639026E+02  0.13234788036E+03  0.41800000000E+01 0.  1.
         -5    1    4    4    0  501  0.21294648469E+03  0.12459758387E+03 -0.12031961058E+03  0.27452694647E+03  0.41800000000E+01 0.  1.
</event>
<event>
11    1  0.6763327E-009  0.1330453E+03  0.7561462E-02  0.1115583E+00
         22   -1    0    0    0    0  0.00000000000E+00  0.00000000000E+00  0.63827706940E+02  0.63827706940E+02  0.00000000000E+00 0. -1.
         22   -1    0    0    0    0 -0.00000000000E+00 -0.00000000000E+00 -0.13042578832E+04  0.13042578832E+04  0.00000000000E+00 0. -1.
         24    2    1    2    0    0  0.53836694364E+01  0.15698359960E+02 -0.92346504069E+03  0.92750610930E+03  0.84879202476E+02 0.  0.
         25    2    1    2    0    0 -0.43493224538E+02 -0.37393478271E+02 -0.32069205250E+03  0.34897138276E+03  0.12509076965E+03 0.  0.
        -24    2    1    2    0    0  0.38109555101E+02  0.21695118311E+02  0.37269168957E+01  0.91608098113E+02  0.80343869597E+02 0.  0.
        -11    1    3    3    0    0 -0.25659476054E+02 -0.88850158532E+00 -0.98519384221E+02  0.10180995636E+03  0.00000000000E+00 0.  1.
         12    1    3    3    0    0  0.31043145490E+02  0.16586861545E+02 -0.82494565647E+03  0.82569615294E+03  0.00000000000E+00 0. -1.
         13    1    5    5    0    0  0.33271532268E+02  0.42581783438E+02  0.26623002628E+02  0.60241077423E+02  0.00000000000E+00 0. -1.
        -14    1    5    5    0    0  0.48380228336E+01 -0.20886665127E+02 -0.22896085733E+02  0.31367020690E+02  0.00000000000E+00 0.  1.
          5    1    4    4  501    0 -0.73149990234E+02 -0.25600736569E+02 -0.10329257319E+03  0.12920196152E+03  0.41800000000E+01 0. -1.
         -5    1    4    4    0  501  0.29656765696E+02 -0.11792741703E+02 -0.21739947931E+03  0.21976942124E+03  0.41800000000E+01 0. -1.
</event>
<event>
11    1  0.6763327E-009  0.1919005E+03  0.7561462E-02  0.1060404E+00
         22   -1    0    0    0    0  0.00000000000E+00  0.00000000000E+00  0.26749600510E+03  0.26749600510E+03  0.00000000000E+00 0.  1.
         22   -1    0    0    0    0 -0.00000000000E+00 -0.00000000000E+00 -0.28639542168E+04  0.28639542168E+04  0.00000000000E+00 0.  1.
         24    2    1    2    0    0 -0.15183841925E+02 -0.17125465225E+02 -0.15348795139E+04  0.15372427520E+04  0.82075121649E+02 0.  0.
         25    2    1    2    0    0  0.15852196579E+03  0.40104961865E+02 -0.12927453515E+04  0.13090360396E+04  0.12508871875E+03 0.  0.
        -24    2    1    2    0    0 -0.14333812387E+03 -0.22979496640E+02  0.23116665373E+03  0.28517143033E+03  0.82527861086E+02 0.  0.
        -13    1    3    3    0    0 -0.23495392354E+02 -0.46261415659E+02 -0.75870217486E+03  0.76047428765E+03  0.00000000000E+00 0.  1.
         14    1    3    3    0    0  0.83115504296E+01  0.29135950433E+02 -0.77617733908E+03  0.77676846433E+03  0.00000000000E+00 0. -1.
         13    1    5    5    0    0  0.88666695117E+01 -0.60179219033E+01  0.33171621759E+02  0.34859571174E+02  0.00000000000E+00 0. -1.
        -14    1    5    5    0    0 -0.15220479338E+03 -0.16961574737E+02  0.19799503197E+03  0.25031185915E+03  0.00000000000E+00 0.  1.
          5    1    4    4  501    0  0.87476344958E+01 -0.35840608353E+02 -0.19352122895E+03  0.19705077714E+03  0.41800000000E+01 0. -1.
         -5    1    4    4    0  501  0.14977433130E+03  0.75945570218E+02 -0.10992241225E+04  0.11119852625E+04  0.41800000000E+01 0. -1.
</event>
<event>
11    1  0.6763327E-009  0.1489432E+03  0.7561462E-02  0.1097964E+00
         22   -1    0    0    0    0  0.00000000000E+00  0.00000000000E+00  0.30724174219E+03  0.30724174219E+03  0.00000000000E+00 0. -1.
         22   -1    0    0    0    0 -0.00000000000E+00 -0.00000000000E+00 -0.16857084004E+04  0.16857084004E+04  0.00000000000E+00 0. -1.
        -24    2    1    2    0    0 -0.47766688577E+02 -0.87447279396E+01 -0.14654389577E+04  0.14684426968E+04  0.80339830010E+02 0.  0.
         25    2    1    2    0    0  0.12575736108E+03  0.20991849440E+01 -0.16870062416E+03  0.24479901476E+03  0.12508931447E+03 0.  0.
         24    2    1    2    0    0 -0.77990672503E+02  0.66455429955E+01  0.25567292363E+03  0.27970843103E+03  0.82106359501E+02 0.  0.
        -11    1    5    5    0    0 -0.22158842453E+02  0.20103844478E+02  0.19052718416E+03  0.19286209261E+03  0.00000000000E+00 0.  1.
         12    1    5    5    0    0 -0.55831830051E+02 -0.13458301483E+02  0.65145739476E+02  0.86846338423E+02  0.00000000000E+00 0. -1.
         11    1    3    3    0    0 -0.52049004101E+02  0.24846432800E+02 -0.75646379636E+03  0.75865929063E+03  0.00000000000E+00 0. -1.
        -12    1    3    3    0    0  0.42823155232E+01 -0.33591160740E+02 -0.70897516137E+03  0.70978340622E+03  0.00000000000E+00 0.  1.
          5    1    4    4  501    0 -0.22956354363E+02 -0.14747900383E+02 -0.23965798110E+02  0.36555801871E+02  0.41800000000E+01 0. -1.
         -5    1    4    4    0  501  0.14871371544E+03  0.16847085327E+02 -0.14473482605E+03  0.20824321289E+03  0.41800000000E+01 0. -1.
</event>
<event>
11    1  0.6763327E-009  0.1725696E+03  0.7561462E-02  0.1075817E+00
         22   -1    0    0    0    0  0.00000000000E+00  0.00000000000E+00  0.44723188101E+03  0.44723188101E+03  0.00000000000E+00 0.  1.
         22   -1    0    0    0    0 -0.00000000000E+00 -0.00000000000E+00 -0.23990112158E+03  0.23990112158E+03  0.00000000000E+00 0. -1.
        -24    2    1    2    0    0 -0.41749237907E+02 -0.61045518339E+02 -0.12963241839E+03  0.17612193599E+03  0.93513733023E+02 0.  0.
         25    2    1    2    0    0  0.14201642439E+03  0.98582321397E+02  0.91222588655E+02  0.23206922649E+03  0.12508967308E+03 0.  0.
         24    2    1    2    0    0 -0.10026718649E+03 -0.37536803058E+02  0.24574058917E+03  0.27894184011E+03  0.77185443775E+02 0.  0.
        -11    1    5    5    0    0 -0.10985594668E+03 -0.45650358890E+02  0.21468671808E+03  0.24544382495E+03  0.00000000000E+00 0.  1.
         12    1    5    5    0    0  0.95887601883E+01  0.81135558317E+01  0.31053871090E+02  0.33498015163E+02  0.00000000000E+00 0. -1.
         13    1    3    3    0    0  0.32016321294E+01 -0.93454038543E+01 -0.10163328024E+03  0.10211224546E+03  0.00000000000E+00 0. -1.
        -14    1    3    3    0    0 -0.44950870037E+02 -0.51700114484E+02 -0.27999138156E+02  0.74009690529E+02  0.00000000000E+00 0.  1.
          5    1    4    4  501    0  0.40387509921E+02 -0.26668024205E+02  0.42272246324E+01  0.48761422258E+02  0.41800000000E+01 0. -1.
         -5    1    4    4    0  501  0.10162891447E+03  0.12525034560E+03  0.86995364023E+02  0.18330780423E+03  0.41800000000E+01 0. -1.
</event>
<event>
11    1  0.6763327E-009  0.3794231E+03  0.7561462E-02  0.9712501E-01
         22   -1    0    0    0    0  0.00000000000E+00  0.00000000000E+00  0.53132516993E+03  0.53132516993E+03  0.00000000000E+00 0.  1.
         22   -1    0    0    0    0 -0.00000000000E+00 -0.00000000000E+00 -0.13581468692E+04  0.13581468692E+04  0.00000000000E+00 0. -1.
         24    2    1    2    0    0  0.16699790332E+03 -0.45001518116E+02 -0.12825123089E+04  0.12964999966E+04  0.78491925131E+02 0.  0.
         25    2    1    2    0    0 -0.17448434745E+02  0.36352712910E+02  0.29913497084E+02  0.13478909550E+03  0.12508922954E+03 0.  0.
        -24    2    1    2    0    0 -0.14954946857E+03  0.86488052063E+01  0.42577711264E+03  0.45818294696E+03  0.78775744082E+02 0.  0.
        -11    1    3    3    0    0  0.29765613455E+02 -0.34531686796E+02 -0.19207393184E+03  0.19741029464E+03  0.00000000000E+00 0.  1.
         12    1    3    3    0    0  0.13723228986E+03 -0.10469831320E+02 -0.10904383771E+04  0.10990897020E+04  0.00000000000E+00 0. -1.
         11    1    5    5    0    0 -0.99323140467E+02  0.31141022300E+02  0.34560670381E+03  0.36094160639E+03  0.00000000000E+00 0. -1.
        -12    1    5    5    0    0 -0.50226328103E+02 -0.22492217093E+02  0.80170408825E+02  0.97241340569E+02  0.00000000000E+00 0.  1.
          5    1    4    4  501    0 -0.23873542384E+02  0.31442046901E+02 -0.44607160318E+02  0.59714483092E+02  0.41800000000E+01 0.  1.
         -5    1    4    4    0  501  0.64251076387E+01  0.49106660086E+01  0.74520657402E+02  0.75074612410E+02  0.41800000000E+01 0.  1.
</event>
<event>
11    1  0.6763327E-009  0.1428807E+03  0.7561462E-02  0.1104384E+00
         22   -1    0    0    0    0  0.00000000000E+00  0.00000000000E+00  0.76907783071E+03  0.76907783071E+03  0.00000000000E+00 0. -1.
         22   -1    0    0    0    0 -0.00000000000E+00 -0.00000000000E+00 -0.18325543532E+03  0.18325543532E+03  0.00000000000E+00 0. -1.
        -24    2    1    2    0    0  0.14477568857E+01 -0.31324434360E+02 -0.14925742218E+03  0.16515477473E+03  0.63364069885E+02 0.  0.
         25    2    1    2    0    0  0.66707251672E+02  0.11819049719E+02  0.22559045098E+03  0.26669395349E+03  0.12508023783E+03 0.  0.
         24    2    1    2    0    0 -0.68155008558E+02  0.19505384642E+02  0.50948936659E+03  0.52048453781E+03  0.79367337112E+02 0.  0.
        -11    1    5    5    0    0 -0.51757139150E+02  0.32094329983E+02  0.17383350670E+03  0.18419265871E+03  0.00000000000E+00 0.  1.
         12    1    5    5    0    0 -0.16397869408E+02 -0.12588945341E+02  0.33565585989E+03  0.33629187910E+03  0.00000000000E+00 0. -1.
         13    1    3    3    0    0 -0.96905908295E+01 -0.40373060677E+02 -0.14400838576E+03  0.14987430316E+03  0.00000000000E+00 0. -1.
        -14    1    3    3    0    0  0.11138347715E+02  0.90486263164E+01 -0.52490364210E+01  0.15280471570E+02  0.00000000000E+00 0.  1.
          5    1    4    4  501    0  0.79096219665E+02  0.55228011307E+02  0.14455258675E+03  0.17383690038E+03  0.41800000000E+01 0.  1.
         -5    1    4    4    0  501 -0.12388967992E+02 -0.43408961588E+02  0.81037864229E+02  0.92857053113E+02  0.41800000000E+01 0.  1.
</event>
<event>
11    1  0.6763327E-009  0.1576696E+03  0.7561462E-02  0.1089290E+00
         22   -1    0    0    0    0  0.00000000000E+00  0.00000000000E+00  0.67267982432E+03  0.67267982432E+03  0.00000000000E+00 0. -1.
         22   -1    0    0    0    0 -0.00000000000E+00 -0.00000000000E+00 -0.46823851752E+03  0.46823851752E+03  0.00000000000E+00 0.  1.
         24    2    1    2    0    0 -0.87111848543E+02  0.33334654666E+02 -0.34262725824E+03  0.36433744143E+03  0.81539314330E+02 0.  0.
         25    2    1    2    0    0  0.16873787108E+03  0.95300925342E+01 -0.54270080234E+01  0.21033343536E+03  0.12508960714E+03 0.  0.
        -24    2    1    2    0    0 -0.81626022532E+02 -0.42864747200E+02  0.55249557307E+03  0.56624746505E+03  0.82973726582E+02 0.  0.
        -11    1    3    3    0    0 -0.49534163272E+02  0.41093998482E+02 -0.30066671444E+03  0.30747816706E+03  0.00000000000E+00 0.  1.
         12    1    3    3    0    0 -0.37577685271E+02 -0.77593438161E+01 -0.41960543799E+02  0.56859274377E+02  0.00000000000E+00 0. -1.
         13    1    5    5    0    0 -0.89565971973E+02 -0.55638458466E+02  0.42573590689E+03  0.43859863635E+03  0.00000000000E+00 0. -1.
        -14    1    5    5    0    0  0.79399494407E+01  0.12773711265E+02  0.12675966618E+03  0.12764882870E+03  0.00000000000E+00 0.  1.
          5    1    4    4  501    0  0.13654994763E+03 -0.40495928110E+02 -0.30376049514E+02  0.14569140392E+03  0.41800000000E+01 0. -1.
         -5    1    4    4    0  501  0.32187923445E+02  0.50026020644E+02  0.24949041490E+02  0.64642031439E+02  0.41800000000E+01 0. -1.
</event>
<event>
11    1  0.6763327E-009  0.3276163E+03  0.7561462E-02  0.9891365E-01
         22   -1    0    0    0    0  0.00000000000E+00  0.00000000000E+00  0.85801216467E+03  0.85801216467E+03  0.00000000000E+00 0. -1.
         22   -1    0    0    0    0 -0.00000000000E+00 -0.00000000000E+00 -0.63111608128E+03  0.63111608128E+03  0.00000000000E+00 0.  1.
        -24    2    1    2    0    0 -0.63922392518E+02  0.17738802135E+02 -0.22531851162E+03  0.24787191904E+03  0.79191661178E+02 0.  0.
         25    2    1    2    0    0  0.14947616413E+03  0.27257697004E+03 -0.28458087824E+03  0.43963078561E+03  0.12509045990E+03 0.  0.
         24    2    1    2    0    0 -0.85553771608E+02 -0.29031577218E+03  0.73679547326E+03  0.80162554130E+03  0.90184497784E+02 0.  0.
        -11    1    5    5    0    0 -0.14957730991E+02 -0.12107749538E+03  0.19891433724E+03  0.23334611023E+03  0.00000000000E+00 0.  1.
         12    1    5    5    0    0 -0.70596040617E+02 -0.16923827680E+03  0.53788113602E+03  0.56827943107E+03  0.00000000000E+00 0. -1.
         13    1    3    3    0    0 -0.27769871534E+02 -0.89284255053E+01 -0.14983799922E+02  0.32793243315E+02  0.00000000000E+00 0. -1.
        -14    1    3    3    0    0 -0.36152520984E+02  0.26667227640E+02 -0.21033471170E+03  0.21507867572E+03  0.00000000000E+00 0.  1.
          5    1    4    4  501    0  0.45534490140E+02  0.14451012118E+03 -0.64878533925E+02  0.16487347112E+03  0.41800000000E+01 0. -1.
         -5    1    4    4    0  501  0.10394167399E+03  0.12806684887E+03 -0.21970234431E+03  0.27475731449E+03  0.41800000000E+01 0. -1.
</event>
<event>
11    1  0.6763327E-009  0.1600511E+03  0.7561462E-02  0.1087029E+00
         22   -1    0    0    0    0  0.00000000000E+00  0.00000000000E+00  0.10863019187E+03  0.10863019187E+03  0.00000000000E+00 0.  1.
         22   -1    0    0    0    0 -0.00000000000E+00 -0.00000000000E+00 -0.11182818549E+04  0.11182818549E+04  0.00000000000E+00 0. -1.
         24    2    1    2    0    0  0.66747439969E+01  0.93150309228E+01 -0.91230501590E+03  0.91584307436E+03  0.79603849229E+02 0.  0.
         25    2    1    2    0    0 -0.18439669533E+02  0.94482109830E+02 -0.22120838669E+02  0.15939525171E+03  0.12510245510E+03 0.  0.
        -24    2    1    2    0    0  0.11764925536E+02 -0.10379714075E+03 -0.75225808460E+02  0.15167372070E+03  0.80210569069E+02 0.  0.
        -13    1    3    3    0    0 -0.35760296185E+01  0.40055729833E+02 -0.30029880819E+03  0.30297957634E+03  0.00000000000E+00 0.  1.
         14    1    3    3    0    0  0.10250773615E+02 -0.30740698911E+02 -0.61200620772E+03  0.61286349803E+03  0.00000000000E+00 0. -1.
         11    1    5    5    0    0 -0.47198754759E+01 -0.33833164402E+02 -0.72033361566E+02  0.79723054485E+02  0.00000000000E+00 0. -1.
        -12    1    5    5    0    0  0.16484801012E+02 -0.69963976350E+02 -0.31924468943E+01  0.71950666212E+02  0.00000000000E+00 0.  1.
          5    1    4    4  501    0  0.50061127155E+02  0.22446085586E+02  0.76302425382E+01  0.55548503233E+02  0.41800000000E+01 0. -1.
         -5    1    4    4    0  501 -0.68500796688E+02  0.72036024244E+02 -0.29751081207E+02  0.10384674847E+03  0.41800000000E+01 0. -1.
</event>
<event>
11    1  0.6763327E-009  0.1512447E+03  0.7561462E-02  0.1095614E+00
         22   -1    0    0    0    0  0.00000000000E+00  0.00000000000E+00  0.56342914370E+03  0.56342914370E+03  0.00000000000E+00 0. -1.
         22   -1    0    0    0    0 -0.00000000000E+00 -0.00000000000E+00 -0.20666667970E+03  0.20666667970E+03  0.00000000000E+00 0.  1.
        -24    2    1    2    0    0 -0.48960397140E+02  0.15336550358E+02 -0.13336778964E+03  0.16384338847E+03  0.80158333108E+02 0.  0.
         25    2    1    2    0    0 -0.21647859641E+02 -0.69446579805E+02  0.55024883853E+02  0.15481492803E+03  0.12509383208E+03 0.  0.
         24    2    1    2    0    0  0.70608256782E+02  0.54110029447E+02  0.43510536979E+03  0.45143750689E+03  0.81029121888E+02 0.  0.
        -11    1    5    5    0    0  0.35210583037E+02  0.13095323775E+02  0.50001397436E+02  0.62541285629E+02  0.00000000000E+00 0.  1.
         12    1    5    5    0    0  0.35397673745E+02  0.41014705672E+02  0.38510397235E+03  0.38889622126E+03  0.00000000000E+00 0. -1.
         11    1    3    3    0    0 -0.33549344064E+02  0.14771674029E+02 -0.79864870957E+01  0.37517260253E+02  0.00000000000E+00 0. -1.
        -12    1    3    3    0    0 -0.15411053076E+02  0.56487632814E+00 -0.12538130255E+03  0.12632612822E+03  0.00000000000E+00 0.  1.
          5    1    4    4  501    0 -0.41070047586E+02 -0.56679412438E+02  0.89083789412E+02  0.11336974261E+03  0.41800000000E+01 0. -1.
         -5    1    4    4    0  501  0.19422187945E+02 -0.12767167367E+02 -0.34058905559E+02  0.41445185426E+02  0.41800000000E+01 0. -1.
</event>
<event>
11    1  0.6763327E-009  0.1649464E+03  0.7561462E-02  0.1082515E+00
         22   -1    0    0    0    0  0.00000000000E+00  0.00000000000E+00  0.16701232209E+03  0.16701232209E+03  0.00000000000E+00 0. -1.
         22   -1    0    0    0    0 -0.00000000000E+00 -0.00000000000E+00 -0.71427680150E+03  0.71427680150E+03  0.00000000000E+00 0. -1.
         24    2    1    2    0    0 -0.59444036338E+02 -0.26479072158E+02 -0.53158572700E+03  0.54602766306E+03  0.10643349547E+03 0.  0.
         25    2    1    2    0    0 -0.36063729831E+02 -0.51356947493E+02 -0.93879272792E+02  0.16855942129E+03  0.12514324584E+03 0.  0.
        -24    2    1    2    0    0  0.95507766169E+02  0.77836019651E+02  0.78200520377E+02  0.16670203924E+03  0.80585787490E+02 0.  0.
        -11    1    3    3    0    0  0.18405815832E+02 -0.11991145120E+00 -0.17448228077E+02  0.25361961640E+02  0.00000000000E+00 0.  1.
         12    1    3    3    0    0 -0.77849852170E+02 -0.26359160707E+02 -0.51413749893E+03  0.52066570142E+03  0.00000000000E+00 0. -1.
         11    1    5    5    0    0  0.41043824906E+02  0.22515892366E+02  0.75729875247E+02  0.89031314586E+02  0.00000000000E+00 0. -1.
        -12    1    5    5    0    0  0.54463941263E+02  0.55320127285E+02  0.24706451304E+01  0.77670724653E+02  0.00000000000E+00 0.  1.
          5    1    4    4  501    0 -0.36171714334E+02 -0.85343461180E+02 -0.96928855924E+02  0.13418112682E+03  0.41800000000E+01 0. -1.
         -5    1    4    4    0  501  0.10798450308E+00  0.33986513688E+02  0.30495831323E+01  0.34378294469E+02  0.41800000000E+01 0. -1.
</event>
<event>
11    1  0.6763327E-009  0.1580353E+03  0.7561462E-02  0.1088940E+00
         22   -1    0    0    0    0  0.00000000000E+00  0.00000000000E+00  0.28802488706E+04  0.28802488706E+04  0.00000000000E+00 0.  1.
         22   -1    0    0    0    0 -0.00000000000E+00 -0.00000000000E+00 -0.21897929106E+03  0.21897929106E+03  0.00000000000E+00 0.  1.
        -24    2    1    2    0    0  0.96783331317E+02  0.17604729598E+02 -0.18516570106E+03  0.22472774074E+03  0.80865820247E+02 0.  0.
         25    2    1    2    0    0 -0.71905129881E+02  0.80468682170E+02  0.54637731302E+03  0.57080673258E+03  0.12508637521E+03 0.  0.
         24    2    1    2    0    0 -0.24878201435E+02 -0.98073411768E+02  0.23000579675E+04  0.23036936883E+04  0.80626524441E+02 0.  0.
        -11    1    5    5    0    0 -0.71567366550E+01 -0.54930349651E+02  0.19179369622E+04  0.19187367597E+04  0.00000000000E+00 0.  1.
         12    1    5    5    0    0 -0.17721464780E+02 -0.43143062117E+02  0.38212100533E+03  0.38495692855E+03  0.00000000000E+00 0. -1.
         11    1    3    3    0    0  0.44288763065E+02 -0.47283088889E+00 -0.16676436682E+02  0.47326753990E+02  0.00000000000E+00 0. -1.
        -12    1    3    3    0    0  0.52494568252E+02  0.18077560487E+02 -0.16848926438E+03  0.17740098675E+03  0.00000000000E+00 0.  1.
          5    1    4    4  501    0 -0.17930884943E+02 -0.33578825795E+02  0.14997999184E+03  0.15479187488E+03  0.41800000000E+01 0. -1.
         -5    1    4    4    0  501 -0.53974244939E+02  0.11404750796E+03  0.39639732119E+03  0.41601485771E+03  0.41800000000E+01 0. -1.
</event>
<event>
11    1  0.6763327E-009  0.1550608E+03  0.7561462E-02  0.1091817E+00
         22   -1    0    0    0    0  0.00000000000E+00  0.00000000000E+00  0.48843665994E+03  0.48843665994E+03  0.00000000000E+00 0. -1.
         22   -1    0    0    0    0 -0.00000000000E+00 -0.00000000000E+00 -0.42727295369E+03  0.42727295369E+03  0.00000000000E+00 0.  1.
         24    2    1    2    0    0  0.51813318068E+02  0.10856980216E+02 -0.35752663700E+03  0.36970018132E+03  0.77784535467E+02 0.  0.
         25    2    1    2    0    0 -0.30286087864E+02 -0.99784960110E+02  0.70914469191E+02  0.17762458284E+03  0.12508934850E+03 0.  0.
        -24    2    1    2    0    0 -0.21527230204E+02  0.88927979894E+02  0.34777587406E+03  0.36838484947E+03  0.79923285018E+02 0.  0.
        -11    1    3    3    0    0  0.45776633138E+02 -0.15870680242E+02 -0.31760791947E+03  0.32128207100E+03  0.00000000000E+00 0.  1.
         12    1    3    3    0    0  0.60366849300E+01  0.26727660458E+02 -0.39918717525E+02  0.48418110324E+02  0.00000000000E+00 0. -1.
         11    1    5    5    0    0 -0.21177431908E+01  0.97722081774E+02  0.30961609251E+03  0.32467863318E+03  0.00000000000E+00 0. -1.
        -12    1    5    5    0    0 -0.19409487013E+02 -0.87941018795E+01  0.38159781556E+02  0.43706216290E+02  0.00000000000E+00 0.  1.
          5    1    4    4  501    0 -0.46014463094E+02 -0.94723128702E+01  0.71737850261E+02  0.85853637576E+02  0.41800000000E+01 0. -1.
         -5    1    4    4    0  501  0.15728375230E+02 -0.90312647240E+02 -0.82338107037E+00  0.91770945267E+02  0.41800000000E+01 0. -1.
</event>
<event>
11    1  0.6763327E-009  0.1536392E+03  0.7561462E-02  0.1093217E+00
         22   -1    0    0    0    0  0.00000000000E+00  0.00000000000E+00  0.11047506613E+04  0.11047506613E+04  0.00000000000E+00 0. -1.
         22   -1    0    0    0    0 -0.00000000000E+00 -0.00000000000E+00 -0.46382051785E+03  0.46382051785E+03  0.00000000000E+00 0.  1.
         24    2    1    2    0    0 -0.78419173167E+02  0.47663396789E+02 -0.37800116830E+03  0.39723539330E+03  0.80558726007E+02 0.  0.
         25    2    1    2    0    0  0.20220447494E+02 -0.90831488110E+02  0.97435347839E+01  0.15621072257E+03  0.12509047785E+03 0.  0.
        -24    2    1    2    0    0  0.58198725674E+02  0.43168091321E+02  0.10091877770E+04  0.10151250633E+04  0.82269977105E+02 0.  0.
        -13    1    3    3    0    0 -0.26930514384E+02  0.62863204002E+02 -0.20691675176E+03  0.21792562305E+03  0.00000000000E+00 0.  1.
         14    1    3    3    0    0 -0.51488658783E+02 -0.15199807213E+02 -0.17108441654E+03  0.17930977024E+03  0.00000000000E+00 0. -1.
         11    1    5    5    0    0  0.51017466583E+02  0.51953221632E+02  0.99111126342E+03  0.99378239852E+03  0.00000000000E+00 0. -1.
        -12    1    5    5    0    0  0.71812590910E+01 -0.87851303113E+01  0.18076513538E+02  0.21342664745E+02  0.00000000000E+00 0.  1.
          5    1    4    4  501    0  0.35874663305E+02 -0.10987685198E+03  0.34829414757E+02  0.12079103692E+03  0.41800000000E+01 0. -1.
         -5    1    4    4    0  501 -0.15654215811E+02  0.19045363871E+02 -0.25085879973E+02  0.35419685651E+02  0.41800000000E+01 0. -1.
</event>
<event>
11    1  0.6763327E-009  0.1290045E+03  0.7561462E-02  0.1120498E+00
         22   -1    0    0    0    0  0.00000000000E+00  0.00000000000E+00  0.80900602333E+03  0.80900602333E+03  0.00000000000E+00 0. -1.
         22   -1    0    0    0    0 -0.00000000000E+00 -0.00000000000E+00 -0.32885698175E+03  0.32885698175E+03  0.00000000000E+00 0.  1.
         24    2    1    2    0    0 -0.22226369713E+02 -0.55622410071E+01 -0.29513130981E+03  0.30680640110E+03  0.80639492110E+02 0.  0.
         25    2    1    2    0    0  0.42064020983E+02 -0.16136711324E+02  0.16998530574E+03  0.21580429175E+03  0.12508682127E+03 0.  0.
        -24    2    1    2    0    0 -0.19837651270E+02  0.21698952331E+02  0.60529504566E+03  0.61525231224E+03  0.10624941636E+03 0.  0.
        -11    1    3    3    0    0 -0.17160434921E+02 -0.17375171820E+02 -0.29271001259E+03  0.29372696266E+03  0.00000000000E+00 0.  1.
         12    1    3    3    0    0 -0.50659347922E+01  0.11812930813E+02 -0.24212972252E+01  0.13079438442E+02  0.00000000000E+00 0. -1.
         13    1    5    5    0    0 -0.20774260267E+02  0.33684312194E+02  0.60127512704E+03  0.60257612065E+03  0.00000000000E+00 0. -1.
        -14    1    5    5    0    0  0.93660899738E+00 -0.11985359863E+02  0.40199186115E+01  0.12676191585E+02  0.00000000000E+00 0.  1.
          5    1    4    4  501    0  0.64673322039E+02  0.35854933201E+02  0.11449521443E+03  0.13636290311E+03  0.41800000000E+01 0. -1.
         -5    1    4    4    0  501 -0.22609301056E+02 -0.51991644525E+02  0.55490091311E+02  0.79441388635E+02  0.41800000000E+01 0. -1.
</event>
<event>
11    1  0.6763327E-009  0.1579204E+03  0.7561462E-02  0.1089050E+00
         22   -1    0    0    0    0  0.00000000000E+00  0.00000000000E+00  0.14048500143E+03  0.14048500143E+03  0.00000000000E+00 0. -1.
         22   -1    0    0    0    0 -0.00000000000E+00 -0.00000000000E+00 -0.78847197243E+03  0.78847197243E+03  0.00000000000E+00 0. -1.
        -24    2    1    2    0    0  0.77993798406E+00  0.98213873768E+01 -0.59611834416E+03  0.60098712898E+03  0.75705884838E+02 0.  0.
         25    2    1    2    0    0 -0.35210577230E+01  0.88668241096E+02 -0.10877601685E+03  0.18802960372E+03  0.12509378565E+03 0.  0.
         24    2    1    2    0    0  0.27411197389E+01 -0.98489628472E+02  0.56907390006E+02  0.13994024116E+03  0.81468395124E+02 0.  0.
        -13    1    5    5    0    0  0.11312381283E+01  0.10928068714E+02  0.22815883245E+02  0.25323248484E+02  0.00000000000E+00 0.  1.
         14    1    5    5    0    0  0.16098816107E+01 -0.10941769719E+03  0.34091506761E+02  0.11461699267E+03  0.00000000000E+00 0. -1.
         11    1    3    3    0    0  0.90134481707E+01 -0.25684821156E+02 -0.43261359619E+03  0.43346911757E+03  0.00000000000E+00 0. -1.
        -12    1    3    3    0    0 -0.82335101867E+01  0.35506208533E+02 -0.16350474798E+03  0.16751801141E+03  0.00000000000E+00 0.  1.
          5    1    4    4  501    0 -0.49033346493E+02  0.89500712656E+02 -0.50429138909E+02  0.11390881039E+03  0.41800000000E+01 0. -1.
         -5    1    4    4    0  501  0.45512288770E+02 -0.83247156023E+00 -0.58346877936E+02  0.74120793324E+02  0.41800000000E+01 0. -1.
</event>
<event>
11    1  0.6763327E-009  0.1287105E+03  0.7561462E-02  0.1120864E+00
         22   -1    0    0    0    0  0.00000000000E+00  0.00000000000E+00  0.70755421781E+03  0.70755421781E+03  0.00000000000E+00 0.  1.
         22   -1    0    0    0    0 -0.00000000000E+00 -0.00000000000E+00 -0.50183954974E+03  0.50183954974E+03  0.00000000000E+00 0. -1.
        -24    2    1    2    0    0  0.11099199954E+02 -0.30488293265E+02 -0.40538007910E+03  0.41466240022E+03  0.80988698990E+02 0.  0.
         25    2    1    2    0    0 -0.12565370346E+02  0.58370227289E+01 -0.44957008461E+02  0.13364357675E+03  0.12509002210E+03 0.  0.
         24    2    1    2    0    0  0.14661703917E+01  0.24651270536E+02  0.65605175563E+03  0.66108779057E+03  0.77610089508E+02 0.  0.
        -13    1    5    5    0    0  0.32723938320E+02  0.23336405968E+02  0.51700189666E+03  0.51856186240E+03  0.00000000000E+00 0.  1.
         14    1    5    5    0    0 -0.31257767928E+02  0.13148645682E+01  0.13904985896E+03  0.14252592818E+03  0.00000000000E+00 0. -1.
         13    1    3    3    0    0 -0.18326421642E+02 -0.49073352465E+02 -0.23602732832E+03  0.24177045180E+03  0.00000000000E+00 0. -1.
        -14    1    3    3    0    0  0.29425621596E+02  0.18585059200E+02 -0.16935275078E+03  0.17289194842E+03  0.00000000000E+00 0.  1.
          5    1    4    4  501    0 -0.54309344553E+02 -0.15834650773E+02  0.13686282326E+02  0.58352616006E+02  0.41800000000E+01 0. -1.
         -5    1    4    4    0  501  0.41743974207E+02  0.21671673502E+02 -0.58643290787E+02  0.75290960741E+02  0.41800000000E+01 0. -1.
</event>
<event>
11    1  0.6763327E-009  0.1518556E+03  0.7561462E-02  0.1094998E+00
         22   -1    0    0    0    0  0.00000000000E+00  0.00000000000E+00  0.11605015601E+03  0.11605015601E+03  0.00000000000E+00 0. -1.
         22   -1    0    0    0    0 -0.00000000000E+00 -0.00000000000E+00 -0.35963254775E+04  0.35963254775E+04  0.00000000000E+00 0. -1.
         24    2    1    2    0    0 -0.15656559331E+02  0.86238432879E+02 -0.31350684749E+04  0.31373368239E+04  0.80906177448E+02 0.  0.
         25    2    1    2    0    0  0.72336502230E+02 -0.52974578344E+02 -0.41828982380E+03  0.44571369123E+03  0.12512171013E+03 0.  0.
        -24    2    1    2    0    0 -0.56679942899E+02 -0.33263854535E+02  0.73082977192E+02  0.12932511833E+03  0.84052154827E+02 0.  0.
        -13    1    3    3    0    0  0.92565966514E+01  0.12991993757E+02 -0.98539302703E+02  0.99822195230E+02  0.00000000000E+00 0.  1.
         14    1    3    3    0    0 -0.24913155982E+02  0.73246439122E+02 -0.30365291722E+04  0.30375146287E+04  0.00000000000E+00 0. -1.
         11    1    5    5    0    0 -0.73558378411E+02 -0.15714478086E+02  0.73226814667E+02  0.10497593173E+03  0.00000000000E+00 0. -1.
        -12    1    5    5    0    0  0.16878435512E+02 -0.17549376449E+02 -0.14383747478E+00  0.24349186605E+02  0.00000000000E+00 0.  1.
          5    1    4    4  501    0  0.28150565948E+02  0.40431527674E+02 -0.11173823664E+03  0.12218866036E+03  0.41800000000E+01 0. -1.
         -5    1    4    4    0  501  0.44185936282E+02 -0.93406106018E+02 -0.30655158716E+03  0.32352503087E+03  0.41800000000E+01 0. -1.
</event>
<event>
11    1  0.6763327E-009  0.1259288E+03  0.7561462E-02  0.1124375E+00
         22   -1    0    0    0    0  0.00000000000E+00  0.00000000000E+00  0.18068293837E+04  0.18068293837E+04  0.00000000000E+00 0.  1.
         22   -1    0    0    0    0 -0.00000000000E+00 -0.00000000000E+00 -0.12795664567E+03  0.12795664567E+03  0.00000000000E+00 0. -1.
         24    2    1    2    0    0  0.18710180805E+02 -0.24338889518E+00 -0.51116597906E+02  0.98175518147E+02  0.81703094666E+02 0.  0.
         25    2    1    2    0    0 -0.96696037607E-01  0.10439690848E+02  0.22986952422E+02  0.12761050674E+03  0.12508814873E+03 0.  0.
        -24    2    1    2    0    0 -0.18613484767E+02 -0.10196301953E+02  0.17070023835E+04  0.17090000045E+04  0.79833900155E+02 0.  0.
        -13    1    3    3    0    0  0.43280971755E+02  0.29861111820E+01 -0.23191792549E+01  0.43445804959E+02  0.00000000000E+00 0.  1.
         14    1    3    3    0    0 -0.24570790950E+02 -0.32295000771E+01 -0.48797418651E+02  0.54729713188E+02  0.00000000000E+00 0. -1.
         11    1    5    5    0    0  0.13643196554E+01 -0.19875515224E+02  0.10671687872E+03  0.10856053462E+03  0.00000000000E+00 0. -1.
        -12    1    5    5    0    0 -0.19977804423E+02  0.96792132705E+01  0.16002855048E+04  0.16004394699E+04  0.00000000000E+00 0.  1.
          5    1    4    4  501    0 -0.44849766376E+02  0.43146678057E+02 -0.96994632934E+01  0.63124395914E+02  0.41800000000E+01 0.  1.
         -5    1    4    4    0  501  0.44753070338E+02 -0.32706987209E+02  0.32686415715E+02  0.64486110825E+02  0.41800000000E+01 0.  1.
</event>
<event>
11    1  0.6763327E-009  0.1741941E+03  0.7561462E-02  0.1074438E+00
         22   -1    0    0    0    0  0.00000000000E+00  0.00000000000E+00  0.89844065897E+02  0.89844065897E+02  0.00000000000E+00 0.  1.
         22   -1    0    0    0    0 -0.00000000000E+00 -0.00000000000E+00 -0.23032724320E+04  0.23032724320E+04  0.00000000000E+00 0. -1.
        -24    2    1    2    0    0 -0.20614194811E+02  0.32344852775E+02 -0.16687947114E+04  0.16709908167E+04  0.76572749512E+02 0.  0.
         25    2    1    2    0    0  0.22495984623E+02  0.92410206377E+02 -0.55179995540E+03  0.57374025782E+03  0.12509587160E+03 0.  0.
         24    2    1    2    0    0 -0.18817898121E+01 -0.12475505915E+03  0.71663007403E+01  0.14838542340E+03  0.79996950530E+02 0.  0.
        -13    1    5    5    0    0  0.32163108747E+02 -0.83104247254E+02  0.23515124261E+02  0.92161502510E+02  0.00000000000E+00 0.  1.
         14    1    5    5    0    0 -0.34044898559E+02 -0.41650811899E+02 -0.16348823520E+02  0.56223920890E+02  0.00000000000E+00 0. -1.
         13    1    3    3    0    0 -0.46773386945E+02  0.18592809605E+02 -0.73114447619E+03  0.73287494660E+03  0.00000000000E+00 0. -1.
        -14    1    3    3    0    0  0.26159192134E+02  0.13752043170E+02 -0.93765023526E+03  0.93811587009E+03  0.00000000000E+00 0.  1.
          5    1    4    4  501    0 -0.97400116363E+01 -0.27169586220E+02 -0.16553904007E+03  0.16808837089E+03  0.41800000000E+01 0.  1.
         -5    1    4    4    0  501  0.32235996259E+02  0.11957979260E+03 -0.38626091533E+03  0.40565188693E+03  0.41800000000E+01 0.  1.
</event>
<event>
11    1  0.6763327E-009  0.1466867E+03  0.7561462E-02  0.1100313E+00
         22   -1    0    0    0    0  0.00000000000E+00  0.00000000000E+00  0.18190071714E+04  0.18190071714E+04  0.00000000000E+00 0.  1.
         22   -1    0    0    0    0 -0.00000000000E+00 -0.00000000000E+00 -0.17066095811E+03  0.17066095811E+03  0.00000000000E+00 0. -1.
         24    2    1    2    0    0 -0.77869036037E+02  0.30291720102E+01 -0.11416252062E+03  0.16032413555E+03  0.81227979605E+02 0.  0.
         25    2    1    2    0    0  0.67542790277E+02  0.57550166382E+01  0.12398329647E+03  0.18873759629E+03  0.12511943780E+03 0.  0.
        -24    2    1    2    0    0  0.10326245761E+02 -0.87841886484E+01  0.16385254375E+04  0.16406063977E+04  0.81485886127E+02 0.  0.
        -11    1    3    3    0    0 -0.30385363470E+02 -0.36637536865E+02 -0.31526319710E+02  0.57091928109E+02  0.00000000000E+00 0.  1.
         12    1    3    3    0    0 -0.47483672567E+02  0.39666708875E+02 -0.82636200906E+02  0.10323220744E+03  0.00000000000E+00 0. -1.
         13    1    5    5    0    0 -0.24148369517E+02  0.23835923886E+02  0.54882056203E+03  0.54986844275E+03  0.00000000000E+00 0. -1.
        -14    1    5    5    0    0  0.34474615277E+02 -0.32620112534E+02  0.10897048754E+04  0.10907379550E+04  0.00000000000E+00 0.  1.
          5    1    4    4  501    0  0.30890606366E+00  0.37460287321E+02  0.10549142261E+03  0.11202357428E+03  0.41800000000E+01 0.  1.
         -5    1    4    4    0  501  0.67233884213E+02 -0.31705270682E+02  0.18491873863E+02  0.76714022019E+02  0.41800000000E+01 0.  1.
</event>
<event>
11    1  0.6763327E-009  0.1422306E+03  0.7561462E-02  0.1105093E+00
         22   -1    0    0    0    0  0.00000000000E+00  0.00000000000E+00  0.35808666415E+03  0.35808666415E+03  0.00000000000E+00 0. -1.
         22   -1    0    0    0    0 -0.00000000000E+00 -0.00000000000E+00 -0.33003953451E+03  0.33003953451E+03  0.00000000000E+00 0.  1.
         24    2    1    2    0    0 -0.46928040368E+02  0.15189250604E+02 -0.24471518111E+03  0.26228684861E+03  0.80473081089E+02 0.  0.
         25    2    1    2    0    0 -0.26099109275E+02 -0.20647912446E+01 -0.47885007715E+01  0.12789040089E+03  0.12509035947E+03 0.  0.
        -24    2    1    2    0    0  0.73027149643E+02 -0.13124459360E+02  0.27755081152E+03  0.29794894915E+03  0.78955096746E+02 0.  0.
        -13    1    3    3    0    0 -0.44751497892E+02  0.30223928492E+02 -0.24054690225E+03  0.24653396237E+03  0.00000000000E+00 0.  1.
         14    1    3    3    0    0 -0.21765424758E+01 -0.15034677888E+02 -0.41682788605E+01  0.15752886243E+02  0.00000000000E+00 0. -1.
         13    1    5    5    0    0  0.56929642584E+02 -0.31609762779E+02  0.25940042246E+03  0.26744857539E+03  0.00000000000E+00 0. -1.
        -14    1    5    5    0    0  0.16097507059E+02  0.18485303420E+02  0.18150389067E+02  0.30500373757E+02  0.00000000000E+00 0.  1.
          5    1    4    4  501    0 -0.69118920735E+02  0.10226892864E+02  0.24604573881E+02  0.74194824598E+02  0.41800000000E+01 0.  1.
         -5    1    4    4    0  501  0.43019811460E+02 -0.12291684109E+02 -0.29393074652E+02  0.53695576297E+02  0.41800000000E+01 0.  1.
</event>
<event>
11    1  0.6763327E-009  0.1974354E+03  0.7561462E-02  0.1056352E+00
         22   -1    0    0    0    0  0.00000000000E+00  0.00000000000E+00  0.50593047259E+03  0.50593047259E+03  0.00000000000E+00 0. -1.
         22   -1    0    0    0    0 -0.00000000000E+00 -0.00000000000E+00 -0.95694272884E+03  0.95694272884E+03  0.00000000000E+00 0.  1.
        -24    2    1    2    0    0 -0.33042257292E+02 -0.16053377043E+02 -0.80798753962E+03  0.81279018934E+03  0.80215497385E+02 0.  0.
         25    2    1    2    0    0 -0.63747218745E+02  0.13538249020E+03 -0.56541715879E+02  0.20307063508E+03  0.12509432700E+03 0.  0.
         24    2    1    2    0    0  0.96789476037E+02 -0.11932911316E+03  0.41351699926E+03  0.44701237701E+03  0.72222687641E+02 0.  0.
        -13    1    5    5    0    0  0.68314361938E+02 -0.55639375134E+02  0.30926592841E+03  0.32157115323E+03  0.00000000000E+00 0.  1.
         14    1    5    5    0    0  0.28475114099E+02 -0.63689738022E+02  0.10425107085E+03  0.12544122379E+03  0.00000000000E+00 0. -1.
         11    1    3    3    0    0  0.23569431072E+02 -0.98809527595E+01 -0.13501655956E+03  0.13741405555E+03  0.00000000000E+00 0. -1.
        -12    1    3    3    0    0 -0.56611688364E+02 -0.61724242833E+01 -0.67297098006E+03  0.67537613379E+03  0.00000000000E+00 0.  1.
          5    1    4    4  501    0 -0.25817316558E+02  0.10077319560E+02 -0.66038441003E+02  0.71740046654E+02  0.41800000000E+01 0. -1.
         -5    1    4    4    0  501 -0.37929902187E+02  0.12530517064E+03  0.94967251236E+01  0.13133058843E+03  0.41800000000E+01 0. -1.
</event>
<event>
11    1  0.6763327E-009  0.1492405E+03  0.7561462E-02  0.1097657E+00
         22   -1    0    0    0    0  0.00000000000E+00  0.00000000000E+00  0.20454292164E+03  0.20454292164E+03  0.00000000000E+00 0. -1.
         22   -1    0    0    0    0 -0.00000000000E+00 -0.00000000000E+00 -0.24513979414E+04  0.24513979414E+04  0.00000000000E+00 0.  1.
        -24    2    1    2    0    0  0.41407865816E+01 -0.33952814915E+02 -0.23288618828E+04  0.23305404025E+04  0.81553409453E+02 0.  0.
         25    2    1    2    0    0  0.13587279555E+01  0.10892363117E+03 -0.29776047588E+02  0.16852213045E+03  0.12508753685E+03 0.  0.
         24    2    1    2    0    0 -0.54995145371E+01 -0.74970816251E+02  0.11178291063E+03  0.15687833013E+03  0.80402259945E+02 0.  0.
        -11    1    5    5    0    0 -0.16051837115E+02 -0.35612318735E+01 -0.70092391001E+01  0.17873815485E+02  0.00000000000E+00 0.  1.
         12    1    5    5    0    0  0.10552322578E+02 -0.71409584378E+02  0.11879214973E+03  0.13900451464E+03  0.00000000000E+00 0. -1.
         13    1    3    3    0    0 -0.34929432842E+02 -0.39188783248E+01 -0.64445416307E+03  0.64541195464E+03  0.00000000000E+00 0. -1.
        -14    1    3    3    0    0  0.39070219423E+02 -0.30033936590E+02 -0.16844077198E+04  0.16851284479E+04  0.00000000000E+00 0.  1.
          5    1    4    4  501    0 -0.56918987185E+02  0.85718146141E+02 -0.17099993742E+02  0.10438991266E+03  0.41800000000E+01 0.  1.
         -5    1    4    4    0  501  0.58277715140E+02  0.23205485024E+02 -0.12676053846E+02  0.64132217787E+02  0.41800000000E+01 0.  1.
</event>
<event>
11    1  0.6763327E-009  0.1363079E+03  0.7561462E-02  0.1111753E+00
         22   -1    0    0    0    0  0.00000000000E+00  0.00000000000E+00  0.61024289130E+02  0.61024289130E+02  0.00000000000E+00 0.  1.
         22   -1    0    0    0    0 -0.00000000000E+00 -0.00000000000E+00 -0.14039934480E+04  0.14039934480E+04  0.00000000000E+00 0. -1.
         24    2    1    2    0    0  0.78851418775E+01 -0.44338901359E+02 -0.93412938463E+03  0.93870303890E+03  0.80855268079E+02 0.  0.
         25    2    1    2    0    0 -0.48809073804E+02  0.52443404558E+01 -0.40838913885E+03  0.42992862431E+03  0.12508838664E+03 0.  0.
        -24    2    1    2    0    0  0.40923931927E+02  0.39094560903E+02 -0.45063539188E+00  0.96386073930E+02  0.78018711082E+02 0.  0.
        -11    1    3    3    0    0 -0.20303300560E+02  0.76582592033E+01 -0.93056111326E+02  0.95552670307E+02  0.00000000000E+00 0.  1.
         12    1    3    3    0    0  0.28188442438E+02 -0.51997160562E+02 -0.84107327331E+03  0.84315036860E+03  0.00000000000E+00 0. -1.
         13    1    5    5    0    0  0.47412468580E+02  0.45428201211E+02 -0.24964690976E+02  0.70248839405E+02  0.00000000000E+00 0. -1.
        -14    1    5    5    0    0 -0.64885366539E+01 -0.63336403079E+01  0.24514055584E+02  0.26137234525E+02  0.00000000000E+00 0.  1.
          5    1    4    4  501    0  0.15047685713E+02 -0.12045455024E+01  0.83005533923E+00  0.15685826948E+02  0.41800000000E+01 0. -1.
         -5    1    4    4    0  501 -0.63856759517E+02  0.64488859582E+01 -0.40921919419E+03  0.41424279736E+03  0.41800000000E+01 0. -1.
</event>
<event>
11    1  0.6763327E-009  0.1389731E+03  0.7561462E-02  0.1108711E+00
         22   -1    0    0    0    0  0.00000000000E+00  0.00000000000E+00  0.16321310128E+03  0.16321310128E+03  0.00000000000E+00 0.  1.
         22   -1    0    0    0    0 -0.00000000000E+00 -0.00000000000E+00 -0.54826746598E+03  0.54826746598E+03  0.00000000000E+00 0.  1.
        -24    2    1    2    0    0 -0.67541278533E+02  0.42041628894E+01 -0.38777603243E+03  0.40210692888E+03  0.82098913736E+02 0.  0.
         25    2    1    2    0    0  0.23329548518E+02 -0.38734152919E+02 -0.10103254444E+03  0.16703198203E+03  0.12508998980E+03 0.  0.
         24    2    1    2    0    0  0.44211730015E+02  0.34529990030E+02  0.10375421217E+03  0.14234165635E+03  0.79681950941E+02 0.  0.
        -13    1    5    5    0    0  0.34431082893E+02  0.41862803087E+02  0.11410441538E+03  0.12632423109E+03  0.00000000000E+00 0.  1.
         14    1    5    5    0    0  0.97806471228E+01 -0.73328130567E+01 -0.10350203207E+02  0.16017425258E+02  0.00000000000E+00 0. -1.
         13    1    3    3    0    0  0.54230292957E+01 -0.26575181087E+02 -0.92245522785E+02  0.96150330059E+02  0.00000000000E+00 0. -1.
        -14    1    3    3    0    0 -0.72964307829E+02  0.30779343977E+02 -0.29553050965E+03  0.30595659882E+03  0.00000000000E+00 0.  1.
          5    1    4    4  501    0  0.64234925824E+02  0.14132577927E+02 -0.46375830115E+02  0.80585640615E+02  0.41800000000E+01 0. -1.
         -5    1    4    4    0  501 -0.40905377306E+02 -0.52866730846E+02 -0.54656714322E+02  0.86446341411E+02  0.41800000000E+01 0. -1.
</event>
<event>
11    1  0.6763327E-009  0.1651170E+03  0.7561462E-02  0.1082361E+00
         22   -1    0    0    0    0  0.00000000000E+00  0.00000000000E+00  0.57436311131E+03  0.57436311131E+03  0.00000000000E+00 0. -1.
         22   -1    0    0    0    0 -0.00000000000E+00 -0.00000000000E+00 -0.12799107645E+03  0.12799107645E+03  0.00000000000E+00 0.  1.
         24    2    1    2    0    0  0.57702307138E+02  0.36037397980E+02 -0.39897513684E+02  0.11271368078E+03  0.80525225455E+02 0.  0.
         25    2    1    2    0    0 -0.50057210139E+02 -0.13431079985E+03  0.19727043749E+03  0.27405747151E+03  0.12508699747E+03 0.  0.
        -24    2    1    2    0    0 -0.76450969985E+01  0.98273401873E+02  0.28899911106E+03  0.31558303547E+03  0.79724883560E+02 0.  0.
        -13    1    3    3    0    0  0.48317419178E+02 -0.17130731660E+02 -0.16314301587E+02  0.53797689537E+02  0.00000000000E+00 0.  1.
         14    1    3    3    0    0  0.93848879601E+01  0.53168129640E+02 -0.23583212097E+02  0.58915991244E+02  0.00000000000E+00 0. -1.
         11    1    5    5    0    0  0.11207007992E+02  0.91051350339E+02  0.27767252984E+03  0.29243457260E+03  0.00000000000E+00 0. -1.
        -12    1    5    5    0    0 -0.18852104991E+02  0.72220515338E+01  0.11326581224E+02  0.23148462869E+02  0.00000000000E+00 0.  1.
          5    1    4    4  501    0 -0.76598903174E+02 -0.66455805319E+02  0.58192380661E+02  0.11699398102E+03  0.41800000000E+01 0. -1.
         -5    1    4    4    0  501  0.26541693035E+02 -0.67854994534E+02  0.13907805683E+03  0.15706349049E+03  0.41800000000E+01 0. -1.
</event>
<event>
11    1  0.6763327E-009  0.2060514E+03  0.7561462E-02  0.1050325E+00
         22   -1    0    0    0    0  0.00000000000E+00  0.00000000000E+00  0.18213041501E+03  0.18213041501E+03  0.00000000000E+00 0. -1.
         22   -1    0    0    0    0 -0.00000000000E+00 -0.00000000000E+00 -0.55999609758E+03  0.55999609758E+03  0.00000000000E+00 0. -1.
        -24    2    1    2    0    0  0.60704360729E+02 -0.21285468626E+02 -0.32864109336E+03  0.34299692463E+03  0.74187812170E+02 0.  0.
         25    2    1    2    0    0  0.66055766832E+02 -0.11781301978E+03 -0.57427622080E+02  0.19284566365E+03  0.12509295044E+03 0.  0.
         24    2    1    2    0    0 -0.12676012756E+03  0.13909848841E+03  0.82030328676E+01  0.20628392432E+03  0.84078821751E+02 0.  0.
        -13    1    5    5    0    0 -0.60537098549E+02  0.23063072827E+02 -0.23602894878E+02  0.68947387736E+02  0.00000000000E+00 0.  1.
         14    1    5    5    0    0 -0.66223029012E+02  0.11603541558E+03  0.31805927745E+02  0.13733653658E+03  0.00000000000E+00 0. -1.
         13    1    3    3    0    0  0.66082204600E+02 -0.21293293255E+02 -0.33018217494E+03  0.33740262410E+03  0.00000000000E+00 0. -1.
        -14    1    3    3    0    0 -0.53778438706E+01  0.78246284487E-02  0.15410815834E+01  0.55943005254E+01  0.00000000000E+00 0.  1.
          5    1    4    4  501    0  0.87025760426E+02 -0.52849927041E+02  0.24709530479E+01  0.10193221167E+03  0.41800000000E+01 0.  1.
         -5    1    4    4    0  501 -0.20969993595E+02 -0.64963092741E+02 -0.59898575128E+02  0.90913451987E+02  0.41800000000E+01 0.  1.
</event>
<event>
11    1  0.6763327E-009  0.1279980E+03  0.7561462E-02  0.1121754E+00
         22   -1    0    0    0    0  0.00000000000E+00  0.00000000000E+00  0.24225127417E+04  0.24225127417E+04  0.00000000000E+00 0.  1.
         22   -1    0    0    0    0 -0.00000000000E+00 -0.00000000000E+00 -0.37919046612E+02  0.37919046612E+02  0.00000000000E+00 0. -1.
         24    2    1    2    0    0  0.22683782211E+02 -0.16006272569E+02  0.41002671264E+02  0.95200748521E+02  0.81309339754E+02 0.  0.
         25    2    1    2    0    0 -0.28454806217E+02 -0.16755525460E+01  0.40217013110E+03  0.42214003948E+03  0.12509562388E+03 0.  0.
        -24    2    1    2    0    0  0.57710240065E+01  0.17681825115E+02  0.19414208928E+04  0.19430910003E+04  0.78368368003E+02 0.  0.
        -11    1    3    3    0    0  0.53207319990E+01  0.31256014006E+02  0.30026773989E+02  0.43667559546E+02  0.00000000000E+00 0.  1.
         12    1    3    3    0    0  0.17363050212E+02 -0.47262286575E+02  0.10975897275E+02  0.51533188975E+02  0.00000000000E+00 0. -1.
         11    1    5    5    0    0 -0.21965076348E+02 -0.22459196066E+02  0.67517915578E+03  0.67590958897E+03  0.00000000000E+00 0. -1.
        -12    1    5    5    0    0  0.27736100355E+02  0.40141021181E+02  0.12662417370E+04  0.12671814114E+04  0.00000000000E+00 0.  1.
          5    1    4    4  501    0 -0.29756321021E+02 -0.38112637248E+02  0.37049934641E+03  0.37366462216E+03  0.41800000000E+01 0. -1.
         -5    1    4    4    0  501  0.13015148044E+01  0.36437084702E+02  0.31670784682E+02  0.48475417324E+02  0.41800000000E+01 0. -1.
</event>
<event>
11    1  0.6763327E-009  0.1781188E+03  0.7561462E-02  0.1071175E+00
         22   -1    0    0    0    0  0.00000000000E+00  0.00000000000E+00  0.80742394307E+03  0.80742394307E+03  0.00000000000E+00 0. -1.
         22   -1    0    0    0    0 -0.00000000000E+00 -0.00000000000E+00 -0.24213624251E+03  0.24213624251E+03  0.00000000000E+00 0.  1.
         24    2    1    2    0    0  0.10814904331E+03  0.52757462139E+02 -0.15848099521E+03  0.21613579771E+03  0.84373525634E+02 0.  0.
         25    2    1    2    0    0 -0.22582708121E+03 -0.40004278233E+02  0.38165662445E+03  0.46250209934E+03  0.12509276566E+03 0.  0.
        -24    2    1    2    0    0  0.11767803790E+03 -0.12753183906E+02  0.34211207132E+03  0.37092228854E+03  0.80820235635E+02 0.  0.
        -11    1    3    3    0    0  0.91667838011E+02  0.68490584161E+02 -0.15563441964E+03  0.19317356243E+03  0.00000000000E+00 0.  1.
         12    1    3    3    0    0  0.16481205295E+02 -0.15733122022E+02 -0.28465755716E+01  0.22962235279E+02  0.00000000000E+00 0. -1.
         13    1    5    5    0    0  0.81340570822E+02  0.27795086498E+02  0.24423547393E+03  0.25892049363E+03  0.00000000000E+00 0. -1.
        -14    1    5    5    0    0  0.36337467080E+02 -0.40548270404E+02  0.97876597388E+02  0.11200179491E+03  0.00000000000E+00 0.  1.
          5    1    4    4  501    0 -0.92495605942E+02  0.31972326435E+02  0.86415580645E+02  0.13062462155E+03  0.41800000000E+01 0.  1.
         -5    1    4    4    0  501 -0.13333147527E+03 -0.71976604668E+02  0.29524104381E+03  0.33187747779E+03  0.41800000000E+01 0.  1.
</event>
<event>
11    1  0.6763327E-009  0.1413308E+03  0.7561462E-02  0.1106081E+00
         22   -1    0    0    0    0  0.00000000000E+00  0.00000000000E+00  0.45835251924E+03  0.45835251924E+03  0.00000000000E+00 0. -1.
         22   -1    0    0    0    0 -0.00000000000E+00 -0.00000000000E+00 -0.36893689665E+03  0.36893689665E+03  0.00000000000E+00 0. -1.
         24    2    1    2    0    0 -0.56373822170E+02  0.32552014952E+02 -0.27821095126E+03  0.29658755616E+03  0.79531148409E+02 0.  0.
         25    2    1    2    0    0  0.69883491668E+02 -0.20003175052E+02 -0.96127016014E+01  0.14499558775E+03  0.12508991572E+03 0.  0.
        -24    2    1    2    0    0 -0.13509669498E+02 -0.12548839900E+02  0.37723927545E+03  0.38570627197E+03  0.78229615482E+02 0.  0.
        -11    1    3    3    0    0 -0.10730918686E+01 -0.56403186777E+01 -0.16377634001E+03  0.16387694856E+03  0.00000000000E+00 0.  1.
         12    1    3    3    0    0 -0.55300730302E+02  0.38192333629E+02 -0.11443461125E+03  0.13271060761E+03  0.00000000000E+00 0. -1.
         13    1    5    5    0    0 -0.44957937911E+02 -0.13821672495E+02  0.26480824430E+03  0.26895289748E+03  0.00000000000E+00 0. -1.
        -14    1    5    5    0    0  0.31448268413E+02  0.12728325953E+01  0.11243103115E+03  0.11675337449E+03  0.00000000000E+00 0.  1.
          5    1    4    4  501    0  0.88209378888E+02 -0.49844947080E+02  0.14267371112E+02  0.10240333760E+03  0.41800000000E+01 0. -1.
         -5    1    4    4    0  501 -0.18325887220E+02  0.29841772028E+02 -0.23880072714E+02  0.42592250152E+02  0.41800000000E+01 0. -1.
</event>
<event>
11    1  0.6763327E-009  0.2423238E+03  0.7561462E-02  0.1028070E+00
         22   -1    0    0    0    0  0.00000000000E+00  0.00000000000E+00  0.35403265558E+03  0.35403265558E+03  0.00000000000E+00 0. -1.
         22   -1    0    0    0    0 -0.00000000000E+00 -0.00000000000E+00 -0.17885448996E+04  0.17885448996E+04  0.00000000000E+00 0. -1.
        -24    2    1    2    0    0 -0.84335171060E+01  0.20192789765E+03 -0.14886549237E+04  0.15044342025E+04  0.79892350856E+02 0.  0.
         25    2    1    2    0    0  0.46032161343E+02 -0.25668406406E+03 -0.20762149202E+03  0.35603414175E+03  0.12509179639E+03 0.  0.
         24    2    1    2    0    0 -0.37598644237E+02  0.54756166409E+02  0.26176417175E+03  0.28210921088E+03  0.81567330746E+02 0.  0.
        -13    1    5    5    0    0  0.50193449500E+01  0.60867849682E+01 -0.38158317625E+01  0.87637518801E+01  0.00000000000E+00 0.  1.
         14    1    5    5    0    0 -0.42617989187E+02  0.48669381441E+02  0.26558000351E+03  0.27334545900E+03  0.00000000000E+00 0. -1.
         13    1    3    3    0    0  0.23570616162E+02  0.69815009460E+02 -0.72884272853E+03  0.73255814269E+03  0.00000000000E+00 0. -1.
        -14    1    3    3    0    0 -0.32004133268E+02  0.13211288819E+03 -0.75981219521E+03  0.77187605984E+03  0.00000000000E+00 0.  1.
          5    1    4    4  501    0  0.48439984138E+02 -0.10670796471E+03 -0.25400406474E+02  0.11998197717E+03  0.41800000000E+01 0.  1.
         -5    1    4    4    0  501 -0.24078227954E+01 -0.14997609934E+03 -0.18222108554E+03  0.23605216458E+03  0.41800000000E+01 0.  1.
</event>
<event>
11    1  0.6763327E-009  0.1405973E+03  0.7561462E-02  0.1106893E+00
         22   -1    0    0    0    0  0.00000000000E+00  0.00000000000E+00  0.16940402768E+04  0.16940402768E+04  0.00000000000E+00 0. -1.
         22   -1    0    0    0    0 -0.00000000000E+00 -0.00000000000E+00 -0.75711665400E+03  0.75711665400E+03  0.00000000000E+00 0. -1.
        -24    2    1    2    0    0 -0.25812973917E+02 -0.22575127199E+02 -0.69964153277E+03  0.70511479731E+03  0.80701034782E+02 0.  0.
         25    2    1    2    0    0  0.67820501558E+02  0.69718559960E+02  0.65213607933E+02  0.17135175416E+03  0.12509320909E+03 0.  0.
         24    2    1    2    0    0 -0.42007527641E+02 -0.47143432761E+02  0.15713515477E+04  0.15746903794E+04  0.80727745078E+02 0.  0.
        -11    1    5    5    0    0 -0.41216835905E+02 -0.88729783722E+01  0.32148656142E+03  0.32423936602E+03  0.00000000000E+00 0.  1.
         12    1    5    5    0    0 -0.79069173587E+00 -0.38270454389E+02  0.12498649863E+04  0.12504510133E+04  0.00000000000E+00 0. -1.
         11    1    3    3    0    0 -0.37689276145E+02 -0.46116402239E+02 -0.54461420424E+03  0.54786114623E+03  0.00000000000E+00 0. -1.
        -12    1    3    3    0    0  0.11876302228E+02  0.23541275040E+02 -0.15502732853E+03  0.15725365108E+03  0.00000000000E+00 0.  1.
          5    1    4    4  501    0  0.33514610509E+02  0.63962524069E+02 -0.23432797938E+02  0.76032900918E+02  0.41800000000E+01 0. -1.
         -5    1    4    4    0  501  0.34305891048E+02  0.57560358915E+01  0.88646405870E+02  0.95318853243E+02  0.41800000000E+01 0. -1.
</event>
<event>
11    1  0.6763327E-009  0.1489237E+03  0.7561462E-02  0.1097984E+00
         22   -1    0    0    0    0  0.00000000000E+00  0.00000000000E+00  0.79502529726E+03  0.79502529726E+03  0.00000000000E+00 0.  1.
         22   -1    0    0    0    0 -0.00000000000E+00 -0.00000000000E+00 -0.63838522242E+03  0.63838522242E+03  0.00000000000E+00 0. -1.
         24    2    1    2    0    0 -0.21066861771E+02  0.78271796032E+02 -0.58163795811E+03  0.59287819054E+03  0.81434315778E+02 0.  0.
         25    2    1    2    0    0 -0.38549175258E+02 -0.87468439386E+02  0.83787999133E+02  0.17833426201E+03  0.12508362565E+03 0.  0.
        -24    2    1    2    0    0  0.59616037029E+02  0.91966433539E+01  0.65449003382E+03  0.66219806712E+03  0.80687208462E+02 0.  0.
        -13    1    3    3    0    0  0.15226997918E+02 -0.31744822682E+01 -0.27346946689E+02  0.31460996432E+02  0.00000000000E+00 0.  1.
         14    1    3    3    0    0 -0.36293859688E+02  0.81446278300E+02 -0.55429101142E+03  0.56141719411E+03  0.00000000000E+00 0. -1.
         13    1    5    5    0    0  0.37158150675E+02 -0.26251973565E+02  0.17298326246E+03  0.17886616049E+03  0.00000000000E+00 0. -1.
        -14    1    5    5    0    0  0.22457886354E+02  0.35448616918E+02  0.48150677136E+03  0.48333190663E+03  0.00000000000E+00 0.  1.
          5    1    4    4  501    0 -0.12053408301E+02 -0.83106942748E+02  0.11141544741E+03  0.13958124124E+03  0.41800000000E+01 0. -1.
         -5    1    4    4    0  501 -0.26495766957E+02 -0.43614966381E+01 -0.27627448282E+02  0.38753020761E+02  0.41800000000E+01 0. -1.
</event>
<event>
11    1  0.6763327E-009  0.2120822E+03  0.7561462E-02  0.1046294E+00
         22   -1    0    0    0    0  0.00000000000E+00  0.00000000000E+00  0.18572311380E+03  0.18572311380E+03  0.00000000000E+00 0.  1.
         22   -1    0    0    0    0 -0.00000000000E+00 -0.00000000000E+00 -0.20452774082E+04  0.20452774082E+04  0.00000000000E+00 0.  1.
        -24    2    1    2    0    0  0.46828509316E+02  0.10272778731E+03 -0.16983715375E+04  0.17038809362E+04  0.77449710221E+02 0.  0.
         25    2    1    2    0    0 -0.20536910437E+03 -0.47840849861E+02 -0.22268511478E+03  0.33121233156E+03  0.12509089609E+03 0.  0.
         24    2    1    2    0    0  0.15854059505E+03 -0.54886937449E+02  0.61502357962E+02  0.19590725422E+03  0.80308256360E+02 0.  0.
        -11    1    5    5    0    0 -0.29116250972E+01  0.69939675485E+01  0.15084786424E+02  0.16880282114E+02  0.00000000000E+00 0.  1.
         12    1    5    5    0    0  0.16145222015E+03 -0.61880904997E+02  0.46417571537E+02  0.17902697211E+03  0.00000000000E+00 0. -1.
         11    1    3    3    0    0  0.10368531889E+02  0.97737632209E+01 -0.77420594099E+03  0.77433705320E+03  0.00000000000E+00 0. -1.
        -12    1    3    3    0    0  0.36459977426E+02  0.92954024088E+02 -0.92416559655E+03  0.92954388298E+03  0.00000000000E+00 0.  1.
          5    1    4    4  501    0 -0.65526126840E+02 -0.58029871466E+02 -0.29479433597E+02  0.92453494722E+02  0.41800000000E+01 0.  1.
         -5    1    4    4    0  501 -0.13984297753E+03  0.10189021605E+02 -0.19320568118E+03  0.23875883683E+03  0.41800000000E+01 0.  1.
</event>
<event>
11    1  0.6763327E-009  0.1754993E+03  0.7561462E-02  0.1073343E+00
         22   -1    0    0    0    0  0.00000000000E+00  0.00000000000E+00  0.10962391460E+04  0.10962391460E+04  0.00000000000E+00 0.  1.
         22   -1    0    0    0    0 -0.00000000000E+00 -0.00000000000E+00 -0.55477949445E+03  0.55477949445E+03  0.00000000000E+00 0.  1.
        -24    2    1    2    0    0  0.56999911637E+02 -0.19907977643E+02 -0.51015594335E+03  0.51994909619E+03  0.80266173404E+02 0.  0.
         25    2    1    2    0    0 -0.14047374223E+03 -0.64495616076E+02  0.26191268632E+03  0.32884379218E+03  0.12508967842E+03 0.  0.
         24    2    1    2    0    0  0.83473830597E+02  0.84403593719E+02  0.78970290861E+03  0.80222575211E+03  0.76443616182E+02 0.  0.
        -11    1    5    5    0    0  0.37997077005E+02 -0.70660753762E+01  0.24448687440E+03  0.24752280508E+03  0.00000000000E+00 0.  1.
         12    1    5    5    0    0  0.45476753593E+02  0.91469669095E+02  0.54521603421E+03  0.55470294702E+03  0.00000000000E+00 0. -1.
         13    1    3    3    0    0  0.43906689314E+02 -0.17704718224E+02 -0.11229162682E+03  0.12186329992E+03  0.00000000000E+00 0. -1.
        -14    1    3    3    0    0  0.13093222323E+02 -0.22032594190E+01 -0.39786431653E+03  0.39808579627E+03  0.00000000000E+00 0.  1.
          5    1    4    4  501    0 -0.13466438455E+03 -0.17765553145E+02  0.12743646752E+03  0.18629985775E+03  0.41800000000E+01 0.  1.
         -5    1    4    4    0  501 -0.58093576873E+01 -0.46730062931E+02  0.13447621881E+03  0.14254393443E+03  0.41800000000E+01 0.  1.
</event>
<event>
11    1  0.6763327E-009  0.2338306E+03  0.7561462E-02  0.1032884E+00
         22   -1    0    0    0    0  0.00000000000E+00  0.00000000000E+00  0.65562370466E+03  0.65562370466E+03  0.00000000000E+00 0. -1.
         22   -1    0    0    0    0 -0.00000000000E+00 -0.00000000000E+00 -0.24059428555E+03  0.24059428555E+03  0.00000000000E+00 0. -1.
        -24    2    1    2    0    0 -0.43257481606E+02  0.28784447929E+01 -0.80120238782E+02  0.12300417117E+03  0.82651547496E+02 0.  0.
         25    2    1    2    0    0 -0.15052005645E+03 -0.66379655141E+02 -0.25723964128E+02  0.20825812370E+03  0.12508867954E+03 0.  0.
         24    2    1    2    0    0  0.19377753805E+03  0.63501210349E+02  0.52087362202E+03  0.56495569533E+03  0.79268339211E+02 0.  0.
        -11    1    5    5    0    0 -0.19919711664E+01 -0.85482114816E+01  0.11100752372E+02  0.14151557225E+02  0.00000000000E+00 0.  1.
         12    1    5    5    0    0  0.19576950922E+03  0.72049421830E+02  0.50977286965E+03  0.55080413810E+03  0.00000000000E+00 0. -1.
         13    1    3    3    0    0  0.16138429610E+02  0.25077791750E+02 -0.22993573366E+02  0.37656990924E+02  0.00000000000E+00 0. -1.
        -14    1    3    3    0    0 -0.59395911216E+02 -0.22199346957E+02 -0.57126665416E+02  0.85347180246E+02  0.00000000000E+00 0.  1.
          5    1    4    4  501    0  0.80341064999E+01  0.19591430338E+02 -0.17282864625E+02  0.27650331274E+02  0.41800000000E+01 0. -1.
         -5    1    4    4    0  501 -0.15855416295E+03 -0.85971085479E+02 -0.84410995030E+01  0.18060779243E+03  0.41800000000E+01 0. -1.
</event>
<event>
11    1  0.6763327E-009  0.2456565E+03  0.7561462E-02  0.1026239E+00
         22   -1    0    0    0    0  0.00000000000E+00  0.00000000000E+00  0.15069269809E+03  0.15069269809E+03  0.00000000000E+00 0.  1.
         22   -1    0    0    0    0 -0.00000000000E+00 -0.00000000000E+00 -0.21572169724E+04  0.21572169724E+04  0.00000000000E+00 0. -1.
        -24    2    1    2    0    0 -0.48620889237E+02 -0.36422272044E+02 -0.17589065226E+04  0.17617738834E+04  0.80028046471E+02 0.  0.
         25    2    1    2    0    0 -0.47153911190E+02 -0.17394677325E+03 -0.19927247784E+03  0.29638141792E+03  0.12510576805E+03 0.  0.
         24    2    1    2    0    0  0.95774800427E+02  0.21036904529E+03 -0.48345273872E+02  0.24975436917E+03  0.81314400926E+02 0.  0.
        -13    1    5    5    0    0  0.10589564763E+03  0.15123187918E+03 -0.42682131156E+02  0.18949072217E+03  0.00000000000E+00 0.  1.
         14    1    5    5    0    0 -0.10120847206E+02  0.59137166116E+02 -0.56631427155E+01  0.60263647000E+02  0.00000000000E+00 0. -1.
         13    1    3    3    0    0 -0.67369620258E+02 -0.11173368543E+02 -0.12985489948E+04  0.13003434169E+04  0.00000000000E+00 0. -1.
        -14    1    3    3    0    0  0.18748731021E+02 -0.25248903501E+02 -0.46035752781E+03  0.46143046654E+03  0.00000000000E+00 0.  1.
          5    1    4    4  501    0 -0.89005083299E+02 -0.99648013205E+02 -0.12956117490E+03  0.18615907668E+03  0.41800000000E+01 0. -1.
         -5    1    4    4    0  501  0.41851172109E+02 -0.74298760043E+02 -0.69711302937E+02  0.11022234124E+03  0.41800000000E+01 0. -1.
</event>
<event>
11    1  0.6763327E-009  0.1416098E+03  0.7561462E-02  0.1105774E+00
         22   -1    0    0    0    0  0.00000000000E+00  0.00000000000E+00  0.46747706437E+03  0.46747706437E+03  0.00000000000E+00 0.  1.
         22   -1    0    0    0    0 -0.00000000000E+00 -0.00000000000E+00 -0.39602993954E+03  0.39602993954E+03  0.00000000000E+00 0.  1.
        -24    2    1    2    0    0  0.22288965472E+02  0.42265810710E+01 -0.28565912404E+03  0.29817730844E+03  0.82425179131E+02 0.  0.
         25    2    1    2    0    0  0.38715617296E+02  0.25897697598E+02 -0.49903289728E+02  0.14250324508E+03  0.12508895542E+03 0.  0.
         24    2    1    2    0    0 -0.61004582768E+02 -0.30124278669E+02  0.40700953859E+03  0.42282645040E+03  0.92175980411E+02 0.  0.
        -11    1    5    5    0    0 -0.54829009665E+02 -0.31870127069E+02  0.41060269738E+03  0.41547141947E+03  0.00000000000E+00 0.  1.
         12    1    5    5    0    0 -0.61755731033E+01  0.17458483994E+01 -0.35931587904E+01  0.73550309232E+01  0.00000000000E+00 0. -1.
         13    1    3    3    0    0  0.15662302759E+02 -0.25914713753E+02 -0.37934079222E+02  0.48537351422E+02  0.00000000000E+00 0. -1.
        -14    1    3    3    0    0  0.66266627134E+01  0.30141294824E+02 -0.24772504482E+03  0.24963995702E+03  0.00000000000E+00 0.  1.
          5    1    4    4  501    0  0.38526091815E+02 -0.22152606003E+02  0.26675886698E+02  0.52000702249E+02  0.41800000000E+01 0.  1.
         -5    1    4    4    0  501  0.18952548119E+00  0.48050303601E+02 -0.76579176426E+02  0.90502542827E+02  0.41800000000E+01 0.  1.
</event>
<event>
11    1  0.6763327E-009  0.1328207E+03  0.7561462E-02  0.1115851E+00
         22   -1    0    0    0    0  0.00000000000E+00  0.00000000000E+00  0.46334543824E+03  0.46334543824E+03  0.00000000000E+00 0.  1.
         22   -1    0    0    0    0 -0.00000000000E+00 -0.00000000000E+00 -0.29748828897E+03  0.29748828897E+03  0.00000000000E+00 0.  1.
        -24    2    1    2    0    0 -0.21163598380E+02  0.42335737879E+02 -0.23061742649E+03  0.24847390608E+03  0.79464910538E+02 0.  0.
         25    2    1    2    0    0  0.29021119182E+02 -0.86530920804E+01  0.25353672299E+02  0.13117343168E+03  0.12508620674E+03 0.  0.
         24    2    1    2    0    0 -0.78575208024E+01 -0.33682645799E+02  0.37112090346E+03  0.38118638945E+03  0.79850342857E+02 0.  0.
        -11    1    5    5    0    0 -0.32574427411E+01 -0.58873759674E+02  0.29614678527E+03  0.30195968098E+03  0.00000000000E+00 0.  1.
         12    1    5    5    0    0 -0.46000780613E+01  0.25191113875E+02  0.74974118191E+02  0.79226708470E+02  0.00000000000E+00 0. -1.
         11    1    3    3    0    0  0.80453442648E+01 -0.17694253553E+02 -0.21619162192E+02  0.29072363974E+02  0.00000000000E+00 0. -1.
        -12    1    3    3    0    0 -0.29208942644E+02  0.60029991433E+02 -0.20899826429E+03  0.21940154211E+03  0.00000000000E+00 0.  1.
          5    1    4    4  501    0  0.11456766509E+02 -0.17053116060E+02  0.74898039180E+02  0.77776956351E+02  0.41800000000E+01 0. -1.
         -5    1    4    4    0  501  0.17564352673E+02  0.84000239799E+01 -0.49544366881E+02  0.53396475326E+02  0.41800000000E+01 0. -1.
</event>
<event>
11    1  0.6763327E-009  0.2243844E+03  0.7561462E-02  0.1038505E+00
         22   -1    0    0    0    0  0.00000000000E+00  0.00000000000E+00  0.10456156668E+04  0.10456156668E+04  0.00000000000E+00 0.  1.
         22   -1    0    0    0    0 -0.00000000000E+00 -0.00000000000E+00 -0.95561755666E+03  0.95561755666E+03  0.00000000000E+00 0.  1.
        -24    2    1    2    0    0 -0.16958200019E+03  0.13749765413E+03 -0.71691424741E+03  0.75526821763E+03  0.93810355160E+02 0.  0.
         25    2    1    2    0    0  0.17366776145E+02 -0.14506582386E+03 -0.16838541093E+03  0.25563148337E+03  0.12509240787E+03 0.  0.
         24    2    1    2    0    0  0.15221522405E+03  0.75681697304E+01  0.97529776844E+03  0.99033352243E+03  0.79548707643E+02 0.  0.
        -11    1    5    5    0    0  0.99660378338E+02 -0.28336260749E+02  0.70925759315E+03  0.71678551054E+03  0.00000000000E+00 0.  1.
         12    1    5    5    0    0  0.52554845711E+02  0.35904430480E+02  0.26604017530E+03  0.27354801189E+03  0.00000000000E+00 0. -1.
         13    1    3    3    0    0 -0.61231892092E+00  0.33313160205E+02 -0.55756637515E+02  0.64953400252E+02  0.00000000000E+00 0. -1.
        -14    1    3    3    0    0 -0.16896968127E+03  0.10418449393E+03 -0.66115760990E+03  0.69031481737E+03  0.00000000000E+00 0.  1.
          5    1    4    4  501    0  0.64745832710E+02 -0.38360914137E+02 -0.70813847489E+02  0.10341980460E+03  0.41800000000E+01 0.  1.
         -5    1    4    4    0  501 -0.47379056565E+02 -0.10670490973E+03 -0.97571563444E+02  0.15221167877E+03  0.41800000000E+01 0.  1.
</event>
<event>
11    1  0.6763327E-009  0.1722501E+03  0.7561462E-02  0.1076090E+00
         22   -1    0    0    0    0  0.00000000000E+00  0.00000000000E+00  0.64442323793E+03  0.64442323793E+03  0.00000000000E+00 0. -1.
         22   -1    0    0    0    0 -0.00000000000E+00 -0.00000000000E+00 -0.11258892907E+03  0.11258892907E+03  0.00000000000E+00 0. -1.
        -24    2    1    2    0    0  0.60367861473E+00 -0.12184793267E+03 -0.31262067985E+01  0.14777019842E+03  0.83540261232E+02 0.  0.
         25    2    1    2    0    0  0.70574287037E+02  0.96060804524E+02  0.39298489887E+03  0.42929365321E+03  0.12508997479E+03 0.  0.
         24    2    1    2    0    0 -0.71177965652E+02  0.25787128149E+02  0.14197561680E+03  0.17994831537E+03  0.80579412181E+02 0.  0.
        -13    1    5    5    0    0  0.17361186114E+02  0.94040857284E+00  0.33466420897E+02  0.37713346169E+02  0.00000000000E+00 0.  1.
         14    1    5    5    0    0 -0.88539151766E+02  0.24846719576E+02  0.10850919590E+03  0.14223496920E+03  0.00000000000E+00 0. -1.
         11    1    3    3    0    0 -0.34169354692E+02 -0.77074162170E+02 -0.23511166085E+02  0.87525688829E+02  0.00000000000E+00 0. -1.
        -12    1    3    3    0    0  0.34773033307E+02 -0.44773770503E+02  0.20384959286E+02  0.60244509588E+02  0.00000000000E+00 0.  1.
          5    1    4    4  501    0  0.88648048421E-01  0.10105975319E+03  0.25185626985E+03  0.27140769082E+03  0.41800000000E+01 0.  1.
         -5    1    4    4    0  501  0.70485638989E+02 -0.49989486678E+01  0.14112862903E+03  0.15788596240E+03  0.41800000000E+01 0.  1.
</event>
<event>
11    1  0.6763327E-009  0.2442757E+03  0.7561462E-02  0.1026994E+00
         22   -1    0    0    0    0  0.00000000000E+00  0.00000000000E+00  0.18566189113E+03  0.18566189113E+03  0.00000000000E+00 0.  1.
         22   -1    0    0    0    0 -0.00000000000E+00 -0.00000000000E+00 -0.12320029497E+04  0.12320029497E+04  0.00000000000E+00 0. -1.
         24    2    1    2    0    0  0.19478567774E+02 -0.84740992343E+01 -0.71033476119E+03  0.71546867487E+03  0.82877782373E+02 0.  0.
         25    2    1    2    0    0  0.14079632844E+03  0.14622619558E+03 -0.40012156032E+03  0.46577490547E+03  0.12507315124E+03 0.  0.
        -24    2    1    2    0    0 -0.16027489621E+03 -0.13775209634E+03  0.64115262956E+02  0.23642126047E+03  0.84383428794E+02 0.  0.
        -11    1    3    3    0    0  0.40829969126E+02  0.22245734073E+02 -0.46165386737E+03  0.46398949591E+03  0.00000000000E+00 0.  1.
         12    1    3    3    0    0 -0.21351401352E+02 -0.30719833307E+02 -0.24868089382E+03  0.25147917896E+03  0.00000000000E+00 0. -1.
         13    1    5    5    0    0  0.19877739662E+01  0.39312252612E+00 -0.10453088581E+02  0.10647668832E+02  0.00000000000E+00 0. -1.
        -14    1    5    5    0    0 -0.16226267017E+03 -0.13814521887E+03  0.74568351538E+02  0.22577359163E+03  0.00000000000E+00 0.  1.
          5    1    4    4  501    0  0.11322177584E+03  0.71606786827E+02 -0.34152603481E+03  0.36688446042E+03  0.41800000000E+01 0. -1.
         -5    1    4    4    0  501  0.27574552592E+02  0.74619408749E+02 -0.58595525509E+02  0.98890445051E+02  0.41800000000E+01 0. -1.
</event>
<event>
11    1  0.6763327E-009  0.1594250E+03  0.7561462E-02  0.1087619E+00
         22   -1    0    0    0    0  0.00000000000E+00  0.00000000000E+00  0.19863244632E+03  0.19863244632E+03  0.00000000000E+00 0.  1.
         22   -1    0    0    0    0 -0.00000000000E+00 -0.00000000000E+00 -0.27641795457E+04  0.27641795457E+04  0.00000000000E+00 0.  1.
        -24    2    1    2    0    0 -0.55016686402E+02 -0.29897132152E+02 -0.19122600695E+04  0.19150111965E+04  0.81293512038E+02 0.  0.
         25    2    1    2    0    0  0.11485223111E+03  0.10664587313E+03 -0.81592699905E+03  0.84020766441E+03  0.12509066438E+03 0.  0.
         24    2    1    2    0    0 -0.59835544705E+02 -0.76748740979E+02  0.16263996915E+03  0.20759313110E+03  0.84690535842E+02 0.  0.
        -11    1    5    5    0    0 -0.44435470593E+01 -0.33908493690E+02  0.12184051740E+03  0.12654897367E+03  0.00000000000E+00 0.  1.
         12    1    5    5    0    0 -0.55391997645E+02 -0.42840247289E+02  0.40799451750E+02  0.81044157433E+02  0.00000000000E+00 0. -1.
         13    1    3    3    0    0 -0.60892033475E+01 -0.48663937702E+02 -0.78133154946E+03  0.78286924030E+03  0.00000000000E+00 0. -1.
        -14    1    3    3    0    0 -0.48927483055E+02  0.18766805550E+02 -0.11309285200E+04  0.11321419562E+04  0.00000000000E+00 0.  1.
          5    1    4    4  501    0  0.39512597531E+02  0.39364115406E+02 -0.59058028201E+03  0.59322282562E+03  0.41800000000E+01 0.  1.
         -5    1    4    4    0  501  0.75339633577E+02  0.67281757725E+02 -0.22534671704E+03  0.24698483879E+03  0.41800000000E+01 0.  1.
</event>
<event>
11    1  0.6763327E-009  0.1415762E+03  0.7561462E-02  0.1105811E+00
         22   -1    0    0    0    0  0.00000000000E+00  0.00000000000E+00  0.16820808268E+03  0.16820808268E+03  0.00000000000E+00 0. -1.
         22   -1    0    0    0    0 -0.00000000000E+00 -0.00000000000E+00 -0.94200559679E+03  0.94200559679E+03  0.00000000000E+00 0. -1.
        -24    2    1    2    0    0  0.39775942078E+02 -0.33558992333E+02 -0.58790014406E+03  0.59526068929E+03  0.77462102276E+02 0.  0.
         25    2    1    2    0    0 -0.73404872390E+02 -0.24078395286E+02 -0.31505895390E+03  0.34767503446E+03  0.12509092989E+03 0.  0.
         24    2    1    2    0    0  0.33628930313E+02  0.57637387618E+02  0.12916158385E+03  0.16727795573E+03  0.82741926033E+02 0.  0.
        -11    1    5    5    0    0  0.13524839272E+02  0.40817699611E+02  0.85384007455E+01  0.43839595872E+02  0.00000000000E+00 0.  1.
         12    1    5    5    0    0  0.20104091040E+02  0.16819688007E+02  0.12062318310E+03  0.12343835985E+03  0.00000000000E+00 0. -1.
         13    1    3    3    0    0  0.49730013520E+02 -0.43992008901E+02 -0.55933828803E+03  0.56326520535E+03  0.00000000000E+00 0. -1.
        -14    1    3    3    0    0 -0.99540714423E+01  0.10433016568E+02 -0.28561856029E+02  0.31995483944E+02  0.00000000000E+00 0.  1.
          5    1    4    4  501    0 -0.57997572258E+02 -0.11176789859E+02 -0.32091359930E+03  0.32633058336E+03  0.41800000000E+01 0. -1.
         -5    1    4    4    0  501 -0.15407300132E+02 -0.12901605426E+02  0.58546453989E+01  0.21344451098E+02  0.41800000000E+01 0. -1.
</event>
<event>
11    1  0.6763327E-009  0.1355955E+03  0.7561462E-02  0.1112579E+00
         22   -1    0    0    0    0  0.00000000000E+00  0.00000000000E+00  0.14920422794E+03  0.14920422794E+03  0.00000000000E+00 0. -1.
         22   -1    0    0    0    0 -0.00000000000E+00 -0.00000000000E+00 -0.46262779320E+03  0.46262779320E+03  0.00000000000E+00 0. -1.
        -24    2    1    2    0    0  0.72704886087E+01 -0.61127796518E+02 -0.19472166759E+03  0.21937734372E+03  0.80127545803E+02 0.  0.
         25    2    1    2    0    0 -0.33645355608E+02  0.31184103985E+02 -0.21857267582E+03  0.25598007272E+03  0.12508926701E+03 0.  0.
         24    2    1    2    0    0  0.26374866999E+02  0.29943692533E+02  0.99870778146E+02  0.13647460471E+03  0.84017183194E+02 0.  0.
        -13    1    5    5    0    0  0.13005313265E+02 -0.25329752072E+02  0.10108097308E+02  0.30214369832E+02  0.00000000000E+00 0.  1.
         14    1    5    5    0    0  0.13369553734E+02  0.55273444605E+02  0.89762680837E+02  0.10626023488E+03  0.00000000000E+00 0. -1.
         11    1    3    3    0    0  0.27804216345E+01 -0.78537209301E+02 -0.17901031459E+03  0.19550068214E+03  0.00000000000E+00 0. -1.
        -12    1    3    3    0    0  0.44900669742E+01  0.17409412783E+02 -0.15711353003E+02  0.23876661577E+02  0.00000000000E+00 0.  1.
          5    1    4    4  501    0 -0.26137865657E+02  0.34780930140E+02 -0.23395191075E+03  0.23799972703E+03  0.41800000000E+01 0.  1.
         -5    1    4    4    0  501 -0.75074899503E+01 -0.35968261553E+01  0.15379234938E+02  0.17980345687E+02  0.41800000000E+01 0.  1.
</event>
<event>
11    1  0.6763327E-009  0.2200665E+03  0.7561462E-02  0.1041176E+00
         22   -1    0    0    0    0  0.00000000000E+00  0.00000000000E+00  0.59095773899E+03  0.59095773899E+03  0.00000000000E+00 0.  1.
         22   -1    0    0    0    0 -0.00000000000E+00 -0.00000000000E+00 -0.12329504757E+04  0.12329504757E+04  0.00000000000E+00 0.  1.
         24    2    1    2    0    0 -0.16846777851E+03  0.71467008303E+02 -0.11346603032E+04  0.11520947052E+04  0.79870396354E+02 0.  0.
         25    2    1    2    0    0  0.12622500718E+03 -0.95689231813E+02  0.38756663142E+02  0.20552030027E+03  0.12508930156E+03 0.  0.
        -24    2    1    2    0    0  0.42242771332E+02  0.24222223510E+02  0.45391090337E+03  0.46629320928E+03  0.94989899345E+02 0.  0.
        -11    1    3    3    0    0 -0.16497342852E+03  0.54073951927E+02 -0.10945970127E+04  0.11082792269E+04  0.00000000000E+00 0.  1.
         12    1    3    3    0    0 -0.34943499930E+01  0.17393056376E+02 -0.40063290506E+02  0.43815478294E+02  0.00000000000E+00 0. -1.
         11    1    5    5    0    0  0.57047557729E+01  0.57198985034E+02  0.23797950591E+03  0.24482343303E+03  0.00000000000E+00 0. -1.
        -12    1    5    5    0    0  0.36538015559E+02 -0.32976761525E+02  0.21593139746E+03  0.22146977625E+03  0.00000000000E+00 0.  1.
          5    1    4    4  501    0  0.14059999944E+03 -0.73079765960E+02  0.61602528652E+02  0.17006280008E+03  0.41800000000E+01 0.  1.
         -5    1    4    4    0  501 -0.14374992264E+02 -0.22609465853E+02 -0.22845865509E+02  0.35457500189E+02  0.41800000000E+01 0.  1.
</event>
<event>
11    1  0.6763327E-009  0.1487817E+03  0.7561462E-02  0.1098130E+00
         22   -1    0    0    0    0  0.00000000000E+00  0.00000000000E+00  0.16334084603E+04  0.16334084603E+04  0.00000000000E+00 0. -1.
         22   -1    0    0    0    0 -0.00000000000E+00 -0.00000000000E+00 -0.10736065137E+03  0.10736065137E+03  0.00000000000E+00 0. -1.
        -24    2    1    2    0    0  0.11955078011E+02 -0.86430208337E+02 -0.52995845836E+02  0.12820042996E+03  0.77547957831E+02 0.  0.
         25    2    1    2    0    0 -0.28111874486E+02  0.25163575481E+02  0.27303725913E+03  0.30268972948E+03  0.12509294322E+03 0.  0.
         24    2    1    2    0    0  0.16156796475E+02  0.61266632856E+02  0.13060063956E+04  0.13098789522E+04  0.78201800778E+02 0.  0.
        -11    1    5    5    0    0  0.29957607575E+02  0.97928834650E+01  0.18963452331E+03  0.19223582197E+03  0.00000000000E+00 0.  1.
         12    1    5    5    0    0 -0.13800811100E+02  0.51473749391E+02  0.11163718723E+04  0.11176431303E+04  0.00000000000E+00 0. -1.
         11    1    3    3    0    0  0.15704377920E+02 -0.69493421114E+02 -0.72807932837E+02  0.10186735565E+03  0.00000000000E+00 0. -1.
        -12    1    3    3    0    0 -0.37492999084E+01 -0.16936787224E+02  0.19812087002E+02  0.26333074310E+02  0.00000000000E+00 0.  1.
          5    1    4    4  501    0 -0.96899600547E+01  0.26856987130E+01  0.27311118828E+03  0.27332819442E+03  0.41800000000E+01 0.  1.
         -5    1    4    4    0  501 -0.18421914431E+02  0.22477876768E+02 -0.73929152171E-01  0.29361535056E+02  0.41800000000E+01 0.  1.
</event>
<event>
11    1  0.6763327E-009  0.1401012E+03  0.7561462E-02  0.1107445E+00
         22   -1    0    0    0    0  0.00000000000E+00  0.00000000000E+00  0.10052274687E+04  0.10052274687E+04  0.00000000000E+00 0. -1.
         22   -1    0    0    0    0 -0.00000000000E+00 -0.00000000000E+00 -0.31800714721E+03  0.31800714721E+03  0.00000000000E+00 0. -1.
         24    2    1    2    0    0  0.15662813236E+02 -0.59218236582E+02 -0.26766023685E+03  0.28656663590E+03  0.82014091225E+02 0.  0.
         25    2    1    2    0    0 -0.23281888901E+02  0.90920987733E+02  0.11910669853E+03  0.19657634908E+03  0.12508870062E+03 0.  0.
        -24    2    1    2    0    0  0.76190756650E+01 -0.31702751151E+02  0.83577385979E+03  0.84009163090E+03  0.78567734237E+02 0.  0.
        -13    1    3    3    0    0  0.21273124690E+02 -0.71674815086E+02 -0.14492931847E+03  0.16307768794E+03  0.00000000000E+00 0.  1.
         14    1    3    3    0    0 -0.56103114541E+01  0.12456578503E+02 -0.12273091837E+03  0.12348894796E+03  0.00000000000E+00 0. -1.
         13    1    5    5    0    0  0.38571527535E+02  0.27332834849E+01  0.40011311502E+03  0.40197728591E+03  0.00000000000E+00 0. -1.
        -14    1    5    5    0    0 -0.30952451870E+02 -0.34436034636E+02  0.43566074476E+03  0.43811434499E+03  0.00000000000E+00 0.  1.
          5    1    4    4  501    0 -0.35119730945E+02  0.11494954716E+03  0.11938974380E+03  0.16946438333E+03  0.41800000000E+01 0.  1.
         -5    1    4    4    0  501  0.11837842044E+02 -0.24028559423E+02 -0.28304526877E+00  0.27111965750E+02  0.41800000000E+01 0.  1.
</event>
<event>
11    1  0.6763327E-009  0.1392203E+03  0.7561462E-02  0.1108432E+00
         22   -1    0    0    0    0  0.00000000000E+00  0.00000000000E+00  0.19337156522E+04  0.19337156522E+04  0.00000000000E+00 0.  1.
         22   -1    0    0    0    0 -0.00000000000E+00 -0.00000000000E+00 -0.11381440608E+03  0.11381440608E+03  0.00000000000E+00 0. -1.
        -24    2    1    2    0    0 -0.42084631856E+02  0.17774510595E+02 -0.71950685346E+02  0.13682911145E+03  0.10704323965E+03 0.  0.
         25    2    1    2    0    0 -0.33932320333E+02 -0.23020264769E+02  0.73855927951E+03  0.75019863416E+03  0.12508735504E+03 0.  0.
         24    2    1    2    0    0  0.76016952189E+02  0.52457541741E+01  0.11532926520E+04  0.11605023127E+04  0.10428605700E+03 0.  0.
        -11    1    5    5    0    0  0.76447082190E+02  0.45454494406E+02  0.78866190783E+03  0.79366105631E+03  0.00000000000E+00 0.  1.
         12    1    5    5    0    0 -0.43013000130E+00 -0.40208740232E+02  0.36463074412E+03  0.36684125635E+03  0.00000000000E+00 0. -1.
         11    1    3    3    0    0 -0.77538313942E+02  0.59700782691E+01 -0.57704981444E+02  0.96838509112E+02  0.00000000000E+00 0. -1.
        -12    1    3    3    0    0  0.35453682086E+02  0.11804432326E+02 -0.14245703901E+02  0.39990602341E+02  0.00000000000E+00 0.  1.
          5    1    4    4  501    0 -0.40228265348E+02 -0.71179341894E+02  0.41634809408E+03  0.42432065692E+03  0.41800000000E+01 0.  1.
         -5    1    4    4    0  501  0.62959450151E+01  0.48159077125E+02  0.32221118543E+03  0.32587797724E+03  0.41800000000E+01 0.  1.
</event>
<event>
11    1  0.6763327E-009  0.1471346E+03  0.7561462E-02  0.1099843E+00
         22   -1    0    0    0    0  0.00000000000E+00  0.00000000000E+00  0.81461210596E+03  0.81461210596E+03  0.00000000000E+00 0.  1.
         22   -1    0    0    0    0 -0.00000000000E+00 -0.00000000000E+00 -0.17671426558E+03  0.17671426558E+03  0.00000000000E+00 0.  1.
        -24    2    1    2    0    0  0.70018103445E+02  0.33305643460E+02 -0.12052679325E+03  0.16440621072E+03  0.80566081806E+02 0.  0.
         25    2    1    2    0    0 -0.75381411599E+02 -0.20131753827E+02  0.14081542199E+03  0.20387523031E+03  0.12509389168E+03 0.  0.
         24    2    1    2    0    0  0.53633081544E+01 -0.13173889633E+02  0.61760921163E+03  0.62304493051E+03  0.80879729876E+02 0.  0.
        -13    1    5    5    0    0 -0.83243004095E+01 -0.37280409935E+02  0.52469127712E+03  0.52607989814E+03  0.00000000000E+00 0.  1.
         14    1    5    5    0    0  0.13687608564E+02  0.24106520302E+02  0.92917934514E+02  0.96965032375E+02  0.00000000000E+00 0. -1.
         13    1    3    3    0    0 -0.47152161159E+01 -0.18199442354E+02 -0.34825493328E+02  0.39576103277E+02  0.00000000000E+00 0. -1.
        -14    1    3    3    0    0  0.74733319561E+02  0.51505085814E+02 -0.85701299918E+02  0.12483010745E+03  0.00000000000E+00 0.  1.
          5    1    4    4  501    0  0.16308527953E+02  0.10266809846E+02 -0.11968599954E+02  0.23067189973E+02  0.41800000000E+01 0. -1.
         -5    1    4    4    0  501 -0.91689939552E+02 -0.30398563673E+02  0.15278402195E+03  0.18080804034E+03  0.41800000000E+01 0. -1.
</event>
<event>
11    1  0.6763327E-009  0.1594166E+03  0.7561462E-02  0.1087627E+00
         22   -1    0    0    0    0  0.00000000000E+00  0.00000000000E+00  0.11397361394E+04  0.11397361394E+04  0.00000000000E+00 0. -1.
         22   -1    0    0    0    0 -0.00000000000E+00 -0.00000000000E+00 -0.13714476059E+04  0.13714476059E+04  0.00000000000E+00 0.  1.
         24    2    1    2    0    0  0.61574926133E+02 -0.77630840008E+02 -0.13350712835E+04  0.13410889893E+04  0.79286357618E+02 0.  0.
         25    2    1    2    0    0 -0.26801920966E+02  0.82730260556E+02  0.15521640834E+03  0.21749839179E+03  0.12510306964E+03 0.  0.
        -24    2    1    2    0    0 -0.34773005167E+02 -0.50994205481E+01  0.94814340868E+03  0.95259636419E+03  0.85022018704E+02 0.  0.
        -11    1    3    3    0    0  0.67233439483E+02 -0.85401905959E+02 -0.10017907851E+04  0.10076698854E+04  0.00000000000E+00 0.  1.
         12    1    3    3    0    0 -0.56585133502E+01  0.77710659511E+01 -0.33328049839E+03  0.33341910390E+03  0.00000000000E+00 0. -1.
         11    1    5    5    0    0  0.49166321499E+01 -0.55943282362E+01  0.77200674440E+03  0.77204266927E+03  0.00000000000E+00 0. -1.
        -12    1    5    5    0    0 -0.39689637317E+02  0.49490768808E+00  0.17613666429E+03  0.18055369492E+03  0.00000000000E+00 0.  1.
          5    1    4    4  501    0 -0.26632490487E+02  0.87350837892E+02  0.36206202249E+02  0.98325072648E+02  0.41800000000E+01 0. -1.
         -5    1    4    4    0  501 -0.16943047933E+00 -0.46205773353E+01  0.11901020609E+03  0.11917331914E+03  0.41800000000E+01 0. -1.
</event>
<event>
11    1  0.6763327E-009  0.1680266E+03  0.7561462E-02  0.1079762E+00
         22   -1    0    0    0    0  0.00000000000E+00  0.00000000000E+00  0.84296018558E+02  0.84296018558E+02  0.00000000000E+00 0. -1.
         22   -1    0    0    0    0 -0.00000000000E+00 -0.00000000000E+00 -0.19062317066E+04  0.19062317066E+04  0.00000000000E+00 0.  1.
        -24    2    1    2    0    0  0.76075314808E+02 -0.82370740428E+02 -0.16553932282E+04  0.16609101707E+04  0.75653570730E+02 0.  0.
         25    2    1    2    0    0 -0.28535854861E+02  0.12508387371E+03 -0.12830056388E+03  0.22040851965E+03  0.12513436925E+03 0.  0.
         24    2    1    2    0    0 -0.47539459947E+02 -0.42713133280E+02 -0.38241895994E+02  0.10920903484E+03  0.79873391534E+02 0.  0.
        -11    1    5    5    0    0  0.10739240360E+02  0.24803044993E+01  0.14737630551E+02  0.18403286341E+02  0.00000000000E+00 0.  1.
         12    1    5    5    0    0 -0.58278700306E+02 -0.45193437780E+02 -0.52979526545E+02  0.90805748500E+02  0.00000000000E+00 0. -1.
         11    1    3    3    0    0  0.68795540906E+02 -0.60553484487E+02 -0.80406635034E+03  0.80927266522E+03  0.00000000000E+00 0. -1.
        -12    1    3    3    0    0  0.72797739018E+01 -0.21817255941E+02 -0.85132687785E+03  0.85163750547E+03  0.00000000000E+00 0.  1.
          5    1    4    4  501    0  0.41673441055E+02  0.59359886506E+02 -0.19670678793E+02  0.75264067253E+02  0.41800000000E+01 0.  1.
         -5    1    4    4    0  501 -0.70209295916E+02  0.65723987202E+02 -0.10862988508E+03  0.14514445239E+03  0.41800000000E+01 0.  1.
</event>
<event>
11    1  0.6763327E-009  0.1904002E+03  0.7561462E-02  0.1061528E+00
         22   -1    0    0    0    0  0.00000000000E+00  0.00000000000E+00  0.61997121443E+02  0.61997121443E+02  0.00000000000E+00 0. -1.
         22   -1    0    0    0    0 -0.00000000000E+00 -0.00000000000E+00 -0.13033738317E+04  0.13033738317E+04  0.00000000000E+00 0.  1.
         24    2    1    2    0    0 -0.13182239704E+03 -0.69366240211E+02 -0.91307590195E+03  0.92873797406E+03  0.81595355832E+02 0.  0.
         25    2    1    2    0    0  0.10865913176E+03  0.65642594729E+02 -0.30297866463E+03  0.35150893694E+03  0.12508678736E+03 0.  0.
        -24    2    1    2    0    0  0.23163265278E+02  0.37236454825E+01 -0.25322143680E+02  0.85124042148E+02  0.77810598231E+02 0.  0.
        -13    1    3    3    0    0 -0.94397242114E+02 -0.73661368433E+02 -0.81368447947E+03  0.82244712210E+03  0.00000000000E+00 0.  1.
         14    1    3    3    0    0 -0.37425154924E+02  0.42951282221E+01 -0.99391422477E+02  0.10629085196E+03  0.00000000000E+00 0. -1.
         11    1    5    5    0    0  0.29697474140E+02  0.74696182769E+01  0.21681382548E+02  0.37520894401E+02  0.00000000000E+00 0. -1.
        -12    1    5    5    0    0 -0.65342088616E+01 -0.37459727944E+01 -0.47003526227E+02  0.47603147747E+02  0.00000000000E+00 0.  1.
          5    1    4    4  501    0  0.84492139174E+02 -0.14937897902E+02 -0.20518396009E+03  0.22244098601E+03  0.41800000000E+01 0. -1.
         -5    1    4    4    0  501  0.24166992586E+02  0.80580492630E+02 -0.97794704539E+02  0.12906795094E+03  0.41800000000E+01 0. -1.
</event>
<event>
11    1  0.6763327E-009  0.1273646E+03  0.7561462E-02  0.1122550E+00
         22   -1    0    0    0    0  0.00000000000E+00  0.00000000000E+00  0.13091880567E+03  0.13091880567E+03  0.00000000000E+00 0.  1.
         22   -1    0    0    0    0 -0.00000000000E+00 -0.00000000000E+00 -0.20992686988E+04  0.20992686988E+04  0.00000000000E+00 0.  1.
        -24    2    1    2    0    0 -0.15403730016E+02 -0.20522557813E+02 -0.11206639490E+04  0.11238269444E+04  0.80254993059E+02 0.  0.
         25    2    1    2    0    0 -0.12106930235E+00  0.22957351242E+02 -0.95881145910E+03  0.96720979193E+03  0.12509321675E+03 0.  0.
         24    2    1    2    0    0  0.15524799318E+02 -0.24347934290E+01  0.11112551501E+03  0.13915076817E+03  0.82262437254E+02 0.  0.
        -11    1    5    5    0    0 -0.15091513845E+02  0.32279558595E+02  0.62997759650E+02  0.72377077961E+02  0.00000000000E+00 0.  1.
         12    1    5    5    0    0  0.30616313163E+02 -0.34714352024E+02  0.48127755364E+02  0.66773690212E+02  0.00000000000E+00 0. -1.
         11    1    3    3    0    0 -0.12779226401E+02  0.56832219253E+01 -0.32965141779E+02  0.35809331345E+02  0.00000000000E+00 0. -1.
        -12    1    3    3    0    0 -0.26245036147E+01 -0.26205779739E+02 -0.10876988073E+04  0.10880176130E+04  0.00000000000E+00 0.  1.
          5    1    4    4  501    0  0.29145212825E+02 -0.30280268698E+02 -0.70231469624E+03  0.70358350113E+03  0.41800000000E+01 0. -1.
         -5    1    4    4    0  501 -0.29266282128E+02  0.53237619941E+02 -0.25649676285E+03  0.26362629080E+03  0.41800000000E+01 0. -1.
</event>
<event>
11    1  0.6763327E-009  0.1838548E+03  0.7561462E-02  0.1066567E+00
         22   -1    0    0    0    0  0.00000000000E+00  0.00000000000E+00  0.12742200216E+04  0.12742200216E+04  0.00000000000E+00 0. -1.
         22   -1    0    0    0    0 -0.00000000000E+00 -0.00000000000E+00 -0.24198427066E+04  0.24198427066E+04  0.00000000000E+00 0.  1.
         24    2    1    2    0    0  0.34826082798E+02  0.19334674136E+02 -0.23705123110E+04  0.23722230427E+04  0.80788997700E+02 0.  0.
         25    2    1    2    0    0 -0.11114381931E+03  0.91050504841E+02  0.16980923008E+03  0.25519428776E+03  0.12508319985E+03 0.  0.
        -24    2    1    2    0    0  0.76317736508E+02 -0.11038517898E+03  0.10550803959E+04  0.10666453977E+04  0.80798997068E+02 0.  0.
        -11    1    3    3    0    0  0.28362384873E+02  0.50606049631E+02 -0.14667690824E+04  0.14679158485E+04  0.00000000000E+00 0.  1.
         12    1    3    3    0    0  0.64636979258E+01 -0.31271375495E+02 -0.90374322855E+03  0.90430719419E+03  0.00000000000E+00 0. -1.
         13    1    5    5    0    0  0.75761827293E+02 -0.61398040891E+02  0.50092717465E+03  0.51033088110E+03  0.00000000000E+00 0. -1.
        -14    1    5    5    0    0  0.55590921461E+00 -0.48987138086E+02  0.55415322124E+03  0.55631451657E+03  0.00000000000E+00 0.  1.
          5    1    4    4  501    0 -0.11837934721E+03  0.59280534718E+02  0.17748020027E+03  0.22146003145E+03  0.41800000000E+01 0. -1.
         -5    1    4    4    0  501  0.72355279016E+01  0.31769970123E+02 -0.76709701879E+01  0.33734256317E+02  0.41800000000E+01 0. -1.
</event>
<event>
11    1  0.6763327E-009  0.1785001E+03  0.7561462E-02  0.1070863E+00
         22   -1    0    0    0    0  0.00000000000E+00  0.00000000000E+00  0.11501174325E+04  0.11501174325E+04  0.00000000000E+00 0.  1.
         22   -1    0    0    0    0 -0.00000000000E+00 -0.00000000000E+00 -0.14384393042E+03  0.14384393042E+03  0.00000000000E+00 0.  1.
         24    2    1    2    0    0  0.83392326838E+01 -0.58553630292E+00 -0.10661638991E+03  0.13323386269E+03  0.79462707697E+02 0.  0.
         25    2    1    2    0    0  0.57563750140E+02 -0.11104888204E+03  0.63361616725E+03  0.65784621460E+03  0.12508699022E+03 0.  0.
        -24    2    1    2    0    0 -0.65902982824E+02  0.11163441834E+03  0.47927372471E+03  0.50288128561E+03  0.79880145913E+02 0.  0.
        -13    1    3    3    0    0  0.31117905991E+02  0.27179096871E+02 -0.73837210751E+02  0.84610643961E+02  0.00000000000E+00 0.  1.
         14    1    3    3    0    0 -0.22778673307E+02 -0.27764633174E+02 -0.32779179159E+02  0.48623218726E+02  0.00000000000E+00 0. -1.
         11    1    5    5    0    0 -0.49952233545E+02  0.11812636803E+03  0.35574915520E+03  0.37816203654E+03  0.00000000000E+00 0. -1.
        -12    1    5    5    0    0 -0.15950749278E+02 -0.64919496835E+01  0.12352456952E+03  0.12471924907E+03  0.00000000000E+00 0.  1.
          5    1    4    4  501    0 -0.36656086924E+02 -0.27148355651E+02  0.24492734384E+03  0.24917379092E+03  0.41800000000E+01 0. -1.
         -5    1    4    4    0  501  0.94219837063E+02 -0.83900526388E+02  0.38868882342E+03  0.40867242368E+03  0.41800000000E+01 0. -1.
</event>
<event>
11    1  0.6763327E-009  0.1763197E+03  0.7561462E-02  0.1072659E+00
         22   -1    0    0    0    0  0.00000000000E+00  0.00000000000E+00  0.43159791476E+03  0.43159791476E+03  0.00000000000E+00 0.  1.
         22   -1    0    0    0    0 -0.00000000000E+00 -0.00000000000E+00 -0.23677810490E+03  0.23677810490E+03  0.00000000000E+00 0. -1.
         24    2    1    2    0    0 -0.12353314044E+02 -0.63866185937E+02 -0.56578330296E+01  0.98288758127E+02  0.73465466891E+02 0.  0.
         25    2    1    2    0    0  0.62703849179E+02 -0.55206121126E+02 -0.13369575440E+03  0.20125061262E+03  0.12509103015E+03 0.  0.
        -24    2    1    2    0    0 -0.50350535135E+02  0.11907230706E+03  0.33417339729E+03  0.36883664891E+03  0.87494133657E+02 0.  0.
        -11    1    3    3    0    0  0.25511343212E+01  0.16033672942E+02  0.31388831687E+01  0.16536007434E+02  0.00000000000E+00 0.  1.
         12    1    3    3    0    0 -0.14904448366E+02 -0.79899858879E+02 -0.87967161983E+01  0.81752750693E+02  0.00000000000E+00 0. -1.
         11    1    5    5    0    0 -0.16990631465E+02  0.19117915412E+01  0.49516546288E+01  0.17800432243E+02  0.00000000000E+00 0. -1.
        -12    1    5    5    0    0 -0.33359903670E+02  0.11716051552E+03  0.32922174266E+03  0.35103621667E+03  0.00000000000E+00 0.  1.
          5    1    4    4  501    0  0.28194272452E+02 -0.30248154581E+02  0.16770513855E+02  0.44817300115E+02  0.41800000000E+01 0. -1.
         -5    1    4    4    0  501  0.34509576727E+02 -0.24957966545E+02 -0.15046626825E+03  0.15643331251E+03  0.41800000000E+01 0. -1.
</event>
<event>
11    1  0.6763327E-009  0.1444561E+03  0.7561462E-02  0.1102682E+00
         22   -1    0    0    0    0  0.00000000000E+00  0.00000000000E+00  0.44253398305E+03  0.44253398305E+03  0.00000000000E+00 0. -1.
         22   -1    0    0    0    0 -0.00000000000E+00 -0.00000000000E+00 -0.52038914345E+03  0.52038914345E+03  0.00000000000E+00 0. -1.
         24    2    1    2    0    0  0.51109163661E+02 -0.49785100665E+02 -0.41819329731E+03  0.43166102476E+03  0.79717648744E+02 0.  0.
         25    2    1    2    0    0 -0.96297017175E+02  0.15313074931E+02 -0.18004748662E+02  0.15962843208E+03  0.12509780003E+03 0.  0.
        -24    2    1    2    0    0  0.45187853514E+02  0.34472025734E+02  0.35834288557E+03  0.37163366965E+03  0.80446865174E+02 0.  0.
        -11    1    3    3    0    0  0.14723862756E+02 -0.48358643709E+02 -0.10694832769E+03  0.11829325995E+03  0.00000000000E+00 0.  1.
         12    1    3    3    0    0  0.36385300905E+02 -0.14264569560E+01 -0.31124496963E+03  0.31336776481E+03  0.00000000000E+00 0. -1.
         13    1    5    5    0    0  0.28254147594E+02  0.60886172757E+02  0.24430036152E+03  0.25335368465E+03  0.00000000000E+00 0. -1.
        -14    1    5    5    0    0  0.16933705921E+02 -0.26414147023E+02  0.11404252405E+03  0.11827998500E+03  0.00000000000E+00 0.  1.
          5    1    4    4  501    0  0.84673242501E+01 -0.37650023555E+02 -0.16436013145E+02  0.42152518095E+02  0.41800000000E+01 0. -1.
         -5    1    4    4    0  501 -0.10476434143E+03  0.52963098485E+02 -0.15687355169E+01  0.11747591399E+03  0.41800000000E+01 0. -1.
</event>
<event>
11    1  0.6763327E-009  0.1338474E+03  0.7561462E-02  0.1114630E+00
         22   -1    0    0    0    0  0.00000000000E+00  0.00000000000E+00  0.10805665927E+03  0.10805665927E+03  0.00000000000E+00 0. -1.
         22   -1    0    0    0    0 -0.00000000000E+00 -0.00000000000E+00 -0.56839930976E+03  0.56839930976E+03  0.00000000000E+00 0.  1.
         24    2    1    2    0    0  0.31297457764E+02  0.18053619106E+02 -0.43595766345E+03  0.44446852294E+03  0.78662059071E+02 0.  0.
         25    2    1    2    0    0 -0.26495850266E+02  0.36842883248E+02 -0.60193680538E+01  0.13320879417E+03  0.12509565110E+03 0.  0.
        -24    2    1    2    0    0 -0.48016074975E+01 -0.54896502353E+02 -0.18365618989E+02  0.98778651926E+02  0.79895210810E+02 0.  0.
        -11    1    3    3    0    0  0.52615253269E+02  0.15595927328E+02 -0.38885152085E+03  0.39270485494E+03  0.00000000000E+00 0.  1.
         12    1    3    3    0    0 -0.21317795505E+02  0.24576917774E+01 -0.47106142597E+02  0.51763667996E+02  0.00000000000E+00 0. -1.
         13    1    5    5    0    0 -0.11950664297E+02 -0.35486239701E+01  0.27095830252E+02  0.29826081309E+02  0.00000000000E+00 0. -1.
        -14    1    5    5    0    0  0.71490567991E+01 -0.51347878383E+02 -0.45461449241E+02  0.68952570617E+02  0.00000000000E+00 0.  1.
          5    1    4    4  501    0  0.30857851687E+02 -0.30827443195E+02  0.31581431386E+01  0.43931589235E+02  0.41800000000E+01 0. -1.
         -5    1    4    4    0  501 -0.57353701953E+02  0.67670326443E+02 -0.91775111924E+01  0.89277204931E+02  0.41800000000E+01 0. -1.
</event>
<event>
11    1  0.6763327E-009  0.1583299E+03  0.7561462E-02  0.1088659E+00
         22   -1    0    0    0    0  0.00000000000E+00  0.00000000000E+00  0.22139121979E+04  0.22139121979E+04  0.00000000000E+00 0.  1.
         22   -1    0    0    0    0 -0.00000000000E+00 -0.00000000000E+00 -0.21504489362E+03  0.21504489362E+03  0.00000000000E+00 0. -1.
         24    2    1    2    0    0  0.38953276343E+01 -0.10386611732E+03 -0.17469658963E+03  0.21793449507E+03  0.78569725779E+02 0.  0.
         25    2    1    2    0    0  0.80333564368E+01  0.21647293633E+02  0.22103584682E+03  0.25502344532E+03  0.12508785690E+03 0.  0.
        -24    2    1    2    0    0 -0.11928684071E+02  0.82218823689E+02  0.19525280471E+04  0.19559991511E+04  0.81637467593E+02 0.  0.
        -13    1    3    3    0    0 -0.11681487901E+02 -0.17622338333E+02 -0.10170741164E+03  0.10388167090E+03  0.00000000000E+00 0.  1.
         14    1    3    3    0    0  0.15576815535E+02 -0.86243778989E+02 -0.72989177991E+02  0.11405282417E+03  0.00000000000E+00 0. -1.
         13    1    5    5    0    0 -0.32932759934E+02  0.18444877341E+01  0.48310584517E+03  0.48423055093E+03  0.00000000000E+00 0. -1.
        -14    1    5    5    0    0  0.21004075863E+02  0.80374335955E+02  0.14694222019E+04  0.14717686002E+04  0.00000000000E+00 0.  1.
          5    1    4    4  501    0 -0.30546556289E+02  0.61683269068E+02  0.96816976864E+02  0.11886512185E+03  0.41800000000E+01 0.  1.
         -5    1    4    4    0  501  0.38579912725E+02 -0.40035975436E+02  0.12421886996E+03  0.13615832346E+03  0.41800000000E+01 0.  1.
</event>
<event>
11    1  0.6763327E-009  0.2424147E+03  0.7561462E-02  0.1028019E+00
         22   -1    0    0    0    0  0.00000000000E+00  0.00000000000E+00  0.38053482913E+03  0.38053482913E+03  0.00000000000E+00 0. -1.
         22   -1    0    0    0    0 -0.00000000000E+00 -0.00000000000E+00 -0.13774733836E+04  0.13774733836E+04  0.00000000000E+00 0. -1.
        -24    2    1    2    0    0 -0.44366709319E+02 -0.42951463003E+02 -0.71386296691E+03  0.72157362726E+03  0.85175882475E+02 0.  0.
         25    2    1    2    0    0  0.16518672925E+03  0.20789704950E+03 -0.59081498401E+03  0.65971118635E+03  0.12509462560E+03 0.  0.
         24    2    1    2    0    0 -0.12082001993E+03 -0.16494558650E+03  0.30773939649E+03  0.37672339908E+03  0.73569419905E+02 0.  0.
        -13    1    5    5    0    0  0.80633757260E+01 -0.34203630444E+01  0.25214574024E+02  0.26692539307E+02  0.00000000000E+00 0.  1.
         14    1    5    5    0    0 -0.12888339565E+03 -0.16152522345E+03  0.28252482246E+03  0.35003085978E+03  0.00000000000E+00 0. -1.
         11    1    3    3    0    0 -0.52586987089E+01 -0.57762319870E+02 -0.52162168902E+03  0.52483647545E+03  0.00000000000E+00 0. -1.
        -12    1    3    3    0    0 -0.39108010610E+02  0.14810856867E+02 -0.19224127789E+03  0.19673715181E+03  0.00000000000E+00 0.  1.
          5    1    4    4  501    0  0.14699162204E+03  0.10545735243E+03 -0.29470941942E+03  0.34583074535E+03  0.41800000000E+01 0. -1.
         -5    1    4    4    0  501  0.18195107201E+02  0.10243969707E+03 -0.29610556459E+03  0.31388044100E+03  0.41800000000E+01 0. -1.
</event>
<event>
11    1  0.6763327E-009  0.1667416E+03  0.7561462E-02  0.1080903E+00
         22   -1    0    0    0    0  0.00000000000E+00  0.00000000000E+00  0.34934296123E+03  0.34934296123E+03  0.00000000000E+00 0. -1.
         22   -1    0    0    0    0 -0.00000000000E+00 -0.00000000000E+00 -0.14761140104E+04  0.14761140104E+04  0.00000000000E+00 0. -1.
         24    2    1    2    0    0  0.69440751335E+02 -0.61048821761E+02 -0.10748774692E+04  0.10818159509E+04  0.80094951373E+02 0.  0.
         25    2    1    2    0    0 -0.13617605310E+03  0.14465713384E+03 -0.34754674635E+03  0.41941210861E+03  0.12509265421E+03 0.  0.
        -24    2    1    2    0    0  0.66735301767E+02 -0.83608312076E+02  0.29565316635E+03  0.32422891216E+03  0.79181073228E+02 0.  0.
        -11    1    3    3    0    0  0.14464535671E+02 -0.43159373958E+01 -0.26746362875E+02  0.30711854955E+02  0.00000000000E+00 0.  1.
         12    1    3    3    0    0  0.54976215664E+02 -0.56732884365E+02 -0.10481311063E+04  0.10511040959E+04  0.00000000000E+00 0. -1.
         11    1    5    5    0    0  0.73519770873E+02 -0.69966518767E+02  0.17253724186E+03  0.20017385015E+03  0.00000000000E+00 0. -1.
        -12    1    5    5    0    0 -0.67844691057E+01 -0.13641793309E+02  0.12311592449E+03  0.12405506201E+03  0.00000000000E+00 0.  1.
          5    1    4    4  501    0 -0.10548950707E+03  0.15893284794E+03 -0.32968304644E+03  0.38091478019E+03  0.41800000000E+01 0. -1.
         -5    1    4    4    0  501 -0.30686546033E+02 -0.14275714105E+02 -0.17863699907E+02  0.38497328414E+02  0.41800000000E+01 0. -1.
</event>
<event>
11    1  0.6763327E-009  0.1506319E+03  0.7561462E-02  0.1096235E+00
         22   -1    0    0    0    0  0.00000000000E+00  0.00000000000E+00  0.68943113163E+03  0.68943113163E+03  0.00000000000E+00 0.  1.
         22   -1    0    0    0    0 -0.00000000000E+00 -0.00000000000E+00 -0.20886869605E+04  0.20886869605E+04  0.00000000000E+00 0.  1.
         24    2    1    2    0    0  0.14836685345E+02 -0.60515930384E+02 -0.19885710638E+04  0.19911674359E+04  0.80315483471E+02 0.  0.
         25    2    1    2    0    0 -0.96687463617E+02  0.71587413743E+02 -0.12603814369E+02  0.17400446899E+03  0.12508187585E+03 0.  0.
        -24    2    1    2    0    0  0.81850778272E+02 -0.11071483359E+02  0.60191904934E+03  0.61294618721E+03  0.81082419834E+02 0.  0.
        -11    1    3    3    0    0 -0.33102333610E+02 -0.31014614058E+02 -0.88741904159E+03  0.88857764217E+03  0.00000000000E+00 0.  1.
         12    1    3    3    0    0  0.47939018955E+02 -0.29501316326E+02 -0.11011520222E+04  0.11025897937E+04  0.00000000000E+00 0. -1.
         13    1    5    5    0    0  0.84921354652E+02  0.16598155103E+02  0.41114804549E+03  0.42015455553E+03  0.00000000000E+00 0. -1.
        -14    1    5    5    0    0 -0.30705763803E+01 -0.27669638462E+02  0.19077100385E+03  0.19279163167E+03  0.00000000000E+00 0.  1.
          5    1    4    4  501    0 -0.18790492529E+02  0.78843679448E+02  0.27883033240E+02  0.85815758116E+02  0.41800000000E+01 0. -1.
         -5    1    4    4    0  501 -0.77896971089E+02 -0.72562657049E+01 -0.40486847608E+02  0.88188710876E+02  0.41800000000E+01 0. -1.
</event>
<event>
11    1  0.1117770E-008  0.1739527E+03  0.7561462E-02  0.1074642E+00
         22   -1    0    0    0    0  0.00000000000E+00  0.00000000000E+00  0.41027042708E+03  0.41027042708E+03  0.00000000000E+00 0.  1.
         22   -1    0    0    0    0 -0.00000000000E+00 -0.00000000000E+00 -0.26026436764E+04  0.26026436764E+04  0.00000000000E+00 0.  1.
         24    2    1    2    0    0  0.45760098809E+02  0.24808804449E+02 -0.22784738732E+04  0.22805822071E+04  0.83081581484E+02 0.  0.
         25    2    1    2    0    0  0.70835081358E+02 -0.62161786829E+02 -0.28925071504E+03  0.32893032427E+03  0.12508990998E+03 0.  0.
        -24    2    1    2    0    0 -0.11659518017E+03  0.37352982380E+02  0.37535133890E+03  0.40340157210E+03  0.82792025157E+02 0.  0.
        -13    1    3    3    0    0  0.52588676884E+02  0.49198928973E+02 -0.17973314992E+04  0.17987736438E+04  0.00000000000E+00 0.  1.
         14    1    3    3    0    0 -0.68285780746E+01 -0.24390124524E+02 -0.48114237395E+03  0.48180856329E+03  0.00000000000E+00 0. -1.
         13    1    5    5    0    0 -0.40801153329E+02  0.24078136059E+02  0.49222242302E+02  0.68317786017E+02  0.00000000000E+00 0. -1.
        -14    1    5    5    0    0 -0.75794026839E+02  0.13274846320E+02  0.32612909660E+03  0.33508378609E+03  0.00000000000E+00 0.  1.
          5    1    4    4  501    0 -0.34410598851E+02 -0.26082340092E+02 -0.10565092136E+03  0.11421018940E+03  0.41800000000E+01 0. -1.
         -5    1    4    4    0  501  0.10524568021E+03 -0.36079446737E+02 -0.18359979368E+03  0.21472013487E+03  0.41800000000E+01 0. -1.
</event>
<event>
11    1  0.6763327E-009  0.1482722E+03  0.7561462E-02  0.1098657E+00
         22   -1    0    0    0    0  0.00000000000E+00  0.00000000000E+00  0.11360223573E+04  0.11360223573E+04  0.00000000000E+00 0.  1.
         22   -1    0    0    0    0 -0.00000000000E+00 -0.00000000000E+00 -0.63408904921E+03  0.63408904921E+03  0.00000000000E+00 0.  1.
        -24    2    1    2    0    0 -0.14174994879E+01  0.54529671960E+01 -0.52983644101E+03  0.53597567398E+03  0.80694019090E+02 0.  0.
         25    2    1    2    0    0 -0.55066881159E+02 -0.61429386597E+02 -0.41117045856E+02  0.15538423499E+03  0.12509083933E+03 0.  0.
         24    2    1    2    0    0  0.56484380646E+02  0.55976419401E+02  0.10728867950E+04  0.10787514976E+04  0.79340241251E+02 0.  0.
        -13    1    5    5    0    0  0.51029233836E+02  0.58863888029E+02  0.10681088589E+04  0.10709460652E+04  0.00000000000E+00 0.  1.
         14    1    5    5    0    0  0.54551468102E+01 -0.28874686278E+01  0.47779360568E+01  0.78054323878E+01  0.00000000000E+00 0. -1.
         13    1    3    3    0    0  0.26412134518E+02  0.37942777701E+01 -0.64454749574E+02  0.69759674141E+02  0.00000000000E+00 0. -1.
        -14    1    3    3    0    0 -0.27829634005E+02  0.16586894259E+01 -0.46538169144E+03  0.46621599984E+03  0.00000000000E+00 0.  1.
          5    1    4    4  501    0 -0.52569415243E+02 -0.81114227020E+02  0.12975132661E+02  0.97616021798E+02  0.41800000000E+01 0.  1.
         -5    1    4    4    0  501 -0.24974659153E+01  0.19684840423E+02 -0.54092178517E+02  0.57768213190E+02  0.41800000000E+01 0.  1.
</event>
<event>
11    1  0.6763327E-009  0.2013539E+03  0.7561462E-02  0.1053570E+00
         22   -1    0    0    0    0  0.00000000000E+00  0.00000000000E+00  0.23052902775E+04  0.23052902775E+04  0.00000000000E+00 0. -1.
         22   -1    0    0    0    0 -0.00000000000E+00 -0.00000000000E+00 -0.59953553966E+03  0.59953553966E+03  0.00000000000E+00 0.  1.
         24    2    1    2    0    0  0.14333693292E+03 -0.62476683890E+02 -0.53420737965E+03  0.56118937210E+03  0.71464498286E+02 0.  0.
         25    2    1    2    0    0 -0.16259895343E+03  0.85787791993E+02  0.19182072073E+03  0.29366834138E+03  0.12509173001E+03 0.  0.
        -24    2    1    2    0    0  0.19262020511E+02 -0.23311108103E+02  0.20481413967E+04  0.20499681037E+04  0.81065478566E+02 0.  0.
        -11    1    3    3    0    0  0.14019659516E+03 -0.52309283141E+02 -0.52816289235E+03  0.54895117019E+03  0.00000000000E+00 0.  1.
         12    1    3    3    0    0  0.31403377660E+01 -0.10167400749E+02 -0.60444872991E+01  0.12238201910E+02  0.00000000000E+00 0. -1.
         13    1    5    5    0    0 -0.18052746113E+02 -0.80055913264E+00  0.14961547336E+04  0.14962638569E+04  0.00000000000E+00 0. -1.
        -14    1    5    5    0    0  0.37314766624E+02 -0.22510548970E+02  0.55198666316E+03  0.55370424680E+03  0.00000000000E+00 0.  1.
          5    1    4    4  501    0 -0.66642698618E+02  0.64537741934E+02  0.18963959255E+02  0.94781187816E+02  0.41800000000E+01 0. -1.
         -5    1    4    4    0  501 -0.95956254814E+02  0.21250050058E+02  0.17285676148E+03  0.19888715357E+03  0.41800000000E+01 0. -1.
</event>
<event>
11    1  0.6763327E-009  0.1488794E+03  0.7561462E-02  0.1098029E+00
         22   -1    0    0    0    0  0.00000000000E+00  0.00000000000E+00  0.25855485791E+03  0.25855485791E+03  0.00000000000E+00 0.  1.
         22   -1    0    0    0    0 -0.00000000000E+00 -0.00000000000E+00 -0.10390857500E+04  0.10390857500E+04  0.00000000000E+00 0. -1.
         24    2    1    2    0    0 -0.42295148449E+02 -0.69001716213E+02 -0.97798351612E+03  0.98444042595E+03  0.78237318655E+02 0.  0.
         25    2    1    2    0    0  0.18833523927E+02  0.74153856157E+02  0.78321095031E+02  0.16623783554E+03  0.12508928024E+03 0.  0.
        -24    2    1    2    0    0  0.23461624522E+02 -0.51521399439E+01  0.11913152896E+03  0.14696234644E+03  0.82635450678E+02 0.  0.
        -13    1    3    3    0    0 -0.77899870935E+01 -0.12917788178E+02 -0.25098333519E+02  0.29282750823E+02  0.00000000000E+00 0.  1.
         14    1    3    3    0    0 -0.34505161355E+02 -0.56083928035E+02 -0.95288518260E+03  0.95515767513E+03  0.00000000000E+00 0. -1.
         13    1    5    5    0    0 -0.98666145097E-01  0.35739427852E+02  0.32484027476E+02  0.48296257404E+02  0.00000000000E+00 0. -1.
        -14    1    5    5    0    0  0.23560290667E+02 -0.40891567796E+02  0.86647501483E+02  0.98666089039E+02  0.00000000000E+00 0.  1.
          5    1    4    4  501    0  0.10021246304E+02  0.87457368446E+02  0.10362463917E+03  0.13603218338E+03  0.41800000000E+01 0. -1.
         -5    1    4    4    0  501  0.88122776226E+01 -0.13303512289E+02 -0.25303544140E+02  0.30205652156E+02  0.41800000000E+01 0. -1.
</event>
<event>
11    1  0.6763327E-009  0.1326767E+03  0.7561462E-02  0.1116023E+00
         22   -1    0    0    0    0  0.00000000000E+00  0.00000000000E+00  0.10590812750E+03  0.10590812750E+03  0.00000000000E+00 0.  1.
         22   -1    0    0    0    0 -0.00000000000E+00 -0.00000000000E+00 -0.22117496619E+04  0.22117496619E+04  0.00000000000E+00 0.  1.
         24    2    1    2    0    0  0.24406069088E+02 -0.65517683272E+01 -0.14501498978E+04  0.14526173529E+04  0.80770451594E+02 0.  0.
         25    2    1    2    0    0 -0.21683517380E+02  0.50375656708E+02 -0.73248356662E+03  0.74511891096E+03  0.12514844941E+03 0.  0.
        -24    2    1    2    0    0 -0.27225517083E+01 -0.43823888381E+02  0.76791930081E+02  0.11992152553E+03  0.80970527222E+02 0.  0.
        -13    1    3    3    0    0  0.21393816227E+02 -0.36206068093E+02 -0.11937804902E+04  0.11945210059E+04  0.00000000000E+00 0.  1.
         14    1    3    3    0    0  0.30122528609E+01  0.29654299766E+02 -0.25636940767E+03  0.25809634703E+03  0.00000000000E+00 0. -1.
         13    1    5    5    0    0  0.24934884767E+02 -0.26001742153E+02 -0.38084367288E+00  0.36027546617E+02  0.00000000000E+00 0. -1.
        -14    1    5    5    0    0 -0.27657436476E+02 -0.17822146228E+02  0.77172773754E+02  0.83893978911E+02  0.00000000000E+00 0.  1.
          5    1    4    4  501    0 -0.48644284310E+02 -0.20951221866E+02 -0.19006631932E+03  0.19735221872E+03  0.41800000000E+01 0. -1.
         -5    1    4    4    0  501  0.26960766930E+02  0.71326878574E+02 -0.54241724730E+03  0.54776669225E+03  0.41800000000E+01 0. -1.
</event>
<event>
11    1  0.6763327E-009  0.1420910E+03  0.7561462E-02  0.1105246E+00
         22   -1    0    0    0    0  0.00000000000E+00  0.00000000000E+00  0.13158359612E+03  0.13158359612E+03  0.00000000000E+00 0.  1.
         22   -1    0    0    0    0 -0.00000000000E+00 -0.00000000000E+00 -0.79215240921E+03  0.79215240921E+03  0.00000000000E+00 0. -1.
         24    2    1    2    0    0  0.33417965463E+02  0.56066509518E+02 -0.41630627820E+03  0.42902808824E+03  0.80585168183E+02 0.  0.
         25    2    1    2    0    0 -0.36189217171E+02 -0.62575983602E+02 -0.34049607053E+03  0.36988047474E+03  0.12509427799E+03 0.  0.
        -24    2    1    2    0    0  0.27712517081E+01  0.65094740836E+01  0.96233535629E+02  0.12482744235E+03  0.79189291540E+02 0.  0.
        -11    1    3    3    0    0  0.20000938372E+02  0.35367891800E+02 -0.63669615487E+02  0.75529763950E+02  0.00000000000E+00 0.  1.
         12    1    3    3    0    0  0.13417027091E+02  0.20698617719E+02 -0.35263666271E+03  0.35349832429E+03  0.00000000000E+00 0. -1.
         13    1    5    5    0    0 -0.24880885039E+02 -0.30926555216E+01  0.88621011334E+00  0.25088011616E+02  0.00000000000E+00 0. -1.
        -14    1    5    5    0    0  0.27652136747E+02  0.96021296052E+01  0.95347325516E+02  0.99739430732E+02  0.00000000000E+00 0.  1.
          5    1    4    4  501    0  0.70219122907E+01 -0.85653408482E+02 -0.27393555289E+03  0.28713058558E+03  0.41800000000E+01 0. -1.
         -5    1    4    4    0  501 -0.43211129461E+02  0.23077424880E+02 -0.66560517638E+02  0.82749889164E+02  0.41800000000E+01 0. -1.
</event>
<event>
11    1  0.6763327E-009  0.1490606E+03  0.7561462E-02  0.1097843E+00
         22   -1    0    0    0    0  0.00000000000E+00  0.00000000000E+00  0.20586814129E+03  0.20586814129E+03  0.00000000000E+00 0. -1.
         22   -1    0    0    0    0 -0.00000000000E+00 -0.00000000000E+00 -0.52996958341E+03  0.52996958341E+03  0.00000000000E+00 0. -1.
         24    2    1    2    0    0 -0.45190196594E+01 -0.77439855472E+02 -0.35317852856E+03  0.37234515646E+03  0.88817170343E+02 0.  0.
         25    2    1    2    0    0  0.43057511567E+01  0.95404582264E+02 -0.11690604118E+03  0.19604832685E+03  0.12508936880E+03 0.  0.
        -24    2    1    2    0    0  0.21326850271E+00 -0.17964726792E+02  0.14598312761E+03  0.16744424140E+03  0.80023268731E+02 0.  0.
        -11    1    3    3    0    0 -0.39396348194E+02 -0.90585582241E+01 -0.14227739031E+03  0.14790870671E+03  0.00000000000E+00 0.  1.
         12    1    3    3    0    0  0.34877328534E+02 -0.68381297248E+02 -0.21090113825E+03  0.22443644975E+03  0.00000000000E+00 0. -1.
         13    1    5    5    0    0  0.15059332510E+02 -0.46902831416E+02  0.93978802175E+02  0.10610690057E+03  0.00000000000E+00 0. -1.
        -14    1    5    5    0    0 -0.14846064007E+02  0.28938104625E+02  0.52004325432E+02  0.61337340825E+02  0.00000000000E+00 0.  1.
          5    1    4    4  501    0  0.24893935312E+01 -0.22133246745E+02  0.84140547442E+01  0.24173258135E+02  0.41800000000E+01 0.  1.
         -5    1    4    4    0  501  0.18163576256E+01  0.11753782901E+03 -0.12532009592E+03  0.17187506871E+03  0.41800000000E+01 0.  1.
</event>
<event>
11    1  0.6763327E-009  0.1371430E+03  0.7561462E-02  0.1110791E+00
         22   -1    0    0    0    0  0.00000000000E+00  0.00000000000E+00  0.12364015517E+04  0.12364015517E+04  0.00000000000E+00 0.  1.
         22   -1    0    0    0    0 -0.00000000000E+00 -0.00000000000E+00 -0.59943669881E+03  0.59943669881E+03  0.00000000000E+00 0. -1.
         24    2    1    2    0    0  0.42095395408E+02  0.12096513937E+01 -0.52423746618E+03  0.53218479916E+03  0.81377232298E+02 0.  0.
         25    2    1    2    0    0 -0.80105515196E+02  0.39080817913E+02  0.16160131130E+02  0.15444481054E+03  0.12509134971E+03 0.  0.
        -24    2    1    2    0    0  0.38010119788E+02 -0.40290469306E+02  0.11450421880E+04  0.11492086408E+04  0.80565481588E+02 0.  0.
        -11    1    3    3    0    0 -0.18266912342E+02 -0.10662326823E+02 -0.54912907987E+02  0.58845499091E+02  0.00000000000E+00 0.  1.
         12    1    3    3    0    0  0.60362307749E+02  0.11871978217E+02 -0.46932455820E+03  0.47333930007E+03  0.00000000000E+00 0. -1.
         13    1    5    5    0    0 -0.12553955358E+02 -0.27282710148E+02  0.16066442807E+03  0.16344725913E+03  0.00000000000E+00 0. -1.
        -14    1    5    5    0    0  0.50564075146E+02 -0.13007759159E+02  0.98437775990E+03  0.98576138171E+03  0.00000000000E+00 0.  1.
          5    1    4    4  501    0  0.13933929676E+02  0.34934925766E+02 -0.31146820377E+02  0.49012245961E+02  0.41800000000E+01 0. -1.
         -5    1    4    4    0  501 -0.94039444872E+02  0.41458921462E+01  0.47306951508E+02  0.10543256458E+03  0.41800000000E+01 0. -1.
</event>
<event>
11    1  0.6763327E-009  0.1983396E+03  0.7561462E-02  0.1055704E+00
         22   -1    0    0    0    0  0.00000000000E+00  0.00000000000E+00  0.32584439968E+03  0.32584439968E+03  0.00000000000E+00 0.  1.
         22   -1    0    0    0    0 -0.00000000000E+00 -0.00000000000E+00 -0.31575309092E+04  0.31575309092E+04  0.00000000000E+00 0.  1.
        -24    2    1    2    0    0  0.90862216313E+02 -0.33048639368E+02 -0.30225330216E+04  0.30251769576E+04  0.81496033664E+02 0.  0.
         25    2    1    2    0    0 -0.10371395397E+03 -0.12527310915E+03  0.12677557467E+02  0.20556577890E+03  0.12508650153E+03 0.  0.
         24    2    1    2    0    0  0.12851737661E+02  0.15832174852E+03  0.17816895459E+03  0.25263257235E+03  0.82753229640E+02 0.  0.
        -11    1    5    5    0    0  0.45518021735E+02  0.60637192700E+02  0.82613586524E+02  0.11213279681E+03  0.00000000000E+00 0.  1.
         12    1    5    5    0    0 -0.32666284075E+02  0.97684555817E+02  0.95555368070E+02  0.14049977554E+03  0.00000000000E+00 0. -1.
         11    1    3    3    0    0  0.32833477183E+02  0.25014148260E+02 -0.72108942783E+03  0.72226983031E+03  0.00000000000E+00 0. -1.
        -12    1    3    3    0    0  0.58028739131E+02 -0.58062787628E+02 -0.23014435938E+04  0.23029071273E+04  0.00000000000E+00 0.  1.
          5    1    4    4  501    0 -0.15866250542E+01 -0.88036240382E+02 -0.22963416982E+02  0.91091645715E+02  0.41800000000E+01 0.  1.
         -5    1    4    4    0  501 -0.10212732892E+03 -0.37236868767E+02  0.35640974449E+02  0.11447413318E+03  0.41800000000E+01 0.  1.
</event>
<event>
11    1  0.6763327E-009  0.1500629E+03  0.7561462E-02  0.1096815E+00
         22   -1    0    0    0    0  0.00000000000E+00  0.00000000000E+00  0.21206904307E+03  0.21206904307E+03  0.00000000000E+00 0.  1.
         22   -1    0    0    0    0 -0.00000000000E+00 -0.00000000000E+00 -0.83420738954E+03  0.83420738954E+03  0.00000000000E+00 0. -1.
         24    2    1    2    0    0 -0.66583530288E+02 -0.19864983214E+02 -0.43024164049E+03  0.44267577508E+03  0.77627241139E+02 0.  0.
         25    2    1    2    0    0  0.22761628370E+02  0.91108430470E+02 -0.36366588391E+03  0.39587947870E+03  0.12509535846E+03 0.  0.
        -24    2    1    2    0    0  0.43821901918E+02 -0.71243447256E+02  0.17176917794E+03  0.20772117882E+03  0.81531894224E+02 0.  0.
        -13    1    3    3    0    0 -0.45802267429E+02 -0.17602227176E+02 -0.96299235086E+02  0.10807973344E+03  0.00000000000E+00 0.  1.
         14    1    3    3    0    0 -0.20781262859E+02 -0.22627560378E+01 -0.33394240541E+03  0.33459604164E+03  0.00000000000E+00 0. -1.
         13    1    5    5    0    0  0.12059810132E+02 -0.79057852440E+02  0.94396004715E+02  0.12371818281E+03  0.00000000000E+00 0. -1.
        -14    1    5    5    0    0  0.31762091786E+02  0.78144051835E+01  0.77373173227E+02  0.84002996008E+02  0.00000000000E+00 0.  1.
          5    1    4    4  501    0  0.30327920101E+02  0.10927373971E+03 -0.19192661780E+03  0.22296598832E+03  0.41800000000E+01 0. -1.
         -5    1    4    4    0  501 -0.75662917315E+01 -0.18165309244E+02 -0.17173926612E+03  0.17291349038E+03  0.41800000000E+01 0. -1.
</event>
<event>
11    1  0.6763327E-009  0.1603871E+03  0.7561462E-02  0.1086714E+00
         22   -1    0    0    0    0  0.00000000000E+00  0.00000000000E+00  0.68589998413E+03  0.68589998413E+03  0.00000000000E+00 0. -1.
         22   -1    0    0    0    0 -0.00000000000E+00 -0.00000000000E+00 -0.38402792941E+03  0.38402792941E+03  0.00000000000E+00 0. -1.
        -24    2    1    2    0    0 -0.54552635471E+02  0.86511548643E+02 -0.34367597986E+03  0.37017498873E+03  0.91957082718E+02 0.  0.
         25    2    1    2    0    0 -0.13921286176E+02 -0.79892990573E+02  0.25677808778E+03  0.29691600957E+03  0.12508972071E+03 0.  0.
         24    2    1    2    0    0  0.68473921648E+02 -0.66185580694E+01  0.38876994680E+03  0.40283691523E+03  0.80018907028E+02 0.  0.
        -13    1    5    5    0    0 -0.13930888325E+02  0.14673435516E+02  0.84371276031E+02  0.86763423045E+02  0.00000000000E+00 0.  1.
         14    1    5    5    0    0  0.82404809972E+02 -0.21291993585E+02  0.30439867077E+03  0.31607349219E+03  0.00000000000E+00 0. -1.
         13    1    3    3    0    0 -0.47622722173E+02  0.10634148038E+03 -0.29297571315E+03  0.31529542117E+03  0.00000000000E+00 0. -1.
        -14    1    3    3    0    0 -0.69299132983E+01 -0.19829931733E+02 -0.50700266710E+02  0.54879567558E+02  0.00000000000E+00 0.  1.
          5    1    4    4  501    0  0.19509925521E+01 -0.72263571148E+02  0.26664444621E+03  0.27630158012E+03  0.41800000000E+01 0. -1.
         -5    1    4    4    0  501 -0.15872278729E+02 -0.76294194252E+01 -0.98663584292E+01  0.20614429448E+02  0.41800000000E+01 0. -1.
</event>
<event>
11    1  0.6763327E-009  0.1374266E+03  0.7561462E-02  0.1110467E+00
         22   -1    0    0    0    0  0.00000000000E+00  0.00000000000E+00  0.23753288311E+03  0.23753288311E+03  0.00000000000E+00 0. -1.
         22   -1    0    0    0    0 -0.00000000000E+00 -0.00000000000E+00 -0.77621146480E+03  0.77621146480E+03  0.00000000000E+00 0. -1.
        -24    2    1    2    0    0 -0.17404275004E+01  0.12317281730E+01 -0.64291354918E+03  0.64974391371E+03  0.93940275924E+02 0.  0.
         25    2    1    2    0    0  0.45945094091E+02  0.34516843947E+02 -0.76997007430E+02  0.15772942871E+03  0.12509064450E+03 0.  0.
         24    2    1    2    0    0 -0.44204666591E+02 -0.35748572120E+02  0.18123197492E+03  0.20627100549E+03  0.80440574423E+02 0.  0.
        -13    1    5    5    0    0 -0.23263925144E+02  0.98409105508E+01  0.88948672584E+01  0.26780074629E+02  0.00000000000E+00 0.  1.
         14    1    5    5    0    0 -0.20940741447E+02 -0.45589482670E+02  0.17233710767E+03  0.17949093086E+03  0.00000000000E+00 0. -1.
         11    1    3    3    0    0  0.10002481210E+01  0.32505403984E+02 -0.56220350191E+03  0.56314330268E+03  0.00000000000E+00 0. -1.
        -12    1    3    3    0    0 -0.27406756213E+01 -0.31273675811E+02 -0.80710047267E+02  0.86600611034E+02  0.00000000000E+00 0.  1.
          5    1    4    4  501    0 -0.42274394006E+02  0.22062015758E+02 -0.34001631030E+02  0.58714906460E+02  0.41800000000E+01 0.  1.
         -5    1    4    4    0  501  0.88219488097E+02  0.12454828188E+02 -0.42995376400E+02  0.99014522254E+02  0.41800000000E+01 0.  1.
</event>
<event>
11    1  0.6763327E-009  0.1350054E+03  0.7561462E-02  0.1113267E+00
         22   -1    0    0    0    0  0.00000000000E+00  0.00000000000E+00  0.14359168291E+03  0.14359168291E+03  0.00000000000E+00 0.  1.
         22   -1    0    0    0    0 -0.00000000000E+00 -0.00000000000E+00 -0.86924370506E+03  0.86924370506E+03  0.00000000000E+00 0.  1.
         24    2    1    2    0    0 -0.30991863617E+02 -0.44956479529E+02 -0.70096663212E+03  0.70783300591E+03  0.81803204378E+02 0.  0.
         25    2    1    2    0    0  0.31400321164E+02  0.34026824008E+00 -0.11617496556E+03  0.17358204040E+03  0.12509199084E+03 0.  0.
        -24    2    1    2    0    0 -0.40845754688E+00  0.44616211289E+02  0.91489575526E+02  0.13142034166E+03  0.83127556353E+02 0.  0.
        -13    1    3    3    0    0 -0.22879070251E+02 -0.81525570046E+01 -0.59264440944E+03  0.59314189878E+03  0.00000000000E+00 0.  1.
         14    1    3    3    0    0 -0.81127933654E+01 -0.36803922525E+02 -0.10832222268E+03  0.11469110713E+03  0.00000000000E+00 0. -1.
         13    1    5    5    0    0  0.63899275212E+01 -0.23824968662E+02  0.16557105855E+02  0.29708551963E+02  0.00000000000E+00 0. -1.
        -14    1    5    5    0    0 -0.67983850681E+01  0.68441179951E+02  0.74932469671E+02  0.10171178970E+03  0.00000000000E+00 0.  1.
          5    1    4    4  501    0  0.71025280076E+02 -0.16975737035E+02 -0.10629078235E+03  0.12902700830E+03  0.41800000000E+01 0.  1.
         -5    1    4    4    0  501 -0.39624958912E+02  0.17316005275E+02 -0.98841832114E+01  0.44555032098E+02  0.41800000000E+01 0.  1.
</event>
<event>
11    1  0.6763327E-009  0.1446020E+03  0.7561462E-02  0.1102526E+00
         22   -1    0    0    0    0  0.00000000000E+00  0.00000000000E+00  0.71101023182E+03  0.71101023182E+03  0.00000000000E+00 0. -1.
         22   -1    0    0    0    0 -0.00000000000E+00 -0.00000000000E+00 -0.12260284445E+03  0.12260284445E+03  0.00000000000E+00 0.  1.
        -24    2    1    2    0    0 -0.26831024095E+02 -0.71121425301E+02 -0.68748860738E+02  0.13108997475E+03  0.81731356504E+02 0.  0.
         25    2    1    2    0    0 -0.19963974599E+02  0.51169532814E+02  0.25967847134E+03  0.29342228983E+03  0.12508737074E+03 0.  0.
         24    2    1    2    0    0  0.46794998695E+02  0.19951892488E+02  0.39747777677E+03  0.40910081169E+03  0.82383500700E+02 0.  0.
        -11    1    5    5    0    0  0.34705436695E+02  0.26732347766E+02  0.79093708710E+02  0.90415156422E+02  0.00000000000E+00 0.  1.
         12    1    5    5    0    0  0.12089561999E+02 -0.67804552780E+01  0.31838406806E+03  0.31868565527E+03  0.00000000000E+00 0. -1.
         13    1    3    3    0    0 -0.60219017765E+00 -0.43800869146E+02  0.88974696939E+01  0.44699482524E+02  0.00000000000E+00 0. -1.
        -14    1    3    3    0    0 -0.26228833917E+02 -0.27320556155E+02 -0.77646330431E+02  0.86390492224E+02  0.00000000000E+00 0.  1.
          5    1    4    4  501    0  0.49968883983E+02  0.27646456696E+01  0.77856400968E+02  0.92647850509E+02  0.41800000000E+01 0.  1.
         -5    1    4    4    0  501 -0.69932858582E+02  0.48404887144E+02  0.18182207038E+03  0.20077443932E+03  0.41800000000E+01 0.  1.
</event>
<event>
11    1  0.6763327E-009  0.1381163E+03  0.7561462E-02  0.1109680E+00
         22   -1    0    0    0    0  0.00000000000E+00  0.00000000000E+00  0.39946209044E+03  0.39946209044E+03  0.00000000000E+00 0. -1.
         22   -1    0    0    0    0 -0.00000000000E+00 -0.00000000000E+00 -0.13772700007E+04  0.13772700007E+04  0.00000000000E+00 0.  1.
        -24    2    1    2    0    0  0.23470796145E+02 -0.38056163382E+02 -0.13283990916E+04  0.13314763812E+04  0.78651492515E+02 0.  0.
         25    2    1    2    0    0 -0.54013870216E+02 -0.16454154545E+02  0.87990611552E+02  0.16303180165E+03  0.12509509683E+03 0.  0.
         24    2    1    2    0    0  0.30543074071E+02  0.54510317927E+02  0.26260056974E+03  0.28222390834E+03  0.82383378651E+02 0.  0.
        -11    1    5    5    0    0  0.39639650609E+02  0.39017415371E+02  0.73005087823E+02  0.91779101383E+02  0.00000000000E+00 0.  1.
         12    1    5    5    0    0 -0.90965765379E+01  0.15492902556E+02  0.18959548192E+03  0.19044480696E+03  0.00000000000E+00 0. -1.
         13    1    3    3    0    0 -0.66723053438E+01 -0.23806458494E+02 -0.11538210171E+03  0.11800125643E+03  0.00000000000E+00 0. -1.
        -14    1    3    3    0    0  0.30143101488E+02 -0.14249704888E+02 -0.12130169899E+04  0.12134751248E+04  0.00000000000E+00 0.  1.
          5    1    4    4  501    0 -0.59309450879E+02  0.39242774839E+02  0.18277846508E+02  0.73546980996E+02  0.41800000000E+01 0.  1.
         -5    1    4    4    0  501  0.52955806629E+01 -0.55696929385E+02  0.69712765043E+02  0.89484820654E+02  0.41800000000E+01 0.  1.
</event>
<event>
11    1  0.6763327E-009  0.1266568E+03  0.7561462E-02  0.1123446E+00
         22   -1    0    0    0    0  0.00000000000E+00  0.00000000000E+00  0.34519753510E+03  0.34519753510E+03  0.00000000000E+00 0.  1.
         22   -1    0    0    0    0 -0.00000000000E+00 -0.00000000000E+00 -0.29552026663E+03  0.29552026663E+03  0.00000000000E+00 0.  1.
        -24    2    1    2    0    0  0.93679097707E+01  0.11834183630E+02 -0.23132805453E+03  0.24614968177E+03  0.82759841620E+02 0.  0.
         25    2    1    2    0    0 -0.18186278320E+02  0.67811608920E+01  0.30526824361E+02  0.13021712724E+03  0.12509151994E+03 0.  0.
         24    2    1    2    0    0  0.88183685494E+01 -0.18615344522E+02  0.25047849864E+03  0.26435099273E+03  0.81961420183E+02 0.  0.
        -11    1    5    5    0    0  0.20509227130E+02 -0.43431371590E+02  0.21020512136E+03  0.21562259965E+03  0.00000000000E+00 0.  1.
         12    1    5    5    0    0 -0.11690858581E+02  0.24816027068E+02  0.40273377281E+02  0.48728393072E+02  0.00000000000E+00 0. -1.
         11    1    3    3    0    0 -0.22238245329E+01 -0.35221380495E+02 -0.86230560788E+02  0.93172960956E+02  0.00000000000E+00 0. -1.
        -12    1    3    3    0    0  0.11591734304E+02  0.47055564125E+02 -0.14509749374E+03  0.15297672081E+03  0.00000000000E+00 0.  1.
          5    1    4    4  501    0  0.42373368560E+01  0.19629736417E+02 -0.45445674722E+02  0.49860438489E+02  0.41800000000E+01 0. -1.
         -5    1    4    4    0  501 -0.22423615176E+02 -0.12848575525E+02  0.75972499083E+02  0.80356688754E+02  0.41800000000E+01 0. -1.
</event>
<event>
11    1  0.6763327E-009  0.1471395E+03  0.7561462E-02  0.1099838E+00
         22   -1    0    0    0    0  0.00000000000E+00  0.00000000000E+00  0.14709496037E+04  0.14709496037E+04  0.00000000000E+00 0.  1.
         22   -1    0    0    0    0 -0.00000000000E+00 -0.00000000000E+00 -0.95450401096E+03  0.95450401096E+03  0.00000000000E+00 0.  1.
         24    2    1    2    0    0  0.75571061328E+02  0.54621330718E+01 -0.81904592716E+03  0.82636610927E+03  0.79397075242E+02 0.  0.
         25    2    1    2    0    0 -0.69670444839E+02 -0.82676719116E+02 -0.76809153990E+02  0.18232209866E+03  0.12510911540E+03 0.  0.
        -24    2    1    2    0    0 -0.59006164889E+01  0.77214586044E+02  0.14123006739E+04  0.14167654067E+04  0.81450074578E+02 0.  0.
        -13    1    3    3    0    0  0.66801580669E+02 -0.27300949095E+02 -0.44820417993E+03  0.45397662925E+03  0.00000000000E+00 0.  1.
         14    1    3    3    0    0  0.87694806589E+01  0.32763082167E+02 -0.37084174723E+03  0.37238948002E+03  0.00000000000E+00 0. -1.
         13    1    5    5    0    0 -0.26899331100E+02  0.28376018455E+02  0.23227775853E+03  0.23554559971E+03  0.00000000000E+00 0. -1.
        -14    1    5    5    0    0  0.20998714611E+02  0.48838567589E+02  0.11800229153E+04  0.11812198070E+04  0.00000000000E+00 0.  1.
          5    1    4    4  501    0 -0.31185852350E+02  0.27703973370E+02 -0.44135155645E+02  0.60872423075E+02  0.41800000000E+01 0. -1.
         -5    1    4    4    0  501 -0.38484592490E+02 -0.11038069249E+03 -0.32673998345E+02  0.12144967559E+03  0.41800000000E+01 0. -1.
</event>
<event>
11    1  0.6763327E-009  0.1408169E+03  0.7561462E-02  0.1106650E+00
         22   -1    0    0    0    0  0.00000000000E+00  0.00000000000E+00  0.13373252459E+03  0.13373252459E+03  0.00000000000E+00 0. -1.
         22   -1    0    0    0    0 -0.00000000000E+00 -0.00000000000E+00 -0.44935768394E+03  0.44935768394E+03  0.00000000000E+00 0. -1.
         24    2    1    2    0    0  0.40629281725E+02  0.44614068783E+02 -0.30562989595E+03  0.32141109134E+03  0.79084149276E+02 0.  0.
         25    2    1    2    0    0 -0.69142545393E+02 -0.68473241895E+02 -0.46351475035E+02  0.16512279120E+03  0.12509116874E+03 0.  0.
        -24    2    1    2    0    0  0.28513263667E+02  0.23859173112E+02  0.36356211636E+02  0.96556325994E+02  0.81357750819E+02 0.  0.
        -11    1    3    3    0    0 -0.10540547403E+02  0.46256101134E+01 -0.30050989981E+01  0.11896639377E+02  0.00000000000E+00 0.  1.
         12    1    3    3    0    0  0.51169829128E+02  0.39988458669E+02 -0.30262479696E+03  0.30951445196E+03  0.00000000000E+00 0. -1.
         13    1    5    5    0    0  0.19309445627E+02  0.49713764285E+02  0.42780834021E+02  0.68370408872E+02  0.00000000000E+00 0. -1.
        -14    1    5    5    0    0  0.92038180396E+01 -0.25854591173E+02 -0.64246223844E+01  0.28185917122E+02  0.00000000000E+00 0.  1.
          5    1    4    4  501    0 -0.42358364771E+02  0.45276488716E+01  0.32921558737E+02  0.54000297222E+02  0.41800000000E+01 0.  1.
         -5    1    4    4    0  501 -0.26784180621E+02 -0.73000890766E+02 -0.79273033772E+02  0.11112249398E+03  0.41800000000E+01 0.  1.
</event>
<event>
11    1  0.6763327E-009  0.1539630E+03  0.7561462E-02  0.1092897E+00
         22   -1    0    0    0    0  0.00000000000E+00  0.00000000000E+00  0.11980859140E+04  0.11980859140E+04  0.00000000000E+00 0.  1.
         22   -1    0    0    0    0 -0.00000000000E+00 -0.00000000000E+00 -0.10849584829E+03  0.10849584829E+03  0.00000000000E+00 0.  1.
        -24    2    1    2    0    0  0.19481269865E+02 -0.47892058594E-01 -0.73621248067E+02  0.11074576202E+03  0.80405307468E+02 0.  0.
         25    2    1    2    0    0 -0.81378989991E+02  0.57659367192E+02  0.59813940143E+03  0.61916450295E+03  0.12508715177E+03 0.  0.
         24    2    1    2    0    0  0.61897720125E+02 -0.57611475134E+02  0.56507191232E+03  0.57667149728E+03  0.78059847938E+02 0.  0.
        -11    1    5    5    0    0  0.56282573482E+02 -0.71470275595E+02  0.53893955269E+03  0.54656341794E+03  0.00000000000E+00 0.  1.
         12    1    5    5    0    0  0.56151466436E+01  0.13858800462E+02  0.26132359626E+02  0.30108079342E+02  0.00000000000E+00 0. -1.
         11    1    3    3    0    0 -0.10487962079E+02 -0.28217452667E+02 -0.46764271152E+01  0.30464585245E+02  0.00000000000E+00 0. -1.
        -12    1    3    3    0    0  0.29969231945E+02  0.28169560608E+02 -0.68944820952E+02  0.80281176775E+02  0.00000000000E+00 0.  1.
          5    1    4    4  501    0 -0.25422924422E+01  0.59502383718E+02  0.11460154776E+03  0.12922067973E+03  0.41800000000E+01 0. -1.
         -5    1    4    4    0  501 -0.78836697548E+02 -0.18430165260E+01  0.48353785366E+03  0.48994382322E+03  0.41800000000E+01 0. -1.
</event>
<event>
11    1  0.6763327E-009  0.1467300E+03  0.7561462E-02  0.1100268E+00
         22   -1    0    0    0    0  0.00000000000E+00  0.00000000000E+00  0.25036844780E+03  0.25036844780E+03  0.00000000000E+00 0.  1.
         22   -1    0    0    0    0 -0.00000000000E+00 -0.00000000000E+00 -0.22251602518E+03  0.22251602518E+03  0.00000000000E+00 0. -1.
         24    2    1    2    0    0 -0.30658161916E+02  0.64445844973E+02 -0.10872413390E+03  0.15427600882E+03  0.82987708593E+02 0.  0.
         25    2    1    2    0    0  0.79380403656E+02 -0.67453125385E+02  0.13989595271E+02  0.16338366658E+03  0.12508933255E+03 0.  0.
        -24    2    1    2    0    0 -0.48722241740E+02  0.30072804115E+01  0.12258696125E+03  0.15522479758E+03  0.81757410298E+02 0.  0.
        -11    1    3    3    0    0  0.16576492845E+01  0.10084857154E+01  0.13062888473E+02  0.13206206868E+02  0.00000000000E+00 0.  1.
         12    1    3    3    0    0 -0.32315811201E+02  0.63437359258E+02 -0.12178702238E+03  0.14106980195E+03  0.00000000000E+00 0. -1.
         13    1    5    5    0    0 -0.33408125541E+02 -0.38465143610E+02  0.68475678908E+02  0.85349802150E+02  0.00000000000E+00 0. -1.
        -14    1    5    5    0    0 -0.15314116199E+02  0.41472424022E+02  0.54111282343E+02  0.69874995428E+02  0.00000000000E+00 0.  1.
          5    1    4    4  501    0 -0.12091216757E+02 -0.60004588491E+02 -0.21334888767E+02  0.64956893717E+02  0.41800000000E+01 0.  1.
         -5    1    4    4    0  501  0.91471620413E+02 -0.74485368937E+01  0.35324484038E+02  0.98426772859E+02  0.41800000000E+01 0.  1.
</event>
<event>
11    1  0.6763327E-009  0.2190145E+03  0.7561462E-02  0.1041837E+00
         22   -1    0    0    0    0  0.00000000000E+00  0.00000000000E+00  0.75153773746E+03  0.75153773746E+03  0.00000000000E+00 0.  1.
         22   -1    0    0    0    0 -0.00000000000E+00 -0.00000000000E+00 -0.23882940585E+03  0.23882940585E+03  0.00000000000E+00 0.  1.
         24    2    1    2    0    0 -0.17545932348E+03 -0.64211843893E+01 -0.95213087105E+02  0.21506888884E+03  0.79761451765E+02 0.  0.
         25    2    1    2    0    0  0.19112628088E+03  0.33125146111E+01  0.81319224155E+02  0.24248733222E+03  0.12508821716E+03 0.  0.
        -24    2    1    2    0    0 -0.15666957405E+02  0.31086697782E+01  0.52660219456E+03  0.53281092225E+03  0.79514087872E+02 0.  0.
        -11    1    3    3    0    0 -0.17827431550E+03 -0.16036089664E+02 -0.78212311627E+02  0.19533574539E+03  0.00000000000E+00 0.  1.
         12    1    3    3    0    0  0.28149920212E+01  0.96149052747E+01 -0.17000775478E+02  0.19733143449E+02  0.00000000000E+00 0. -1.
         13    1    5    5    0    0 -0.39015459813E+02  0.12175265451E+02  0.15283708444E+03  0.15820751428E+03  0.00000000000E+00 0. -1.
        -14    1    5    5    0    0  0.23348502409E+02 -0.90665956727E+01  0.37376511012E+03  0.37460340797E+03  0.00000000000E+00 0.  1.
          5    1    4    4  501    0  0.85482875463E+02  0.11617710151E+02 -0.27397685190E+02  0.90611250627E+02  0.41800000000E+01 0.  1.
         -5    1    4    4    0  501  0.10564340542E+03 -0.83051955398E+01  0.10871690935E+03  0.15187608159E+03  0.41800000000E+01 0.  1.
</event>
<event>
11    1  0.6763327E-009  0.2038807E+03  0.7561462E-02  0.1051813E+00
         22   -1    0    0    0    0  0.00000000000E+00  0.00000000000E+00  0.84648738366E+03  0.84648738366E+03  0.00000000000E+00 0.  1.
         22   -1    0    0    0    0 -0.00000000000E+00 -0.00000000000E+00 -0.11754595486E+04  0.11754595486E+04  0.00000000000E+00 0.  1.
        -24    2    1    2    0    0 -0.89117277597E+01 -0.13949081810E+02 -0.11258747110E+04  0.11288792728E+04  0.80625999904E+02 0.  0.
         25    2    1    2    0    0  0.16432745498E+03 -0.11757256306E+01  0.55127171715E+03  0.58868766213E+03  0.12509101735E+03 0.  0.
         24    2    1    2    0    0 -0.15541572722E+03  0.15124807441E+02  0.24563082889E+03  0.30437999737E+03  0.89049821065E+02 0.  0.
        -13    1    5    5    0    0 -0.28118517604E+02  0.40298366666E+02  0.81253467955E+02  0.94956492369E+02  0.00000000000E+00 0.  1.
         14    1    5    5    0    0 -0.12729720962E+03 -0.25173559225E+02  0.16437736093E+03  0.20942350500E+03  0.00000000000E+00 0. -1.
         11    1    3    3    0    0  0.19265636451E+02 -0.64775925365E+01 -0.78175146495E+02  0.80774237740E+02  0.00000000000E+00 0. -1.
        -12    1    3    3    0    0 -0.28177364210E+02 -0.74714892736E+01 -0.10476995645E+04  0.10481050351E+04  0.00000000000E+00 0.  1.
          5    1    4    4  501    0  0.18194169736E+03  0.75906384516E+01  0.52431782423E+03  0.55505590010E+03  0.41800000000E+01 0. -1.
         -5    1    4    4    0  501 -0.17614242375E+02 -0.87663640821E+01  0.26953892923E+02  0.33631762032E+02  0.41800000000E+01 0. -1.
</event>
<event>
11    1  0.6763327E-009  0.1353552E+03  0.7561462E-02  0.1112859E+00
         22   -1    0    0    0    0  0.00000000000E+00  0.00000000000E+00  0.28531195864E+03  0.28531195864E+03  0.00000000000E+00 0.  1.
         22   -1    0    0    0    0 -0.00000000000E+00 -0.00000000000E+00 -0.10671441925E+04  0.10671441925E+04  0.00000000000E+00 0. -1.
        -24    2    1    2    0    0  0.31444717899E+01  0.11314614665E+02 -0.81935436576E+03  0.82298412025E+03  0.76311056089E+02 0.  0.
         25    2    1    2    0    0 -0.35145948877E+01 -0.62609400664E+02 -0.21648725474E+03  0.25777267706E+03  0.12509089554E+03 0.  0.
         24    2    1    2    0    0  0.37012309781E+00  0.51294785999E+02  0.25400938669E+03  0.27169935378E+03  0.81660751028E+02 0.  0.
        -13    1    5    5    0    0 -0.17733741497E+02  0.26323961597E+02  0.23112386792E+03  0.23329311791E+03  0.00000000000E+00 0.  1.
         14    1    5    5    0    0  0.18103864595E+02  0.24970824402E+02  0.22885518765E+02  0.38406235870E+02  0.00000000000E+00 0. -1.
         13    1    3    3    0    0  0.12202160389E+02  0.19149887968E+02 -0.79932360597E+03  0.79964607046E+03  0.00000000000E+00 0. -1.
        -14    1    3    3    0    0 -0.90576885990E+01 -0.78352733025E+01 -0.20030759785E+02  0.23338049791E+02  0.00000000000E+00 0.  1.
          5    1    4    4  501    0  0.12099193753E+02 -0.64081714109E+02 -0.32341398239E+02  0.72912927610E+02  0.41800000000E+01 0. -1.
         -5    1    4    4    0  501 -0.15613788641E+02  0.14723134444E+01 -0.18414585650E+03  0.18485974945E+03  0.41800000000E+01 0. -1.
</event>
<event>
11    1  0.6763327E-009  0.1840723E+03  0.7561462E-02  0.1066396E+00
         22   -1    0    0    0    0  0.00000000000E+00  0.00000000000E+00  0.10193839116E+04  0.10193839116E+04  0.00000000000E+00 0.  1.
         22   -1    0    0    0    0 -0.00000000000E+00 -0.00000000000E+00 -0.21686494186E+03  0.21686494186E+03  0.00000000000E+00 0. -1.
         24    2    1    2    0    0  0.88102383977E+02  0.16997217620E+02 -0.15635792244E+03  0.19848716018E+03  0.83056711807E+02 0.  0.
         25    2    1    2    0    0 -0.19011575398E+03  0.42814240123E+02  0.41601928172E+03  0.47612669807E+03  0.12509009069E+03 0.  0.
        -24    2    1    2    0    0  0.10201337000E+03 -0.59811457744E+02  0.54285761048E+03  0.56163499522E+03  0.82190902520E+02 0.  0.
        -11    1    3    3    0    0  0.90330577979E+02  0.24014694036E+02 -0.83730574618E+02  0.12548756103E+03  0.00000000000E+00 0.  1.
         12    1    3    3    0    0 -0.22281940015E+01 -0.70174764155E+01 -0.72627347826E+02  0.72999599150E+02  0.00000000000E+00 0. -1.
         13    1    5    5    0    0  0.10490885742E+03 -0.38192726610E+02  0.34585171212E+03  0.36342531490E+03  0.00000000000E+00 0. -1.
        -14    1    5    5    0    0 -0.28954874183E+01 -0.21618731133E+02  0.19700589836E+03  0.19820968032E+03  0.00000000000E+00 0.  1.
          5    1    4    4  501    0 -0.19402101200E+03  0.17844950764E+02  0.40241576166E+03  0.44712248098E+03  0.41800000000E+01 0.  1.
         -5    1    4    4    0  501  0.39052580207E+01  0.24969289359E+02  0.13603520059E+02  0.29004217095E+02  0.41800000000E+01 0.  1.
</event>
<event>
11    1  0.6763327E-009  0.1302679E+03  0.7561462E-02  0.1118940E+00
         22   -1    0    0    0    0  0.00000000000E+00  0.00000000000E+00  0.19048985816E+03  0.19048985816E+03  0.00000000000E+00 0.  1.
         22   -1    0    0    0    0 -0.00000000000E+00 -0.00000000000E+00 -0.18249012601E+04  0.18249012601E+04  0.00000000000E+00 0. -1.
         24    2    1    2    0    0 -0.31501330758E+02 -0.20300342590E+02 -0.13522202221E+04  0.13550565521E+04  0.79210432703E+02 0.  0.
         25    2    1    2    0    0  0.14512028166E+02  0.30426279215E+02 -0.45276138147E+03  0.47093142030E+03  0.12508867514E+03 0.  0.
        -24    2    1    2    0    0  0.16989302592E+02 -0.10125936625E+02  0.17057020160E+03  0.18940314585E+03  0.79926134578E+02 0.  0.
        -13    1    3    3    0    0  0.83866508146E+01  0.18689632073E+02 -0.13368903217E+03  0.13524938293E+03  0.00000000000E+00 0.  1.
         14    1    3    3    0    0 -0.39887981572E+02 -0.38989974663E+02 -0.12185311899E+04  0.12198071692E+04  0.00000000000E+00 0. -1.
         11    1    5    5    0    0 -0.21990008203E+02  0.43191818113E+01  0.11891617972E+02  0.25369792476E+02  0.00000000000E+00 0. -1.
        -12    1    5    5    0    0  0.38979310794E+02 -0.14445118436E+02  0.15867858363E+03  0.16403335338E+03  0.00000000000E+00 0.  1.
          5    1    4    4  501    0  0.34259793551E+02 -0.39762459550E+02 -0.13544980456E+03  0.14532346197E+03  0.41800000000E+01 0. -1.
         -5    1    4    4    0  501 -0.19747765385E+02  0.70188738766E+02 -0.31731157691E+03  0.32560795833E+03  0.41800000000E+01 0. -1.
</event>
<event>
11    1  0.6763327E-009  0.1804787E+03  0.7561462E-02  0.1069256E+00
         22   -1    0    0    0    0  0.00000000000E+00  0.00000000000E+00  0.68040865366E+03  0.68040865366E+03  0.00000000000E+00 0. -1.
         22   -1    0    0    0    0 -0.00000000000E+00 -0.00000000000E+00 -0.21818733552E+03  0.21818733552E+03  0.00000000000E+00 0.  1.
         24    2    1    2    0    0 -0.19705133178E+02 -0.12572498270E+02 -0.16584466401E+03  0.18492656523E+03  0.78402946129E+02 0.  0.
         25    2    1    2    0    0  0.93688574001E+01 -0.12219100713E+03  0.25915903940E+03  0.31277547420E+03  0.12508665734E+03 0.  0.
        -24    2    1    2    0    0  0.10336275778E+02  0.13476350539E+03  0.36890694275E+03  0.40089394975E+03  0.79721926411E+02 0.  0.
        -11    1    3    3    0    0 -0.44788939363E+02  0.11805012256E+02 -0.10461783214E+03  0.11441284108E+03  0.00000000000E+00 0.  1.
         12    1    3    3    0    0  0.25083806185E+02 -0.24377510526E+02 -0.61226831872E+02  0.70513724148E+02  0.00000000000E+00 0. -1.
         13    1    5    5    0    0 -0.16300335083E+02  0.12772949876E+03  0.31639867784E+03  0.34159720303E+03  0.00000000000E+00 0. -1.
        -14    1    5    5    0    0  0.26636610861E+02  0.70340066324E+01  0.52508264908E+02  0.59296746716E+02  0.00000000000E+00 0.  1.
          5    1    4    4  501    0  0.60797255893E+02 -0.48876980899E+02  0.76688762246E+02  0.10947102009E+03  0.41800000000E+01 0. -1.
         -5    1    4    4    0  501 -0.51428398492E+02 -0.73314026227E+02  0.18247027716E+03  0.20330445410E+03  0.41800000000E+01 0. -1.
</event>
<event>
11    1  0.6763327E-009  0.1307194E+03  0.7561462E-02  0.1118388E+00
         22   -1    0    0    0    0  0.00000000000E+00  0.00000000000E+00  0.98083685691E+03  0.98083685691E+03  0.00000000000E+00 0.  1.
         22   -1    0    0    0    0 -0.00000000000E+00 -0.00000000000E+00 -0.25421052774E+03  0.25421052774E+03  0.00000000000E+00 0.  1.
        -24    2    1    2    0    0 -0.52102166842E+01 -0.11055562585E+01 -0.18032181256E+03  0.19787552292E+03  0.81304353365E+02 0.  0.
         25    2    1    2    0    0 -0.16812147881E+02 -0.29978430322E+02  0.42025000649E+01  0.12979195974E+03  0.12508771805E+03 0.  0.
         24    2    1    2    0    0  0.22022364565E+02  0.31083986581E+02  0.90274564166E+03  0.90737990199E+03  0.83291021342E+02 0.  0.
        -13    1    5    5    0    0  0.53639080527E+01  0.46486349428E+02  0.82666674994E+03  0.82799013741E+03  0.00000000000E+00 0.  1.
         14    1    5    5    0    0  0.16658456513E+02 -0.15402362847E+02  0.76078891727E+02  0.79389764586E+02  0.00000000000E+00 0. -1.
         13    1    3    3    0    0 -0.38821110525E+02 -0.18132141354E+02 -0.11088122219E+03  0.11887177380E+03  0.00000000000E+00 0. -1.
        -14    1    3    3    0    0  0.33610893841E+02  0.17026585096E+02 -0.69440590370E+02  0.79003749124E+02  0.00000000000E+00 0.  1.
          5    1    4    4  501    0 -0.54439637377E+02 -0.59059514732E+02  0.12315305009E+02  0.81368541437E+02  0.41800000000E+01 0. -1.
         -5    1    4    4    0  501  0.37627489496E+02  0.29081084410E+02 -0.81128049441E+01  0.48423418304E+02  0.41800000000E+01 0. -1.
</event>
<event>
11    1  0.6763327E-009  0.2489137E+03  0.7561462E-02  0.1024479E+00
         22   -1    0    0    0    0  0.00000000000E+00  0.00000000000E+00  0.40911193933E+03  0.40911193933E+03  0.00000000000E+00 0.  1.
         22   -1    0    0    0    0 -0.00000000000E+00 -0.00000000000E+00 -0.26667212236E+04  0.26667212236E+04  0.00000000000E+00 0. -1.
        -24    2    1    2    0    0 -0.42596897556E+02  0.21164951129E+03 -0.23372670939E+04  0.23491029807E+04  0.94113410992E+02 0.  0.
         25    2    1    2    0    0  0.14024146491E+03 -0.18234034163E+03 -0.25637456175E+03  0.36645667047E+03  0.12508759633E+03 0.  0.
         24    2    1    2    0    0 -0.97644567350E+02 -0.29309169657E+02  0.33603237143E+03  0.36027351176E+03  0.80534214241E+02 0.  0.
        -11    1    5    5    0    0 -0.57888886796E+02 -0.46135372898E+02  0.27953871283E+03  0.28917380209E+03  0.00000000000E+00 0.  1.
         12    1    5    5    0    0 -0.39755680554E+02  0.16826203240E+02  0.56493658607E+02  0.71099709666E+02  0.00000000000E+00 0. -1.
         11    1    3    3    0    0 -0.51072794356E+02  0.21575982625E+03 -0.21049954861E+04  0.21166404346E+04  0.00000000000E+00 0. -1.
        -12    1    3    3    0    0  0.84758968004E+01 -0.41103149642E+01 -0.23227160779E+03  0.23246254602E+03  0.00000000000E+00 0.  1.
          5    1    4    4  501    0  0.80842590179E+01 -0.11014883564E+03 -0.12156942781E+03  0.16430069815E+03  0.41800000000E+01 0.  1.
         -5    1    4    4    0  501  0.13215720589E+03 -0.72191505988E+02 -0.13480513394E+03  0.20215597231E+03  0.41800000000E+01 0.  1.
</event>
<event>
11    1  0.6763327E-009  0.1417316E+03  0.7561462E-02  0.1105640E+00
         22   -1    0    0    0    0  0.00000000000E+00  0.00000000000E+00  0.10311214145E+03  0.10311214145E+03  0.00000000000E+00 0. -1.
         22   -1    0    0    0    0 -0.00000000000E+00 -0.00000000000E+00 -0.58867619621E+03  0.58867619621E+03  0.00000000000E+00 0. -1.
        -24    2    1    2    0    0  0.18019525119E+02  0.60049483971E+02 -0.40300625519E+03  0.41597492044E+03  0.81795164301E+02 0.  0.
         25    2    1    2    0    0 -0.22239328644E+02 -0.88873764247E+02 -0.10575460463E+03  0.18768228549E+03  0.12508984842E+03 0.  0.
         24    2    1    2    0    0  0.42198035250E+01  0.28824280276E+02  0.23196805066E+02  0.88131131715E+02  0.79877147776E+02 0.  0.
        -13    1    5    5    0    0 -0.18287307194E+02  0.28149537411E+02 -0.20244908166E+02  0.39200489379E+02  0.00000000000E+00 0.  1.
         14    1    5    5    0    0  0.22507110719E+02  0.67474286495E+00  0.43441713232E+02  0.48930642336E+02  0.00000000000E+00 0. -1.
         11    1    3    3    0    0  0.21327647992E+01  0.29753746018E+02 -0.35899666588E+03  0.36023386875E+03  0.00000000000E+00 0. -1.
        -12    1    3    3    0    0  0.15886760320E+02  0.30295737953E+02 -0.44009589316E+02  0.55741051688E+02  0.00000000000E+00 0.  1.
          5    1    4    4  501    0  0.80527662271E+01 -0.65989169656E+02  0.85582511407E+01  0.67157528382E+02  0.41800000000E+01 0.  1.
         -5    1    4    4    0  501 -0.30292094871E+02 -0.22884594592E+02 -0.11431285578E+03  0.12052475711E+03  0.41800000000E+01 0.  1.
</event>
<event>
11    1  0.6763327E-009  0.1353638E+03  0.7561462E-02  0.1112849E+00
         22   -1    0    0    0    0  0.00000000000E+00  0.00000000000E+00  0.83227463603E+03  0.83227463603E+03  0.00000000000E+00 0.  1.
         22   -1    0    0    0    0 -0.00000000000E+00 -0.00000000000E+00 -0.35856072514E+03  0.35856072514E+03  0.00000000000E+00 0. -1.
         24    2    1    2    0    0  0.31851272147E+02 -0.10609191276E+02 -0.33000467963E+03  0.34064781615E+03  0.77529269276E+02 0.  0.
         25    2    1    2    0    0 -0.62507368392E+02  0.45477755870E+02  0.26454300068E+03  0.30266497364E+03  0.12509072579E+03 0.  0.
        -24    2    1    2    0    0  0.30656096245E+02 -0.34868564594E+02  0.53917558984E+03  0.54752257138E+03  0.83156698217E+02 0.  0.
        -11    1    3    3    0    0  0.28404690993E+01  0.21686610194E+02 -0.27955863302E+02  0.35495177410E+02  0.00000000000E+00 0.  1.
         12    1    3    3    0    0  0.29010803047E+02 -0.32295801470E+02 -0.30204881633E+03  0.30515263874E+03  0.00000000000E+00 0. -1.
         13    1    5    5    0    0 -0.10470788991E+02 -0.16413533000E+02  0.26573566165E+02  0.32942311795E+02  0.00000000000E+00 0. -1.
        -14    1    5    5    0    0  0.41126885236E+02 -0.18455031594E+02  0.51260202367E+03  0.51458025959E+03  0.00000000000E+00 0.  1.
          5    1    4    4  501    0  0.19049867885E+02  0.59790742464E+02  0.13390623635E+03  0.14793979479E+03  0.41800000000E+01 0.  1.
         -5    1    4    4    0  501 -0.81557236277E+02 -0.14312986593E+02  0.13063676433E+03  0.15472517884E+03  0.41800000000E+01 0.  1.
</event>
<event>
11    1  0.6763327E-009  0.1366240E+03  0.7561462E-02  0.1111388E+00
         22   -1    0    0    0    0  0.00000000000E+00  0.00000000000E+00  0.18407708440E+03  0.18407708440E+03  0.00000000000E+00 0. -1.
         22   -1    0    0    0    0 -0.00000000000E+00 -0.00000000000E+00 -0.59167144533E+03  0.59167144533E+03  0.00000000000E+00 0.  1.
        -24    2    1    2    0    0 -0.48449528558E+02  0.30997913411E+02 -0.43833144824E+03  0.44949258495E+03  0.81245910358E+02 0.  0.
         25    2    1    2    0    0  0.27724002621E+02 -0.30966786422E+02 -0.10428054791E+03  0.16807640105E+03  0.12509069404E+03 0.  0.
         24    2    1    2    0    0  0.20725525937E+02 -0.31126989398E-01  0.13501763522E+03  0.15817954374E+03  0.79758747748E+02 0.  0.
        -13    1    5    5    0    0 -0.15045694594E+02 -0.30601351953E+02  0.43488957519E+02  0.55263958357E+02  0.00000000000E+00 0.  1.
         14    1    5    5    0    0  0.35771220531E+02  0.30570224964E+02  0.91528677701E+02  0.10291558538E+03  0.00000000000E+00 0. -1.
         13    1    3    3    0    0 -0.49783764972E+02  0.25959380748E+02 -0.13623134401E+03  0.14734752048E+03  0.00000000000E+00 0. -1.
        -14    1    3    3    0    0  0.13342364135E+01  0.50385326634E+01 -0.30210010424E+03  0.30214506446E+03  0.00000000000E+00 0.  1.
          5    1    4    4  501    0 -0.22074385122E+02 -0.63966898346E+02 -0.76008931764E+02  0.10185220994E+03  0.41800000000E+01 0.  1.
         -5    1    4    4    0  501  0.49798387742E+02  0.33000111924E+02 -0.28271616143E+02  0.66224191109E+02  0.41800000000E+01 0.  1.
</event>
<event>
11    1  0.1316327E-008  0.1854237E+03  0.7561462E-02  0.1065338E+00
         22   -1    0    0    0    0  0.00000000000E+00  0.00000000000E+00  0.73005646598E+03  0.73005646598E+03  0.00000000000E+00 0. -1.
         22   -1    0    0    0    0 -0.00000000000E+00 -0.00000000000E+00 -0.91734051448E+03  0.91734051448E+03  0.00000000000E+00 0. -1.
         24    2    1    2    0    0  0.49875331943E+02  0.32458258929E+02 -0.69248852454E+03  0.70240988025E+03  0.10148002735E+03 0.  0.
         25    2    1    2    0    0  0.71394938939E+02 -0.98426175313E+02 -0.17450044227E+03  0.24674312210E+03  0.12508722821E+03 0.  0.
        -24    2    1    2    0    0 -0.12127027088E+03  0.65967916383E+02  0.67970491831E+03  0.69824397810E+03  0.80545840307E+02 0.  0.
        -11    1    3    3    0    0  0.70167473550E+02 -0.70042276583E+01 -0.49499688305E+03  0.49999444775E+03  0.00000000000E+00 0.  1.
         12    1    3    3    0    0 -0.20292141606E+02  0.39462486588E+02 -0.19749164149E+03  0.20241543250E+03  0.00000000000E+00 0. -1.
         13    1    5    5    0    0 -0.84392494655E+02  0.81919024128E+02  0.45378370327E+03  0.46877763281E+03  0.00000000000E+00 0. -1.
        -14    1    5    5    0    0 -0.36877776228E+02 -0.15951107744E+02  0.22592121504E+03  0.22946634529E+03  0.00000000000E+00 0.  1.
          5    1    4    4  501    0 -0.70121069018E+01 -0.47532962299E+01  0.17065052393E+02  0.19505175760E+02  0.41800000000E+01 0.  1.
         -5    1    4    4    0  501  0.78407045841E+02 -0.93672879083E+02 -0.19156549466E+03  0.22723794634E+03  0.41800000000E+01 0.  1.
</event>
<event>
11    1  0.6763327E-009  0.2254901E+03  0.7561462E-02  0.1037832E+00
         22   -1    0    0    0    0  0.00000000000E+00  0.00000000000E+00  0.22818065271E+03  0.22818065271E+03  0.00000000000E+00 0. -1.
         22   -1    0    0    0    0 -0.00000000000E+00 -0.00000000000E+00 -0.74337842433E+03  0.74337842433E+03  0.00000000000E+00 0.  1.
         24    2    1    2    0    0  0.11910682585E+02  0.46313332693E+02 -0.52287563977E+03  0.53130078139E+03  0.81208352424E+02 0.  0.
         25    2    1    2    0    0  0.15521587866E+03  0.64887348609E+02 -0.52119328351E+02  0.21602322108E+03  0.12508905092E+03 0.  0.
        -24    2    1    2    0    0 -0.16712656125E+03 -0.11120068130E+03  0.59797196499E+02  0.22423507457E+03  0.80054887198E+02 0.  0.
        -11    1    3    3    0    0  0.37037851442E+02  0.27222787046E+02 -0.44360100114E+03  0.44597615496E+03  0.00000000000E+00 0.  1.
         12    1    3    3    0    0 -0.25127168857E+02  0.19090545647E+02 -0.79274638621E+02  0.85324626436E+02  0.00000000000E+00 0. -1.
         11    1    5    5    0    0 -0.13383345351E+03 -0.79567878270E+02  0.92990711211E+01  0.15597728442E+03  0.00000000000E+00 0. -1.
        -12    1    5    5    0    0 -0.33293107737E+02 -0.31632803032E+02  0.50498125378E+02  0.68257790157E+02  0.00000000000E+00 0.  1.
          5    1    4    4  501    0  0.46035835926E+02  0.35607002764E+02  0.39496837247E+02  0.70460126226E+02  0.41800000000E+01 0. -1.
         -5    1    4    4    0  501  0.10918004274E+03  0.29280345845E+02 -0.91616165599E+02  0.14556309485E+03  0.41800000000E+01 0. -1.
</event>
<event>
11    1  0.6763327E-009  0.1625584E+03  0.7561462E-02  0.1084695E+00
         22   -1    0    0    0    0  0.00000000000E+00  0.00000000000E+00  0.41087383815E+03  0.41087383815E+03  0.00000000000E+00 0. -1.
         22   -1    0    0    0    0 -0.00000000000E+00 -0.00000000000E+00 -0.70993911554E+03  0.70993911554E+03  0.00000000000E+00 0. -1.
        -24    2    1    2    0    0  0.35105696017E+02  0.48656892874E+01 -0.58408371599E+03  0.59073940749E+03  0.81013427619E+02 0.  0.
         25    2    1    2    0    0  0.54501388994E+01  0.92635981458E+02 -0.54921386067E+02  0.16515242561E+03  0.12509131050E+03 0.  0.
         24    2    1    2    0    0 -0.40555834917E+02 -0.97501670746E+02  0.33993982466E+03  0.36492112059E+03  0.80355387617E+02 0.  0.
        -13    1    5    5    0    0 -0.26554308780E+02 -0.53940998782E+02  0.75314882811E+02  0.96369571117E+02  0.00000000000E+00 0.  1.
         14    1    5    5    0    0 -0.14001526136E+02 -0.43560671963E+02  0.26462494185E+03  0.26855154947E+03  0.00000000000E+00 0. -1.
         13    1    3    3    0    0  0.23308167648E+02 -0.21660882815E+02 -0.51258089219E+03  0.51356755696E+03  0.00000000000E+00 0. -1.
        -14    1    3    3    0    0  0.11797528369E+02  0.26526572102E+02 -0.71502823791E+02  0.77171850523E+02  0.00000000000E+00 0.  1.
          5    1    4    4  501    0 -0.21326600338E+02  0.94714354878E+02  0.71019118697E+01  0.97434811305E+02  0.41800000000E+01 0. -1.
         -5    1    4    4    0  501  0.26776739237E+02 -0.20783734195E+01 -0.62023297936E+02  0.67717614305E+02  0.41800000000E+01 0. -1.
</event>
<event>
11    1  0.6763327E-009  0.1565553E+03  0.7561462E-02  0.1090363E+00
         22   -1    0    0    0    0  0.00000000000E+00  0.00000000000E+00  0.38715132324E+03  0.38715132324E+03  0.00000000000E+00 0. -1.
         22   -1    0    0    0    0 -0.00000000000E+00 -0.00000000000E+00 -0.25689058845E+04  0.25689058845E+04  0.00000000000E+00 0.  1.
         24    2    1    2    0    0 -0.19655195995E+02 -0.91702385903E+02 -0.24922036723E+04  0.24953695002E+04  0.83630999725E+02 0.  0.
         25    2    1    2    0    0 -0.16660493392E+02  0.12831947626E+03  0.56569203776E+02  0.18865209832E+03  0.12508428901E+03 0.  0.
        -24    2    1    2    0    0  0.36315689387E+02 -0.36617090354E+02  0.25387990727E+03  0.27203560920E+03  0.82998341906E+02 0.  0.
        -13    1    3    3    0    0 -0.29458965233E+02 -0.10107841689E+03 -0.23832748378E+04  0.23855992181E+04  0.00000000000E+00 0.  1.
         14    1    3    3    0    0  0.98037692380E+01  0.93760309846E+01 -0.10892883452E+03  0.10977028212E+03  0.00000000000E+00 0. -1.
         11    1    5    5    0    0  0.71154830767E-01 -0.11812331160E+02  0.20867270001E+03  0.20900677491E+03  0.00000000000E+00 0. -1.
        -12    1    5    5    0    0  0.36244534556E+02 -0.24804759194E+02  0.45207207255E+02  0.63028834288E+02  0.00000000000E+00 0.  1.
          5    1    4    4  501    0  0.20592770775E+02  0.13226891059E+03  0.66703022552E+02  0.14961915831E+03  0.41800000000E+01 0. -1.
         -5    1    4    4    0  501 -0.37253264167E+02 -0.39494343333E+01 -0.10133818775E+02  0.39032940007E+02  0.41800000000E+01 0. -1.
</event>
<event>
11    1  0.6763327E-009  0.1532843E+03  0.7561462E-02  0.1093569E+00
         22   -1    0    0    0    0  0.00000000000E+00  0.00000000000E+00  0.28413137481E+03  0.28413137481E+03  0.00000000000E+00 0.  1.
         22   -1    0    0    0    0 -0.00000000000E+00 -0.00000000000E+00 -0.46680320982E+03  0.46680320982E+03  0.00000000000E+00 0. -1.
         24    2    1    2    0    0  0.89305966050E+02 -0.21211322961E+01 -0.38260161080E+03  0.40107758500E+03  0.80617503208E+02 0.  0.
         25    2    1    2    0    0 -0.76384705710E+02  0.67116996109E+02  0.52687819806E+02  0.16959191299E+03  0.12508435619E+03 0.  0.
        -24    2    1    2    0    0 -0.12921260340E+02 -0.64995863813E+02  0.14724195599E+03  0.18026508663E+03  0.80149152053E+02 0.  0.
        -13    1    3    3    0    0 -0.97988042778E+01  0.16137546679E+02 -0.77409153501E+02  0.79678190390E+02  0.00000000000E+00 0.  1.
         14    1    3    3    0    0  0.99104770328E+02 -0.18258678975E+02 -0.30519245730E+03  0.32139939461E+03  0.00000000000E+00 0. -1.
         13    1    5    5    0    0  0.30990406313E+01  0.86491349796E+01 -0.49483378665E+01  0.10435403029E+02  0.00000000000E+00 0. -1.
        -14    1    5    5    0    0 -0.16020300971E+02 -0.73644998793E+02  0.15219029385E+03  0.16982968361E+03  0.00000000000E+00 0.  1.
          5    1    4    4  501    0  0.54812402421E+01 -0.25238804728E+02  0.36704239207E+02  0.45074547524E+02  0.41800000000E+01 0.  1.
         -5    1    4    4    0  501 -0.81865945952E+02  0.92355800837E+02  0.15983580599E+02  0.12451736547E+03  0.41800000000E+01 0.  1.
</event>
<event>
11    1  0.6763327E-009  0.1745285E+03  0.7561462E-02  0.1074157E+00
         22   -1    0    0    0    0  0.00000000000E+00  0.00000000000E+00  0.66755197213E+03  0.66755197213E+03  0.00000000000E+00 0. -1.
         22   -1    0    0    0    0 -0.00000000000E+00 -0.00000000000E+00 -0.15935469610E+04  0.15935469610E+04  0.00000000000E+00 0.  1.
         24    2    1    2    0    0  0.24258433276E+02  0.11886094348E+03 -0.15516391845E+04  0.15584484635E+04  0.80380714558E+02 0.  0.
         25    2    1    2    0    0  0.67921260760E+01 -0.16990522216E+03  0.34711993620E+03  0.40626899087E+03  0.12509326656E+03 0.  0.
        -24    2    1    2    0    0 -0.31050559352E+02  0.51044278674E+02  0.27852425934E+03  0.29638147877E+03  0.81832525894E+02 0.  0.
        -11    1    3    3    0    0 -0.18913851248E+02  0.92906211500E+02 -0.10628162651E+04  0.10670368838E+04  0.00000000000E+00 0.  1.
         12    1    3    3    0    0  0.43172284524E+02  0.25954731983E+02 -0.48882291933E+03  0.49141157976E+03  0.00000000000E+00 0. -1.
         13    1    5    5    0    0  0.11214723289E+02 -0.15267635741E+02  0.92492530672E+02  0.94412599528E+02  0.00000000000E+00 0. -1.
        -14    1    5    5    0    0 -0.42265282641E+02  0.66311914415E+02  0.18603172867E+03  0.20196887924E+03  0.00000000000E+00 0.  1.
          5    1    4    4  501    0  0.41240819475E+02 -0.12622510255E+03  0.31505917597E+03  0.34192592542E+03  0.41800000000E+01 0.  1.
         -5    1    4    4    0  501 -0.34448693399E+02 -0.43680119603E+02  0.32060760227E+02  0.64343065452E+02  0.41800000000E+01 0.  1.
</event>
<event>
11    1  0.6763327E-009  0.1779768E+03  0.7561462E-02  0.1071291E+00
         22   -1    0    0    0    0  0.00000000000E+00  0.00000000000E+00  0.99978636032E+03  0.99978636032E+03  0.00000000000E+00 0.  1.
         22   -1    0    0    0    0 -0.00000000000E+00 -0.00000000000E+00 -0.24902018619E+03  0.24902018619E+03  0.00000000000E+00 0.  1.
         24    2    1    2    0    0  0.11724584200E+03  0.43248106455E+02 -0.13857648061E+03  0.20209479558E+03  0.77600768317E+02 0.  0.
         25    2    1    2    0    0 -0.12439114974E+03 -0.44777142337E+02  0.30951359020E+02  0.18460953640E+03  0.12507815036E+03 0.  0.
        -24    2    1    2    0    0  0.71453077372E+01  0.15290358817E+01  0.85839129572E+03  0.86210221452E+03  0.79568953419E+02 0.  0.
        -11    1    3    3    0    0  0.67458314735E+02 -0.20912134192E+01 -0.10975995677E+03  0.12884970124E+03  0.00000000000E+00 0.  1.
         12    1    3    3    0    0  0.49787527270E+02  0.45339319875E+02 -0.28816523842E+02  0.73245094339E+02  0.00000000000E+00 0. -1.
         11    1    5    5    0    0  0.28694621446E+02 -0.16094028327E+02  0.17034450657E+03  0.17349250695E+03  0.00000000000E+00 0. -1.
        -12    1    5    5    0    0 -0.21549313708E+02  0.17623064209E+02  0.68804678914E+03  0.68860970757E+03  0.00000000000E+00 0.  1.
          5    1    4    4  501    0 -0.11891377777E+03 -0.67193996504E+02  0.58314370389E+02  0.14857172646E+03  0.41800000000E+01 0.  1.
         -5    1    4    4    0  501 -0.54773719738E+01  0.22416854167E+02 -0.27363011369E+02  0.36037809945E+02  0.41800000000E+01 0.  1.
</event>
<event>
11    1  0.6763327E-009  0.1460632E+03  0.7561462E-02  0.1100971E+00
         22   -1    0    0    0    0  0.00000000000E+00  0.00000000000E+00  0.57117736717E+03  0.57117736717E+03  0.00000000000E+00 0.  1.
         22   -1    0    0    0    0 -0.00000000000E+00 -0.00000000000E+00 -0.53605357419E+03  0.53605357419E+03  0.00000000000E+00 0. -1.
        -24    2    1    2    0    0  0.72355031443E+02  0.10225518974E+02 -0.43802198117E+03  0.45127866289E+03  0.80307930980E+02 0.  0.
         25    2    1    2    0    0 -0.10321674609E+03  0.35068389162E+01 -0.12667630303E+02  0.16270783644E+03  0.12508947433E+03 0.  0.
         24    2    1    2    0    0  0.30861714646E+02 -0.13732357890E+02  0.48581340445E+03  0.49324444202E+03  0.78322363085E+02 0.  0.
        -11    1    5    5    0    0  0.46278728190E+02 -0.22710949966E+02  0.45274352318E+03  0.45566896506E+03  0.00000000000E+00 0.  1.
         12    1    5    5    0    0 -0.15417013544E+02  0.89785920761E+01  0.33069881266E+02  0.37575476966E+02  0.00000000000E+00 0. -1.
         11    1    3    3    0    0  0.58083059781E+02  0.38413542373E+02 -0.36696749162E+03  0.37351624058E+03  0.00000000000E+00 0. -1.
        -12    1    3    3    0    0  0.14271971662E+02 -0.28188023399E+02 -0.71054489547E+02  0.77762422307E+02  0.00000000000E+00 0.  1.
          5    1    4    4  501    0 -0.16515149882E+02 -0.14820879333E+02  0.49480378357E+02  0.54389234984E+02  0.41800000000E+01 0.  1.
         -5    1    4    4    0  501 -0.86701596208E+02  0.18327718249E+02 -0.62148008660E+02  0.10831860146E+03  0.41800000000E+01 0.  1.
</event>
<event>
11    1  0.6763327E-009  0.1594225E+03  0.7561462E-02  0.1087622E+00
         22   -1    0    0    0    0  0.00000000000E+00  0.00000000000E+00  0.31105050289E+03  0.31105050289E+03  0.00000000000E+00 0. -1.
         22   -1    0    0    0    0 -0.00000000000E+00 -0.00000000000E+00 -0.13187240897E+04  0.13187240897E+04  0.00000000000E+00 0. -1.
         24    2    1    2    0    0 -0.79604637524E+02 -0.46236487105E+02 -0.86221428574E+03  0.87067413808E+03  0.78646482103E+02 0.  0.
         25    2    1    2    0    0  0.12452190121E+03  0.39504921672E+02 -0.42658983612E+03  0.46334913639E+03  0.12508873329E+03 0.  0.
        -24    2    1    2    0    0 -0.44917263683E+02  0.67315654322E+01  0.28113053503E+03  0.29575131814E+03  0.79822239408E+02 0.  0.
        -13    1    3    3    0    0  0.99034640056E+01  0.66936839311E+01 -0.19885126740E+03  0.19921021698E+03  0.00000000000E+00 0.  1.
         14    1    3    3    0    0 -0.89508101529E+02 -0.52930171036E+02 -0.66336301834E+03  0.67146392110E+03  0.00000000000E+00 0. -1.
         11    1    5    5    0    0  0.13488311044E+02  0.26317456723E+02  0.10853970354E+03  0.11249626797E+03  0.00000000000E+00 0. -1.
        -12    1    5    5    0    0 -0.58405574726E+02 -0.19585891290E+02  0.17259083149E+03  0.18325505017E+03  0.00000000000E+00 0.  1.
          5    1    4    4  501    0  0.13689018816E+03  0.54532419364E+02 -0.28999164863E+03  0.32530806484E+03  0.41800000000E+01 0. -1.
         -5    1    4    4    0  501 -0.12368286950E+02 -0.15027497691E+02 -0.13659818748E+03  0.13804107154E+03  0.41800000000E+01 0. -1.
</event>
<event>
11    1  0.6763327E-009  0.1736623E+03  0.7561462E-02  0.1074888E+00
         22   -1    0    0    0    0  0.00000000000E+00  0.00000000000E+00  0.11477603504E+04  0.11477603504E+04  0.00000000000E+00 0. -1.
         22   -1    0    0    0    0 -0.00000000000E+00 -0.00000000000E+00 -0.10933068122E+04  0.10933068122E+04  0.00000000000E+00 0.  1.
        -24    2    1    2    0    0  0.31791670931E+02  0.32115544068E+02 -0.10340524000E+04  0.10377350858E+04  0.74750411092E+02 0.  0.
         25    2    1    2    0    0 -0.61644018508E+02  0.86739190063E+02  0.77248044864E+02  0.18150138961E+03  0.12510724154E+03 0.  0.
         24    2    1    2    0    0  0.29852347578E+02 -0.11885473413E+03  0.10112578933E+04  0.10218306871E+04  0.80484879792E+02 0.  0.
        -13    1    5    5    0    0  0.47481812245E+02 -0.52868132321E+02  0.35600651721E+03  0.36302920297E+03  0.00000000000E+00 0.  1.
         14    1    5    5    0    0 -0.17629464668E+02 -0.65986601810E+02  0.65525137612E+03  0.65880148417E+03  0.00000000000E+00 0. -1.
         11    1    3    3    0    0 -0.13370054043E+02 -0.38340940259E+01 -0.47476438906E+02  0.49471920049E+02  0.00000000000E+00 0. -1.
        -12    1    3    3    0    0  0.45161724974E+02  0.35949638094E+02 -0.98657596109E+03  0.98826316580E+03  0.00000000000E+00 0.  1.
          5    1    4    4  501    0 -0.28669136263E+02 -0.20149743205E+02 -0.13108321391E+02  0.37646142100E+02  0.41800000000E+01 0.  1.
         -5    1    4    4    0  501 -0.32974882245E+02  0.10688893327E+03  0.90356366255E+02  0.14385524751E+03  0.41800000000E+01 0.  1.
</event>
<event>
11    1  0.6763327E-009  0.1315577E+03  0.7561462E-02  0.1117370E+00
         22   -1    0    0    0    0  0.00000000000E+00  0.00000000000E+00  0.41199277263E+03  0.41199277263E+03  0.00000000000E+00 0. -1.
         22   -1    0    0    0    0 -0.00000000000E+00 -0.00000000000E+00 -0.58087760179E+03  0.58087760179E+03  0.00000000000E+00 0. -1.
        -24    2    1    2    0    0  0.36448990586E+01 -0.39881456717E+02 -0.45557193309E+03  0.46453924461E+03  0.81529796336E+02 0.  0.
         25    2    1    2    0    0 -0.44734275071E+02  0.41344655547E+02 -0.73259408093E+02  0.15724249435E+03  0.12509086796E+03 0.  0.
         24    2    1    2    0    0  0.41089376013E+02 -0.14631988308E+01  0.35994651202E+03  0.37108863546E+03  0.80341807811E+02 0.  0.
        -13    1    5    5    0    0 -0.22088945891E+02  0.63576316846E+01  0.14844719930E+03  0.15021621747E+03  0.00000000000E+00 0.  1.
         14    1    5    5    0    0  0.63178321904E+02 -0.78208305154E+01  0.21149931271E+03  0.22087241799E+03  0.00000000000E+00 0. -1.
         13    1    3    3    0    0  0.13004649822E+01 -0.41261014705E+00 -0.37286424511E+03  0.37286674126E+03  0.00000000000E+00 0. -1.
        -14    1    3    3    0    0  0.23444340764E+01 -0.39468846570E+02 -0.82707687978E+02  0.91672503355E+02  0.00000000000E+00 0.  1.
          5    1    4    4  501    0  0.29024480317E+02  0.35634463770E+02  0.84749797508E+01  0.46920498160E+02  0.41800000000E+01 0.  1.
         -5    1    4    4    0  501 -0.73758755388E+02  0.57101917778E+01 -0.81734387844E+02  0.11032199619E+03  0.41800000000E+01 0.  1.
</event>
<event>
11    1  0.6763327E-009  0.1575441E+03  0.7561462E-02  0.1089410E+00
         22   -1    0    0    0    0  0.00000000000E+00  0.00000000000E+00  0.64075176319E+03  0.64075176319E+03  0.00000000000E+00 0. -1.
         22   -1    0    0    0    0 -0.00000000000E+00 -0.00000000000E+00 -0.49173323756E+03  0.49173323756E+03  0.00000000000E+00 0.  1.
         24    2    1    2    0    0  0.67959623853E+02  0.82278826963E+02 -0.42446485191E+03  0.44473014358E+03  0.78906110395E+02 0.  0.
         25    2    1    2    0    0 -0.68770439208E+02  0.25037038049E+02  0.59157846259E+02  0.15653755108E+03  0.12509247596E+03 0.  0.
        -24    2    1    2    0    0  0.81081535532E+00 -0.10731586501E+03  0.51432553129E+03  0.53121730609E+03  0.78381897437E+02 0.  0.
        -11    1    3    3    0    0 -0.21134428804E+00  0.11865968156E+02 -0.19308845079E+03  0.19345282550E+03  0.00000000000E+00 0.  1.
         12    1    3    3    0    0  0.68170968141E+02  0.70412858807E+02 -0.23137640112E+03  0.25127731808E+03  0.00000000000E+00 0. -1.
         13    1    5    5    0    0 -0.37280062288E+02 -0.70528506732E+02  0.32195309122E+03  0.33168941233E+03  0.00000000000E+00 0. -1.
        -14    1    5    5    0    0  0.38090877643E+02 -0.36787358280E+02  0.19237244007E+03  0.19952789376E+03  0.00000000000E+00 0.  1.
          5    1    4    4  501    0  0.18310105088E+02  0.50001257982E+02  0.30108379152E+02  0.61313723123E+02  0.41800000000E+01 0. -1.
         -5    1    4    4    0  501 -0.87080544296E+02 -0.24964219933E+02  0.29049467107E+02  0.95223827958E+02  0.41800000000E+01 0. -1.
</event>
<event>
11    1  0.6763327E-009  0.1984854E+03  0.7561462E-02  0.1055600E+00
         22   -1    0    0    0    0  0.00000000000E+00  0.00000000000E+00  0.56593170472E+03  0.56593170472E+03  0.00000000000E+00 0. -1.
         22   -1    0    0    0    0 -0.00000000000E+00 -0.00000000000E+00 -0.20985326984E+04  0.20985326984E+04  0.00000000000E+00 0.  1.
         24    2    1    2    0    0  0.11707342436E+03 -0.12988936322E+02 -0.77915673723E+03  0.79204885301E+03  0.79882821815E+02 0.  0.
         25    2    1    2    0    0 -0.22572441747E+03  0.17409227709E+02 -0.12918348445E+04  0.13174746314E+04  0.12509014752E+03 0.  0.
        -24    2    1    2    0    0  0.10865099312E+03 -0.44202913868E+01  0.53839058806E+03  0.55494091873E+03  0.79185987922E+02 0.  0.
        -13    1    3    3    0    0  0.38263326585E+02 -0.12052673805E+02 -0.51038847333E+03  0.51196263810E+03  0.00000000000E+00 0.  1.
         14    1    3    3    0    0  0.78810097773E+02 -0.93626251690E+00 -0.26876826391E+03  0.28008621491E+03  0.00000000000E+00 0. -1.
         13    1    5    5    0    0  0.43274373392E+02 -0.61904744791E+01  0.39414174816E+03  0.39655858459E+03  0.00000000000E+00 0. -1.
        -14    1    5    5    0    0  0.65376619724E+02  0.17701830923E+01  0.14424883990E+03  0.15838233414E+03  0.00000000000E+00 0.  1.
          5    1    4    4  501    0 -0.19442982871E+03  0.15817763886E+02 -0.12494811957E+04  0.12646240116E+04  0.41800000000E+01 0.  1.
         -5    1    4    4    0  501 -0.31294588761E+02  0.15914638229E+01 -0.42353648813E+02  0.52850619775E+02  0.41800000000E+01 0.  1.
</event>
<event>
11    1  0.6763327E-009  0.1335563E+03  0.7561462E-02  0.1114975E+00
         22   -1    0    0    0    0  0.00000000000E+00  0.00000000000E+00  0.31391641198E+03  0.31391641198E+03  0.00000000000E+00 0.  1.
         22   -1    0    0    0    0 -0.00000000000E+00 -0.00000000000E+00 -0.42098111473E+03  0.42098111473E+03  0.00000000000E+00 0. -1.
        -24    2    1    2    0    0 -0.17403295031E+02 -0.21428597387E+01 -0.34800470591E+03  0.35714193197E+03  0.78330183897E+02 0.  0.
         25    2    1    2    0    0  0.42108811587E+02  0.40294746621E+02  0.18639487836E+02  0.13924821702E+03  0.12508323955E+03 0.  0.
         24    2    1    2    0    0 -0.24705516556E+02 -0.38151886882E+02  0.22230051533E+03  0.23850737772E+03  0.73500483615E+02 0.  0.
        -11    1    5    5    0    0  0.25941488720E+01 -0.47335982154E+02  0.18716099111E+03  0.19307164838E+03  0.00000000000E+00 0.  1.
         12    1    5    5    0    0 -0.27299665428E+02  0.91840952715E+01  0.35139524210E+02  0.45435729335E+02  0.00000000000E+00 0. -1.
         13    1    3    3    0    0 -0.30148297602E+02 -0.35901414202E+01 -0.34133865049E+03  0.34268627530E+03  0.00000000000E+00 0. -1.
        -14    1    3    3    0    0  0.12745002571E+02  0.14472816815E+01 -0.66660554235E+01  0.14455656668E+02  0.00000000000E+00 0.  1.
          5    1    4    4  501    0 -0.17442251962E+02  0.46513379869E+02 -0.33236985347E+02  0.59915742967E+02  0.41800000000E+01 0.  1.
         -5    1    4    4    0  501  0.59551063548E+02 -0.62186332477E+01  0.51876473183E+02  0.79332474051E+02  0.41800000000E+01 0.  1.
</event>
<event>
11    1  0.6763327E-009  0.2113912E+03  0.7561462E-02  0.1046748E+00
         22   -1    0    0    0    0  0.00000000000E+00  0.00000000000E+00  0.67907131389E+03  0.67907131389E+03  0.00000000000E+00 0.  1.
         22   -1    0    0    0    0 -0.00000000000E+00 -0.00000000000E+00 -0.81574931671E+03  0.81574931671E+03  0.00000000000E+00 0.  1.
         24    2    1    2    0    0  0.15339435775E+03 -0.73084411189E+02 -0.70583289105E+03  0.73100758952E+03  0.85445103411E+02 0.  0.
         25    2    1    2    0    0 -0.13585166956E+03  0.12137540219E+03  0.37899667162E+02  0.22421406419E+03  0.12509155618E+03 0.  0.
        -24    2    1    2    0    0 -0.17542688190E+02 -0.48290991006E+02  0.53125522107E+03  0.53959897689E+03  0.79342171831E+02 0.  0.
        -13    1    3    3    0    0  0.13695411472E+03 -0.71849776827E+02 -0.69318519974E+03  0.71022851330E+03  0.00000000000E+00 0.  1.
         14    1    3    3    0    0  0.16440243029E+02 -0.12346343625E+01 -0.12647691307E+02  0.20779076213E+02  0.00000000000E+00 0. -1.
         13    1    5    5    0    0 -0.15387083322E+02  0.19091763793E+02  0.92519056871E+02  0.95713288849E+02  0.00000000000E+00 0. -1.
        -14    1    5    5    0    0 -0.21556048682E+01 -0.67382754799E+02  0.43873616420E+03  0.44388568804E+03  0.00000000000E+00 0.  1.
          5    1    4    4  501    0 -0.29762069342E+02  0.45199653839E+02 -0.44106955415E+02  0.69940584746E+02  0.41800000000E+01 0.  1.
         -5    1    4    4    0  501 -0.10608960022E+03  0.76175748356E+02  0.82006622577E+02  0.15427347944E+03  0.41800000000E+01 0.  1.
</event>
<event>
11    1  0.6763327E-009  0.1891506E+03  0.7561462E-02  0.1062472E+00
         22   -1    0    0    0    0  0.00000000000E+00  0.00000000000E+00  0.61790777167E+02  0.61790777167E+02  0.00000000000E+00 0.  1.
         22   -1    0    0    0    0 -0.00000000000E+00 -0.00000000000E+00 -0.21058212717E+04  0.21058212717E+04  0.00000000000E+00 0. -1.
        -24    2    1    2    0    0  0.10543025344E+00  0.96632073076E+02 -0.11639172045E+04  0.11705358667E+04  0.78186876173E+02 0.  0.
         25    2    1    2    0    0  0.11830205839E+03 -0.15956885567E+03 -0.77296047170E+03  0.80781964609E+03  0.12508834111E+03 0.  0.
         24    2    1    2    0    0 -0.11840748865E+03  0.62936782597E+02 -0.10715281830E+03  0.18925653605E+03  0.79717864986E+02 0.  0.
        -11    1    5    5    0    0 -0.12712456734E+03  0.54993049065E+02 -0.80725035813E+02  0.16031663193E+03  0.00000000000E+00 0.  1.
         12    1    5    5    0    0  0.87170786938E+01  0.79437335319E+01 -0.26427782486E+02  0.28939904120E+02  0.00000000000E+00 0. -1.
         11    1    3    3    0    0  0.13294761356E+02  0.10128257853E+02 -0.56628953790E+03  0.56653611802E+03  0.00000000000E+00 0. -1.
        -12    1    3    3    0    0 -0.13189331102E+02  0.86503815223E+02 -0.59762766664E+03  0.60399974871E+03  0.00000000000E+00 0.  1.
          5    1    4    4  501    0  0.10794518520E+03 -0.79431522233E+02 -0.30872722935E+03  0.33658803347E+03  0.41800000000E+01 0. -1.
         -5    1    4    4    0  501  0.10356873191E+02 -0.80137333440E+02 -0.46423324235E+03  0.47123161262E+03  0.41800000000E+01 0. -1.
</event>
<event>
11    1  0.6763327E-009  0.1818260E+03  0.7561462E-02  0.1068175E+00
         22   -1    0    0    0    0  0.00000000000E+00  0.00000000000E+00  0.30681078448E+04  0.30681078448E+04  0.00000000000E+00 0. -1.
         22   -1    0    0    0    0 -0.00000000000E+00 -0.00000000000E+00 -0.33758765513E+03  0.33758765513E+03  0.00000000000E+00 0. -1.
         24    2    1    2    0    0 -0.30466767765E+02  0.12331141357E+02 -0.25600129123E+03  0.27044600336E+03  0.80771892612E+02 0.  0.
         25    2    1    2    0    0 -0.58063062116E+02  0.86550348811E+02  0.19040301413E+02  0.16392687561E+03  0.12508879010E+03 0.  0.
        -24    2    1    2    0    0  0.88529829881E+02 -0.98881490168E+02  0.29674811795E+04  0.29713226210E+04  0.72100535622E+02 0.  0.
        -11    1    3    3    0    0 -0.12807701376E+02 -0.27603989152E+02 -0.41019809481E+02  0.51074868591E+02  0.00000000000E+00 0.  1.
         12    1    3    3    0    0 -0.17659066389E+02  0.39935130510E+02 -0.21498148175E+03  0.21937113477E+03  0.00000000000E+00 0. -1.
         11    1    5    5    0    0  0.78409643688E+02 -0.10462379949E+03  0.28916152994E+04  0.28945696142E+04  0.00000000000E+00 0. -1.
        -12    1    5    5    0    0  0.10120186192E+02  0.57423093201E+01  0.75865880146E+02  0.76753006816E+02  0.00000000000E+00 0.  1.
          5    1    4    4  501    0  0.14741955749E+02  0.27185028746E+02 -0.41624202526E+02  0.52023049537E+02  0.41800000000E+01 0. -1.
         -5    1    4    4    0  501 -0.72805017864E+02  0.59365320065E+02  0.60664503938E+02  0.11190382608E+03  0.41800000000E+01 0. -1.
</event>
<event>
11    1  0.6763327E-009  0.1432362E+03  0.7561462E-02  0.1103998E+00
         22   -1    0    0    0    0  0.00000000000E+00  0.00000000000E+00  0.92647016767E+03  0.92647016767E+03  0.00000000000E+00 0.  1.
         22   -1    0    0    0    0 -0.00000000000E+00 -0.00000000000E+00 -0.76914576577E+02  0.76914576577E+02  0.00000000000E+00 0.  1.
        -24    2    1    2    0    0 -0.38368073178E+02 -0.54387021894E+01 -0.11962305036E+02  0.93113195324E+02  0.83816954614E+02 0.  0.
         25    2    1    2    0    0  0.23760628768E+02  0.73774538972E+02  0.25453919927E+03  0.29402109530E+03  0.12510375867E+03 0.  0.
         24    2    1    2    0    0  0.14607444409E+02 -0.68335836783E+02  0.60697869686E+03  0.61625045363E+03  0.80363667993E+02 0.  0.
        -11    1    5    5    0    0  0.17188951045E+01 -0.80891159087E+02  0.37780619438E+03  0.38637268890E+03  0.00000000000E+00 0.  1.
         12    1    5    5    0    0  0.12888549305E+02  0.12555322305E+02  0.22917250248E+03  0.22987776472E+03  0.00000000000E+00 0. -1.
         11    1    3    3    0    0 -0.10026475016E+01 -0.36406907293E+02  0.12832892352E+02  0.38615428610E+02  0.00000000000E+00 0. -1.
        -12    1    3    3    0    0 -0.37365425676E+02  0.30968205103E+02 -0.24795197388E+02  0.54497766714E+02  0.00000000000E+00 0.  1.
          5    1    4    4  501    0  0.10910354076E+02  0.14516137823E+02 -0.10983943947E+02  0.21630383908E+02  0.41800000000E+01 0.  1.
         -5    1    4    4    0  501  0.12850274692E+02  0.59258401149E+02  0.26552314322E+03  0.27239071139E+03  0.41800000000E+01 0.  1.
</event>
<event>
11    1  0.6763327E-009  0.1898434E+03  0.7561462E-02  0.1061948E+00
         22   -1    0    0    0    0  0.00000000000E+00  0.00000000000E+00  0.14873596545E+04  0.14873596545E+04  0.00000000000E+00 0. -1.
         22   -1    0    0    0    0 -0.00000000000E+00 -0.00000000000E+00 -0.58785443272E+02  0.58785443272E+02  0.00000000000E+00 0.  1.
        -24    2    1    2    0    0  0.55488102592E+00 -0.56434363361E+02  0.57111692609E+02  0.10957814093E+03  0.74568614555E+02 0.  0.
         25    2    1    2    0    0 -0.12635903248E+03  0.11236623220E+03  0.40010277990E+03  0.45202088549E+03  0.12509145137E+03 0.  0.
         24    2    1    2    0    0  0.12580415145E+03 -0.55931868837E+02  0.97135973869E+03  0.98454607133E+03  0.82681111136E+02 0.  0.
        -13    1    5    5    0    0  0.21570544553E+02 -0.47726354558E+02  0.23256827473E+03  0.23839273421E+03  0.00000000000E+00 0.  1.
         14    1    5    5    0    0  0.10423360690E+03 -0.82055142787E+01  0.73879146396E+03  0.74615333712E+03  0.00000000000E+00 0. -1.
         13    1    3    3    0    0  0.80595227574E+01 -0.48838012315E+02  0.74338507318E+02  0.89310251507E+02  0.00000000000E+00 0. -1.
        -14    1    3    3    0    0 -0.75046417315E+01 -0.75963510462E+01 -0.17226814710E+02  0.20267889426E+02  0.00000000000E+00 0.  1.
          5    1    4    4  501    0 -0.64618069373E+02 -0.16530705610E+02  0.14264694679E+03  0.15752581676E+03  0.41800000000E+01 0. -1.
         -5    1    4    4    0  501 -0.61740963103E+02  0.12889693781E+03  0.25745583312E+03  0.29449506873E+03  0.41800000000E+01 0. -1.
</event>
<event>
11    1  0.6763327E-009  0.1424391E+03  0.7561462E-02  0.1104865E+00
         22   -1    0    0    0    0  0.00000000000E+00  0.00000000000E+00  0.29366883268E+03  0.29366883268E+03  0.00000000000E+00 0.  1.
         22   -1    0    0    0    0 -0.00000000000E+00 -0.00000000000E+00 -0.39530881998E+03  0.39530881998E+03  0.00000000000E+00 0.  1.
         24    2    1    2    0    0  0.34245523940E+02  0.58774181035E+01 -0.29326350503E+03  0.30551097525E+03  0.78269870716E+02 0.  0.
         25    2    1    2    0    0  0.15408500499E+02  0.45381416907E+02 -0.31759875186E+02  0.13766897394E+03  0.12508861589E+03 0.  0.
        -24    2    1    2    0    0 -0.49654024439E+02 -0.51258835011E+02  0.22338339291E+03  0.24579770348E+03  0.73643604591E+02 0.  0.
        -11    1    3    3    0    0  0.37901719833E+02  0.11048544645E+02 -0.29599333663E+03  0.29861457773E+03  0.00000000000E+00 0.  1.
         12    1    3    3    0    0 -0.36561958928E+01 -0.51711265418E+01  0.27298316015E+01  0.68963975154E+01  0.00000000000E+00 0. -1.
         13    1    5    5    0    0 -0.15999662249E+02 -0.64417186624E+02  0.14787980120E+03  0.16209256222E+03  0.00000000000E+00 0. -1.
        -14    1    5    5    0    0 -0.33654362190E+02  0.13158351613E+02  0.75503591707E+02  0.83705141253E+02  0.00000000000E+00 0.  1.
          5    1    4    4  501    0 -0.30710959076E+01  0.83870264340E+02  0.43647251687E+00  0.84031635584E+02  0.41800000000E+01 0. -1.
         -5    1    4    4    0  501  0.18479596406E+02 -0.38488847433E+02 -0.32196347703E+02  0.53637338352E+02  0.41800000000E+01 0. -1.
</event>
<event>
11    1  0.6763327E-009  0.2304996E+03  0.7561462E-02  0.1034833E+00
         22   -1    0    0    0    0  0.00000000000E+00  0.00000000000E+00  0.38096732178E+03  0.38096732178E+03  0.00000000000E+00 0. -1.
         22   -1    0    0    0    0 -0.00000000000E+00 -0.00000000000E+00 -0.67097835969E+03  0.67097835969E+03  0.00000000000E+00 0.  1.
         24    2    1    2    0    0 -0.31708730888E+02 -0.20319148454E+02 -0.48677336692E+03  0.49496642775E+03  0.81394978081E+02 0.  0.
         25    2    1    2    0    0  0.98187528438E+01 -0.17714759252E+03 -0.57014250257E+02  0.22444659755E+03  0.12509185816E+03 0.  0.
        -24    2    1    2    0    0  0.21889978044E+02  0.19746674097E+03  0.25377657926E+03  0.33253265617E+03  0.81872646880E+02 0.  0.
        -11    1    3    3    0    0  0.78477282998E+01  0.34650189583E+01 -0.35916009618E+03  0.35926253337E+03  0.00000000000E+00 0.  1.
         12    1    3    3    0    0 -0.39556459188E+02 -0.23784167412E+02 -0.12761327073E+03  0.13570389438E+03  0.00000000000E+00 0. -1.
         11    1    5    5    0    0 -0.21100110069E+02  0.14708614111E+03  0.17923364121E+03  0.23281805276E+03  0.00000000000E+00 0. -1.
        -12    1    5    5    0    0  0.42990088113E+02  0.50380599861E+02  0.74542938049E+02  0.99714603401E+02  0.00000000000E+00 0.  1.
          5    1    4    4  501    0  0.55963319975E+02 -0.12808218997E+03 -0.68953996550E+02  0.15591365113E+03  0.41800000000E+01 0. -1.
         -5    1    4    4    0  501 -0.46144567131E+02 -0.49065402552E+02  0.11939746293E+02  0.68532946419E+02  0.41800000000E+01 0. -1.
</event>
<event>
11    1  0.6763327E-009  0.1770031E+03  0.7561462E-02  0.1072093E+00
         22   -1    0    0    0    0  0.00000000000E+00  0.00000000000E+00  0.52211192460E+03  0.52211192460E+03  0.00000000000E+00 0. -1.
         22   -1    0    0    0    0 -0.00000000000E+00 -0.00000000000E+00 -0.10623977960E+04  0.10623977960E+04  0.00000000000E+00 0. -1.
         24    2    1    2    0    0  0.10127983452E+02  0.15075699670E+01 -0.10100219945E+04  0.10133637730E+04  0.81589572136E+02 0.  0.
         25    2    1    2    0    0 -0.84656499883E+02  0.96105036806E+02  0.27439576982E+03  0.32763137701E+03  0.12508548929E+03 0.  0.
        -24    2    1    2    0    0  0.74528516431E+02 -0.97612606773E+02  0.19534035328E+03  0.24351457057E+03  0.77838112127E+02 0.  0.
        -13    1    3    3    0    0  0.58595661083E+00 -0.14789493508E+02 -0.33091827556E+02  0.36251089837E+02  0.00000000000E+00 0.  1.
         14    1    3    3    0    0  0.95420268415E+01  0.16297063475E+02 -0.97693016691E+03  0.97711268315E+03  0.00000000000E+00 0. -1.
         11    1    5    5    0    0  0.45884552932E+02 -0.35056299824E+02  0.15099433994E+03  0.16165898381E+03  0.00000000000E+00 0. -1.
        -12    1    5    5    0    0  0.28643963499E+02 -0.62556306949E+02  0.44346013341E+02  0.81855586756E+02  0.00000000000E+00 0.  1.
          5    1    4    4  501    0 -0.80964184130E+02  0.11255354062E+02  0.19421353321E+03  0.21075637828E+03  0.41800000000E+01 0. -1.
         -5    1    4    4    0  501 -0.36923157526E+01  0.84849682744E+02  0.80182236617E+02  0.11687499872E+03  0.41800000000E+01 0. -1.
</event>
<event>
11    1  0.6763327E-009  0.1553603E+03  0.7561462E-02  0.1091524E+00
         22   -1    0    0    0    0  0.00000000000E+00  0.00000000000E+00  0.90731248188E+03  0.90731248188E+03  0.00000000000E+00 0.  1.
         22   -1    0    0    0    0 -0.00000000000E+00 -0.00000000000E+00 -0.22720531124E+03  0.22720531124E+03  0.00000000000E+00 0. -1.
         24    2    1    2    0    0 -0.86620537938E+02 -0.33060951466E+02 -0.19266566534E+03  0.23074146476E+03  0.86749183590E+02 0.  0.
         25    2    1    2    0    0  0.78953241895E+02  0.90551770358E+01  0.48263495141E+03  0.50487636451E+03  0.12509211199E+03 0.  0.
        -24    2    1    2    0    0  0.76672960432E+01  0.24005774430E+02  0.39013788458E+03  0.39889996385E+03  0.79237286306E+02 0.  0.
        -13    1    3    3    0    0 -0.89457011409E+02 -0.32148288491E+02 -0.99794064188E+02  0.13782207585E+03  0.00000000000E+00 0.  1.
         14    1    3    3    0    0  0.28364734707E+01 -0.91266297484E+00 -0.92871601153E+02  0.92919388914E+02  0.00000000000E+00 0. -1.
         13    1    5    5    0    0 -0.29531520800E+02  0.33164978784E+02  0.18907813154E+03  0.19422298104E+03  0.00000000000E+00 0. -1.
        -14    1    5    5    0    0  0.37198816843E+02 -0.91592043540E+01  0.20105975304E+03  0.20467698280E+03  0.00000000000E+00 0.  1.
          5    1    4    4  501    0  0.31353941390E+02  0.52781817386E+02  0.36885486005E+03  0.37395236337E+03  0.41800000000E+01 0.  1.
         -5    1    4    4    0  501  0.47599300505E+02 -0.43726640350E+02  0.11378009136E+03  0.13092400114E+03  0.41800000000E+01 0.  1.
</event>
<event>
11    1  0.6763327E-009  0.1534941E+03  0.7561462E-02  0.1093361E+00
         22   -1    0    0    0    0  0.00000000000E+00  0.00000000000E+00  0.92473785984E+03  0.92473785984E+03  0.00000000000E+00 0. -1.
         22   -1    0    0    0    0 -0.00000000000E+00 -0.00000000000E+00 -0.77474374735E+03  0.77474374735E+03  0.00000000000E+00 0. -1.
        -24    2    1    2    0    0 -0.35376439947E+02  0.73041490338E+01 -0.57262684678E+03  0.57944854337E+03  0.80958419354E+02 0.  0.
         25    2    1    2    0    0  0.99246103162E+02  0.53999631144E+02 -0.15818396859E+03  0.23116400773E+03  0.12509548910E+03 0.  0.
         24    2    1    2    0    0 -0.63869663215E+02 -0.61303780178E+02  0.88080492786E+03  0.88886905610E+03  0.80208419744E+02 0.  0.
        -13    1    5    5    0    0  0.25055990222E+01 -0.37051277427E+01  0.87020716181E+00  0.45566718725E+01  0.00000000000E+00 0.  1.
         14    1    5    5    0    0 -0.66375262237E+02 -0.57598652435E+02  0.87993472070E+03  0.88431238422E+03  0.00000000000E+00 0. -1.
         13    1    3    3    0    0 -0.37571618884E+01 -0.25393023339E+02 -0.40338893946E+03  0.40420484705E+03  0.00000000000E+00 0. -1.
        -14    1    3    3    0    0 -0.31619278059E+02  0.32697172372E+02 -0.16923790732E+03  0.17524369632E+03  0.00000000000E+00 0.  1.
          5    1    4    4  501    0 -0.17019492624E+02  0.12153692978E+02 -0.84685734477E+02  0.87329957094E+02  0.41800000000E+01 0.  1.
         -5    1    4    4    0  501  0.11626559579E+03  0.41845938166E+02 -0.73498234114E+02  0.14383405064E+03  0.41800000000E+01 0.  1.
</event>
<event>
11    1  0.6763327E-009  0.1727664E+03  0.7561462E-02  0.1075649E+00
         22   -1    0    0    0    0  0.00000000000E+00  0.00000000000E+00  0.37294844098E+03  0.37294844098E+03  0.00000000000E+00 0.  1.
         22   -1    0    0    0    0 -0.00000000000E+00 -0.00000000000E+00 -0.38083589114E+03  0.38083589114E+03  0.00000000000E+00 0. -1.
         24    2    1    2    0    0  0.60048948088E+02  0.10131188962E+03 -0.21037705361E+03  0.25433469976E+03  0.80979378072E+02 0.  0.
         25    2    1    2    0    0 -0.35958037552E+02 -0.12000485885E+03 -0.87145226874E+02  0.19732210777E+03  0.12509027554E+03 0.  0.
        -24    2    1    2    0    0 -0.24090910536E+02  0.18692969231E+02  0.28963483032E+03  0.30212752459E+03  0.80392208031E+02 0.  0.
        -11    1    3    3    0    0 -0.35273486003E+01  0.14248580677E+02  0.32617775003E+01  0.15036736079E+02  0.00000000000E+00 0.  1.
         12    1    3    3    0    0  0.63576296688E+02  0.87063308939E+02 -0.21363883111E+03  0.23929796368E+03  0.00000000000E+00 0. -1.
         11    1    5    5    0    0 -0.10168174122E+02  0.14458335837E+02  0.68315547294E+01  0.18950075994E+02  0.00000000000E+00 0. -1.
        -12    1    5    5    0    0 -0.13922736414E+02  0.42346333937E+01  0.28280327559E+03  0.28317744860E+03  0.00000000000E+00 0.  1.
          5    1    4    4  501    0  0.16167756010E+02 -0.45277614681E+02 -0.94200407344E+02  0.10584256171E+03  0.41800000000E+01 0.  1.
         -5    1    4    4    0  501 -0.52125793562E+02 -0.74727244165E+02  0.70551804702E+01  0.91479546055E+02  0.41800000000E+01 0.  1.
</event>
<event>
11    1  0.6763327E-009  0.1881489E+03  0.7561462E-02  0.1063236E+00
         22   -1    0    0    0    0  0.00000000000E+00  0.00000000000E+00  0.20754849378E+03  0.20754849378E+03  0.00000000000E+00 0.  1.
         22   -1    0    0    0    0 -0.00000000000E+00 -0.00000000000E+00 -0.13125378913E+04  0.13125378913E+04  0.00000000000E+00 0.  1.
        -24    2    1    2    0    0  0.46730292472E+02  0.31198222672E+02 -0.10355563768E+04  0.10402053102E+04  0.80579331005E+02 0.  0.
         25    2    1    2    0    0 -0.17832928180E+03 -0.20176216993E+01 -0.18438598488E+03  0.28539531444E+03  0.12508753151E+03 0.  0.
         24    2    1    2    0    0  0.13159898933E+03 -0.29180600973E+02  0.11495296419E+03  0.19448576037E+03  0.80254131027E+02 0.  0.
        -13    1    5    5    0    0  0.11545963283E+03 -0.28179293981E+02  0.12728844102E+03  0.17414748531E+03  0.00000000000E+00 0.  1.
         14    1    5    5    0    0  0.16139356497E+02 -0.10013069921E+01 -0.12335476832E+02  0.20338275062E+02  0.00000000000E+00 0. -1.
         11    1    3    3    0    0 -0.15830732059E+02  0.14312905051E+02 -0.92707031883E+02  0.95131830052E+02  0.00000000000E+00 0. -1.
        -12    1    3    3    0    0  0.62561024531E+02  0.16885317621E+02 -0.94284934490E+03  0.94507348017E+03  0.00000000000E+00 0.  1.
          5    1    4    4  501    0 -0.17145441148E+03 -0.20005386029E+02 -0.19702944811E+03  0.26198264543E+03  0.41800000000E+01 0. -1.
         -5    1    4    4    0  501 -0.68748703237E+01  0.17987764330E+02  0.12643463232E+02  0.23412669007E+02  0.41800000000E+01 0. -1.
</event>
<event>
11    1  0.6763327E-009  0.2742397E+03  0.7561462E-02  0.1011724E+00
         22   -1    0    0    0    0  0.00000000000E+00  0.00000000000E+00  0.62902814758E+03  0.62902814758E+03  0.00000000000E+00 0.  1.
         22   -1    0    0    0    0 -0.00000000000E+00 -0.00000000000E+00 -0.29595434369E+03  0.29595434369E+03  0.00000000000E+00 0. -1.
        -24    2    1    2    0    0 -0.67100999479E+02  0.67573600100E+02 -0.14191055861E+03  0.18875444321E+03  0.80130503708E+02 0.  0.
         25    2    1    2    0    0  0.19783736877E+03 -0.23331927466E+03  0.23541860513E+03  0.40576744991E+03  0.12509114819E+03 0.  0.
         24    2    1    2    0    0 -0.13073636929E+03  0.16574567456E+03  0.23956575737E+03  0.33046059815E+03  0.85140048946E+02 0.  0.
        -13    1    5    5    0    0 -0.84590371834E+02  0.58917918214E+02  0.15683609488E+03  0.18768167932E+03  0.00000000000E+00 0.  1.
         14    1    5    5    0    0 -0.46145997459E+02  0.10682775635E+03  0.82729662483E+02  0.14277891883E+03  0.00000000000E+00 0. -1.
         13    1    3    3    0    0 -0.43245647233E+02  0.80570101774E+02 -0.13036222323E+03  0.15923578917E+03  0.00000000000E+00 0. -1.
        -14    1    3    3    0    0 -0.23855352247E+02 -0.12996501674E+02 -0.11548335375E+02  0.29518654043E+02  0.00000000000E+00 0.  1.
          5    1    4    4  501    0 -0.45466525608E+01 -0.67846998922E+02  0.61257580521E+02  0.91617961577E+02  0.41800000000E+01 0. -1.
         -5    1    4    4    0  501  0.20238402133E+03 -0.16547227574E+03  0.17416102461E+03  0.31414948834E+03  0.41800000000E+01 0. -1.
</event>
<event>
11    1  0.6763327E-009  0.1431288E+03  0.7561462E-02  0.1104114E+00
         22   -1    0    0    0    0  0.00000000000E+00  0.00000000000E+00  0.34366634475E+03  0.34366634475E+03  0.00000000000E+00 0.  1.
         22   -1    0    0    0    0 -0.00000000000E+00 -0.00000000000E+00 -0.78640831299E+03  0.78640831299E+03  0.00000000000E+00 0. -1.
         24    2    1    2    0    0  0.37141587956E+02  0.58398770541E+02 -0.73990731632E+03  0.74707093552E+03  0.76565214033E+02 0.  0.
         25    2    1    2    0    0 -0.65243836432E+02 -0.66957855157E+02  0.18356595686E+03  0.24100007873E+03  0.12507783525E+03 0.  0.
        -24    2    1    2    0    0  0.28102248476E+02  0.85590846164E+01  0.11359939122E+03  0.14200364349E+03  0.79982615479E+02 0.  0.
        -11    1    3    3    0    0 -0.15638564314E+02 -0.86208738008E+01 -0.13657078407E+03  0.13773330469E+03  0.00000000000E+00 0.  1.
         12    1    3    3    0    0  0.52780152270E+02  0.67019644342E+02 -0.60333653224E+03  0.60933763083E+03  0.00000000000E+00 0. -1.
         13    1    5    5    0    0  0.10218903215E+02  0.95152079481E+01 -0.99611697131E+01  0.17151969778E+02  0.00000000000E+00 0. -1.
        -14    1    5    5    0    0  0.17883345261E+02 -0.95612333166E+00  0.12356056093E+03  0.12485167371E+03  0.00000000000E+00 0.  1.
          5    1    4    4  501    0 -0.46462054923E+02 -0.81748081319E+02  0.52636443161E+02  0.10784033983E+03  0.41800000000E+01 0. -1.
         -5    1    4    4    0  501 -0.18781781509E+02  0.14790226161E+02  0.13092951369E+03  0.13315973890E+03  0.41800000000E+01 0. -1.
</event>
<event>
11    1  0.6763327E-009  0.2889760E+03  0.7561462E-02  0.1004968E+00
         22   -1    0    0    0    0  0.00000000000E+00  0.00000000000E+00  0.34057687281E+03  0.34057687281E+03  0.00000000000E+00 0. -1.
         22   -1    0    0    0    0 -0.00000000000E+00 -0.00000000000E+00 -0.10824862624E+04  0.10824862624E+04  0.00000000000E+00 0. -1.
         24    2    1    2    0    0 -0.18802557001E+03  0.45194458885E+02 -0.45332222878E+03  0.49857704719E+03  0.75378211589E+02 0.  0.
         25    2    1    2    0    0  0.40878142825E+03 -0.13626651110E+03 -0.44413603875E+03  0.63132820913E+03  0.12509064155E+03 0.  0.
        -24    2    1    2    0    0 -0.22075585823E+03  0.91072052212E+02  0.15554887792E+03  0.29315787891E+03  0.68693674426E+02 0.  0.
        -11    1    3    3    0    0 -0.47832234843E+02 -0.17564983950E+02 -0.79496382237E+02  0.94425241011E+02  0.00000000000E+00 0.  1.
         12    1    3    3    0    0 -0.14019333517E+03  0.62759442835E+02 -0.37382584654E+03  0.40415180618E+03  0.00000000000E+00 0. -1.
         11    1    5    5    0    0 -0.20735117705E+03  0.96334879739E+02  0.15882547598E+03  0.27838902906E+03  0.00000000000E+00 0. -1.
        -12    1    5    5    0    0 -0.13404681178E+02 -0.52628275271E+01 -0.32765980589E+01  0.14768849850E+02  0.00000000000E+00 0.  1.
          5    1    4    4  501    0  0.43993041479E+02  0.15885089989E+02 -0.85793593912E+02  0.97804585470E+02  0.41800000000E+01 0.  1.
         -5    1    4    4    0  501  0.36478838677E+03 -0.15215160109E+03 -0.35834244484E+03  0.53352362366E+03  0.41800000000E+01 0.  1.
</event>
<event>
11    1  0.6763327E-009  0.1832043E+03  0.7561462E-02  0.1067080E+00
         22   -1    0    0    0    0  0.00000000000E+00  0.00000000000E+00  0.91967116575E+02  0.91967116575E+02  0.00000000000E+00 0. -1.
         22   -1    0    0    0    0 -0.00000000000E+00 -0.00000000000E+00 -0.22950137318E+04  0.22950137318E+04  0.00000000000E+00 0. -1.
         24    2    1    2    0    0  0.69876092163E+00 -0.26057164314E+02 -0.16369269788E+04  0.16389694829E+04  0.77534300650E+02 0.  0.
         25    2    1    2    0    0 -0.12392252244E+03  0.75033819794E+02 -0.56306851062E+03  0.59471020892E+03  0.12508884549E+03 0.  0.
        -24    2    1    2    0    0  0.12322376152E+03 -0.48976655480E+02 -0.30511257840E+01  0.15330115656E+03  0.76870846554E+02 0.  0.
        -13    1    3    3    0    0  0.46955264077E+01 -0.84791394945E+01 -0.23218715851E+02  0.25160535380E+02  0.00000000000E+00 0.  1.
         14    1    3    3    0    0 -0.39967654861E+01 -0.17578024819E+02 -0.16137082629E+04  0.16138089475E+04  0.00000000000E+00 0. -1.
         11    1    5    5    0    0  0.11295511459E+03 -0.12203714355E+02  0.69767041627E+01  0.11382645983E+03  0.00000000000E+00 0. -1.
        -12    1    5    5    0    0  0.10268646926E+02 -0.36772941124E+02 -0.10027829947E+02  0.39474696732E+02  0.00000000000E+00 0.  1.
          5    1    4    4  501    0 -0.37712378638E+02 -0.17765529635E+02 -0.29768427286E+03  0.30061809036E+03  0.41800000000E+01 0.  1.
         -5    1    4    4    0  501 -0.86210143799E+02  0.92799349429E+02 -0.26538423776E+03  0.29409211856E+03  0.41800000000E+01 0.  1.
</event>
<event>
11    1  0.6763327E-009  0.1271624E+03  0.7561462E-02  0.1122805E+00
         22   -1    0    0    0    0  0.00000000000E+00  0.00000000000E+00  0.23797623914E+03  0.23797623914E+03  0.00000000000E+00 0.  1.
         22   -1    0    0    0    0 -0.00000000000E+00 -0.00000000000E+00 -0.36020875173E+03  0.36020875173E+03  0.00000000000E+00 0. -1.
         24    2    1    2    0    0 -0.16591539147E+02 -0.15991435398E+02 -0.30428402773E+03  0.31631680475E+03  0.83285930741E+02 0.  0.
         25    2    1    2    0    0  0.24062654114E+02 -0.15094793873E+00  0.76704010949E+02  0.14870978949E+03  0.12510820152E+03 0.  0.
        -24    2    1    2    0    0 -0.74711149666E+01  0.16142383337E+02  0.10534750419E+03  0.13315839663E+03  0.79477467604E+02 0.  0.
        -11    1    3    3    0    0  0.10616348674E+02 -0.42472389222E+02 -0.11065601999E+03  0.11900153556E+03  0.00000000000E+00 0.  1.
         12    1    3    3    0    0 -0.27207887821E+02  0.26480953825E+02 -0.19362800774E+03  0.19731526919E+03  0.00000000000E+00 0. -1.
         13    1    5    5    0    0 -0.84973582238E+01 -0.10301422167E+02 -0.87939384543E+01  0.15989301078E+02  0.00000000000E+00 0. -1.
        -14    1    5    5    0    0  0.10262432572E+01  0.26443805503E+02  0.11414144264E+03  0.11716909555E+03  0.00000000000E+00 0.  1.
          5    1    4    4  501    0  0.51186107482E+02 -0.21251025864E+02  0.94616003019E+02  0.10973278510E+03  0.41800000000E+01 0.  1.
         -5    1    4    4    0  501 -0.27123453368E+02  0.21100077925E+02 -0.17911992070E+02  0.38977004387E+02  0.41800000000E+01 0.  1.
</event>
<event>
11    1  0.6763327E-009  0.1503665E+03  0.7561462E-02  0.1096505E+00
         22   -1    0    0    0    0  0.00000000000E+00  0.00000000000E+00  0.11413878900E+04  0.11413878900E+04  0.00000000000E+00 0.  1.
         22   -1    0    0    0    0 -0.00000000000E+00 -0.00000000000E+00 -0.17548191239E+03  0.17548191239E+03  0.00000000000E+00 0.  1.
        -24    2    1    2    0    0 -0.27727834377E+02 -0.15996542521E+02 -0.14278697684E+03  0.16559345537E+03  0.77513544203E+02 0.  0.
         25    2    1    2    0    0 -0.52090329356E+02 -0.25271004571E+02  0.26202802262E+03  0.29607117906E+03  0.12508969722E+03 0.  0.
         24    2    1    2    0    0  0.79818163734E+02  0.41267547093E+02  0.84666493182E+03  0.85520516794E+03  0.80376755315E+02 0.  0.
        -13    1    5    5    0    0  0.70988403880E+02  0.11135023459E+02  0.75292608533E+03  0.75634716381E+03  0.00000000000E+00 0.  1.
         14    1    5    5    0    0  0.88297598540E+01  0.30132523633E+02  0.93738846490E+02  0.98858004132E+02  0.00000000000E+00 0. -1.
         13    1    3    3    0    0 -0.14844751675E+02  0.23807386026E+02 -0.16481155239E+02  0.32539003668E+02  0.00000000000E+00 0. -1.
        -14    1    3    3    0    0 -0.12883082702E+02 -0.39803928548E+02 -0.12630582160E+03  0.13305445170E+03  0.00000000000E+00 0.  1.
          5    1    4    4  501    0 -0.33652721559E+02 -0.75708961595E+02  0.17600743243E+03  0.19457759687E+03  0.41800000000E+01 0. -1.
         -5    1    4    4    0  501 -0.18437607797E+02  0.50437957024E+02  0.86020590190E+02  0.10149358219E+03  0.41800000000E+01 0. -1.
</event>
<event>
11    1  0.6763327E-009  0.1429946E+03  0.7561462E-02  0.1104260E+00
         22   -1    0    0    0    0  0.00000000000E+00  0.00000000000E+00  0.63915565742E+02  0.63915565742E+02  0.00000000000E+00 0.  1.
         22   -1    0    0    0    0 -0.00000000000E+00 -0.00000000000E+00 -0.21386870781E+04  0.21386870781E+04  0.00000000000E+00 0. -1.
         24    2    1    2    0    0  0.65590493200E+02  0.26404247511E+02 -0.15178017786E+04  0.15215316237E+04  0.79604935252E+02 0.  0.
         25    2    1    2    0    0 -0.68349271084E+02  0.52028425371E+01 -0.57439991512E+03  0.59184553649E+03  0.12508870512E+03 0.  0.
        -24    2    1    2    0    0  0.27587778836E+01 -0.31607090048E+02  0.17430181368E+02  0.89225483643E+02  0.81552171718E+02 0.  0.
        -11    1    3    3    0    0  0.86719505397E+01  0.41111895818E+02 -0.40388630196E+03  0.40606592520E+03  0.00000000000E+00 0.  1.
         12    1    3    3    0    0  0.56918542660E+02 -0.14707648306E+02 -0.11139154766E+04  0.11154656985E+04  0.00000000000E+00 0. -1.
         11    1    5    5    0    0  0.34844264546E+02  0.80795499612E+01  0.16485901952E+01  0.35806699778E+02  0.00000000000E+00 0. -1.
        -12    1    5    5    0    0 -0.32085486663E+02 -0.39686640009E+02  0.15781591173E+02  0.53418783865E+02  0.00000000000E+00 0.  1.
          5    1    4    4  501    0 -0.41301876774E+02 -0.20519091940E+02 -0.58638089128E+02  0.74717976791E+02  0.41800000000E+01 0.  1.
         -5    1    4    4    0  501 -0.27047394309E+02  0.25721934477E+02 -0.51576182599E+03  0.51712755970E+03  0.41800000000E+01 0.  1.
</event>
<event>
11    1  0.6763327E-009  0.2203923E+03  0.7561462E-02  0.1040972E+00
         22   -1    0    0    0    0  0.00000000000E+00  0.00000000000E+00  0.35024358288E+03  0.35024358288E+03  0.00000000000E+00 0. -1.
         22   -1    0    0    0    0 -0.00000000000E+00 -0.00000000000E+00 -0.70040381126E+03  0.70040381126E+03  0.00000000000E+00 0.  1.
         24    2    1    2    0    0  0.10153981767E+02  0.10853705138E+02 -0.44856754982E+03  0.45613309754E+03  0.81385807452E+02 0.  0.
         25    2    1    2    0    0  0.11010632569E+03  0.12772930380E+03 -0.16264871852E+03  0.26559220195E+03  0.12508570700E+03 0.  0.
        -24    2    1    2    0    0 -0.12026030745E+03 -0.13858300894E+03  0.26105603996E+03  0.32892209466E+03  0.79822906713E+02 0.  0.
        -11    1    3    3    0    0 -0.15630017442E+02  0.38507555015E+02 -0.16973026417E+03  0.17474407519E+03  0.00000000000E+00 0.  1.
         12    1    3    3    0    0  0.25783999209E+02 -0.27653849876E+02 -0.27883728566E+03  0.28138902235E+03  0.00000000000E+00 0. -1.
         11    1    5    5    0    0 -0.43711228930E+02 -0.94731836588E+01  0.95497710383E+02  0.10545247950E+03  0.00000000000E+00 0. -1.
        -12    1    5    5    0    0 -0.76549078524E+02 -0.12910982528E+03  0.16555832958E+03  0.22346961516E+03  0.00000000000E+00 0.  1.
          5    1    4    4  501    0  0.14664560085E+02  0.72122950463E+02 -0.13149356207E+03  0.15074746622E+03  0.41800000000E+01 0. -1.
         -5    1    4    4    0  501  0.95441765601E+02  0.55606353339E+02 -0.31155156455E+02  0.11484473574E+03  0.41800000000E+01 0. -1.
</event>
<event>
11    1  0.6763327E-009  0.2122727E+03  0.7561462E-02  0.1046169E+00
         22   -1    0    0    0    0  0.00000000000E+00  0.00000000000E+00  0.78934066812E+03  0.78934066812E+03  0.00000000000E+00 0.  1.
         22   -1    0    0    0    0 -0.00000000000E+00 -0.00000000000E+00 -0.22614713252E+03  0.22614713252E+03  0.00000000000E+00 0.  1.
        -24    2    1    2    0    0 -0.81199090013E+01 -0.11074005511E+02 -0.11262371715E+03  0.13920481461E+03  0.80655515785E+02 0.  0.
         25    2    1    2    0    0  0.17847226180E+02  0.18066657279E+03  0.54577075282E+02  0.22714002760E+03  0.12511994640E+03 0.  0.
         24    2    1    2    0    0 -0.97273171783E+01 -0.16959256728E+03  0.62124017747E+03  0.64914295842E+03  0.81184744837E+02 0.  0.
        -13    1    5    5    0    0 -0.27900005200E+02 -0.10031500877E+03  0.47535407577E+03  0.48662409376E+03  0.00000000000E+00 0.  1.
         14    1    5    5    0    0  0.18172688022E+02 -0.69277558516E+02  0.14588610169E+03  0.16251886466E+03  0.00000000000E+00 0. -1.
         13    1    3    3    0    0 -0.44047223474E+02 -0.12601267571E+02 -0.60875492463E+02  0.76189076794E+02  0.00000000000E+00 0. -1.
        -14    1    3    3    0    0  0.35927314473E+02  0.15272620597E+01 -0.51748224688E+02  0.63015737820E+02  0.00000000000E+00 0.  1.
          5    1    4    4  501    0  0.63293713898E+02  0.14673424577E+03  0.21357794618E+02  0.16127820960E+03  0.41800000000E+01 0.  1.
         -5    1    4    4    0  501 -0.45446487718E+02  0.33932327024E+02  0.33219280664E+02  0.65861818006E+02  0.41800000000E+01 0.  1.
</event>
<event>
11    1  0.6763327E-009  0.2753497E+03  0.7561462E-02  0.1011199E+00
         22   -1    0    0    0    0  0.00000000000E+00  0.00000000000E+00  0.24233811784E+04  0.24233811784E+04  0.00000000000E+00 0.  1.
         22   -1    0    0    0    0 -0.00000000000E+00 -0.00000000000E+00 -0.41445186651E+03  0.41445186651E+03  0.00000000000E+00 0. -1.
        -24    2    1    2    0    0  0.37770680546E+02 -0.24439346531E+03 -0.32831297095E+03  0.41928796389E+03  0.82814247390E+02 0.  0.
         25    2    1    2    0    0 -0.99800078786E+01  0.22762490260E+03  0.38584647702E+03  0.46522822939E+03  0.12508838774E+03 0.  0.
         24    2    1    2    0    0 -0.27790672668E+02  0.16768562714E+02  0.19513958058E+04  0.19533168517E+04  0.80297109097E+02 0.  0.
        -11    1    5    5    0    0 -0.11721501278E+02  0.27677478811E+01  0.18316207765E+04  0.18316603733E+04  0.00000000000E+00 0.  1.
         12    1    5    5    0    0 -0.16069171390E+02  0.14000814833E+02  0.11977502933E+03  0.12165647840E+03  0.00000000000E+00 0. -1.
         11    1    3    3    0    0  0.21893411114E+02 -0.22934193246E+03 -0.25916469314E+03  0.34676127466E+03  0.00000000000E+00 0. -1.
        -12    1    3    3    0    0  0.15877269432E+02 -0.15051532849E+02 -0.69148277806E+02  0.72526689221E+02  0.00000000000E+00 0.  1.
          5    1    4    4  501    0  0.20125402477E+02  0.62813690427E+02  0.31427215779E+02  0.73182879293E+02  0.41800000000E+01 0.  1.
         -5    1    4    4    0  501 -0.30105410356E+02  0.16481121217E+03  0.35441926124E+03  0.39204535010E+03  0.41800000000E+01 0.  1.
</event>
<event>
11    1  0.6763327E-009  0.1480616E+03  0.7561462E-02  0.1098876E+00
         22   -1    0    0    0    0  0.00000000000E+00  0.00000000000E+00  0.15503162436E+03  0.15503162436E+03  0.00000000000E+00 0.  1.
         22   -1    0    0    0    0 -0.00000000000E+00 -0.00000000000E+00 -0.54451855183E+03  0.54451855183E+03  0.00000000000E+00 0.  1.
         24    2    1    2    0    0 -0.79166767924E+02 -0.14206856333E+02 -0.43014187649E+03  0.44486370278E+03  0.80077888514E+02 0.  0.
         25    2    1    2    0    0  0.72074354930E+02 -0.14752897095E+02 -0.22084937780E+02  0.14679469107E+03  0.12509426941E+03 0.  0.
        -24    2    1    2    0    0  0.70924129934E+01  0.28959753429E+02  0.62739886800E+02  0.10789178233E+03  0.82555276378E+02 0.  0.
        -13    1    3    3    0    0 -0.82645007767E+02 -0.28550165919E+02 -0.26476101390E+03  0.27882557946E+03  0.00000000000E+00 0.  1.
         14    1    3    3    0    0  0.34782398433E+01  0.14343309586E+02 -0.16538086259E+03  0.16603812331E+03  0.00000000000E+00 0. -1.
         13    1    5    5    0    0 -0.20015626643E+02  0.48578737526E+02  0.27526294936E+02  0.59314551018E+02  0.00000000000E+00 0. -1.
        -14    1    5    5    0    0  0.27108039637E+02 -0.19618984097E+02  0.35213591864E+02  0.48577231312E+02  0.00000000000E+00 0.  1.
          5    1    4    4  501    0  0.59741504758E+02  0.48947312111E+02  0.22336672317E+01  0.77377958250E+02  0.41800000000E+01 0.  1.
         -5    1    4    4    0  501  0.12332850172E+02 -0.63700209206E+02 -0.24318605012E+02  0.69416732824E+02  0.41800000000E+01 0.  1.
</event>
<event>
11    1  0.6763327E-009  0.1665664E+03  0.7561462E-02  0.1081059E+00
         22   -1    0    0    0    0  0.00000000000E+00  0.00000000000E+00  0.75906509528E+03  0.75906509528E+03  0.00000000000E+00 0.  1.
         22   -1    0    0    0    0 -0.00000000000E+00 -0.00000000000E+00 -0.57600399531E+03  0.57600399531E+03  0.00000000000E+00 0. -1.
         24    2    1    2    0    0 -0.65015079262E+00  0.15600934528E+02 -0.50010821241E+03  0.50826768765E+03  0.89353267109E+02 0.  0.
         25    2    1    2    0    0 -0.10870976841E+03 -0.17380661732E+01  0.41553410070E+02  0.17086541766E+03  0.12508984948E+03 0.  0.
        -24    2    1    2    0    0  0.10935991920E+03 -0.13862868355E+02  0.64161590230E+03  0.65593598528E+03  0.80182788982E+02 0.  0.
        -11    1    3    3    0    0 -0.19637002616E+02 -0.17957950523E+02 -0.51159232992E+02  0.57665994998E+02  0.00000000000E+00 0.  1.
         12    1    3    3    0    0  0.18986851823E+02  0.33558885051E+02 -0.44894897941E+03  0.45060169266E+03  0.00000000000E+00 0. -1.
         13    1    5    5    0    0  0.80482362110E+02 -0.49428061404E+01  0.23997936816E+03  0.25316385817E+03  0.00000000000E+00 0. -1.
        -14    1    5    5    0    0  0.28877557089E+02 -0.89200622145E+01  0.40163653414E+03  0.40277212710E+03  0.00000000000E+00 0.  1.
          5    1    4    4  501    0 -0.23617666184E+02  0.54167221690E+02  0.34884058575E+02  0.68747741812E+02  0.41800000000E+01 0.  1.
         -5    1    4    4    0  501 -0.85092102222E+02 -0.55905287864E+02  0.66693514951E+01  0.10211767585E+03  0.41800000000E+01 0.  1.
</event>
<event>
11    1  0.6763327E-009  0.1504398E+03  0.7561462E-02  0.1096430E+00
         22   -1    0    0    0    0  0.00000000000E+00  0.00000000000E+00  0.41611066800E+03  0.41611066800E+03  0.00000000000E+00 0.  1.
         22   -1    0    0    0    0 -0.00000000000E+00 -0.00000000000E+00 -0.78587270666E+03  0.78587270666E+03  0.00000000000E+00 0.  1.
         24    2    1    2    0    0 -0.84720142926E+02  0.27055697619E+02 -0.66187924419E+03  0.67245655837E+03  0.78766589439E+02 0.  0.
         25    2    1    2    0    0  0.50283385461E+02  0.28772465672E+02 -0.68725604260E+02  0.15403461544E+03  0.12508869029E+03 0.  0.
        -24    2    1    2    0    0  0.34436757466E+02 -0.55828163290E+02  0.36084280979E+03  0.37549220085E+03  0.80524439998E+02 0.  0.
        -13    1    3    3    0    0 -0.77680338519E+02  0.32744778162E+02 -0.65657704197E+03  0.66196666648E+03  0.00000000000E+00 0.  1.
         14    1    3    3    0    0 -0.70398044075E+01 -0.56890805428E+01 -0.53022022282E+01  0.10489891896E+02  0.00000000000E+00 0. -1.
         11    1    5    5    0    0 -0.11767156086E+02  0.27582711144E+01  0.17228666976E+03  0.17271007671E+03  0.00000000000E+00 0. -1.
        -12    1    5    5    0    0  0.46203913551E+02 -0.58586434405E+02  0.18855614004E+03  0.20278212414E+03  0.00000000000E+00 0.  1.
          5    1    4    4  501    0  0.83720809921E+02  0.48873764602E+02 -0.38038282796E+02  0.10422188944E+03  0.41800000000E+01 0.  1.
         -5    1    4    4    0  501 -0.33437424460E+02 -0.20101298930E+02 -0.30687321464E+02  0.49812726003E+02  0.41800000000E+01 0.  1.
</event>
<event>
11    1  0.6763327E-009  0.1843583E+03  0.7561462E-02  0.1066171E+00
         22   -1    0    0    0    0  0.00000000000E+00  0.00000000000E+00  0.49836159051E+03  0.49836159051E+03  0.00000000000E+00 0.  1.
         22   -1    0    0    0    0 -0.00000000000E+00 -0.00000000000E+00 -0.18262854067E+03  0.18262854067E+03  0.00000000000E+00 0.  1.
        -24    2    1    2    0    0 -0.48709621955E+02  0.16584634316E+00 -0.77358167023E+02  0.12145637532E+03  0.79966932704E+02 0.  0.
         25    2    1    2    0    0 -0.91414120363E+02 -0.40997909800E+02  0.35274181105E+02  0.16409939135E+03  0.12508785864E+03 0.  0.
         24    2    1    2    0    0  0.14012374232E+03  0.40832063457E+02  0.35781703576E+03  0.39543436451E+03  0.83865278820E+02 0.  0.
        -11    1    5    5    0    0  0.94028194518E+02  0.62009812016E+02  0.28710565883E+03  0.30840910733E+03  0.00000000000E+00 0.  1.
         12    1    5    5    0    0  0.46095547799E+02 -0.21177748559E+02  0.70711376926E+02  0.87025257182E+02  0.00000000000E+00 0. -1.
         13    1    3    3    0    0 -0.45187915339E+02  0.25731171998E+02 -0.80105743332E+02  0.95503774898E+02  0.00000000000E+00 0. -1.
        -14    1    3    3    0    0 -0.35217066154E+01 -0.25565325655E+02  0.27475763092E+01  0.25952600427E+02  0.00000000000E+00 0.  1.
          5    1    4    4  501    0 -0.15606208329E+02  0.34013267253E+02 -0.21343049811E+02  0.43283417874E+02  0.41800000000E+01 0.  1.
         -5    1    4    4    0  501 -0.75807912033E+02 -0.75011177053E+02  0.56617230917E+02  0.12081597347E+03  0.41800000000E+01 0.  1.
</event>
<event>
11    1  0.6763327E-009  0.1384689E+03  0.7561462E-02  0.1109280E+00
         22   -1    0    0    0    0  0.00000000000E+00  0.00000000000E+00  0.61770389697E+02  0.61770389697E+02  0.00000000000E+00 0. -1.
         22   -1    0    0    0    0 -0.00000000000E+00 -0.00000000000E+00 -0.70751459345E+03  0.70751459345E+03  0.00000000000E+00 0.  1.
        -24    2    1    2    0    0  0.60456754169E+01 -0.41858753286E+02 -0.32270993778E+03  0.34193809439E+03  0.10483916749E+03 0.  0.
         25    2    1    2    0    0  0.13222640857E+02  0.99795197320E+02 -0.26788213875E+03  0.31232230980E+03  0.12510181972E+03 0.  0.
         24    2    1    2    0    0 -0.19268316274E+02 -0.57936444034E+02 -0.55152127223E+02  0.11502457895E+03  0.80380327610E+02 0.  0.
        -13    1    5    5    0    0  0.95752746828E+01 -0.27233214399E+02  0.15500808752E+02  0.32765972040E+02  0.00000000000E+00 0.  1.
         14    1    5    5    0    0 -0.28843590956E+02 -0.30703229635E+02 -0.70652935976E+02  0.82258606913E+02  0.00000000000E+00 0. -1.
         13    1    3    3    0    0 -0.25526294093E+02 -0.56079877701E+02 -0.28124843379E+03  0.28791878349E+03  0.00000000000E+00 0. -1.
        -14    1    3    3    0    0  0.31571969510E+02  0.14221124415E+02 -0.41461503985E+02  0.54019310908E+02  0.00000000000E+00 0.  1.
          5    1    4    4  501    0 -0.36989870196E+02  0.98113666168E+02 -0.21509876754E+03  0.23933134810E+03  0.41800000000E+01 0.  1.
         -5    1    4    4    0  501  0.50212511053E+02  0.16815311527E+01 -0.52783371215E+02  0.72990961701E+02  0.41800000000E+01 0.  1.
</event>
<event>
11    1  0.6763327E-009  0.1314224E+03  0.7561462E-02  0.1117533E+00
         22   -1    0    0    0    0  0.00000000000E+00  0.00000000000E+00  0.13572226255E+04  0.13572226255E+04  0.00000000000E+00 0. -1.
         22   -1    0    0    0    0 -0.00000000000E+00 -0.00000000000E+00 -0.17617057435E+03  0.17617057435E+03  0.00000000000E+00 0.  1.
        -24    2    1    2    0    0 -0.16062504852E+02 -0.12573517424E+01 -0.15033524090E+03  0.16439855759E+03  0.64549330637E+02 0.  0.
         25    2    1    2    0    0 -0.15659382008E+02 -0.25616783775E+02  0.22708492140E+03  0.26099189206E+03  0.12509104820E+03 0.  0.
         24    2    1    2    0    0  0.31721886859E+02  0.26874135518E+02  0.11043023707E+04  0.11080027502E+04  0.80360881777E+02 0.  0.
        -11    1    5    5    0    0 -0.18317344285E+02 -0.16068299498E+02  0.26851372423E+03  0.26961701625E+03  0.00000000000E+00 0.  1.
         12    1    5    5    0    0  0.50039231144E+02  0.42942435016E+02  0.83578864643E+03  0.83838573395E+03  0.00000000000E+00 0. -1.
         13    1    3    3    0    0  0.14893746995E+02 -0.51764195582E+01 -0.62300979656E+01  0.16953853239E+02  0.00000000000E+00 0. -1.
        -14    1    3    3    0    0 -0.30956251846E+02  0.39190678157E+01 -0.14410514294E+03  0.14744470436E+03  0.00000000000E+00 0.  1.
          5    1    4    4  501    0 -0.57212482451E+02 -0.29007200335E+02  0.20239596235E+03  0.21235885618E+03  0.41800000000E+01 0. -1.
         -5    1    4    4    0  501  0.41553100443E+02  0.33904165601E+01  0.24688959044E+02  0.48633035887E+02  0.41800000000E+01 0. -1.
</event>
<event>
11    1  0.6763327E-009  0.1278760E+03  0.7561462E-02  0.1121907E+00
         22   -1    0    0    0    0  0.00000000000E+00  0.00000000000E+00  0.13776071861E+04  0.13776071861E+04  0.00000000000E+00 0.  1.
         22   -1    0    0    0    0 -0.00000000000E+00 -0.00000000000E+00 -0.52561485392E+03  0.52561485392E+03  0.00000000000E+00 0. -1.
         24    2    1    2    0    0 -0.18034530465E+02 -0.44883335084E+01 -0.46807368026E+03  0.47536276585E+03  0.80817074790E+02 0.  0.
         25    2    1    2    0    0  0.54632807372E+01 -0.19233657528E+02  0.23857732777E+02  0.12890777526E+03  0.12509293382E+03 0.  0.
        -24    2    1    2    0    0  0.12571249728E+02  0.23721991036E+02  0.12962082796E+04  0.12989514989E+04  0.79989518250E+02 0.  0.
        -11    1    3    3    0    0 -0.32118216686E+02  0.28569190999E+02 -0.18024593702E+03  0.18530077261E+03  0.00000000000E+00 0.  1.
         12    1    3    3    0    0  0.14083686221E+02 -0.33057524507E+02 -0.28782774324E+03  0.29006199324E+03  0.00000000000E+00 0. -1.
         13    1    5    5    0    0  0.12652412000E+02 -0.18237302238E+02  0.12258210080E+03  0.12457549583E+03  0.00000000000E+00 0. -1.
        -14    1    5    5    0    0 -0.81162272409E-01  0.41959293274E+02  0.11736261788E+04  0.11743760030E+04  0.00000000000E+00 0.  1.
          5    1    4    4  501    0  0.53914954183E+01 -0.72635234706E+02  0.16961814124E+02  0.74900741532E+02  0.41800000000E+01 0. -1.
         -5    1    4    4    0  501  0.71785318916E-01  0.53401577178E+02  0.68959186524E+01  0.54007033730E+02  0.41800000000E+01 0. -1.
</event>
<event>
11    1  0.6763327E-009  0.1433866E+03  0.7561462E-02  0.1103835E+00
         22   -1    0    0    0    0  0.00000000000E+00  0.00000000000E+00  0.30970694443E+03  0.30970694443E+03  0.00000000000E+00 0.  1.
         22   -1    0    0    0    0 -0.00000000000E+00 -0.00000000000E+00 -0.27612631694E+03  0.27612631694E+03  0.00000000000E+00 0.  1.
        -24    2    1    2    0    0  0.51652369547E+01  0.53060339698E+02 -0.17875543846E+03  0.20305100266E+03  0.80212988850E+02 0.  0.
         25    2    1    2    0    0 -0.55850664761E+02 -0.92115114730E+02  0.23497305162E+02  0.16674791001E+03  0.12509296953E+03 0.  0.
         24    2    1    2    0    0  0.50685427806E+02  0.39054775032E+02  0.18883876078E+03  0.21603434870E+03  0.83165342534E+02 0.  0.
        -11    1    5    5    0    0  0.44621388841E+02  0.37334773851E+02  0.19717717350E+03  0.20558159312E+03  0.00000000000E+00 0.  1.
         12    1    5    5    0    0  0.60640389654E+01  0.17200011816E+01 -0.83384127141E+01  0.10452755581E+02  0.00000000000E+00 0. -1.
         11    1    3    3    0    0 -0.23042598601E+02  0.21223690656E+02 -0.16688589287E+02  0.35495287120E+02  0.00000000000E+00 0. -1.
        -12    1    3    3    0    0  0.28207835556E+02  0.31836649042E+02 -0.16206684917E+03  0.16755571554E+03  0.00000000000E+00 0.  1.
          5    1    4    4  501    0 -0.39575099895E+01 -0.10937385531E+03  0.83276035067E+01  0.10984135602E+03  0.41800000000E+01 0. -1.
         -5    1    4    4    0  501 -0.51893154772E+02  0.17258740584E+02  0.15169701655E+02  0.56906553990E+02  0.41800000000E+01 0. -1.
</event>
<event>
11    1  0.6763327E-009  0.1318522E+03  0.7561462E-02  0.1117014E+00
         22   -1    0    0    0    0  0.00000000000E+00  0.00000000000E+00  0.46344344771E+03  0.46344344771E+03  0.00000000000E+00 0.  1.
         22   -1    0    0    0    0 -0.00000000000E+00 -0.00000000000E+00 -0.43478600413E+03  0.43478600413E+03  0.00000000000E+00 0.  1.
         24    2    1    2    0    0 -0.73728865836E+01  0.52896246204E+02 -0.38975771198E+03  0.40137973084E+03  0.79638194149E+02 0.  0.
         25    2    1    2    0    0 -0.34909904838E+02 -0.49242685878E+02  0.13763010910E+03  0.19554646189E+03  0.12511126352E+03 0.  0.
        -24    2    1    2    0    0  0.42282791422E+02 -0.36535603254E+01  0.28078504646E+03  0.30130325911E+03  0.10070863262E+03 0.  0.
        -11    1    3    3    0    0  0.72471569324E+01  0.40463773654E+02 -0.37480045112E+03  0.37704802933E+03  0.00000000000E+00 0.  1.
         12    1    3    3    0    0 -0.14620043516E+02  0.12432472550E+02 -0.14957260853E+02  0.24331701509E+02  0.00000000000E+00 0. -1.
         11    1    5    5    0    0  0.19487454765E+02 -0.34845379068E+02  0.36861035692E+02  0.54338727330E+02  0.00000000000E+00 0. -1.
        -12    1    5    5    0    0  0.22795336656E+02  0.31191818743E+02  0.24392401076E+03  0.24696453178E+03  0.00000000000E+00 0.  1.
          5    1    4    4  501    0 -0.13860305870E+02  0.38997392660E+01 -0.21612840268E+02  0.26304055003E+02  0.41800000000E+01 0.  1.
         -5    1    4    4    0  501 -0.21049598968E+02 -0.53142425144E+02  0.15924294936E+03  0.16924240689E+03  0.41800000000E+01 0.  1.
</event>
<event>
11    1  0.6763327E-009  0.1770856E+03  0.7561462E-02  0.1072025E+00
         22   -1    0    0    0    0  0.00000000000E+00  0.00000000000E+00  0.85741368635E+03  0.85741368635E+03  0.00000000000E+00 0. -1.
         22   -1    0    0    0    0 -0.00000000000E+00 -0.00000000000E+00 -0.42404837649E+03  0.42404837649E+03  0.00000000000E+00 0. -1.
         24    2    1    2    0    0 -0.11974188680E+03  0.33904787491E+02 -0.31049075615E+03  0.34384319487E+03  0.79598862634E+02 0.  0.
         25    2    1    2    0    0  0.14741611212E+03  0.56389434501E+02  0.16410368248E+02  0.20206169807E+03  0.12509336995E+03 0.  0.
        -24    2    1    2    0    0 -0.27674225315E+02 -0.90294221992E+02  0.72744569776E+03  0.73555716989E+03  0.54297308597E+02 0.  0.
        -13    1    3    3    0    0 -0.19599184171E+02 -0.30724487144E+00 -0.15206737997E+03  0.15332550496E+03  0.00000000000E+00 0.  1.
         14    1    3    3    0    0 -0.10014270263E+03  0.34212032363E+02 -0.15842337619E+03  0.19051768992E+03  0.00000000000E+00 0. -1.
         13    1    5    5    0    0 -0.36529074599E+02 -0.91882316570E+02  0.68985134372E+03  0.69690143480E+03  0.00000000000E+00 0. -1.
        -14    1    5    5    0    0  0.88548492833E+01  0.15880945783E+01  0.37594354038E+02  0.38655735095E+02  0.00000000000E+00 0.  1.
          5    1    4    4  501    0  0.59032339173E+02 -0.39246922762E+02  0.87236404822E+01  0.71545176761E+02  0.41800000000E+01 0. -1.
         -5    1    4    4    0  501  0.88383772946E+02  0.95636357262E+02  0.76867277662E+01  0.13051652131E+03  0.41800000000E+01 0. -1.
</event>
<event>
11    1  0.6763327E-009  0.1514413E+03  0.7561462E-02  0.1095415E+00
         22   -1    0    0    0    0  0.00000000000E+00  0.00000000000E+00  0.13120956645E+03  0.13120956645E+03  0.00000000000E+00 0.  1.
         22   -1    0    0    0    0 -0.00000000000E+00 -0.00000000000E+00 -0.93879568762E+03  0.93879568762E+03  0.00000000000E+00 0. -1.
        -24    2    1    2    0    0 -0.29652969906E+01 -0.25201558918E+02 -0.73554864803E+03  0.74031025172E+03  0.79897081461E+02 0.  0.
         25    2    1    2    0    0  0.67709120945E+02 -0.34708518261E+02 -0.12814303435E+03  0.19456836389E+03  0.12508798772E+03 0.  0.
         24    2    1    2    0    0 -0.64743823955E+02  0.59910077179E+02  0.56105561209E+02  0.13512663846E+03  0.85617722091E+02 0.  0.
        -11    1    5    5    0    0 -0.62255644041E+02  0.79887955040E+02  0.38399801863E+02  0.10831618235E+03  0.00000000000E+00 0.  1.
         12    1    5    5    0    0 -0.24881799140E+01 -0.19977877861E+02  0.17705759346E+02  0.26810456116E+02  0.00000000000E+00 0. -1.
         13    1    3    3    0    0 -0.10214196505E+02 -0.42454925872E+02 -0.68530064211E+03  0.68669041104E+03  0.00000000000E+00 0. -1.
        -14    1    3    3    0    0  0.72488995146E+01  0.17253366954E+02 -0.50248005916E+02  0.53619840675E+02  0.00000000000E+00 0.  1.
          5    1    4    4  501    0 -0.10952153111E+02  0.29794621456E+02 -0.70835893425E+02  0.77735868959E+02  0.41800000000E+01 0.  1.
         -5    1    4    4    0  501  0.78661274056E+02 -0.64503139717E+02 -0.57307140927E+02  0.11683249493E+03  0.41800000000E+01 0.  1.
</event>
<event>
11    1  0.6763327E-009  0.1931356E+03  0.7561462E-02  0.1059487E+00
         22   -1    0    0    0    0  0.00000000000E+00  0.00000000000E+00  0.24145054050E+04  0.24145054050E+04  0.00000000000E+00 0.  1.
         22   -1    0    0    0    0 -0.00000000000E+00 -0.00000000000E+00 -0.14406574086E+03  0.14406574086E+03  0.00000000000E+00 0. -1.
        -24    2    1    2    0    0 -0.71703372641E+02  0.68351071437E+02 -0.64070436642E+02  0.14065803691E+03  0.76592557602E+02 0.  0.
         25    2    1    2    0    0  0.73439937639E+02  0.84144904835E+02  0.14513210708E+03  0.22177694162E+03  0.12509154201E+03 0.  0.
         24    2    1    2    0    0 -0.17365649977E+01 -0.15249597627E+03  0.21893779937E+04  0.21961361673E+04  0.79875075865E+02 0.  0.
        -11    1    5    5    0    0  0.30892583608E+02 -0.11324824026E+03  0.12976084416E+04  0.13029072045E+04  0.00000000000E+00 0.  1.
         12    1    5    5    0    0 -0.32629148606E+02 -0.39247736010E+02  0.89176955207E+03  0.89322896287E+03  0.00000000000E+00 0. -1.
         13    1    3    3    0    0 -0.50813056995E+02  0.15969098354E+02  0.26108237513E+01  0.53327246920E+02  0.00000000000E+00 0. -1.
        -14    1    3    3    0    0 -0.20890315646E+02  0.52381973083E+02 -0.66681260393E+02  0.87330789986E+02  0.00000000000E+00 0.  1.
          5    1    4    4  501    0 -0.31861283401E+02 -0.10324485982E+01  0.29797864294E+02  0.43835972061E+02  0.41800000000E+01 0.  1.
         -5    1    4    4    0  501  0.10530122104E+03  0.85177353433E+02  0.11533424278E+03  0.17794096956E+03  0.41800000000E+01 0.  1.
</event>
<event>
11    1  0.6763327E-009  0.1270347E+03  0.7561462E-02  0.1122967E+00
         22   -1    0    0    0    0  0.00000000000E+00  0.00000000000E+00  0.27839788792E+02  0.27839788792E+02  0.00000000000E+00 0. -1.
         22   -1    0    0    0    0 -0.00000000000E+00 -0.00000000000E+00 -0.23610638618E+04  0.23610638618E+04  0.00000000000E+00 0.  1.
         24    2    1    2    0    0  0.10220368712E+02 -0.33268961542E+00 -0.77735181746E+03  0.78241205308E+03  0.88250813432E+02 0.  0.
         25    2    1    2    0    0 -0.12396584826E+02 -0.41573318113E+02 -0.14949494596E+04  0.15008007009E+04  0.12508733334E+03 0.  0.
        -24    2    1    2    0    0  0.21762161139E+01  0.41906007729E+02 -0.60922795876E+02  0.10569089655E+03  0.75485953362E+02 0.  0.
        -13    1    3    3    0    0  0.40185612611E+02  0.42917414904E+01 -0.65900409894E+03  0.66024215628E+03  0.00000000000E+00 0.  1.
         14    1    3    3    0    0 -0.29965243899E+02 -0.46244311058E+01 -0.11834771852E+03  0.12216989680E+03  0.00000000000E+00 0. -1.
         13    1    5    5    0    0  0.10578193754E+02  0.30107696592E+02  0.98920532901E+01  0.33409943063E+02  0.00000000000E+00 0. -1.
        -14    1    5    5    0    0 -0.84019776403E+01  0.11798311137E+02 -0.70814849166E+02  0.72280953483E+02  0.00000000000E+00 0.  1.
          5    1    4    4  501    0  0.55688325893E+02 -0.29374088120E+02 -0.70827498302E+03  0.71108012957E+03  0.41800000000E+01 0.  1.
         -5    1    4    4    0  501 -0.68084910719E+02 -0.12199229994E+02 -0.78667447663E+03  0.78972057138E+03  0.41800000000E+01 0.  1.
</event>
<event>
11    1  0.6763327E-009  0.4458768E+03  0.7561462E-02  0.9523322E-01
         22   -1    0    0    0    0  0.00000000000E+00  0.00000000000E+00  0.62458048816E+03  0.62458048816E+03  0.00000000000E+00 0. -1.
         22   -1    0    0    0    0 -0.00000000000E+00 -0.00000000000E+00 -0.36263914678E+03  0.36263914678E+03  0.00000000000E+00 0.  1.
         24    2    1    2    0    0  0.79998432950E+02 -0.32142159942E+03 -0.15748364606E+03  0.37507308616E+03  0.78531059698E+02 0.  0.
         25    2    1    2    0    0  0.67821643248E+01  0.10683424110E+03  0.56355733811E+02  0.17402145499E+03  0.12509174729E+03 0.  0.
        -24    2    1    2    0    0 -0.86780597275E+02  0.21458735832E+03  0.36306925363E+03  0.43812509379E+03  0.80967329626E+02 0.  0.
        -13    1    3    3    0    0  0.90030937587E+02 -0.30378799562E+03 -0.15941929964E+03  0.35469314781E+03  0.00000000000E+00 0.  1.
         14    1    3    3    0    0 -0.10032504637E+02 -0.17633603798E+02  0.19356535852E+01  0.20379938346E+02  0.00000000000E+00 0. -1.
         13    1    5    5    0    0 -0.77400962235E+02  0.16294778841E+03  0.21291335071E+03  0.27906089947E+03  0.00000000000E+00 0. -1.
        -14    1    5    5    0    0 -0.93796350395E+01  0.51639569910E+02  0.15015590292E+03  0.15906419433E+03  0.00000000000E+00 0.  1.
          5    1    4    4  501    0 -0.24835553145E+02  0.40240937418E+00 -0.25633535769E+02  0.35937684808E+02  0.41800000000E+01 0.  1.
         -5    1    4    4    0  501  0.31617717470E+02  0.10643183172E+03  0.81989269580E+02  0.13808377018E+03  0.41800000000E+01 0.  1.
</event>
<event>
11    1  0.6763327E-009  0.1328250E+03  0.7561462E-02  0.1115846E+00
         22   -1    0    0    0    0  0.00000000000E+00  0.00000000000E+00  0.85714877731E+03  0.85714877731E+03  0.00000000000E+00 0.  1.
         22   -1    0    0    0    0 -0.00000000000E+00 -0.00000000000E+00 -0.32266496300E+03  0.32266496300E+03  0.00000000000E+00 0.  1.
        -24    2    1    2    0    0  0.30429981320E+02  0.31577612288E+02 -0.19736723287E+03  0.21733506551E+03  0.79734413695E+02 0.  0.
         25    2    1    2    0    0 -0.36514858260E+02 -0.31159559173E+02 -0.73727618721E+02  0.15293332109E+03  0.12509430816E+03 0.  0.
         24    2    1    2    0    0  0.60848769396E+01 -0.41805311449E+00  0.80557866590E+03  0.80954535372E+03  0.79809098938E+02 0.  0.
        -11    1    5    5    0    0  0.28362327532E+02  0.66938632091E+01  0.72643021216E+03  0.72701449956E+03  0.00000000000E+00 0.  1.
         12    1    5    5    0    0 -0.22277450592E+02 -0.71119163236E+01  0.79148453744E+02  0.82530854162E+02  0.00000000000E+00 0. -1.
         11    1    3    3    0    0  0.41893732419E+02  0.40543465531E+01 -0.43209913612E+02  0.60320967966E+02  0.00000000000E+00 0. -1.
        -12    1    3    3    0    0 -0.11463751099E+02  0.27523265735E+02 -0.15415731926E+03  0.15701409754E+03  0.00000000000E+00 0.  1.
          5    1    4    4  501    0 -0.29006623457E+02 -0.68379780535E+02 -0.85141551450E+02  0.11306517932E+03  0.41800000000E+01 0. -1.
         -5    1    4    4    0  501 -0.75082348022E+01  0.37220221361E+02  0.11413932729E+02  0.39868141772E+02  0.41800000000E+01 0. -1.
</event>
<event>
11    1  0.6763327E-009  0.1412763E+03  0.7561462E-02  0.1106141E+00
         22   -1    0    0    0    0  0.00000000000E+00  0.00000000000E+00  0.43828101260E+03  0.43828101260E+03  0.00000000000E+00 0. -1.
         22   -1    0    0    0    0 -0.00000000000E+00 -0.00000000000E+00 -0.12827122981E+03  0.12827122981E+03  0.00000000000E+00 0. -1.
        -24    2    1    2    0    0  0.42456394240E+02  0.71071755748E+02 -0.32541618963E+02  0.13533739318E+03  0.10199761346E+03 0.  0.
         25    2    1    2    0    0 -0.42833431691E+02  0.79219615115E+01  0.11008159114E+03  0.17223437546E+03  0.12509701451E+03 0.  0.
         24    2    1    2    0    0  0.37703745139E+00 -0.78993717259E+02  0.23246981060E+03  0.25898047377E+03  0.82392496189E+02 0.  0.
        -11    1    5    5    0    0 -0.33168068127E+02 -0.70353353044E+01  0.55840776804E+02  0.65328470364E+02  0.00000000000E+00 0.  1.
         12    1    5    5    0    0  0.33545105578E+02 -0.71958381955E+02  0.17662903380E+03  0.19365200340E+03  0.00000000000E+00 0. -1.
         13    1    3    3    0    0  0.59980973308E+02  0.79257525202E+02 -0.22790653249E+01  0.99421660612E+02  0.00000000000E+00 0. -1.
        -14    1    3    3    0    0 -0.17524579068E+02 -0.81857694548E+01 -0.30262553638E+02  0.35915732566E+02  0.00000000000E+00 0.  1.
          5    1    4    4  501    0 -0.62292948407E+02 -0.18142259517E+01  0.12885400148E+03  0.14319402548E+03  0.41800000000E+01 0.  1.
         -5    1    4    4    0  501  0.19459516716E+02  0.97361874632E+01 -0.18772410336E+02  0.29040349980E+02  0.41800000000E+01 0.  1.
</event>
<event>
11    1  0.6763327E-009  0.1361874E+03  0.7561462E-02  0.1111892E+00
         22   -1    0    0    0    0  0.00000000000E+00  0.00000000000E+00  0.17042892764E+04  0.17042892764E+04  0.00000000000E+00 0. -1.
         22   -1    0    0    0    0 -0.00000000000E+00 -0.00000000000E+00 -0.11095127611E+03  0.11095127611E+03  0.00000000000E+00 0. -1.
         24    2    1    2    0    0 -0.22709269751E+02  0.36456109206E+02 -0.64311197994E+02  0.11093687792E+03  0.79538052937E+02 0.  0.
         25    2    1    2    0    0  0.37684173515E+02  0.17297044246E+02  0.17814494452E+03  0.22159044310E+03  0.12508964202E+03 0.  0.
        -24    2    1    2    0    0 -0.14974903764E+02 -0.53753153451E+02  0.14795042538E+04  0.14827132315E+04  0.79950238569E+02 0.  0.
        -13    1    3    3    0    0  0.95995249622E+01 -0.56083934130E+01  0.13047039289E+02  0.17141475735E+02  0.00000000000E+00 0.  1.
         14    1    3    3    0    0 -0.32308794714E+02  0.42064502619E+02 -0.77358237282E+02  0.93795402189E+02  0.00000000000E+00 0. -1.
         11    1    5    5    0    0 -0.92867643942E+01 -0.59129425817E+02  0.14650814920E+04  0.14663036218E+04  0.00000000000E+00 0. -1.
        -12    1    5    5    0    0 -0.56881393694E+01  0.53762723657E+01  0.14422761732E+02  0.16409609685E+02  0.00000000000E+00 0.  1.
          5    1    4    4  501    0 -0.34892265593E+02  0.32462615410E+02  0.11335931460E+03  0.12304104276E+03  0.41800000000E+01 0. -1.
         -5    1    4    4    0  501  0.72576439108E+02 -0.15165571164E+02  0.64785629921E+02  0.98549400336E+02  0.41800000000E+01 0. -1.
</event>
<event>
11    1  0.6763327E-009  0.1344216E+03  0.7561462E-02  0.1113953E+00
         22   -1    0    0    0    0  0.00000000000E+00  0.00000000000E+00  0.61084737512E+03  0.61084737512E+03  0.00000000000E+00 0.  1.
         22   -1    0    0    0    0 -0.00000000000E+00 -0.00000000000E+00 -0.21999966041E+03  0.21999966041E+03  0.00000000000E+00 0. -1.
        -24    2    1    2    0    0 -0.65230634304E+01 -0.34262640555E+02 -0.15628284489E+03  0.17876169454E+03  0.79466577462E+02 0.  0.
         25    2    1    2    0    0  0.52761860992E+02  0.16154843904E+02  0.49137937707E+02  0.14528423137E+03  0.12509267767E+03 0.  0.
         24    2    1    2    0    0 -0.46238797561E+02  0.18107796651E+02  0.49799262190E+03  0.50680110962E+03  0.79904909387E+02 0.  0.
        -11    1    5    5    0    0 -0.65919080495E+02  0.20176059581E+02  0.44351663779E+03  0.44884229585E+03  0.00000000000E+00 0.  1.
         12    1    5    5    0    0  0.19680282934E+02 -0.20682629296E+01  0.54475984112E+02  0.57958813764E+02  0.00000000000E+00 0. -1.
         13    1    3    3    0    0 -0.29298243805E+02 -0.45738071281E+02 -0.13509507530E+03  0.14560576096E+03  0.00000000000E+00 0. -1.
        -14    1    3    3    0    0  0.22775180375E+02  0.11475430726E+02 -0.21187769597E+02  0.33155933586E+02  0.00000000000E+00 0.  1.
          5    1    4    4  501    0  0.84840889932E+02 -0.17180640016E+02  0.15763188462E+02  0.88085762222E+02  0.41800000000E+01 0.  1.
         -5    1    4    4    0  501 -0.32079028940E+02  0.33335483920E+02  0.33374749245E+02  0.57198469150E+02  0.41800000000E+01 0.  1.
</event>
<event>
11    1  0.6763327E-009  0.1751534E+03  0.7561462E-02  0.1073632E+00
         22   -1    0    0    0    0  0.00000000000E+00  0.00000000000E+00  0.58410177150E+03  0.58410177150E+03  0.00000000000E+00 0.  1.
         22   -1    0    0    0    0 -0.00000000000E+00 -0.00000000000E+00 -0.60401175297E+03  0.60401175297E+03  0.00000000000E+00 0. -1.
         24    2    1    2    0    0 -0.50447901387E+02 -0.10687665566E+03 -0.43593425009E+03  0.45884190674E+03  0.80806031337E+02 0.  0.
         25    2    1    2    0    0  0.42814472438E+02  0.14110423664E+03 -0.91622076222E+02  0.21397732208E+03  0.12509278502E+03 0.  0.
        -24    2    1    2    0    0  0.76334289482E+01 -0.34227580982E+02  0.50764634484E+03  0.51529429564E+03  0.81201004620E+02 0.  0.
        -13    1    3    3    0    0  0.21013672902E+02 -0.40087877866E+02 -0.13030684546E+03  0.13794377976E+03  0.00000000000E+00 0.  1.
         14    1    3    3    0    0 -0.71461574289E+02 -0.66788777792E+02 -0.30562740463E+03  0.32089812698E+03  0.00000000000E+00 0. -1.
         13    1    5    5    0    0  0.26893501434E+00 -0.57110085056E+02  0.24583056367E+03  0.25237729726E+03  0.00000000000E+00 0. -1.
        -14    1    5    5    0    0  0.73644939339E+01  0.22882504074E+02  0.26181578118E+03  0.26291699838E+03  0.00000000000E+00 0.  1.
          5    1    4    4  501    0  0.33732279906E+01  0.83322843369E+02 -0.11318611119E+03  0.14065078407E+03  0.41800000000E+01 0.  1.
         -5    1    4    4    0  501  0.39441244448E+02  0.57781393271E+02  0.21564034964E+02  0.73326538005E+02  0.41800000000E+01 0.  1.
</event>
<event>
11    1  0.1171510E-008  0.1679620E+03  0.7561462E-02  0.1079819E+00
         22   -1    0    0    0    0  0.00000000000E+00  0.00000000000E+00  0.88978727342E+03  0.88978727342E+03  0.00000000000E+00 0.  1.
         22   -1    0    0    0    0 -0.00000000000E+00 -0.00000000000E+00 -0.73578925744E+03  0.73578925744E+03  0.00000000000E+00 0.  1.
        -24    2    1    2    0    0 -0.68692194998E+02 -0.10356616710E+03 -0.62123079385E+03  0.63874483892E+03  0.81379981508E+02 0.  0.
         25    2    1    2    0    0 -0.27382761536E+01  0.57563543260E+02 -0.55280408628E+02  0.14840675236E+03  0.12509029098E+03 0.  0.
         24    2    1    2    0    0  0.71430471152E+02  0.46002623836E+02  0.83050921846E+03  0.83842493959E+03  0.77409713694E+02 0.  0.
        -13    1    5    5    0    0  0.62548803295E+02 -0.52198435081E+01  0.43044581686E+03  0.43499793197E+03  0.00000000000E+00 0.  1.
         14    1    5    5    0    0  0.88816678572E+01  0.51222467344E+02  0.40006340160E+03  0.40342700763E+03  0.00000000000E+00 0. -1.
         11    1    3    3    0    0  0.95296325041E+01 -0.35413530701E+02 -0.85061015894E+02  0.92629954536E+02  0.00000000000E+00 0. -1.
        -12    1    3    3    0    0 -0.78221827502E+02 -0.68152636395E+02 -0.53616977796E+03  0.54611488438E+03  0.00000000000E+00 0.  1.
          5    1    4    4  501    0 -0.28965136717E+02  0.84147863870E+02 -0.10131178114E+02  0.89665797877E+02  0.41800000000E+01 0. -1.
         -5    1    4    4    0  501  0.26226860563E+02 -0.26584320610E+02 -0.45149230514E+02  0.58740954481E+02  0.41800000000E+01 0. -1.
</event>
<event>
11    1  0.6763327E-009  0.1450416E+03  0.7561462E-02  0.1102056E+00
         22   -1    0    0    0    0  0.00000000000E+00  0.00000000000E+00  0.22392643009E+03  0.22392643009E+03  0.00000000000E+00 0. -1.
         22   -1    0    0    0    0 -0.00000000000E+00 -0.00000000000E+00 -0.50977454555E+03  0.50977454555E+03  0.00000000000E+00 0.  1.
        -24    2    1    2    0    0  0.65809134340E+02  0.18599015481E+02 -0.36012177534E+03  0.37504705452E+03  0.79346294740E+02 0.  0.
         25    2    1    2    0    0 -0.11316741765E+03 -0.48576151606E+01 -0.72964023323E+02  0.18385176155E+03  0.12508901104E+03 0.  0.
         24    2    1    2    0    0  0.47358283311E+02 -0.13741400320E+02  0.14723768321E+03  0.17480215957E+03  0.80282168324E+02 0.  0.
        -11    1    5    5    0    0  0.31339026520E+02  0.32309001684E+02  0.62191874271E+02  0.76771318853E+02  0.00000000000E+00 0.  1.
         12    1    5    5    0    0  0.16019256791E+02 -0.46050402004E+02  0.85045808940E+02  0.98030840714E+02  0.00000000000E+00 0. -1.
         11    1    3    3    0    0  0.52990518626E+02 -0.22853656890E+02 -0.15519256493E+03  0.16557480758E+03  0.00000000000E+00 0. -1.
        -12    1    3    3    0    0  0.12818615714E+02  0.41452672371E+02 -0.20492921042E+03  0.20947224694E+03  0.00000000000E+00 0.  1.
          5    1    4    4  501    0 -0.24992777135E+02  0.54564181284E+02 -0.40782968660E+02  0.72681577589E+02  0.41800000000E+01 0. -1.
         -5    1    4    4    0  501 -0.88174640517E+02 -0.59421796445E+02 -0.32181054663E+02  0.11117018396E+03  0.41800000000E+01 0. -1.
</event>
<event>
11    1  0.6763327E-009  0.1338927E+03  0.7561462E-02  0.1114577E+00
         22   -1    0    0    0    0  0.00000000000E+00  0.00000000000E+00  0.18549042907E+03  0.18549042907E+03  0.00000000000E+00 0. -1.
         22   -1    0    0    0    0 -0.00000000000E+00 -0.00000000000E+00 -0.17914160542E+03  0.17914160542E+03  0.00000000000E+00 0.  1.
         24    2    1    2    0    0 -0.26679227819E+02  0.37020547633E+02  0.20161814163E+02  0.95428223542E+02  0.81349523379E+02 0.  0.
         25    2    1    2    0    0  0.16853278679E+02 -0.46850464961E+02 -0.88372880611E+02  0.16104635927E+03  0.12508862754E+03 0.  0.
        -24    2    1    2    0    0  0.98259491397E+01  0.98299173279E+01  0.74559890106E+02  0.10815745167E+03  0.77108239434E+02 0.  0.
        -11    1    3    3    0    0 -0.51720679355E+02  0.35414569662E+02  0.28674427833E+02  0.68930713248E+02  0.00000000000E+00 0.  1.
         12    1    3    3    0    0  0.25041451537E+02  0.16059779707E+01 -0.85126136698E+01  0.26497510294E+02  0.00000000000E+00 0. -1.
         13    1    5    5    0    0 -0.22065116199E+02  0.83497495061E+01 -0.34729749768E+01  0.23846367121E+02  0.00000000000E+00 0. -1.
        -14    1    5    5    0    0  0.31891065339E+02  0.14801678218E+01  0.78032865083E+02  0.84311084551E+02  0.00000000000E+00 0.  1.
          5    1    4    4  501    0 -0.25416174806E+02 -0.35705984835E+02  0.16761349322E+02  0.47109601207E+02  0.41800000000E+01 0. -1.
         -5    1    4    4    0  501  0.42269453485E+02 -0.11144480126E+02 -0.10513422993E+03  0.11393675807E+03  0.41800000000E+01 0. -1.
</event>
<event>
11    1  0.6763327E-009  0.1367252E+03  0.7561462E-02  0.1111271E+00
         22   -1    0    0    0    0  0.00000000000E+00  0.00000000000E+00  0.66284928842E+03  0.66284928842E+03  0.00000000000E+00 0.  1.
         22   -1    0    0    0    0 -0.00000000000E+00 -0.00000000000E+00 -0.11022200260E+04  0.11022200260E+04  0.00000000000E+00 0. -1.
         24    2    1    2    0    0 -0.45462888053E+02 -0.25522466810E+02 -0.95304958961E+03  0.95909992217E+03  0.94079062229E+02 0.  0.
         25    2    1    2    0    0  0.70224506864E+02  0.90603831698E+02 -0.90584546736E+02  0.19233697385E+03  0.12508963075E+03 0.  0.
        -24    2    1    2    0    0 -0.24761618810E+02 -0.65081364889E+02  0.60426339873E+03  0.61363241844E+03  0.81004741169E+02 0.  0.
        -11    1    3    3    0    0 -0.18853606567E+02  0.46517980070E+01 -0.33882414625E+02  0.39052730073E+02  0.00000000000E+00 0.  1.
         12    1    3    3    0    0 -0.26609281486E+02 -0.30174264817E+02 -0.91916717498E+03  0.92004719210E+03  0.00000000000E+00 0. -1.
         11    1    5    5    0    0 -0.28924490182E+02  0.83186938896E+01  0.11485172214E+03  0.11872971355E+03  0.00000000000E+00 0. -1.
        -12    1    5    5    0    0  0.41628713715E+01 -0.73400058778E+02  0.48941167658E+03  0.49490270488E+03  0.00000000000E+00 0.  1.
          5    1    4    4  501    0  0.38046558414E+02 -0.85713731778E+01 -0.77903651628E+02  0.87220756602E+02  0.41800000000E+01 0. -1.
         -5    1    4    4    0  501  0.32177948450E+02  0.99175204876E+02 -0.12680895109E+02  0.10511621725E+03  0.41800000000E+01 0. -1.
</event>
<event>
11    1  0.6763327E-009  0.1447484E+03  0.7561462E-02  0.1102369E+00
         22   -1    0    0    0    0  0.00000000000E+00  0.00000000000E+00  0.14218002804E+04  0.14218002804E+04  0.00000000000E+00 0.  1.
         22   -1    0    0    0    0 -0.00000000000E+00 -0.00000000000E+00 -0.24160210593E+03  0.24160210593E+03  0.00000000000E+00 0.  1.
         24    2    1    2    0    0  0.45749279140E+01 -0.36350773993E+02 -0.20122577595E+03  0.21981442243E+03  0.80524894691E+02 0.  0.
         25    2    1    2    0    0 -0.49714523534E+02 -0.23345451230E+02  0.13411109241E+03  0.19144283793E+03  0.12509209066E+03 0.  0.
        -24    2    1    2    0    0  0.45139595620E+02  0.59696225223E+02  0.12473128580E+04  0.12521451260E+04  0.80478744497E+02 0.  0.
        -13    1    3    3    0    0  0.28735100901E+02 -0.12002147462E+02 -0.17186439236E+03  0.17466289511E+03  0.00000000000E+00 0.  1.
         14    1    3    3    0    0 -0.24160172987E+02 -0.24348626531E+02 -0.29361383593E+02  0.45151527319E+02  0.00000000000E+00 0. -1.
         11    1    5    5    0    0 -0.17490161081E+02  0.17396945465E+02  0.13273469573E+03  0.13500762533E+03  0.00000000000E+00 0. -1.
        -12    1    5    5    0    0  0.62629756701E+02  0.42299279758E+02  0.11145781623E+04  0.11171375006E+04  0.00000000000E+00 0.  1.
          5    1    4    4  501    0 -0.85972110201E+02  0.63101702996E+01  0.65881385331E+02  0.10857647680E+03  0.41800000000E+01 0.  1.
         -5    1    4    4    0  501  0.36257586668E+02 -0.29655621530E+02  0.68229707076E+02  0.82866361130E+02  0.41800000000E+01 0.  1.
</event>
<event>
11    1  0.6763327E-009  0.3490568E+03  0.7561462E-02  0.9813315E-01
         22   -1    0    0    0    0  0.00000000000E+00  0.00000000000E+00  0.67137206218E+03  0.67137206218E+03  0.00000000000E+00 0. -1.
         22   -1    0    0    0    0 -0.00000000000E+00 -0.00000000000E+00 -0.48808380216E+03  0.48808380216E+03  0.00000000000E+00 0. -1.
        -24    2    1    2    0    0 -0.41433604391E+01  0.14238578091E+03 -0.36824494193E+03  0.40265220879E+03  0.78953061651E+02 0.  0.
         25    2    1    2    0    0 -0.15769080794E+02  0.26409195040E+02 -0.40896336372E+02  0.13515556401E+03  0.12509359161E+03 0.  0.
         24    2    1    2    0    0  0.19912441233E+02 -0.16879497595E+03  0.59242953833E+03  0.62164809154E+03  0.81150123844E+02 0.  0.
        -11    1    5    5    0    0  0.13457873304E+02 -0.16404911948E+03  0.45280923400E+03  0.48179812198E+03  0.00000000000E+00 0.  1.
         12    1    5    5    0    0  0.64545679288E+01 -0.47458564738E+01  0.13962030434E+03  0.13984996955E+03  0.00000000000E+00 0. -1.
         11    1    3    3    0    0  0.26630406784E+02  0.10780475218E+03 -0.30256073632E+03  0.32229496167E+03  0.00000000000E+00 0. -1.
        -12    1    3    3    0    0 -0.30773767223E+02  0.34581028736E+02 -0.65684205613E+02  0.80357247119E+02  0.00000000000E+00 0.  1.
          5    1    4    4  501    0 -0.45534558320E+02  0.55910745622E+02  0.55701948803E+01  0.72442438863E+02  0.41800000000E+01 0. -1.
         -5    1    4    4    0  501  0.29765477526E+02 -0.29501550581E+02 -0.46466531252E+02  0.62713125146E+02  0.41800000000E+01 0. -1.
</event>
<event>
11    1  0.6763327E-009  0.1469324E+03  0.7561462E-02  0.1100055E+00
         22   -1    0    0    0    0  0.00000000000E+00  0.00000000000E+00  0.16080917573E+03  0.16080917573E+03  0.00000000000E+00 0.  1.
         22   -1    0    0    0    0 -0.00000000000E+00 -0.00000000000E+00 -0.23108088593E+04  0.23108088593E+04  0.00000000000E+00 0. -1.
        -24    2    1    2    0    0 -0.92331545777E+01  0.76240201370E+02 -0.19604990467E+04  0.19636243911E+04  0.79789834527E+02 0.  0.
         25    2    1    2    0    0  0.39723303014E+02 -0.75456649379E+02 -0.31732507043E+03  0.35158863314E+03  0.12509084656E+03 0.  0.
         24    2    1    2    0    0 -0.30490148437E+02 -0.78355199062E+00  0.12782443356E+03  0.15640501081E+03  0.84812608056E+02 0.  0.
        -11    1    5    5    0    0 -0.51717993881E+02 -0.25364480901E+02  0.84188902495E+02  0.10200921079E+03  0.00000000000E+00 0.  1.
         12    1    5    5    0    0  0.21227845444E+02  0.24580928910E+02  0.43635531064E+02  0.54395800018E+02  0.00000000000E+00 0. -1.
         11    1    3    3    0    0 -0.29231829247E+02  0.40368035814E+02 -0.16028896782E+04  0.16036643659E+04  0.00000000000E+00 0. -1.
        -12    1    3    3    0    0  0.19998674669E+02  0.35872165556E+02 -0.35760936852E+03  0.35996002515E+03  0.00000000000E+00 0.  1.
          5    1    4    4  501    0  0.77794437805E+02 -0.45762757299E+02 -0.26632904244E+03  0.28123804109E+03  0.41800000000E+01 0.  1.
         -5    1    4    4    0  501 -0.38071134790E+02 -0.29693892081E+02 -0.50996027990E+02  0.70350592051E+02  0.41800000000E+01 0.  1.
</event>
<event>
11    1  0.6763327E-009  0.1451564E+03  0.7561462E-02  0.1101933E+00
         22   -1    0    0    0    0  0.00000000000E+00  0.00000000000E+00  0.36295902669E+03  0.36295902669E+03  0.00000000000E+00 0. -1.
         22   -1    0    0    0    0 -0.00000000000E+00 -0.00000000000E+00 -0.89114729551E+03  0.89114729551E+03  0.00000000000E+00 0.  1.
         24    2    1    2    0    0 -0.50066189949E+01  0.68637613599E+02 -0.34226827412E+03  0.35909115226E+03  0.84039847288E+02 0.  0.
         25    2    1    2    0    0 -0.37941368154E+02 -0.77057965517E+02 -0.52359664785E+03  0.54514088485E+03  0.12509059609E+03 0.  0.
        -24    2    1    2    0    0  0.42947987149E+02  0.84203519183E+01  0.33767665313E+03  0.34987428509E+03  0.80442907519E+02 0.  0.
        -13    1    3    3    0    0 -0.11295526041E+01  0.62725392536E+02 -0.34561944414E+03  0.35126706496E+03  0.00000000000E+00 0.  1.
         14    1    3    3    0    0 -0.38770663908E+01  0.59122210630E+01  0.33511700188E+01  0.78240873073E+01  0.00000000000E+00 0. -1.
         11    1    5    5    0    0  0.66262389374E+02  0.51342206214E+01  0.27511339912E+03  0.28302728993E+03  0.00000000000E+00 0. -1.
        -12    1    5    5    0    0 -0.23314402225E+02  0.32861312969E+01  0.62563254014E+02  0.66846995167E+02  0.00000000000E+00 0.  1.
          5    1    4    4  501    0 -0.57773242064E+02  0.87876584762E+01 -0.14465597095E+03  0.15606983300E+03  0.41800000000E+01 0. -1.
         -5    1    4    4    0  501  0.19831873910E+02 -0.85845623993E+02 -0.37894067689E+03  0.38907105185E+03  0.41800000000E+01 0. -1.
</event>
<event>
11    1  0.6763327E-009  0.1590568E+03  0.7561462E-02  0.1087968E+00
         22   -1    0    0    0    0  0.00000000000E+00  0.00000000000E+00  0.48179273689E+03  0.48179273689E+03  0.00000000000E+00 0.  1.
         22   -1    0    0    0    0 -0.00000000000E+00 -0.00000000000E+00 -0.99590126501E+03  0.99590126501E+03  0.00000000000E+00 0.  1.
         24    2    1    2    0    0 -0.88485232734E+02 -0.43905444376E+02 -0.96302909904E+03  0.97135640114E+03  0.79692458807E+02 0.  0.
         25    2    1    2    0    0  0.59229863619E+02  0.70260915773E+01  0.30422526506E+03  0.33430563612E+03  0.12509877591E+03 0.  0.
        -24    2    1    2    0    0  0.29255369115E+02  0.36879352798E+02  0.14469530586E+03  0.17203196463E+03  0.80263952268E+02 0.  0.
        -11    1    3    3    0    0 -0.94544759723E+02 -0.32252682336E+02 -0.93589026383E+03  0.94120642425E+03  0.00000000000E+00 0.  1.
         12    1    3    3    0    0  0.60595269892E+01 -0.11652762039E+02 -0.27138835202E+02  0.30149976892E+02  0.00000000000E+00 0. -1.
         13    1    5    5    0    0 -0.16031408005E+02 -0.16372134766E+02  0.41136092585E+02  0.47087481909E+02  0.00000000000E+00 0. -1.
        -14    1    5    5    0    0  0.45286777120E+02  0.53251487564E+02  0.10355921327E+03  0.12494448272E+03  0.00000000000E+00 0.  1.
          5    1    4    4  501    0 -0.23259954405E+02 -0.14737281393E+02  0.18809766789E+03  0.19014841048E+03  0.41800000000E+01 0. -1.
         -5    1    4    4    0  501  0.82489818024E+02  0.21763372971E+02  0.11612759717E+03  0.14415722565E+03  0.41800000000E+01 0. -1.
</event>
<event>
11    1  0.6763327E-009  0.1393114E+03  0.7561462E-02  0.1108330E+00
         22   -1    0    0    0    0  0.00000000000E+00  0.00000000000E+00  0.17589159025E+04  0.17589159025E+04  0.00000000000E+00 0.  1.
         22   -1    0    0    0    0 -0.00000000000E+00 -0.00000000000E+00 -0.35131888635E+03  0.35131888635E+03  0.00000000000E+00 0.  1.
         24    2    1    2    0    0  0.24497351795E+02 -0.30330672972E+02 -0.32640934329E+03  0.33855406651E+03  0.80967441551E+02 0.  0.
         25    2    1    2    0    0 -0.51000544020E+02  0.81628650709E+02  0.34771680618E+03  0.38186196339E+03  0.12508912693E+03 0.  0.
        -24    2    1    2    0    0  0.26503192225E+02 -0.51297977737E+02  0.13862895533E+04  0.13898187590E+04  0.80396240716E+02 0.  0.
        -11    1    3    3    0    0 -0.20737646109E+02  0.14618498716E+02 -0.11340651888E+03  0.11621010712E+03  0.00000000000E+00 0.  1.
         12    1    3    3    0    0  0.45234997903E+02 -0.44949171688E+02 -0.21300282441E+03  0.22234395939E+03  0.00000000000E+00 0. -1.
         13    1    5    5    0    0  0.99535000093E+01 -0.20050383520E+02  0.80607195841E+02  0.83657695779E+02  0.00000000000E+00 0. -1.
        -14    1    5    5    0    0  0.16549692215E+02 -0.31247594217E+02  0.13056823575E+04  0.13061610632E+04  0.00000000000E+00 0.  1.
          5    1    4    4  501    0  0.27888342539E+02  0.15586678988E+02  0.19022783459E+02  0.37417147165E+02  0.41800000000E+01 0.  1.
         -5    1    4    4    0  501 -0.78888886559E+02  0.66041971720E+02  0.32869402272E+03  0.34444481622E+03  0.41800000000E+01 0.  1.
</event>
<event>
11    1  0.6763327E-009  0.1747835E+03  0.7561462E-02  0.1073942E+00
         22   -1    0    0    0    0  0.00000000000E+00  0.00000000000E+00  0.44964256827E+04  0.44964256827E+04  0.00000000000E+00 0. -1.
         22   -1    0    0    0    0 -0.00000000000E+00 -0.00000000000E+00 -0.45530914908E+03  0.45530914908E+03  0.00000000000E+00 0. -1.
         24    2    1    2    0    0  0.21194910085E+02  0.80210550766E+01 -0.42989356266E+03  0.43646825127E+03  0.71989565963E+02 0.  0.
         25    2    1    2    0    0  0.75702951674E+02  0.68288443022E+02  0.29166017829E+03  0.33332724160E+03  0.12508853684E+03 0.  0.
        -24    2    1    2    0    0 -0.96897861759E+02 -0.76309498098E+02  0.41793499180E+04  0.41819393389E+04  0.80240652082E+02 0.  0.
        -13    1    3    3    0    0  0.24358360822E+02  0.18827133200E+02 -0.70868212063E+02  0.77266384460E+02  0.00000000000E+00 0.  1.
         14    1    3    3    0    0 -0.31634507372E+01 -0.10806078123E+02 -0.35902535060E+03  0.35920186681E+03  0.00000000000E+00 0. -1.
         11    1    5    5    0    0 -0.94868223617E+02 -0.91418103500E+02  0.38003975665E+04  0.38026804905E+04  0.00000000000E+00 0. -1.
        -12    1    5    5    0    0 -0.20296381416E+01  0.15108605402E+02  0.37895235149E+03  0.37925884840E+03  0.00000000000E+00 0.  1.
          5    1    4    4  501    0  0.61565283248E+02 -0.69472975773E+01  0.49777638097E+02  0.79585392501E+02  0.41800000000E+01 0. -1.
         -5    1    4    4    0  501  0.14137668426E+02  0.75235740599E+02  0.24188254020E+03  0.25374184910E+03  0.41800000000E+01 0. -1.
</event>
<event>
11    1  0.8960550E-009  0.1685031E+03  0.7561462E-02  0.1079342E+00
         22   -1    0    0    0    0  0.00000000000E+00  0.00000000000E+00  0.76968653487E+03  0.76968653487E+03  0.00000000000E+00 0. -1.
         22   -1    0    0    0    0 -0.00000000000E+00 -0.00000000000E+00 -0.10345934807E+04  0.10345934807E+04  0.00000000000E+00 0. -1.
        -24    2    1    2    0    0  0.94820813451E+02 -0.72220177170E+02 -0.95736344007E+03  0.96813753558E+03  0.80862789769E+02 0.  0.
         25    2    1    2    0    0  0.19331777147E+02  0.19365108427E+02  0.36412024414E+00  0.12806244950E+03  0.12510448975E+03 0.  0.
         24    2    1    2    0    0 -0.11415259060E+03  0.52855068743E+02  0.69209237400E+03  0.70808003047E+03  0.81000019539E+02 0.  0.
        -13    1    5    5    0    0  0.98387942898E+01  0.59629894903E+01  0.13258908465E+03  0.13308728146E+03  0.00000000000E+00 0.  1.
         14    1    5    5    0    0 -0.12399138489E+03  0.46892079253E+02  0.55950328935E+03  0.57499274901E+03  0.00000000000E+00 0. -1.
         13    1    3    3    0    0  0.53114364368E+02 -0.82319582851E+02 -0.75073980869E+03  0.75710495294E+03  0.00000000000E+00 0. -1.
        -14    1    3    3    0    0  0.41706449083E+02  0.10099405680E+02 -0.20662363138E+03  0.21103258264E+03  0.00000000000E+00 0.  1.
          5    1    4    4  501    0 -0.22710959830E+02  0.38471151558E+02 -0.44747945811E+02  0.63369300556E+02  0.41800000000E+01 0. -1.
         -5    1    4    4    0  501  0.42042736977E+02 -0.19106043131E+02  0.45112066055E+02  0.64693148945E+02  0.41800000000E+01 0. -1.
</event>
<event>
11    1  0.6763327E-009  0.1375964E+03  0.7561462E-02  0.1110273E+00
         22   -1    0    0    0    0  0.00000000000E+00  0.00000000000E+00  0.96795920317E+03  0.96795920317E+03  0.00000000000E+00 0. -1.
         22   -1    0    0    0    0 -0.00000000000E+00 -0.00000000000E+00 -0.41306421635E+03  0.41306421635E+03  0.00000000000E+00 0.  1.
         24    2    1    2    0    0  0.24232654521E+02 -0.52305778266E+02 -0.39347528352E+03  0.40573509205E+03  0.80467696611E+02 0.  0.
         25    2    1    2    0    0 -0.17698141745E+02  0.30368743076E+02  0.39700301019E+03  0.41772613268E+03  0.12509295362E+03 0.  0.
        -24    2    1    2    0    0 -0.65345127755E+01  0.21937035190E+02  0.55136726014E+03  0.55756219480E+03  0.79660605936E+02 0.  0.
        -11    1    3    3    0    0  0.38467716874E+02 -0.62352229619E+02 -0.36555546761E+03  0.37282484585E+03  0.00000000000E+00 0.  1.
         12    1    3    3    0    0 -0.14235062354E+02  0.10046451353E+02 -0.27919815903E+02  0.32910246202E+02  0.00000000000E+00 0. -1.
         11    1    5    5    0    0  0.79916226686E+01 -0.17294059150E+02  0.40188884631E+03  0.40234014876E+03  0.00000000000E+00 0. -1.
        -12    1    5    5    0    0 -0.14526135444E+02  0.39231094340E+02  0.14947841384E+03  0.15522204604E+03  0.00000000000E+00 0.  1.
          5    1    4    4  501    0 -0.44133526747E+02  0.56482319682E+02  0.35184299119E+03  0.35909467202E+03  0.41800000000E+01 0.  1.
         -5    1    4    4    0  501  0.26435385002E+02 -0.26113576606E+02  0.45160018996E+02  0.58631460659E+02  0.41800000000E+01 0.  1.
</event>
<event>
11    1  0.6763327E-009  0.1261810E+03  0.7561462E-02  0.1124052E+00
         22   -1    0    0    0    0  0.00000000000E+00  0.00000000000E+00  0.30829807805E+03  0.30829807805E+03  0.00000000000E+00 0. -1.
         22   -1    0    0    0    0 -0.00000000000E+00 -0.00000000000E+00 -0.38273951204E+03  0.38273951204E+03  0.00000000000E+00 0. -1.
        -24    2    1    2    0    0  0.16263969963E+02 -0.57673886667E+01 -0.17099607674E+03  0.18935450558E+03  0.79483904250E+02 0.  0.
         25    2    1    2    0    0 -0.64095490265E+01  0.19195841393E+02 -0.17675596490E+03  0.21748744509E+03  0.12509418452E+03 0.  0.
         24    2    1    2    0    0 -0.98544209361E+01 -0.13428452726E+02  0.27331060765E+03  0.28419563940E+03  0.76098884679E+02 0.  0.
        -13    1    5    5    0    0 -0.90500952648E+01 -0.14098671531E+02  0.74537427679E+01  0.18336713023E+02  0.00000000000E+00 0.  1.
         14    1    5    5    0    0 -0.80432567131E+00  0.67021880497E+00  0.26585686488E+03  0.26585892638E+03  0.00000000000E+00 0. -1.
         11    1    3    3    0    0  0.37549499998E+02 -0.33290708638E+01 -0.16163731855E+03  0.16597490898E+03  0.00000000000E+00 0. -1.
        -12    1    3    3    0    0 -0.21285530036E+02 -0.24383178029E+01 -0.93587581876E+01  0.23379596605E+02  0.00000000000E+00 0.  1.
          5    1    4    4  501    0 -0.31956076539E+02  0.44861324212E+02 -0.17208912901E+03  0.18073701879E+03  0.41800000000E+01 0.  1.
         -5    1    4    4    0  501  0.25546527512E+02 -0.25665482819E+02 -0.46668358856E+01  0.36750426303E+02  0.41800000000E+01 0.  1.
</event>
<event>
11    1  0.6763327E-009  0.3341073E+03  0.7561462E-02  0.9867075E-01
         22   -1    0    0    0    0  0.00000000000E+00  0.00000000000E+00  0.28894271435E+03  0.28894271435E+03  0.00000000000E+00 0. -1.
         22   -1    0    0    0    0 -0.00000000000E+00 -0.00000000000E+00 -0.29750920927E+04  0.29750920927E+04  0.00000000000E+00 0. -1.
         24    2    1    2    0    0  0.10601479471E+03  0.14655625892E+03 -0.23723562755E+04  0.23806126990E+04  0.80775311571E+02 0.  0.
         25    2    1    2    0    0 -0.34791083562E+03  0.46312209909E+02 -0.40571071001E+03  0.55084987975E+03  0.12509052511E+03 0.  0.
        -24    2    1    2    0    0  0.24189604092E+03 -0.19286846883E+03  0.91917607229E+02  0.33257222825E+03  0.80271412145E+02 0.  0.
        -13    1    3    3    0    0 -0.64784997522E+01  0.36927043264E+01 -0.35490154447E+03  0.35497987731E+03  0.00000000000E+00 0.  1.
         14    1    3    3    0    0  0.11249329446E+03  0.14286355459E+03 -0.20174547311E+04  0.20256328217E+04  0.00000000000E+00 0. -1.
         13    1    5    5    0    0  0.24119122903E+03 -0.17010856123E+03  0.75946864347E+02  0.30475901589E+03  0.00000000000E+00 0. -1.
        -14    1    5    5    0    0  0.70481188853E+00 -0.22759907595E+02  0.15970742882E+02  0.27813212359E+02  0.00000000000E+00 0.  1.
          5    1    4    4  501    0 -0.11420400965E+03  0.46130439918E+02 -0.69853866588E+02  0.14166018631E+03  0.41800000000E+01 0. -1.
         -5    1    4    4    0  501 -0.23370682598E+03  0.18176999049E+00 -0.33585684343E+03  0.40918969345E+03  0.41800000000E+01 0. -1.
</event>
<event>
11    1  0.6763327E-009  0.1420272E+03  0.7561462E-02  0.1105316E+00
         22   -1    0    0    0    0  0.00000000000E+00  0.00000000000E+00  0.10119403345E+03  0.10119403345E+03  0.00000000000E+00 0. -1.
         22   -1    0    0    0    0 -0.00000000000E+00 -0.00000000000E+00 -0.80596956185E+03  0.80596956185E+03  0.00000000000E+00 0.  1.
        -24    2    1    2    0    0 -0.86911438272E+01  0.31184585054E+02 -0.63089172987E+03  0.63681321685E+03  0.80365938096E+02 0.  0.
         25    2    1    2    0    0 -0.26177811644E+01  0.53630331289E+02 -0.10319984399E+02  0.13653254526E+03  0.12510622936E+03 0.  0.
         24    2    1    2    0    0  0.11308924992E+02 -0.84814916342E+02 -0.63563814121E+02  0.13381783320E+03  0.80903598172E+02 0.  0.
        -11    1    5    5    0    0  0.45153517262E+02 -0.37748780697E+02 -0.23616630293E+02  0.63415737728E+02  0.00000000000E+00 0.  1.
         12    1    5    5    0    0 -0.33844592270E+02 -0.47066135645E+02 -0.39947183829E+02  0.70402095468E+02  0.00000000000E+00 0. -1.
         13    1    3    3    0    0  0.32000455821E+02 -0.46355568236E+01 -0.22144246543E+03  0.22379071262E+03  0.00000000000E+00 0. -1.
        -14    1    3    3    0    0 -0.40691599648E+02  0.35820141877E+02 -0.40944926444E+03  0.41302250423E+03  0.00000000000E+00 0.  1.
          5    1    4    4  501    0 -0.41040889740E+02 -0.24271495234E+02 -0.12761155709E+02  0.49535639761E+02  0.41800000000E+01 0. -1.
         -5    1    4    4    0  501  0.38423108575E+02  0.77901826523E+02  0.24411713105E+01  0.86996905494E+02  0.41800000000E+01 0. -1.
</event>
<event>
11    1  0.6763327E-009  0.1897963E+03  0.7561462E-02  0.1061983E+00
         22   -1    0    0    0    0  0.00000000000E+00  0.00000000000E+00  0.40184525837E+03  0.40184525837E+03  0.00000000000E+00 0.  1.
         22   -1    0    0    0    0 -0.00000000000E+00 -0.00000000000E+00 -0.75070611729E+03  0.75070611729E+03  0.00000000000E+00 0. -1.
         24    2    1    2    0    0  0.10209854924E+03  0.84325732511E+02 -0.41737439392E+03  0.44503175154E+03  0.79479131002E+02 0.  0.
         25    2    1    2    0    0 -0.11260730663E+03 -0.12860311812E+03 -0.27763162335E+03  0.34920762894E+03  0.12508989699E+03 0.  0.
        -24    2    1    2    0    0  0.10508757388E+02  0.44277385611E+02  0.34614515834E+03  0.35831199517E+03  0.80623162813E+02 0.  0.
        -13    1    3    3    0    0  0.83407120265E+02  0.61736820471E+02 -0.19647380839E+03  0.22219392452E+03  0.00000000000E+00 0.  1.
         14    1    3    3    0    0  0.18691428975E+02  0.22588912040E+02 -0.22090058553E+03  0.22283782702E+03  0.00000000000E+00 0. -1.
         11    1    5    5    0    0  0.21242574750E+02 -0.98937215426E+01  0.33838740627E+02  0.41160576711E+02  0.00000000000E+00 0. -1.
        -12    1    5    5    0    0 -0.10733817362E+02  0.54171107153E+02  0.31230641772E+03  0.31715141846E+03  0.00000000000E+00 0.  1.
          5    1    4    4  501    0 -0.73661920844E+01 -0.51205399574E+02 -0.12163346376E+02  0.53307345896E+02  0.41800000000E+01 0.  1.
         -5    1    4    4    0  501 -0.10524111454E+03 -0.77397718547E+02 -0.26546827697E+03  0.29590028304E+03  0.41800000000E+01 0.  1.
</event>
<event>
11    1  0.6763327E-009  0.2521320E+03  0.7561462E-02  0.1022770E+00
         22   -1    0    0    0    0  0.00000000000E+00  0.00000000000E+00  0.17867251090E+04  0.17867251090E+04  0.00000000000E+00 0. -1.
         22   -1    0    0    0    0 -0.00000000000E+00 -0.00000000000E+00 -0.44854775251E+03  0.44854775251E+03  0.00000000000E+00 0.  1.
         24    2    1    2    0    0 -0.21003316350E+02  0.15038495821E+02 -0.35996164019E+03  0.36966620392E+03  0.80083857649E+02 0.  0.
         25    2    1    2    0    0  0.29176248461E+02 -0.23214653972E+03  0.15941966025E+03  0.30952542463E+03  0.12509233008E+03 0.  0.
        -24    2    1    2    0    0 -0.81729321113E+01  0.21710804389E+03  0.15387193364E+04  0.15560812329E+04  0.80801656217E+02 0.  0.
        -11    1    3    3    0    0 -0.11638190104E+02 -0.81499430391E+01 -0.33139571204E+03  0.33170014622E+03  0.00000000000E+00 0.  1.
         12    1    3    3    0    0 -0.93651262455E+01  0.23188438860E+02 -0.28565928150E+02  0.37966057702E+02  0.00000000000E+00 0. -1.
         13    1    5    5    0    0 -0.40596902860E+02  0.70940174190E+02  0.50349019987E+03  0.51008136430E+03  0.00000000000E+00 0. -1.
        -14    1    5    5    0    0  0.32423970749E+02  0.14616786971E+03  0.10352291366E+04  0.10459998686E+04  0.00000000000E+00 0.  1.
          5    1    4    4  501    0  0.50369386003E+01 -0.24640971814E+02 -0.21335156590E+02  0.33244692045E+02  0.41800000000E+01 0.  1.
         -5    1    4    4    0  501  0.24139309861E+02 -0.20750556790E+03  0.18075481684E+03  0.27628073259E+03  0.41800000000E+01 0.  1.
</event>
<event>
11    1  0.6763327E-009  0.1426671E+03  0.7561462E-02  0.1104616E+00
         22   -1    0    0    0    0  0.00000000000E+00  0.00000000000E+00  0.80459238487E+03  0.80459238487E+03  0.00000000000E+00 0.  1.
         22   -1    0    0    0    0 -0.00000000000E+00 -0.00000000000E+00 -0.32052474960E+03  0.32052474960E+03  0.00000000000E+00 0.  1.
        -24    2    1    2    0    0  0.33717054608E+02 -0.48910043451E+02 -0.12025628043E+03  0.15538109997E+03  0.78439028073E+02 0.  0.
         25    2    1    2    0    0 -0.64666171164E+02  0.57899846790E+02 -0.14801299872E+03  0.21234315276E+03  0.12509061030E+03 0.  0.
         24    2    1    2    0    0  0.30949116556E+02 -0.89898033391E+01  0.75233691442E+03  0.75739288174E+03  0.81206404517E+02 0.  0.
        -13    1    5    5    0    0  0.51905666899E+02  0.63327269159E+01  0.63830076445E+03  0.64043904284E+03  0.00000000000E+00 0.  1.
         14    1    5    5    0    0 -0.20956550343E+02 -0.15322530255E+02  0.11403614996E+03  0.11695383890E+03  0.00000000000E+00 0. -1.
         13    1    3    3    0    0  0.58180546199E+01 -0.32509545611E+02 -0.23449261121E+01  0.33109198025E+02  0.00000000000E+00 0. -1.
        -14    1    3    3    0    0  0.27898999988E+02 -0.16400497840E+02 -0.11791135431E+03  0.12227190195E+03  0.00000000000E+00 0.  1.
          5    1    4    4  501    0 -0.37432211337E+02  0.67485531701E+02 -0.18342586853E+02  0.79431670806E+02  0.41800000000E+01 0.  1.
         -5    1    4    4    0  501 -0.27233959827E+02 -0.95856849105E+01 -0.12967041187E+03  0.13291148196E+03  0.41800000000E+01 0.  1.
</event>
<event>
11    1  0.6763327E-009  0.1407356E+03  0.7561462E-02  0.1106740E+00
         22   -1    0    0    0    0  0.00000000000E+00  0.00000000000E+00  0.12234336318E+04  0.12234336318E+04  0.00000000000E+00 0. -1.
         22   -1    0    0    0    0 -0.00000000000E+00 -0.00000000000E+00 -0.11391333302E+03  0.11391333302E+03  0.00000000000E+00 0. -1.
        -24    2    1    2    0    0 -0.60644455335E+02 -0.26610911112E+02 -0.65496431420E+02  0.12349218763E+03  0.81084198981E+02 0.  0.
         25    2    1    2    0    0  0.16882442592E+02  0.69531614663E+02  0.30116051891E+03  0.33386323111E+03  0.12508931461E+03 0.  0.
         24    2    1    2    0    0  0.43762012743E+02 -0.42920703551E+02  0.87385621125E+03  0.87999154605E+03  0.83684781296E+02 0.  0.
        -13    1    5    5    0    0  0.29641297128E+02  0.14262421498E+02  0.53837338271E+03  0.53937734692E+03  0.00000000000E+00 0.  1.
         14    1    5    5    0    0  0.14120715615E+02 -0.57183125049E+02  0.33548282854E+03  0.34061419913E+03  0.00000000000E+00 0. -1.
         11    1    3    3    0    0 -0.80218747045E+02 -0.25393004723E+02 -0.59248488136E+02  0.10290886946E+03  0.00000000000E+00 0. -1.
        -12    1    3    3    0    0  0.19574291709E+02 -0.12179063885E+01 -0.62479432837E+01  0.20583318177E+02  0.00000000000E+00 0.  1.
          5    1    4    4  501    0 -0.23002214135E+02  0.22027876421E+02  0.65728786058E+01  0.32787258621E+02  0.41800000000E+01 0. -1.
         -5    1    4    4    0  501  0.39884656727E+02  0.47503738242E+02  0.29458764030E+03  0.30107597249E+03  0.41800000000E+01 0. -1.
</event>
<event>
11    1  0.6763327E-009  0.1397729E+03  0.7561462E-02  0.1107812E+00
         22   -1    0    0    0    0  0.00000000000E+00  0.00000000000E+00  0.16282792322E+03  0.16282792322E+03  0.00000000000E+00 0.  1.
         22   -1    0    0    0    0 -0.00000000000E+00 -0.00000000000E+00 -0.12173005434E+04  0.12173005434E+04  0.00000000000E+00 0. -1.
        -24    2    1    2    0    0 -0.29438534092E+02  0.13194721041E+02 -0.83476167276E+03  0.83933393835E+03  0.81324546087E+02 0.  0.
         25    2    1    2    0    0  0.75935774235E+02 -0.52606668254E+02 -0.34640776081E+03  0.37971075434E+03  0.12509283296E+03 0.  0.
         24    2    1    2    0    0 -0.46497240143E+02  0.39411947213E+02  0.12669681336E+03  0.16108377396E+03  0.78616822598E+02 0.  0.
        -11    1    5    5    0    0 -0.20985634629E+02  0.11198377728E+02  0.12015629179E+03  0.12248810139E+03  0.00000000000E+00 0.  1.
         12    1    5    5    0    0 -0.25511605514E+02  0.28213569484E+02  0.65405215614E+01  0.38595672572E+02  0.00000000000E+00 0. -1.
         13    1    3    3    0    0 -0.22967763040E+02  0.24614507692E+02 -0.81448032082E+03  0.81517580013E+03  0.00000000000E+00 0. -1.
        -14    1    3    3    0    0 -0.64707710518E+01 -0.11419786651E+02 -0.20281351947E+02  0.24158138214E+02  0.00000000000E+00 0.  1.
          5    1    4    4  501    0  0.71315954132E+02 -0.46093842917E+01 -0.31255106643E+03  0.32064443433E+03  0.41800000000E+01 0.  1.
         -5    1    4    4    0  501  0.46198201028E+01 -0.47997283962E+02 -0.33856694381E+02  0.59066320013E+02  0.41800000000E+01 0.  1.
</event>
<event>
11    1  0.6763327E-009  0.1664966E+03  0.7561462E-02  0.1081121E+00
         22   -1    0    0    0    0  0.00000000000E+00  0.00000000000E+00  0.65592111544E+03  0.65592111544E+03  0.00000000000E+00 0. -1.
         22   -1    0    0    0    0 -0.00000000000E+00 -0.00000000000E+00 -0.19774300534E+03  0.19774300534E+03  0.00000000000E+00 0.  1.
         24    2    1    2    0    0  0.77304011782E+02  0.66656539146E+02 -0.11229541355E+03  0.17051906059E+03  0.77765581531E+02 0.  0.
         25    2    1    2    0    0 -0.15131579854E+03 -0.93126394658E+02  0.19783049838E+03  0.29385984528E+03  0.12509079227E+03 0.  0.
        -24    2    1    2    0    0  0.74011786757E+02  0.26469855511E+02  0.37264302527E+03  0.38928521491E+03  0.80633469719E+02 0.  0.
        -13    1    3    3    0    0  0.80715815307E+02  0.22557167224E+02 -0.78802115856E+02  0.11503756820E+03  0.00000000000E+00 0.  1.
         14    1    3    3    0    0 -0.34118035248E+01  0.44099371922E+02 -0.33493297693E+02  0.55481492388E+02  0.00000000000E+00 0. -1.
         13    1    5    5    0    0  0.88547695221E+02  0.32165377308E+02  0.28234279384E+03  0.29764535787E+03  0.00000000000E+00 0. -1.
        -14    1    5    5    0    0 -0.14535908464E+02 -0.56955217964E+01  0.90300231430E+02  0.91639857047E+02  0.00000000000E+00 0.  1.
          5    1    4    4  501    0 -0.11158100226E+03 -0.11679974419E+03  0.11309351974E+03  0.19723112562E+03  0.41800000000E+01 0. -1.
         -5    1    4    4    0  501 -0.39734796280E+02  0.23673349533E+02  0.84736978642E+02  0.96628719659E+02  0.41800000000E+01 0. -1.
</event>
<event>
11    1  0.6763327E-009  0.1810043E+03  0.7561462E-02  0.1068833E+00
         22   -1    0    0    0    0  0.00000000000E+00  0.00000000000E+00  0.14591395398E+04  0.14591395398E+04  0.00000000000E+00 0. -1.
         22   -1    0    0    0    0 -0.00000000000E+00 -0.00000000000E+00 -0.77876212526E+03  0.77876212526E+03  0.00000000000E+00 0. -1.
         24    2    1    2    0    0  0.54353147438E+02 -0.12034005689E+03 -0.73717522273E+03  0.75320491764E+03  0.80338938381E+02 0.  0.
         25    2    1    2    0    0 -0.12378092575E+03  0.40815420967E+02  0.24354540570E+03  0.30323203700E+03  0.12509071691E+03 0.  0.
        -24    2    1    2    0    0  0.69427778310E+02  0.79524635923E+02  0.11740072315E+04  0.11814647104E+04  0.80134250277E+02 0.  0.
        -11    1    3    3    0    0  0.26785042168E+02 -0.29689300991E+02 -0.82176542980E+02  0.91388605928E+02  0.00000000000E+00 0.  1.
         12    1    3    3    0    0  0.27568105270E+02 -0.90650755899E+02 -0.65499867975E+03  0.66181631172E+03  0.00000000000E+00 0. -1.
         11    1    5    5    0    0  0.31053652921E+02  0.14620516550E+01  0.60976530491E+03  0.61055728153E+03  0.00000000000E+00 0. -1.
        -12    1    5    5    0    0  0.38374125389E+02  0.78062584268E+02  0.56424192661E+03  0.57090742884E+03  0.00000000000E+00 0.  1.
          5    1    4    4  501    0 -0.14336574893E+03  0.28949455611E+02  0.23787533238E+03  0.27927397856E+03  0.41800000000E+01 0.  1.
         -5    1    4    4    0  501  0.19584823179E+02  0.11865965356E+02  0.56700733215E+01  0.23958058441E+02  0.41800000000E+01 0.  1.
</event>
<event>
11    1  0.6763327E-009  0.1665168E+03  0.7561462E-02  0.1081103E+00
         22   -1    0    0    0    0  0.00000000000E+00  0.00000000000E+00  0.49040292835E+03  0.49040292835E+03  0.00000000000E+00 0. -1.
         22   -1    0    0    0    0 -0.00000000000E+00 -0.00000000000E+00 -0.26207345876E+04  0.26207345876E+04  0.00000000000E+00 0. -1.
        -24    2    1    2    0    0 -0.61784282198E+02 -0.57385857781E+02 -0.97170119399E+03  0.97918314431E+03  0.86521589820E+02 0.  0.
         25    2    1    2    0    0  0.10693064826E+03  0.10458768493E+03 -0.16339216435E+04  0.16455153750E+04  0.12509262549E+03 0.  0.
         24    2    1    2    0    0 -0.45146366066E+02 -0.47201827152E+02  0.47529117819E+03  0.48643899667E+03  0.80342930972E+02 0.  0.
        -11    1    5    5    0    0 -0.23584329943E+02 -0.12034691739E+02  0.39755561535E+03  0.39843634588E+03  0.00000000000E+00 0.  1.
         12    1    5    5    0    0 -0.21562036124E+02 -0.35167135413E+02  0.77735562842E+02  0.88002650786E+02  0.00000000000E+00 0. -1.
         11    1    3    3    0    0 -0.61821141115E+02 -0.49615169770E+02 -0.96669464372E+03  0.96993920055E+03  0.00000000000E+00 0. -1.
        -12    1    3    3    0    0  0.36858917309E-01 -0.77706880110E+01 -0.50065502695E+01  0.92439437658E+01  0.00000000000E+00 0.  1.
          5    1    4    4  501    0  0.10922270770E+03  0.54149519890E+02 -0.14374675119E+04  0.14426337340E+04  0.41800000000E+01 0.  1.
         -5    1    4    4    0  501 -0.22920594378E+01  0.50438165044E+02 -0.19645413156E+03  0.20288164096E+03  0.41800000000E+01 0.  1.
</event>
<event>
11    1  0.6763327E-009  0.1855574E+03  0.7561462E-02  0.1065234E+00
         22   -1    0    0    0    0  0.00000000000E+00  0.00000000000E+00  0.76674778025E+03  0.76674778025E+03  0.00000000000E+00 0. -1.
         22   -1    0    0    0    0 -0.00000000000E+00 -0.00000000000E+00 -0.47250257938E+03  0.47250257938E+03  0.00000000000E+00 0.  1.
         24    2    1    2    0    0  0.90291037224E+02 -0.12561454913E+02 -0.41505157632E+03  0.43201521533E+03  0.77840052107E+02 0.  0.
         25    2    1    2    0    0 -0.33639406736E+02  0.14234807997E+03  0.22229553910E+03  0.29403604337E+03  0.12508917834E+03 0.  0.
        -24    2    1    2    0    0 -0.56651630487E+02 -0.12978662506E+03  0.48700123810E+03  0.51319910093E+03  0.78416426909E+02 0.  0.
        -11    1    3    3    0    0  0.96101212627E+02 -0.23157769395E+02 -0.29007891906E+03  0.30645962970E+03  0.00000000000E+00 0.  1.
         12    1    3    3    0    0 -0.58101754039E+01  0.10596314482E+02 -0.12497265726E+03  0.12555558562E+03  0.00000000000E+00 0. -1.
         11    1    5    5    0    0 -0.13693240286E+02 -0.89837542591E+02  0.19197971982E+03  0.21240174601E+03  0.00000000000E+00 0. -1.
        -12    1    5    5    0    0 -0.42958390201E+02 -0.39949082471E+02  0.29502151828E+03  0.30079735492E+03  0.00000000000E+00 0.  1.
          5    1    4    4  501    0 -0.52251733413E+02  0.15667797054E+03  0.17269931665E+03  0.23899949052E+03  0.41800000000E+01 0.  1.
         -5    1    4    4    0  501  0.18612326677E+02 -0.14329890570E+02  0.49596222447E+02  0.55036552845E+02  0.41800000000E+01 0.  1.
</event>
<event>
11    1  0.6763327E-009  0.2376731E+03  0.7561462E-02  0.1030679E+00
         22   -1    0    0    0    0  0.00000000000E+00  0.00000000000E+00  0.75134016407E+03  0.75134016407E+03  0.00000000000E+00 0.  1.
         22   -1    0    0    0    0 -0.00000000000E+00 -0.00000000000E+00 -0.25721131334E+04  0.25721131334E+04  0.00000000000E+00 0.  1.
        -24    2    1    2    0    0  0.23421026140E+02  0.10299246997E+02 -0.23438941046E+04  0.23454361983E+04  0.81097273074E+02 0.  0.
         25    2    1    2    0    0 -0.20719860544E+03 -0.89572334112E+02 -0.13090320341E+03  0.28937347354E+03  0.12508754291E+03 0.  0.
         24    2    1    2    0    0  0.18377757930E+03  0.79273087114E+02  0.65402433864E+03  0.68864362568E+03  0.80148528808E+02 0.  0.
        -11    1    5    5    0    0  0.18712133509E+03  0.63905836704E+02  0.62626255819E+03  0.65673673706E+03  0.00000000000E+00 0.  1.
         12    1    5    5    0    0 -0.33437557977E+01  0.15367250410E+02  0.27761780447E+02  0.31906888623E+02  0.00000000000E+00 0. -1.
         13    1    3    3    0    0 -0.66443594494E+01 -0.21026800267E+02 -0.22085852339E+03  0.22195666513E+03  0.00000000000E+00 0. -1.
        -14    1    3    3    0    0  0.30065385590E+02  0.31326047264E+02 -0.21230355812E+04  0.21234795331E+04  0.00000000000E+00 0.  1.
          5    1    4    4  501    0 -0.17404287414E+03 -0.10783608292E+03 -0.14258986378E+03  0.24953734084E+03  0.41800000000E+01 0. -1.
         -5    1    4    4    0  501 -0.33155731294E+02  0.18263748804E+02  0.11686660369E+02  0.39836132701E+02  0.41800000000E+01 0. -1.
</event>
<event>
11    1  0.6763327E-009  0.1472030E+03  0.7561462E-02  0.1099772E+00
         22   -1    0    0    0    0  0.00000000000E+00  0.00000000000E+00  0.26440155053E+03  0.26440155053E+03  0.00000000000E+00 0. -1.
         22   -1    0    0    0    0 -0.00000000000E+00 -0.00000000000E+00 -0.70908246477E+03  0.70908246477E+03  0.00000000000E+00 0. -1.
         24    2    1    2    0    0  0.12653060809E+02  0.74478093043E+02 -0.61935012421E+03  0.62933752790E+03  0.82243913925E+02 0.  0.
         25    2    1    2    0    0 -0.53732005899E+01 -0.12743244025E+03  0.52193186378E+02  0.18611598909E+03  0.12508850698E+03 0.  0.
        -24    2    1    2    0    0 -0.72798602186E+01  0.52954347203E+02  0.12247602359E+03  0.15803049831E+03  0.84356996085E+02 0.  0.
        -13    1    3    3    0    0 -0.28347447280E+02  0.21261680956E+02 -0.10975480068E+03  0.11533322642E+03  0.00000000000E+00 0.  1.
         14    1    3    3    0    0  0.41000508089E+02  0.53216412087E+02 -0.50959532353E+03  0.51400430148E+03  0.00000000000E+00 0. -1.
         13    1    5    5    0    0 -0.38999588825E+02  0.55280025693E+02  0.76462515566E+02  0.10209488457E+03  0.00000000000E+00 0. -1.
        -14    1    5    5    0    0  0.31719728606E+02 -0.23256784902E+01  0.46013508029E+02  0.55935613740E+02  0.00000000000E+00 0.  1.
          5    1    4    4  501    0  0.37118241318E+02  0.60674796214E+01  0.17674850963E+02  0.41766624284E+02  0.41800000000E+01 0. -1.
         -5    1    4    4    0  501 -0.42491441907E+02 -0.13349991987E+03  0.34518335415E+02  0.14434936481E+03  0.41800000000E+01 0. -1.
</event>
<event>
11    1  0.6763327E-009  0.3136237E+03  0.7561462E-02  0.9945847E-01
         22   -1    0    0    0    0  0.00000000000E+00  0.00000000000E+00  0.50928355513E+03  0.50928355513E+03  0.00000000000E+00 0. -1.
         22   -1    0    0    0    0 -0.00000000000E+00 -0.00000000000E+00 -0.46661324472E+03  0.46661324472E+03  0.00000000000E+00 0. -1.
        -24    2    1    2    0    0 -0.11091565161E+03  0.84068223019E+02 -0.23128115990E+03  0.28148726244E+03  0.79839564723E+02 0.  0.
         25    2    1    2    0    0 -0.14363981866E+02 -0.32662448019E+03  0.11431043766E+03  0.36824507766E+03  0.12509071121E+03 0.  0.
         24    2    1    2    0    0  0.12527963347E+03  0.24255625717E+03  0.15964103265E+03  0.32616445975E+03  0.79808965930E+02 0.  0.
        -13    1    5    5    0    0  0.35907269574E+02  0.60528565294E+02  0.39183560750E+01  0.70486826707E+02  0.00000000000E+00 0.  1.
         14    1    5    5    0    0  0.89372363899E+02  0.18202769187E+03  0.15572267658E+03  0.25567763304E+03  0.00000000000E+00 0. -1.
         13    1    3    3    0    0 -0.67046817148E+02  0.93106880994E+02 -0.15218585849E+03  0.19059040507E+03  0.00000000000E+00 0. -1.
        -14    1    3    3    0    0 -0.43868834459E+02 -0.90386579743E+01 -0.79095301408E+02  0.90896857370E+02  0.00000000000E+00 0.  1.
          5    1    4    4  501    0 -0.13737467071E+02 -0.27739093205E+03  0.14162412112E+03  0.31178407795E+03  0.41800000000E+01 0.  1.
         -5    1    4    4    0  501 -0.62651479501E+00 -0.49233548142E+02 -0.27313683463E+02  0.56460999705E+02  0.41800000000E+01 0.  1.
</event>
<event>
11    1  0.6763327E-009  0.1284836E+03  0.7561462E-02  0.1121146E+00
         22   -1    0    0    0    0  0.00000000000E+00  0.00000000000E+00  0.26064159207E+03  0.26064159207E+03  0.00000000000E+00 0.  1.
         22   -1    0    0    0    0 -0.00000000000E+00 -0.00000000000E+00 -0.14811181742E+04  0.14811181742E+04  0.00000000000E+00 0.  1.
        -24    2    1    2    0    0  0.28775138097E+02  0.59119624430E+01 -0.14165558257E+04  0.14191693898E+04  0.80922121125E+02 0.  0.
         25    2    1    2    0    0 -0.26858062872E+02 -0.46843386949E+00  0.21604659031E+02  0.12975503914E+03  0.12509210174E+03 0.  0.
         24    2    1    2    0    0 -0.19170752248E+01 -0.54435285735E+01  0.17447458457E+03  0.19283533733E+03  0.81919347423E+02 0.  0.
        -11    1    5    5    0    0 -0.11803096564E+02 -0.26584552268E+02  0.16516840131E+03  0.16771002444E+03  0.00000000000E+00 0.  1.
         12    1    5    5    0    0  0.98860213390E+01  0.21141023695E+02  0.93061832580E+01  0.25125312886E+02  0.00000000000E+00 0. -1.
         11    1    3    3    0    0 -0.11885110151E+02  0.32732558351E+01 -0.36758405529E+02  0.38770483929E+02  0.00000000000E+00 0. -1.
        -12    1    3    3    0    0  0.40660248248E+02  0.26387066078E+01 -0.13797974202E+04  0.13803989058E+04  0.00000000000E+00 0.  1.
          5    1    4    4  501    0  0.47503900056E+02  0.12827358099E+02  0.22086622612E+02  0.54096699851E+02  0.41800000000E+01 0. -1.
         -5    1    4    4    0  501 -0.74361962929E+02 -0.13295791969E+02 -0.48196358033E+00  0.75658339287E+02  0.41800000000E+01 0. -1.
</event>
<event>
11    1  0.6763327E-009  0.2164924E+03  0.7561462E-02  0.1043437E+00
         22   -1    0    0    0    0  0.00000000000E+00  0.00000000000E+00  0.16582022278E+04  0.16582022278E+04  0.00000000000E+00 0. -1.
         22   -1    0    0    0    0 -0.00000000000E+00 -0.00000000000E+00 -0.78978871624E+03  0.78978871624E+03  0.00000000000E+00 0.  1.
        -24    2    1    2    0    0 -0.19298951208E+02  0.28053604910E+02 -0.67575226861E+03  0.68131234575E+03  0.79912012037E+02 0.  0.
         25    2    1    2    0    0 -0.87767185207E+02  0.11483908784E+03 -0.18333716818E+02  0.19202793282E+03  0.12508999527E+03 0.  0.
         24    2    1    2    0    0  0.10706613641E+03 -0.14289269275E+03  0.15624994970E+04  0.15746506655E+04  0.78984561730E+02 0.  0.
        -11    1    5    5    0    0  0.41841968098E+02 -0.52802980442E+02  0.31073018940E+03  0.31794992632E+03  0.00000000000E+00 0.  1.
         12    1    5    5    0    0  0.65224168317E+02 -0.90089712303E+02  0.12517693076E+04  0.12567007392E+04  0.00000000000E+00 0. -1.
         13    1    3    3    0    0  0.14308681412E+01 -0.94506970737E+01 -0.88236214110E+01  0.13008433942E+02  0.00000000000E+00 0. -1.
        -14    1    3    3    0    0 -0.20729819349E+02  0.37504301983E+02 -0.66692864720E+03  0.66830391181E+03  0.00000000000E+00 0.  1.
          5    1    4    4  501    0 -0.36047412622E+02 -0.14540822166E+02  0.24574835712E+02  0.46176253814E+02  0.41800000000E+01 0.  1.
         -5    1    4    4    0  501 -0.51719772584E+02  0.12937991000E+03 -0.42908552531E+02  0.14585167900E+03  0.41800000000E+01 0.  1.
</event>
<event>
11    1  0.6763327E-009  0.1314484E+03  0.7561462E-02  0.1117502E+00
         22   -1    0    0    0    0  0.00000000000E+00  0.00000000000E+00  0.40830779647E+03  0.40830779647E+03  0.00000000000E+00 0. -1.
         22   -1    0    0    0    0 -0.00000000000E+00 -0.00000000000E+00 -0.45318482076E+03  0.45318482076E+03  0.00000000000E+00 0.  1.
        -24    2    1    2    0    0  0.55436176480E+01  0.40724393547E+02 -0.33087638234E+03  0.34306133136E+03  0.80763164602E+02 0.  0.
         25    2    1    2    0    0 -0.42802601011E+02 -0.27671049211E+02 -0.69479796089E+02  0.15189650451E+03  0.12508939364E+03 0.  0.
         24    2    1    2    0    0  0.37258983363E+02 -0.13053344336E+02  0.35547915415E+03  0.36653478136E+03  0.80147958645E+02 0.  0.
        -11    1    5    5    0    0 -0.18184577113E+02  0.17593255888E+02  0.82039470367E+02  0.85852642334E+02  0.00000000000E+00 0.  1.
         12    1    5    5    0    0  0.55443560476E+02 -0.30646600224E+02  0.27343968378E+03  0.28068213903E+03  0.00000000000E+00 0. -1.
         11    1    3    3    0    0  0.16538658784E+02 -0.17450785261E+01 -0.10439906896E+02  0.19635788485E+02  0.00000000000E+00 0. -1.
        -12    1    3    3    0    0 -0.10995041136E+02  0.42469472073E+02 -0.32043647544E+03  0.32342554287E+03  0.00000000000E+00 0.  1.
          5    1    4    4  501    0 -0.78449302500E+02 -0.40629272862E+01 -0.74871386706E+02  0.10860017214E+03  0.41800000000E+01 0. -1.
         -5    1    4    4    0  501  0.35646701489E+02 -0.23608121925E+02  0.53915906174E+01  0.43296332376E+02  0.41800000000E+01 0. -1.
</event>
<event>
11    1  0.6763327E-009  0.1627977E+03  0.7561462E-02  0.1084475E+00
         22   -1    0    0    0    0  0.00000000000E+00  0.00000000000E+00  0.12379310302E+04  0.12379310302E+04  0.00000000000E+00 0. -1.
         22   -1    0    0    0    0 -0.00000000000E+00 -0.00000000000E+00 -0.45718661792E+03  0.45718661792E+03  0.00000000000E+00 0. -1.
         24    2    1    2    0    0 -0.82718647307E+02  0.28378494401E+01 -0.21673496575E+03  0.24558878822E+03  0.80556685134E+02 0.  0.
         25    2    1    2    0    0 -0.13926580386E+02  0.39304003848E+02 -0.20280765890E+03  0.24190518369E+03  0.12509363303E+03 0.  0.
        -24    2    1    2    0    0  0.96645227693E+02 -0.42141853288E+02  0.12002870370E+04  0.12076236763E+04  0.80930442282E+02 0.  0.
        -13    1    3    3    0    0 -0.69270585078E+02  0.35797290913E+02 -0.16824447450E+03  0.18543479499E+03  0.00000000000E+00 0.  1.
         14    1    3    3    0    0 -0.13448062229E+02 -0.32959441473E+02 -0.48490491252E+02  0.60153993232E+02  0.00000000000E+00 0. -1.
         13    1    5    5    0    0  0.73943760446E+02 -0.64499285297E+02  0.78343919570E+03  0.78955988428E+03  0.00000000000E+00 0. -1.
        -14    1    5    5    0    0  0.22701467247E+02  0.22357432009E+02  0.41684784128E+03  0.41806379198E+03  0.00000000000E+00 0.  1.
          5    1    4    4  501    0 -0.13238394899E+02 -0.39671969590E+02 -0.12111216547E+03  0.12819808617E+03  0.41800000000E+01 0.  1.
         -5    1    4    4    0  501 -0.68818548736E+00  0.78975973438E+02 -0.81695493429E+02  0.11370709752E+03  0.41800000000E+01 0.  1.
</event>
<event>
11    1  0.6763327E-009  0.1374890E+03  0.7561462E-02  0.1110395E+00
         22   -1    0    0    0    0  0.00000000000E+00  0.00000000000E+00  0.34101207558E+03  0.34101207558E+03  0.00000000000E+00 0.  1.
         22   -1    0    0    0    0 -0.00000000000E+00 -0.00000000000E+00 -0.92861452109E+03  0.92861452109E+03  0.00000000000E+00 0.  1.
         24    2    1    2    0    0 -0.26596935182E+02 -0.23876628107E+02 -0.25012859676E+03  0.26683148930E+03  0.85774346029E+02 0.  0.
         25    2    1    2    0    0 -0.25954765482E+02  0.26556293642E+00 -0.65301738196E+03  0.66539696129E+03  0.12509074534E+03 0.  0.
        -24    2    1    2    0    0  0.52551700664E+02  0.23611065171E+02  0.31554353322E+03  0.33739814608E+03  0.10464522916E+03 0.  0.
        -13    1    3    3    0    0 -0.30989513161E+02  0.27406240955E+02 -0.10588087822E+03  0.11367590924E+03  0.00000000000E+00 0.  1.
         14    1    3    3    0    0  0.43925779789E+01 -0.51282869062E+02 -0.14424771854E+03  0.15315558006E+03  0.00000000000E+00 0. -1.
         11    1    5    5    0    0  0.61708989992E+01 -0.39162403784E+02  0.13512867821E+03  0.14082447777E+03  0.00000000000E+00 0. -1.
        -12    1    5    5    0    0  0.46380801665E+02  0.62773468954E+02  0.18041485501E+03  0.19657366831E+03  0.00000000000E+00 0.  1.
          5    1    4    4  501    0  0.25987040370E+02 -0.44199351328E+02 -0.17205926898E+03  0.17958500318E+03  0.41800000000E+01 0.  1.
         -5    1    4    4    0  501 -0.51941805852E+02  0.44464914265E+02 -0.48095811299E+03  0.48581195811E+03  0.41800000000E+01 0.  1.
</event>
<event>
11    1  0.6763327E-009  0.1481035E+03  0.7561462E-02  0.1098832E+00
         22   -1    0    0    0    0  0.00000000000E+00  0.00000000000E+00  0.42251844252E+03  0.42251844252E+03  0.00000000000E+00 0. -1.
         22   -1    0    0    0    0 -0.00000000000E+00 -0.00000000000E+00 -0.26682757641E+03  0.26682757641E+03  0.00000000000E+00 0. -1.
         24    2    1    2    0    0  0.87184536146E+01 -0.77304192011E+02 -0.19848671136E+03  0.22773312631E+03  0.80084035234E+02 0.  0.
         25    2    1    2    0    0 -0.39334578148E+02  0.88650677598E+02  0.87015709314E+02  0.18062349531E+03  0.12508781601E+03 0.  0.
        -24    2    1    2    0    0  0.30616124534E+02 -0.11346485588E+02  0.26716186816E+03  0.28098939730E+03  0.80706181791E+02 0.  0.
        -11    1    3    3    0    0  0.67478507463E+01 -0.77809677631E+02 -0.89738422009E+02  0.11896580940E+03  0.00000000000E+00 0.  1.
         12    1    3    3    0    0  0.19706028683E+01  0.50548561996E+00 -0.10874828935E+03  0.10876731691E+03  0.00000000000E+00 0. -1.
         11    1    5    5    0    0  0.32544840939E+02  0.67272396264E+01  0.25889875184E+03  0.26102296093E+03  0.00000000000E+00 0. -1.
        -12    1    5    5    0    0 -0.19287164047E+01 -0.18073725214E+02  0.82631163126E+01  0.19966436369E+02  0.00000000000E+00 0.  1.
          5    1    4    4  501    0 -0.34699075871E+02  0.14348071776E+02 -0.25544887864E+02  0.45605994409E+02  0.41800000000E+01 0. -1.
         -5    1    4    4    0  501 -0.46355022773E+01  0.74302605823E+02  0.11256059718E+03  0.13501750090E+03  0.41800000000E+01 0. -1.
</event>
<event>
11    1  0.6763327E-009  0.1357698E+03  0.7561462E-02  0.1112376E+00
         22   -1    0    0    0    0  0.00000000000E+00  0.00000000000E+00  0.12918179988E+04  0.12918179988E+04  0.00000000000E+00 0. -1.
         22   -1    0    0    0    0 -0.00000000000E+00 -0.00000000000E+00 -0.34706490056E+03  0.34706490056E+03  0.00000000000E+00 0.  1.
         24    2    1    2    0    0 -0.28123869714E+00  0.29556034397E+02 -0.31217480293E+03  0.32360566103E+03  0.79961728371E+02 0.  0.
         25    2    1    2    0    0  0.91142901647E+01  0.24585346552E+02  0.12360142527E+03  0.17779752523E+03  0.12508852105E+03 0.  0.
        -24    2    1    2    0    0 -0.88330514676E+01 -0.54141380949E+02  0.11333264758E+04  0.11374797130E+04  0.80136663355E+02 0.  0.
        -11    1    3    3    0    0  0.84260945434E+01  0.15399324868E+02 -0.30499706024E+03  0.30550179219E+03  0.00000000000E+00 0.  1.
         12    1    3    3    0    0 -0.87073332405E+01  0.14156709529E+02 -0.71777426819E+01  0.18103868837E+02  0.00000000000E+00 0. -1.
         11    1    5    5    0    0 -0.38615138184E+02 -0.55029872816E+02  0.76197839357E+03  0.76493822500E+03  0.00000000000E+00 0. -1.
        -12    1    5    5    0    0  0.29782086716E+02  0.88849186688E+00  0.37134808227E+03  0.37254148805E+03  0.00000000000E+00 0.  1.
          5    1    4    4  501    0  0.37370757139E+02  0.65935926042E+02  0.60115709256E+02  0.96827117748E+02  0.41800000000E+01 0. -1.
         -5    1    4    4    0  501 -0.28256466974E+02 -0.41350579489E+02  0.63485716019E+02  0.80970407485E+02  0.41800000000E+01 0. -1.
</event>
<event>
11    1  0.6763327E-009  0.1886106E+03  0.7561462E-02  0.1062883E+00
         22   -1    0    0    0    0  0.00000000000E+00  0.00000000000E+00  0.10741919750E+04  0.10741919750E+04  0.00000000000E+00 0.  1.
         22   -1    0    0    0    0 -0.00000000000E+00 -0.00000000000E+00 -0.29170041041E+03  0.29170041041E+03  0.00000000000E+00 0. -1.
        -24    2    1    2    0    0 -0.15436159377E+03 -0.21316029899E+01 -0.16264442405E+03  0.23852233557E+03  0.81287456141E+02 0.  0.
         25    2    1    2    0    0  0.11285545692E+03 -0.17805679236E+02 -0.80680273609E+01  0.16960628029E+03  0.12509117026E+03 0.  0.
         24    2    1    2    0    0  0.41506136857E+02  0.19937282226E+02  0.95320401599E+03  0.95776376955E+03  0.81199061212E+02 0.  0.
        -11    1    5    5    0    0  0.52134753507E+02  0.43127148819E+02  0.66518334226E+03  0.66861563122E+03  0.00000000000E+00 0.  1.
         12    1    5    5    0    0 -0.10628616650E+02 -0.23189866593E+02  0.28802067373E+03  0.28914813833E+03  0.00000000000E+00 0. -1.
         13    1    3    3    0    0 -0.13922775118E+03  0.22564113481E+00 -0.17144555204E+03  0.22085740858E+03  0.00000000000E+00 0. -1.
        -14    1    3    3    0    0 -0.15133842595E+02 -0.23572441247E+01  0.88011279865E+01  0.17664926985E+02  0.00000000000E+00 0.  1.
          5    1    4    4  501    0  0.48470139497E+02  0.11103803650E+02  0.55425329386E+02  0.74579410134E+02  0.41800000000E+01 0. -1.
         -5    1    4    4    0  501  0.64385317420E+02 -0.28909482886E+02 -0.63493356747E+02  0.95026870152E+02  0.41800000000E+01 0. -1.
</event>
<event>
11    1  0.6763327E-009  0.2440945E+03  0.7561462E-02  0.1027093E+00
         22   -1    0    0    0    0  0.00000000000E+00  0.00000000000E+00  0.53128725044E+03  0.53128725044E+03  0.00000000000E+00 0. -1.
         22   -1    0    0    0    0 -0.00000000000E+00 -0.00000000000E+00 -0.29214130052E+03  0.29214130052E+03  0.00000000000E+00 0. -1.
         24    2    1    2    0    0 -0.75338200651E+00  0.71851825314E+02 -0.79152668720E+02  0.13232023257E+03  0.77975936001E+02 0.  0.
         25    2    1    2    0    0  0.16792736738E+03  0.66478687126E+02 -0.77347704730E+02  0.23291387023E+03  0.12508871636E+03 0.  0.
        -24    2    1    2    0    0 -0.16717398537E+03 -0.13833051244E+03  0.39564632338E+03  0.45819444816E+03  0.79521488098E+02 0.  0.
        -11    1    3    3    0    0  0.61781017209E+01  0.75449782889E+02 -0.28218168325E+02  0.80790492649E+02  0.00000000000E+00 0.  1.
         12    1    3    3    0    0 -0.69314837274E+01 -0.35979575749E+01 -0.50934500395E+02  0.51529739917E+02  0.00000000000E+00 0. -1.
         13    1    5    5    0    0 -0.12814832177E+03 -0.10532134199E+03  0.35847992203E+03  0.39499674929E+03  0.00000000000E+00 0. -1.
        -14    1    5    5    0    0 -0.39025663609E+02 -0.33009170452E+02  0.37166401342E+02  0.63197698872E+02  0.00000000000E+00 0.  1.
          5    1    4    4  501    0  0.58166239704E+02  0.61816899532E+02  0.18598980046E+02  0.86994453661E+02  0.41800000000E+01 0.  1.
         -5    1    4    4    0  501  0.10976112768E+03  0.46617875945E+01 -0.95946684776E+02  0.14591941657E+03  0.41800000000E+01 0.  1.
</event>
<event>
11    1  0.6763327E-009  0.1356542E+03  0.7561462E-02  0.1112511E+00
         22   -1    0    0    0    0  0.00000000000E+00  0.00000000000E+00  0.83855280068E+03  0.83855280068E+03  0.00000000000E+00 0. -1.
         22   -1    0    0    0    0 -0.00000000000E+00 -0.00000000000E+00 -0.75530997707E+02  0.75530997707E+02  0.00000000000E+00 0. -1.
         24    2    1    2    0    0 -0.24327993317E+02 -0.55894207537E+01 -0.14413719158E+02  0.86367553084E+02  0.81415637580E+02 0.  0.
         25    2    1    2    0    0 -0.16174630059E+02 -0.33018091927E+02  0.18138482068E+03  0.22338740233E+03  0.12509862228E+03 0.  0.
        -24    2    1    2    0    0  0.40502623376E+02  0.38607512681E+02  0.59605070145E+03  0.60432884297E+03  0.82497934550E+02 0.  0.
        -13    1    3    3    0    0  0.69240749411E+01  0.16933932635E+02  0.25180837919E+02  0.31125158418E+02  0.00000000000E+00 0.  1.
         14    1    3    3    0    0 -0.31252068258E+02 -0.22523353389E+02 -0.39594557077E+02  0.55242394666E+02  0.00000000000E+00 0. -1.
         11    1    5    5    0    0  0.40028173920E+02  0.62339596918E+02  0.39555279895E+03  0.40243073542E+03  0.00000000000E+00 0. -1.
        -12    1    5    5    0    0  0.47444945539E+00 -0.23732084237E+02  0.20049790250E+03  0.20189810755E+03  0.00000000000E+00 0.  1.
          5    1    4    4  501    0 -0.76296099637E+01 -0.62579135716E+02  0.18165868468E+03  0.19233228875E+03  0.41800000000E+01 0.  1.
         -5    1    4    4    0  501 -0.85450200951E+01  0.29561043789E+02 -0.27386400374E+00  0.31055113585E+02  0.41800000000E+01 0.  1.
</event>
<event>
11    1  0.6763327E-009  0.2196769E+03  0.7561462E-02  0.1041420E+00
         22   -1    0    0    0    0  0.00000000000E+00  0.00000000000E+00  0.47068079382E+03  0.47068079382E+03  0.00000000000E+00 0.  1.
         22   -1    0    0    0    0 -0.00000000000E+00 -0.00000000000E+00 -0.12065054182E+04  0.12065054182E+04  0.00000000000E+00 0.  1.
        -24    2    1    2    0    0  0.12387176138E+03 -0.13975574102E+03 -0.97363001423E+03  0.99457365597E+03  0.79658471831E+02 0.  0.
         25    2    1    2    0    0 -0.99395680069E+02  0.11760228379E+03 -0.17259136936E+03  0.26295830187E+03  0.12509791916E+03 0.  0.
         24    2    1    2    0    0 -0.24476081312E+02  0.22153457237E+02  0.41039675924E+03  0.41965425415E+03  0.81205534340E+02 0.  0.
        -13    1    5    5    0    0 -0.30040300729E+02 -0.13617256393E+02  0.32802033407E+03  0.32967436798E+03  0.00000000000E+00 0.  1.
         14    1    5    5    0    0  0.55642194173E+01  0.35770713630E+02  0.82376425167E+02  0.89979886167E+02  0.00000000000E+00 0. -1.
         13    1    3    3    0    0  0.29850541896E+02 -0.49073329919E+02 -0.14948244739E+03  0.16013821729E+03  0.00000000000E+00 0. -1.
        -14    1    3    3    0    0  0.94021219485E+02 -0.90682411105E+02 -0.82414756684E+03  0.83443543868E+03  0.00000000000E+00 0.  1.
          5    1    4    4  501    0 -0.59269269837E+02  0.99597273717E+01 -0.12457641535E+03  0.13837918260E+03  0.41800000000E+01 0.  1.
         -5    1    4    4    0  501 -0.40126410231E+02  0.10764255642E+03 -0.48014954011E+02  0.12457911927E+03  0.41800000000E+01 0.  1.
</event>
<event>
11    1  0.6763327E-009  0.3364720E+03  0.7561462E-02  0.9858372E-01
         22   -1    0    0    0    0  0.00000000000E+00  0.00000000000E+00  0.74400118245E+03  0.74400118245E+03  0.00000000000E+00 0. -1.
         22   -1    0    0    0    0 -0.00000000000E+00 -0.00000000000E+00 -0.10536772113E+04  0.10536772113E+04  0.00000000000E+00 0.  1.
         24    2    1    2    0    0  0.22249799261E+02  0.88609687870E+02 -0.81228535023E+03  0.82213817816E+03  0.88073625100E+02 0.  0.
         25    2    1    2    0    0  0.48490998098E+02 -0.37766597148E+03  0.14003159832E+02  0.40103170623E+03  0.12508948001E+03 0.  0.
        -24    2    1    2    0    0 -0.70740797359E+02  0.28905628361E+03  0.48860616156E+03  0.57450850935E+03  0.52595158529E+02 0.  0.
        -13    1    3    3    0    0  0.15644131034E+02 -0.46206825010E+01 -0.35626992433E+03  0.35664316694E+03  0.00000000000E+00 0.  1.
         14    1    3    3    0    0  0.66056682271E+01  0.93230370371E+02 -0.45601542590E+03  0.46549501122E+03  0.00000000000E+00 0. -1.
         13    1    5    5    0    0 -0.35214096461E+02  0.17530146535E+03  0.33874325813E+03  0.38303737582E+03  0.00000000000E+00 0. -1.
        -14    1    5    5    0    0 -0.35526700898E+02  0.11375481825E+03  0.14986290342E+03  0.19147113353E+03  0.00000000000E+00 0.  1.
          5    1    4    4  501    0  0.10537305332E+02 -0.76910795061E+01  0.25464209821E+02  0.28915149825E+02  0.41800000000E+01 0. -1.
         -5    1    4    4    0  501  0.37953692766E+02 -0.36997489197E+03 -0.11461049988E+02  0.37211655640E+03  0.41800000000E+01 0. -1.
</event>
<event>
11    1  0.6763327E-009  0.1273735E+03  0.7561462E-02  0.1122539E+00
         22   -1    0    0    0    0  0.00000000000E+00  0.00000000000E+00  0.33676765742E+03  0.33676765742E+03  0.00000000000E+00 0. -1.
         22   -1    0    0    0    0 -0.00000000000E+00 -0.00000000000E+00 -0.13485318082E+03  0.13485318082E+03  0.00000000000E+00 0.  1.
         24    2    1    2    0    0 -0.20923367784E+02 -0.16997517009E+02 -0.79653972252E+02  0.11806321559E+03  0.82870167591E+02 0.  0.
         25    2    1    2    0    0  0.86017766122E+01 -0.17038907566E+02  0.15407184047E+03  0.19937683030E+03  0.12509465816E+03 0.  0.
        -24    2    1    2    0    0  0.12321591172E+02  0.34036424575E+02  0.12749660837E+03  0.15418079235E+03  0.78778371249E+02 0.  0.
        -11    1    3    3    0    0 -0.94968624298E+01  0.20356356057E+02 -0.75511493037E+02  0.78781706053E+02  0.00000000000E+00 0.  1.
         12    1    3    3    0    0 -0.11426505354E+02 -0.37353873066E+02 -0.41424792146E+01  0.39281509539E+02  0.00000000000E+00 0. -1.
         11    1    5    5    0    0 -0.11142658358E+02  0.46692757787E+01  0.11338891867E+03  0.11403073204E+03  0.00000000000E+00 0. -1.
        -12    1    5    5    0    0  0.23464249529E+02  0.29367148796E+02  0.14107689700E+02  0.40150060312E+02  0.00000000000E+00 0.  1.
          5    1    4    4  501    0 -0.13806712773E+02  0.20868790861E+02 -0.11604323701E+02  0.27897391960E+02  0.41800000000E+01 0.  1.
         -5    1    4    4    0  501  0.22408489385E+02 -0.37907698427E+02  0.16567616417E+03  0.17147943834E+03  0.41800000000E+01 0.  1.
</event>
<event>
11    1  0.6763327E-009  0.3338871E+03  0.7561462E-02  0.9867889E-01
         22   -1    0    0    0    0  0.00000000000E+00  0.00000000000E+00  0.33022614029E+03  0.33022614029E+03  0.00000000000E+00 0. -1.
         22   -1    0    0    0    0 -0.00000000000E+00 -0.00000000000E+00 -0.61817395134E+03  0.61817395134E+03  0.00000000000E+00 0. -1.
         24    2    1    2    0    0  0.18696518681E+03 -0.14754029979E+03 -0.49525515975E+03  0.55539003279E+03  0.80351067925E+02 0.  0.
         25    2    1    2    0    0 -0.46202511051E+02  0.42916201601E+02  0.10546875588E+03  0.17535013221E+03  0.12509011956E+03 0.  0.
        -24    2    1    2    0    0 -0.14076267576E+03  0.10462409819E+03  0.10183859283E+03  0.21765992663E+03  0.79021591102E+02 0.  0.
        -13    1    3    3    0    0  0.16331003164E+02 -0.26218367369E+02 -0.13702781238E+03  0.14046610202E+03  0.00000000000E+00 0.  1.
         14    1    3    3    0    0  0.17063418365E+03 -0.12132193242E+03 -0.35822734737E+03  0.41492393077E+03  0.00000000000E+00 0. -1.
         13    1    5    5    0    0 -0.13989552686E+03  0.10525514230E+03  0.74437083346E+02  0.19023743794E+03  0.00000000000E+00 0. -1.
        -14    1    5    5    0    0 -0.86714889889E+00 -0.63104410486E+00  0.27401509488E+02  0.27422488692E+02  0.00000000000E+00 0.  1.
          5    1    4    4  501    0  0.38265716685E+02  0.75462315906E+01  0.53263276572E+01  0.39586018377E+02  0.41800000000E+01 0. -1.
         -5    1    4    4    0  501 -0.84468227735E+02  0.35369970011E+02  0.10014242822E+03  0.13576411383E+03  0.41800000000E+01 0. -1.
</event>
<event>
11    1  0.6763327E-009  0.1604866E+03  0.7561462E-02  0.1086620E+00
         22   -1    0    0    0    0  0.00000000000E+00  0.00000000000E+00  0.17053312769E+03  0.17053312769E+03  0.00000000000E+00 0.  1.
         22   -1    0    0    0    0 -0.00000000000E+00 -0.00000000000E+00 -0.12361103886E+04  0.12361103886E+04  0.00000000000E+00 0.  1.
        -24    2    1    2    0    0 -0.62411211367E+02 -0.81611668466E+01 -0.86766733759E+03  0.87357815507E+03  0.79563938668E+02 0.  0.
         25    2    1    2    0    0 -0.34637034297E+01  0.87523209128E+02 -0.31891249030E+03  0.35358790064E+03  0.12508763979E+03 0.  0.
         24    2    1    2    0    0  0.65874914796E+02 -0.79362042281E+02  0.12100256696E+03  0.17947746061E+03  0.83262833841E+02 0.  0.
        -11    1    5    5    0    0  0.49375542106E+02 -0.91297211973E+02  0.12059343726E+03  0.15910971743E+03  0.00000000000E+00 0.  1.
         12    1    5    5    0    0  0.16499372691E+02  0.11935169692E+02  0.40912970527E+00  0.20367743171E+02  0.00000000000E+00 0. -1.
         13    1    3    3    0    0 -0.13072610158E+02 -0.63246384698E+00 -0.17031611919E+02  0.21479500726E+02  0.00000000000E+00 0. -1.
        -14    1    3    3    0    0 -0.49338601209E+02 -0.75287029996E+01 -0.85063572567E+03  0.85209865434E+03  0.00000000000E+00 0.  1.
          5    1    4    4  501    0  0.10720345101E+02  0.92865067357E+02 -0.11142465592E+03  0.14550523318E+03  0.41800000000E+01 0. -1.
         -5    1    4    4    0  501 -0.14184048531E+02 -0.53418582288E+01 -0.20748783438E+03  0.20808266747E+03  0.41800000000E+01 0. -1.
</event>
<event>
11    1  0.6763327E-009  0.2337090E+03  0.7561462E-02  0.1032954E+00
         22   -1    0    0    0    0  0.00000000000E+00  0.00000000000E+00  0.13797202689E+03  0.13797202689E+03  0.00000000000E+00 0. -1.
         22   -1    0    0    0    0 -0.00000000000E+00 -0.00000000000E+00 -0.22376396032E+04  0.22376396032E+04  0.00000000000E+00 0. -1.
        -24    2    1    2    0    0  0.40970007415E+02 -0.13568767990E+02 -0.71956218054E+03  0.72528411310E+03  0.80029120132E+02 0.  0.
         25    2    1    2    0    0 -0.16861301507E+03  0.16124068332E+03 -0.14122365734E+04  0.14368328962E+04  0.12509086895E+03 0.  0.
         24    2    1    2    0    0  0.12764300765E+03 -0.14767191533E+03  0.32131177693E+02  0.21349462076E+03  0.80298247391E+02 0.  0.
        -13    1    5    5    0    0  0.20382389987E+02 -0.10063584710E+01 -0.15531518481E+02  0.25645324043E+02  0.00000000000E+00 0.  1.
         14    1    5    5    0    0  0.10726061767E+03 -0.14666555686E+03  0.47662696175E+02  0.18784929672E+03  0.00000000000E+00 0. -1.
         13    1    3    3    0    0  0.11731971063E+02 -0.45077412898E+02 -0.43625968779E+03  0.43873924772E+03  0.00000000000E+00 0. -1.
        -14    1    3    3    0    0  0.29238036351E+02  0.31508644908E+02 -0.28330249275E+03  0.28654486537E+03  0.00000000000E+00 0.  1.
          5    1    4    4  501    0 -0.10104346968E+03  0.42935461140E+02 -0.37767893156E+03  0.39333457048E+03  0.41800000000E+01 0. -1.
         -5    1    4    4    0  501 -0.67569545387E+02  0.11830522218E+03 -0.10345576418E+04  0.10434983257E+04  0.41800000000E+01 0. -1.
</event>
<event>
11    1  0.6763327E-009  0.1635817E+03  0.7561462E-02  0.1083756E+00
         22   -1    0    0    0    0  0.00000000000E+00  0.00000000000E+00  0.29914748580E+04  0.29914748580E+04  0.00000000000E+00 0. -1.
         22   -1    0    0    0    0 -0.00000000000E+00 -0.00000000000E+00 -0.49039973485E+02  0.49039973485E+02  0.00000000000E+00 0.  1.
        -24    2    1    2    0    0 -0.10837511746E+03 -0.50563052101E+00  0.87087080033E+02  0.16054959279E+03  0.80290662544E+02 0.  0.
         25    2    1    2    0    0  0.92613767464E+02 -0.14815693962E+02  0.51640920587E+03  0.53955842406E+03  0.12509200754E+03 0.  0.
         24    2    1    2    0    0  0.15761349993E+02  0.15321324483E+02  0.23389385986E+04  0.23404068146E+04  0.79919501875E+02 0.  0.
        -11    1    5    5    0    0  0.21264073389E+02  0.38393584696E+02  0.74494385143E+03  0.74623559949E+03  0.00000000000E+00 0.  1.
         12    1    5    5    0    0 -0.55027233960E+01 -0.23072260213E+02  0.15939947472E+04  0.15941712151E+04  0.00000000000E+00 0. -1.
         11    1    3    3    0    0 -0.10995359890E+03  0.19490463662E+00  0.99335392505E+02  0.14818013397E+03  0.00000000000E+00 0. -1.
        -12    1    3    3    0    0  0.15784814454E+01 -0.70053515763E+00 -0.12248312472E+02  0.12369458824E+02  0.00000000000E+00 0.  1.
          5    1    4    4  501    0  0.40145527153E+02 -0.68036536895E+02  0.31207997151E+03  0.32195032958E+03  0.41800000000E+01 0. -1.
         -5    1    4    4    0  501  0.52468240311E+02  0.53220842934E+02  0.20432923437E+03  0.21760809448E+03  0.41800000000E+01 0. -1.
</event>
<event>
11    1  0.6763327E-009  0.1428185E+03  0.7561462E-02  0.1104451E+00
         22   -1    0    0    0    0  0.00000000000E+00  0.00000000000E+00  0.60215424807E+03  0.60215424807E+03  0.00000000000E+00 0. -1.
         22   -1    0    0    0    0 -0.00000000000E+00 -0.00000000000E+00 -0.16039105398E+04  0.16039105398E+04  0.00000000000E+00 0.  1.
         24    2    1    2    0    0 -0.55782944388E+02  0.40886831240E+02 -0.15463966672E+04  0.15501111337E+04  0.81965875331E+02 0.  0.
         25    2    1    2    0    0  0.27105579757E+02 -0.57850325703E+02  0.40947892776E+02  0.14630993675E+03  0.12509394482E+03 0.  0.
        -24    2    1    2    0    0  0.28677364630E+02  0.16963494463E+02  0.50369248268E+03  0.50964371741E+03  0.70145920733E+02 0.  0.
        -11    1    3    3    0    0 -0.26159877926E+02  0.38124991108E+02 -0.13978445100E+04  0.13986089977E+04  0.00000000000E+00 0.  1.
         12    1    3    3    0    0 -0.29623066462E+02  0.27618401314E+01 -0.14855215716E+03  0.15150213604E+03  0.00000000000E+00 0. -1.
         11    1    5    5    0    0  0.31927806572E+02 -0.17699272872E+02  0.35767762646E+03  0.35953571945E+03  0.00000000000E+00 0. -1.
        -12    1    5    5    0    0 -0.32504419422E+01  0.34662767335E+02  0.14601485623E+03  0.15010799796E+03  0.00000000000E+00 0.  1.
          5    1    4    4  501    0 -0.24368152278E+02  0.29022337564E+02  0.25964300024E+01  0.38214091274E+02  0.41800000000E+01 0.  1.
         -5    1    4    4    0  501  0.51473732035E+02 -0.86872663267E+02  0.38351462773E+02  0.10809584548E+03  0.41800000000E+01 0.  1.
</event>
<event>
11    1  0.6763327E-009  0.1369831E+03  0.7561462E-02  0.1110975E+00
         22   -1    0    0    0    0  0.00000000000E+00  0.00000000000E+00  0.13209349120E+03  0.13209349120E+03  0.00000000000E+00 0. -1.
         22   -1    0    0    0    0 -0.00000000000E+00 -0.00000000000E+00 -0.64935937431E+03  0.64935937431E+03  0.00000000000E+00 0. -1.
        -24    2    1    2    0    0  0.28443782486E+00  0.31660527670E+01 -0.38028664405E+03  0.38899109239E+03  0.81768169376E+02 0.  0.
         25    2    1    2    0    0 -0.73523202522E+01  0.52432329004E+02 -0.22451952778E+03  0.26241823991E+03  0.12510439060E+03 0.  0.
         24    2    1    2    0    0  0.70678824273E+01 -0.55598381771E+02  0.87540288719E+02  0.13004353321E+03  0.78146550547E+02 0.  0.
        -13    1    5    5    0    0 -0.22086391122E+02 -0.29556960810E+02  0.31411281612E+01  0.37030923445E+02  0.00000000000E+00 0.  1.
         14    1    5    5    0    0  0.29154273549E+02 -0.26041420961E+02  0.84399160557E+02  0.93012609761E+02  0.00000000000E+00 0. -1.
         13    1    3    3    0    0 -0.26285801112E+02 -0.25629086664E+02 -0.25752166693E+03  0.26012535894E+03  0.00000000000E+00 0. -1.
        -14    1    3    3    0    0  0.26570238937E+02  0.28795139431E+02 -0.12276497712E+03  0.12886573346E+03  0.00000000000E+00 0.  1.
          5    1    4    4  501    0  0.59927940305E+00 -0.35492214907E+02 -0.12166593262E+03  0.12680744463E+03  0.41800000000E+01 0. -1.
         -5    1    4    4    0  501 -0.79515996552E+01  0.87924543911E+02 -0.10285359516E+03  0.13561079528E+03  0.41800000000E+01 0. -1.
</event>
<event>
11    1  0.6763327E-009  0.1396423E+03  0.7561462E-02  0.1107958E+00
         22   -1    0    0    0    0  0.00000000000E+00  0.00000000000E+00  0.24623942540E+03  0.24623942540E+03  0.00000000000E+00 0.  1.
         22   -1    0    0    0    0 -0.00000000000E+00 -0.00000000000E+00 -0.89585851809E+03  0.89585851809E+03  0.00000000000E+00 0. -1.
        -24    2    1    2    0    0  0.63891442010E+02  0.10282369818E+02 -0.81267765263E+03  0.81956253366E+03  0.83963896995E+02 0.  0.
         25    2    1    2    0    0 -0.18316145159E+02  0.18478660127E+02 -0.62896459658E+01  0.12792177644E+03  0.12508988444E+03 0.  0.
         24    2    1    2    0    0 -0.45575296850E+02 -0.28761029944E+02  0.16934820591E+03  0.19461363339E+03  0.79318011380E+02 0.  0.
        -13    1    5    5    0    0 -0.52185789618E+02 -0.48741197732E+02  0.14953147971E+03  0.16570674223E+03  0.00000000000E+00 0.  1.
         14    1    5    5    0    0  0.66104927675E+01  0.19980167788E+02  0.19816726198E+02  0.28906891162E+02  0.00000000000E+00 0. -1.
         11    1    3    3    0    0  0.65674692321E+02  0.14941548217E+02 -0.81168662873E+03  0.81447627242E+03  0.00000000000E+00 0. -1.
        -12    1    3    3    0    0 -0.17832503112E+01 -0.46591783995E+01 -0.99102390277E+00  0.50862612405E+01  0.00000000000E+00 0.  1.
          5    1    4    4  501    0  0.11944226324E+02  0.66093899358E+02 -0.19029314734E+02  0.69933220246E+02  0.41800000000E+01 0. -1.
         -5    1    4    4    0  501 -0.30260371484E+02 -0.47615239231E+02  0.12739668768E+02  0.57988556196E+02  0.41800000000E+01 0. -1.
</event>
<event>
11    1  0.6763327E-009  0.1748703E+03  0.7561462E-02  0.1073869E+00
         22   -1    0    0    0    0  0.00000000000E+00  0.00000000000E+00  0.17855129964E+04  0.17855129964E+04  0.00000000000E+00 0.  1.
         22   -1    0    0    0    0 -0.00000000000E+00 -0.00000000000E+00 -0.60738953828E+03  0.60738953828E+03  0.00000000000E+00 0.  1.
        -24    2    1    2    0    0 -0.11702745200E+03  0.33776298726E+02 -0.56956220504E+03  0.58783071075E+03  0.79420250683E+02 0.  0.
         25    2    1    2    0    0  0.11145611896E+03 -0.11121790273E+03  0.35447358657E+03  0.40754328090E+03  0.12509242140E+03 0.  0.
         24    2    1    2    0    0  0.55713330426E+01  0.77441604005E+02  0.13932120766E+04  0.13975285430E+04  0.77575101884E+02 0.  0.
        -11    1    5    5    0    0 -0.32673383245E+01  0.71742379835E+02  0.60518843941E+03  0.60943473134E+03  0.00000000000E+00 0.  1.
         12    1    5    5    0    0  0.88386713670E+01  0.56992241701E+01  0.78802363719E+03  0.78809381169E+03  0.00000000000E+00 0. -1.
         11    1    3    3    0    0 -0.11849869806E+03  0.14053462789E+02 -0.53368819008E+03  0.54686609466E+03  0.00000000000E+00 0. -1.
        -12    1    3    3    0    0  0.14712460573E+01  0.19722835937E+02 -0.35874014952E+02  0.40964616087E+02  0.00000000000E+00 0.  1.
          5    1    4    4  501    0  0.88618015835E+01 -0.84444761357E+02  0.22258701562E+03  0.23826854843E+03  0.41800000000E+01 0. -1.
         -5    1    4    4    0  501  0.10259431737E+03 -0.26773141374E+02  0.13188657095E+03  0.16927473247E+03  0.41800000000E+01 0. -1.
</event>
<event>
11    1  0.6763327E-009  0.1625922E+03  0.7561462E-02  0.1084664E+00
         22   -1    0    0    0    0  0.00000000000E+00  0.00000000000E+00  0.98825313262E+03  0.98825313262E+03  0.00000000000E+00 0. -1.
         22   -1    0    0    0    0 -0.00000000000E+00 -0.00000000000E+00 -0.11673880841E+03  0.11673880841E+03  0.00000000000E+00 0.  1.
        -24    2    1    2    0    0  0.33665925863E+02 -0.88295644758E+02 -0.28321317417E+02  0.12900782778E+03  0.83134873314E+02 0.  0.
         25    2    1    2    0    0 -0.13014776129E+03  0.91883303183E+02  0.29279149570E+03  0.35602940338E+03  0.12509634264E+03 0.  0.
         24    2    1    2    0    0  0.96481835425E+02 -0.35876584252E+01  0.60704414592E+03  0.61995470987E+03  0.80744234020E+02 0.  0.
        -13    1    5    5    0    0  0.47724448094E+02  0.15645781511E+02  0.11983003674E+03  0.12992940826E+03  0.00000000000E+00 0.  1.
         14    1    5    5    0    0  0.48757387332E+02 -0.19233439937E+02  0.48721410918E+03  0.49002530161E+03  0.00000000000E+00 0. -1.
         11    1    3    3    0    0  0.44812165853E+02 -0.98742540616E+02 -0.16482636599E+02  0.10968088642E+03  0.00000000000E+00 0. -1.
        -12    1    3    3    0    0 -0.11146239990E+02  0.10446895858E+02 -0.11838680818E+02  0.19326941365E+02  0.00000000000E+00 0.  1.
          5    1    4    4  501    0 -0.75901365322E+02 -0.10088255457E+02  0.64719856992E+02  0.10034402047E+03  0.41800000000E+01 0. -1.
         -5    1    4    4    0  501 -0.54246395966E+02  0.10197155864E+03  0.22807163871E+03  0.25568538291E+03  0.41800000000E+01 0. -1.
</event>
<event>
11    1  0.6763327E-009  0.1495336E+03  0.7561462E-02  0.1097356E+00
         22   -1    0    0    0    0  0.00000000000E+00  0.00000000000E+00  0.10389980445E+04  0.10389980445E+04  0.00000000000E+00 0. -1.
         22   -1    0    0    0    0 -0.00000000000E+00 -0.00000000000E+00 -0.81006136955E+03  0.81006136955E+03  0.00000000000E+00 0.  1.
        -24    2    1    2    0    0 -0.24532324016E+01  0.80998675369E+02 -0.51068222976E+03  0.52426144099E+03  0.86526960901E+02 0.  0.
         25    2    1    2    0    0  0.34013565479E+02 -0.82061197484E+02 -0.27138623279E+03  0.31175222545E+03  0.12509196599E+03 0.  0.
         24    2    1    2    0    0 -0.31560333077E+02  0.10625221153E+01  0.10110051375E+04  0.10130457477E+04  0.55974236137E+02 0.  0.
        -11    1    5    5    0    0 -0.38937870620E+02 -0.38220303958E+01  0.38596117839E+03  0.38793916651E+03  0.00000000000E+00 0.  1.
         12    1    5    5    0    0  0.73775375426E+01  0.48845525111E+01  0.62504395915E+03  0.62510658114E+03  0.00000000000E+00 0. -1.
         11    1    3    3    0    0 -0.21758615423E+02  0.66424153272E+02 -0.18633396221E+03  0.19901243920E+03  0.00000000000E+00 0. -1.
        -12    1    3    3    0    0  0.19305383021E+02  0.14574522097E+02 -0.32434826755E+03  0.32524900180E+03  0.00000000000E+00 0.  1.
          5    1    4    4  501    0  0.67873934871E+02 -0.71362792123E+02 -0.25304446815E+03  0.27156674022E+03  0.41800000000E+01 0.  1.
         -5    1    4    4    0  501 -0.33860369392E+02 -0.10698405362E+02 -0.18341764643E+02  0.40185485227E+02  0.41800000000E+01 0.  1.
</event>
<event>
11    1  0.6763327E-009  0.1740692E+03  0.7561462E-02  0.1074544E+00
         22   -1    0    0    0    0  0.00000000000E+00  0.00000000000E+00  0.11911447020E+04  0.11911447020E+04  0.00000000000E+00 0.  1.
         22   -1    0    0    0    0 -0.00000000000E+00 -0.00000000000E+00 -0.23306005164E+03  0.23306005164E+03  0.00000000000E+00 0.  1.
        -24    2    1    2    0    0 -0.87132983063E+02 -0.85776722398E+02 -0.17271156677E+03  0.22591640078E+03  0.79114676274E+02 0.  0.
         25    2    1    2    0    0  0.86710341908E+02  0.69996229247E+02  0.18880088025E+03  0.25240955922E+03  0.12508660079E+03 0.  0.
         24    2    1    2    0    0  0.42264115486E+00  0.15780493151E+02  0.94199533691E+03  0.94587879369E+03  0.84156253463E+02 0.  0.
        -13    1    5    5    0    0 -0.10876463922E+02 -0.20368990530E+02  0.74019429331E+03  0.74055437686E+03  0.00000000000E+00 0.  1.
         14    1    5    5    0    0  0.11299105077E+02  0.36149483681E+02  0.20180104360E+03  0.20532441682E+03  0.00000000000E+00 0. -1.
         11    1    3    3    0    0 -0.90284071066E+01 -0.61503955640E+02 -0.57897888849E+02  0.84949480442E+02  0.00000000000E+00 0. -1.
        -12    1    3    3    0    0 -0.78104575957E+02 -0.24272766758E+02 -0.11481367792E+03  0.14096692034E+03  0.00000000000E+00 0.  1.
          5    1    4    4  501    0 -0.27907808632E+02  0.27652850906E+02  0.20856895382E+02  0.44676710162E+02  0.41800000000E+01 0. -1.
         -5    1    4    4    0  501  0.11461815054E+03  0.42343378340E+02  0.16794398487E+03  0.20773284906E+03  0.41800000000E+01 0. -1.
</event>
<event>
11    1  0.6763327E-009  0.1949523E+03  0.7561462E-02  0.1058152E+00
         22   -1    0    0    0    0  0.00000000000E+00  0.00000000000E+00  0.30104065000E+03  0.30104065000E+03  0.00000000000E+00 0.  1.
         22   -1    0    0    0    0 -0.00000000000E+00 -0.00000000000E+00 -0.91108515753E+03  0.91108515753E+03  0.00000000000E+00 0.  1.
         24    2    1    2    0    0 -0.18480509620E+02 -0.16767067050E+03 -0.56042671009E+03  0.59487721104E+03  0.10651673978E+03 0.  0.
         25    2    1    2    0    0  0.78129502623E+02  0.10695611049E+03 -0.29454125349E+03  0.34633258661E+03  0.12509149368E+03 0.  0.
        -24    2    1    2    0    0 -0.59648993003E+02  0.60714560018E+02  0.24492345605E+03  0.27091600988E+03  0.78509393847E+02 0.  0.
        -13    1    3    3    0    0 -0.19310504759E+02 -0.18088276873E+03 -0.54495494490E+03  0.57451489414E+03  0.00000000000E+00 0.  1.
         14    1    3    3    0    0  0.82999513916E+00  0.13212098228E+02 -0.15471765186E+02  0.20362316898E+02  0.00000000000E+00 0. -1.
         13    1    5    5    0    0  0.12825953982E+02  0.23903784858E+02  0.26778250666E+02  0.38117853230E+02  0.00000000000E+00 0. -1.
        -14    1    5    5    0    0 -0.72474946985E+02  0.36810775160E+02  0.21814520538E+03  0.23279815665E+03  0.00000000000E+00 0.  1.
          5    1    4    4  501    0 -0.30488982090E+02  0.13920115922E+02 -0.28229147547E+02  0.44019368775E+02  0.41800000000E+01 0.  1.
         -5    1    4    4    0  501  0.10861848471E+03  0.93035994564E+02 -0.26631210594E+03  0.30231321783E+03  0.41800000000E+01 0.  1.
</event>
<event>
11    1  0.6763327E-009  0.1364902E+03  0.7561462E-02  0.1111542E+00
         22   -1    0    0    0    0  0.00000000000E+00  0.00000000000E+00  0.18118480154E+03  0.18118480154E+03  0.00000000000E+00 0. -1.
         22   -1    0    0    0    0 -0.00000000000E+00 -0.00000000000E+00 -0.54858004124E+03  0.54858004124E+03  0.00000000000E+00 0. -1.
         24    2    1    2    0    0 -0.71762303858E+02  0.32401963154E+02 -0.22343270036E+03  0.24971553782E+03  0.78968112351E+02 0.  0.
         25    2    1    2    0    0  0.19618726995E+02 -0.24525842447E+02 -0.28296789384E+03  0.31097508855E+03  0.12509302681E+03 0.  0.
        -24    2    1    2    0    0  0.52143576864E+02 -0.78761207077E+01  0.13900535450E+03  0.16907421641E+03  0.80514695494E+02 0.  0.
        -13    1    3    3    0    0  0.60848913424E+01 -0.12911197207E+02 -0.83574716942E+01  0.16540019621E+02  0.00000000000E+00 0.  1.
         14    1    3    3    0    0 -0.77847195201E+02  0.45313160361E+02 -0.21507522866E+03  0.23317551820E+03  0.00000000000E+00 0. -1.
         11    1    5    5    0    0  0.18029385661E+02  0.34361575882E+02  0.79853249178E+02  0.88782419705E+02  0.00000000000E+00 0. -1.
        -12    1    5    5    0    0  0.34114191203E+02 -0.42237696590E+02  0.59152105322E+02  0.80291796708E+02  0.00000000000E+00 0.  1.
          5    1    4    4  501    0 -0.36737020697E+02  0.18783480943E+02 -0.39360252500E+02  0.57176303858E+02  0.41800000000E+01 0. -1.
         -5    1    4    4    0  501  0.56355747692E+02 -0.43309323389E+02 -0.24360764134E+03  0.25379878469E+03  0.41800000000E+01 0. -1.
</event>
<event>
11    1  0.6763327E-009  0.1665435E+03  0.7561462E-02  0.1081079E+00
         22   -1    0    0    0    0  0.00000000000E+00  0.00000000000E+00  0.58693429131E+02  0.58693429131E+02  0.00000000000E+00 0. -1.
         22   -1    0    0    0    0 -0.00000000000E+00 -0.00000000000E+00 -0.10065262778E+04  0.10065262778E+04  0.00000000000E+00 0.  1.
        -24    2    1    2    0    0  0.95773806259E+02  0.58344798968E+02 -0.37421202303E+03  0.39883927798E+03  0.80382796353E+02 0.  0.
         25    2    1    2    0    0  0.39534127285E+02 -0.66034044512E+02 -0.42507724140E+03  0.44973480790E+03  0.12508914430E+03 0.  0.
         24    2    1    2    0    0 -0.13530793354E+03  0.76892455443E+01 -0.14854358423E+03  0.21664562104E+03  0.80639737875E+02 0.  0.
        -11    1    5    5    0    0  0.94540349888E+01  0.80468443967E+00 -0.54241354674E+00  0.95037101740E+01  0.00000000000E+00 0.  1.
         12    1    5    5    0    0 -0.14476196853E+03  0.68845611046E+01 -0.14800117068E+03  0.20714191087E+03  0.00000000000E+00 0. -1.
         13    1    3    3    0    0 -0.93517992381E+01  0.68759228710E+01 -0.73061970951E+01  0.13715501460E+02  0.00000000000E+00 0. -1.
        -14    1    3    3    0    0  0.10512560550E+03  0.51468876097E+02 -0.36690582593E+03  0.38512377652E+03  0.00000000000E+00 0.  1.
          5    1    4    4  501    0  0.81766489963E+02 -0.54398763842E+02 -0.34036375633E+03  0.35427382547E+03  0.41800000000E+01 0.  1.
         -5    1    4    4    0  501 -0.42232362678E+02 -0.11635280670E+02 -0.84713485074E+02  0.95460982433E+02  0.41800000000E+01 0.  1.
</event>
<event>
11    1  0.6763327E-009  0.2303130E+03  0.7561462E-02  0.1034943E+00
         22   -1    0    0    0    0  0.00000000000E+00  0.00000000000E+00  0.30871745813E+03  0.30871745813E+03  0.00000000000E+00 0. -1.
         22   -1    0    0    0    0 -0.00000000000E+00 -0.00000000000E+00 -0.38046743585E+04  0.38046743585E+04  0.00000000000E+00 0.  1.
         24    2    1    2    0    0  0.40139303891E+02  0.19316923412E+03 -0.36590598741E+04  0.36656932890E+04  0.98298576733E+02 0.  0.
         25    2    1    2    0    0 -0.73080164128E+02 -0.10551024699E+03 -0.63010006992E+02  0.18997514564E+03  0.12508865805E+03 0.  0.
        -24    2    1    2    0    0  0.32940860238E+02 -0.87658987132E+02  0.22611298076E+03  0.25772338193E+03  0.80777863471E+02 0.  0.
        -11    1    3    3    0    0  0.65900927632E+02  0.17499913302E+03 -0.32792683108E+04  0.32845956042E+04  0.00000000000E+00 0.  1.
         12    1    3    3    0    0 -0.25761623742E+02  0.18170101097E+02 -0.37979156334E+03  0.38109768487E+03  0.00000000000E+00 0. -1.
         13    1    5    5    0    0  0.17581516422E+02 -0.76852577692E+02  0.22555385324E+03  0.23893507304E+03  0.00000000000E+00 0. -1.
        -14    1    5    5    0    0  0.15359343816E+02 -0.10806409441E+02  0.55912752358E+00  0.18788308892E+02  0.00000000000E+00 0.  1.
          5    1    4    4  501    0 -0.39345691478E+02 -0.94981358366E+02 -0.96532126720E+02  0.14108673135E+03  0.41800000000E+01 0. -1.
         -5    1    4    4    0  501 -0.33734472650E+02 -0.10528888620E+02  0.33522119728E+02  0.48888414288E+02  0.41800000000E+01 0. -1.
</event>
<event>
11    1  0.6763327E-009  0.1321190E+03  0.7561462E-02  0.1116693E+00
         22   -1    0    0    0    0  0.00000000000E+00  0.00000000000E+00  0.14780702714E+04  0.14780702714E+04  0.00000000000E+00 0.  1.
         22   -1    0    0    0    0 -0.00000000000E+00 -0.00000000000E+00 -0.98715588810E+02  0.98715588810E+02  0.00000000000E+00 0. -1.
        -24    2    1    2    0    0 -0.41004831240E+02 -0.61975386723E+01 -0.54136300634E+02  0.10512192698E+03  0.80000467587E+02 0.  0.
         25    2    1    2    0    0  0.58057499795E+02 -0.31744560527E+02  0.26723875026E+03  0.30239480945E+03  0.12509069005E+03 0.  0.
         24    2    1    2    0    0 -0.17052668554E+02  0.37942099199E+02  0.11662522329E+04  0.11692691237E+04  0.72908274852E+02 0.  0.
        -11    1    5    5    0    0 -0.45225929772E+02  0.31254854870E+02  0.75549523107E+03  0.75749276884E+03  0.00000000000E+00 0.  1.
         12    1    5    5    0    0  0.28173261217E+02  0.66872443283E+01  0.41075700186E+03  0.41177635490E+03  0.00000000000E+00 0. -1.
         11    1    3    3    0    0 -0.12699456298E+02 -0.14927628939E+02 -0.69177900413E+02  0.71900571636E+02  0.00000000000E+00 0. -1.
        -12    1    3    3    0    0 -0.28305374943E+02  0.87300902670E+01  0.15041599779E+02  0.33221355340E+02  0.00000000000E+00 0.  1.
          5    1    4    4  501    0 -0.19381914852E+02 -0.30189344579E+02  0.16089392679E+02  0.39539804074E+02  0.41800000000E+01 0.  1.
         -5    1    4    4    0  501  0.77439414647E+02 -0.15552159473E+01  0.25114935758E+03  0.26285500537E+03  0.41800000000E+01 0.  1.
</event>
<event>
11    1  0.6763327E-009  0.1371675E+03  0.7561462E-02  0.1110763E+00
         22   -1    0    0    0    0  0.00000000000E+00  0.00000000000E+00  0.56888163423E+03  0.56888163423E+03  0.00000000000E+00 0.  1.
         22   -1    0    0    0    0 -0.00000000000E+00 -0.00000000000E+00 -0.12553179601E+04  0.12553179601E+04  0.00000000000E+00 0.  1.
         24    2    1    2    0    0  0.41943275330E+02  0.36462232503E+02 -0.11604112362E+04  0.11645566851E+04  0.80927764336E+02 0.  0.
         25    2    1    2    0    0 -0.63716505950E+02 -0.43656065106E+02 -0.28907188350E+02  0.14982975131E+03  0.12509070185E+03 0.  0.
        -24    2    1    2    0    0  0.21773230620E+02  0.71938326027E+01  0.50288209860E+03  0.50981315796E+03  0.80580556825E+02 0.  0.
        -11    1    3    3    0    0  0.13115054780E+02  0.59288103447E+02 -0.78718724902E+03  0.78952571135E+03  0.00000000000E+00 0.  1.
         12    1    3    3    0    0  0.28828220550E+02 -0.22825870944E+02 -0.37322398715E+03  0.37503097374E+03  0.00000000000E+00 0. -1.
         13    1    5    5    0    0 -0.20877932410E+02  0.17124532695E+02  0.75315036166E+02  0.80009326671E+02  0.00000000000E+00 0. -1.
        -14    1    5    5    0    0  0.42651163031E+02 -0.99307000923E+01  0.42756706244E+03  0.42980383129E+03  0.00000000000E+00 0.  1.
          5    1    4    4  501    0  0.22380166802E+02 -0.51330679014E+02  0.60888904392E+01  0.56482364158E+02  0.41800000000E+01 0. -1.
         -5    1    4    4    0  501 -0.86096672752E+02  0.76746139087E+01 -0.34996078789E+02  0.93347387153E+02  0.41800000000E+01 0. -1.
</event>
<event>
11    1  0.6763327E-009  0.1786659E+03  0.7561462E-02  0.1070727E+00
         22   -1    0    0    0    0  0.00000000000E+00  0.00000000000E+00  0.14653083277E+04  0.14653083277E+04  0.00000000000E+00 0.  1.
         22   -1    0    0    0    0 -0.00000000000E+00 -0.00000000000E+00 -0.27276883527E+04  0.27276883527E+04  0.00000000000E+00 0. -1.
        -24    2    1    2    0    0  0.60844778261E+02  0.60608477652E+01 -0.26262084331E+04  0.26281651474E+04  0.80885639474E+02 0.  0.
         25    2    1    2    0    0 -0.18521750908E+03 -0.18211819686E+02  0.34417533270E+02  0.22687048528E+03  0.12509378261E+03 0.  0.
         24    2    1    2    0    0  0.12437273082E+03  0.12150971920E+02  0.13294108749E+04  0.13379610478E+04  0.84795453067E+02 0.  0.
        -13    1    5    5    0    0  0.12335056051E+03  0.31678322520E+02  0.12348359961E+04  0.12413858442E+04  0.00000000000E+00 0.  1.
         14    1    5    5    0    0  0.10221703101E+01 -0.19527350600E+02  0.94574878797E+02  0.96575203614E+02  0.00000000000E+00 0. -1.
         11    1    3    3    0    0  0.56242277463E+02  0.38319906869E+02 -0.16190661857E+04  0.16204958879E+04  0.00000000000E+00 0. -1.
        -12    1    3    3    0    0  0.46025007976E+01 -0.32259059104E+02 -0.10071422475E+04  0.10076692595E+04  0.00000000000E+00 0.  1.
          5    1    4    4  501    0 -0.96436980546E+02 -0.25260051063E+02 -0.43135458511E+02  0.10870281311E+03  0.41800000000E+01 0.  1.
         -5    1    4    4    0  501 -0.88780528536E+02  0.70482313777E+01  0.77552991781E+02  0.11816767217E+03  0.41800000000E+01 0.  1.
</event>
<event>
11    1  0.6763327E-009  0.1535891E+03  0.7561462E-02  0.1093267E+00
         22   -1    0    0    0    0  0.00000000000E+00  0.00000000000E+00  0.20172901543E+03  0.20172901543E+03  0.00000000000E+00 0. -1.
         22   -1    0    0    0    0 -0.00000000000E+00 -0.00000000000E+00 -0.88750105633E+03  0.88750105633E+03  0.00000000000E+00 0.  1.
        -24    2    1    2    0    0  0.58654956254E+02 -0.27886455695E+02 -0.67360786613E+03  0.68180314666E+03  0.83005512968E+02 0.  0.
         25    2    1    2    0    0 -0.11876821280E+03 -0.34453064481E+02 -0.14546476325E+03  0.22825745631E+03  0.12509423243E+03 0.  0.
         24    2    1    2    0    0  0.60113256550E+02  0.62339520176E+02  0.13330058848E+03  0.17916946878E+03  0.82660947636E+02 0.  0.
        -13    1    5    5    0    0  0.64646693261E+00  0.28873534356E+02 -0.59701064650E+00  0.28886940431E+02  0.00000000000E+00 0.  1.
         14    1    5    5    0    0  0.59466789617E+02  0.33465985820E+02  0.13389759913E+03  0.15028252835E+03  0.00000000000E+00 0. -1.
         13    1    3    3    0    0  0.33898952035E+02 -0.23419262519E+02 -0.10732755773E+03  0.11496436602E+03  0.00000000000E+00 0. -1.
        -14    1    3    3    0    0  0.24756004219E+02 -0.44671931758E+01 -0.56628030840E+03  0.56683878064E+03  0.00000000000E+00 0.  1.
          5    1    4    4  501    0 -0.10407748442E+03 -0.14739637214E+02 -0.16561095825E+03  0.19619847492E+03  0.41800000000E+01 0. -1.
         -5    1    4    4    0  501 -0.14690728383E+02 -0.19713427268E+02  0.20146194993E+02  0.32058981390E+02  0.41800000000E+01 0. -1.
</event>
<event>
11    1  0.6763327E-009  0.2314646E+03  0.7561462E-02  0.1034264E+00
         22   -1    0    0    0    0  0.00000000000E+00  0.00000000000E+00  0.67310287050E+03  0.67310287050E+03  0.00000000000E+00 0. -1.
         22   -1    0    0    0    0 -0.00000000000E+00 -0.00000000000E+00 -0.57061878099E+03  0.57061878099E+03  0.00000000000E+00 0.  1.
        -24    2    1    2    0    0  0.66959748530E+02 -0.61796970746E+02 -0.43813351327E+03  0.45463115784E+03  0.80162589181E+02 0.  0.
         25    2    1    2    0    0  0.87007256004E+02 -0.81508801201E+02 -0.30488879396E+02  0.17547546739E+03  0.12509244828E+03 0.  0.
         24    2    1    2    0    0 -0.15396700453E+03  0.14330577195E+03  0.57110648218E+03  0.61361502627E+03  0.78220225764E+02 0.  0.
        -11    1    5    5    0    0 -0.31590302520E+02  0.74549389095E+00  0.45157086121E+02  0.55115019744E+02  0.00000000000E+00 0.  1.
         12    1    5    5    0    0 -0.12237670201E+03  0.14256027806E+03  0.52594939606E+03  0.55850000653E+03  0.00000000000E+00 0. -1.
         13    1    3    3    0    0  0.20292309545E+02 -0.66778851744E+02 -0.31986245453E+03  0.32738842784E+03  0.00000000000E+00 0. -1.
        -14    1    3    3    0    0  0.46667438985E+02  0.49818809977E+01 -0.11827105874E+03  0.12724272999E+03  0.00000000000E+00 0.  1.
          5    1    4    4  501    0  0.18361498808E+02 -0.15717898214E+02 -0.68676658356E+02  0.72925666028E+02  0.41800000000E+01 0. -1.
         -5    1    4    4    0  501  0.68645757196E+02 -0.65790902987E+02  0.38187778960E+02  0.10254980136E+03  0.41800000000E+01 0. -1.
</event>
<event>
11    1  0.6763327E-009  0.1636086E+03  0.7561462E-02  0.1083731E+00
         22   -1    0    0    0    0  0.00000000000E+00  0.00000000000E+00  0.55473157281E+03  0.55473157281E+03  0.00000000000E+00 0. -1.
         22   -1    0    0    0    0 -0.00000000000E+00 -0.00000000000E+00 -0.90157660261E+03  0.90157660261E+03  0.00000000000E+00 0. -1.
        -24    2    1    2    0    0  0.10422090571E+02  0.70543433508E+02 -0.81656709327E+03  0.82360649335E+03  0.80379363558E+02 0.  0.
         25    2    1    2    0    0 -0.12322386878E+02 -0.16729299303E+03  0.81639054392E+02  0.22461132467E+03  0.12508607130E+03 0.  0.
         24    2    1    2    0    0  0.19002963063E+01  0.96749559519E+02  0.38808300908E+03  0.40809035741E+03  0.81026103663E+02 0.  0.
        -11    1    5    5    0    0 -0.29500469050E+01  0.69197762378E+02  0.12001347262E+03  0.13856502699E+03  0.00000000000E+00 0.  1.
         12    1    5    5    0    0  0.48503432113E+01  0.27551797141E+02  0.26806953646E+03  0.26952533041E+03  0.00000000000E+00 0. -1.
         11    1    3    3    0    0  0.33851301114E+01  0.76574448369E+02 -0.80564176915E+03  0.80927978193E+03  0.00000000000E+00 0. -1.
        -12    1    3    3    0    0  0.70369604599E+01 -0.60310148609E+01 -0.10925324128E+02  0.14326711418E+02  0.00000000000E+00 0.  1.
          5    1    4    4  501    0 -0.13501191187E+02 -0.49179317715E+02 -0.32242716595E+02  0.60481010473E+02  0.41800000000E+01 0. -1.
         -5    1    4    4    0  501  0.11788043093E+01 -0.11811367531E+03  0.11388177099E+03  0.16413031420E+03  0.41800000000E+01 0. -1.
</event>
<event>
11    1  0.6763327E-009  0.1358686E+03  0.7561462E-02  0.1112261E+00
         22   -1    0    0    0    0  0.00000000000E+00  0.00000000000E+00  0.63356703168E+03  0.63356703168E+03  0.00000000000E+00 0.  1.
         22   -1    0    0    0    0 -0.00000000000E+00 -0.00000000000E+00 -0.80208871397E+03  0.80208871397E+03  0.00000000000E+00 0. -1.
         24    2    1    2    0    0  0.34027481947E+02 -0.46008164245E+01 -0.75017831273E+03  0.75489163846E+03  0.76908048178E+02 0.  0.
         25    2    1    2    0    0 -0.74988359234E+02 -0.25257204597E+02  0.76888021577E+02  0.16679477012E+03  0.12509015578E+03 0.  0.
        -24    2    1    2    0    0  0.40960877287E+02  0.29858021021E+02  0.50476860887E+03  0.51396933707E+03  0.82485368780E+02 0.  0.
        -13    1    3    3    0    0 -0.24165551415E+02 -0.11432217729E+01 -0.15661783304E+03  0.15847531813E+03  0.00000000000E+00 0.  1.
         14    1    3    3    0    0  0.58193033363E+02 -0.34575946517E+01 -0.59356047970E+03  0.59641632033E+03  0.00000000000E+00 0. -1.
         13    1    5    5    0    0  0.20535134951E+02  0.52741975186E+02  0.20611705229E+03  0.21374668877E+03  0.00000000000E+00 0. -1.
        -14    1    5    5    0    0  0.20425742335E+02 -0.22883954165E+02  0.29865155658E+03  0.30022264830E+03  0.00000000000E+00 0.  1.
          5    1    4    4  501    0 -0.65549967872E+02 -0.37454662118E+02 -0.11933307653E+02  0.76547542311E+02  0.41800000000E+01 0. -1.
         -5    1    4    4    0  501 -0.94383913625E+01  0.12197457522E+02  0.88821329230E+02  0.90247227812E+02  0.41800000000E+01 0. -1.
</event>
<event>
11    1  0.6763327E-009  0.3493188E+03  0.7561462E-02  0.9812399E-01
         22   -1    0    0    0    0  0.00000000000E+00  0.00000000000E+00  0.29374367534E+04  0.29374367534E+04  0.00000000000E+00 0. -1.
         22   -1    0    0    0    0 -0.00000000000E+00 -0.00000000000E+00 -0.10374385890E+03  0.10374385890E+03  0.00000000000E+00 0.  1.
         24    2    1    2    0    0  0.95225814084E+02 -0.10699544091E+03  0.96670570241E+02  0.18937842178E+03  0.77479077461E+02 0.  0.
         25    2    1    2    0    0  0.25254819439E+03  0.11219752575E+03  0.48585571687E+03  0.57277582091E+03  0.12508992017E+03 0.  0.
        -24    2    1    2    0    0 -0.34777400847E+03 -0.52020848461E+01  0.22511666074E+04  0.22790263696E+04  0.72362120429E+02 0.  0.
        -11    1    3    3    0    0  0.14014469010E+02 -0.73671208425E+02  0.41742575045E+02  0.85827121959E+02  0.00000000000E+00 0.  1.
         12    1    3    3    0    0  0.81211345074E+02 -0.33324232481E+02  0.54927995196E+02  0.10355129983E+03  0.00000000000E+00 0. -1.
         13    1    5    5    0    0 -0.18285836738E+03  0.11124507203E+02  0.96586246097E+03  0.98308251469E+03  0.00000000000E+00 0. -1.
        -14    1    5    5    0    0 -0.16491564110E+03 -0.16326592049E+02  0.12853041464E+04  0.12959438549E+04  0.00000000000E+00 0.  1.
          5    1    4    4  501    0  0.15232292568E+03  0.10971683331E+03  0.39522775315E+03  0.43756428837E+03  0.41800000000E+01 0.  1.
         -5    1    4    4    0  501  0.10022526871E+03  0.24806924405E+01  0.90627963721E+02  0.13521153254E+03  0.41800000000E+01 0.  1.
</event>
<event>
11    1  0.8469680E-009  0.2153814E+03  0.7561462E-02  0.1044150E+00
         22   -1    0    0    0    0  0.00000000000E+00  0.00000000000E+00  0.38771680694E+03  0.38771680694E+03  0.00000000000E+00 0. -1.
         22   -1    0    0    0    0 -0.00000000000E+00 -0.00000000000E+00 -0.93212517572E+03  0.93212517572E+03  0.00000000000E+00 0.  1.
        -24    2    1    2    0    0 -0.30659264392E+01 -0.97660244324E+02 -0.60109236611E+03  0.61425969590E+03  0.80349350845E+02 0.  0.
         25    2    1    2    0    0  0.14695539718E+03  0.18903394571E+03 -0.23488463109E+03  0.35797726076E+03  0.12508880009E+03 0.  0.
         24    2    1    2    0    0 -0.14388947074E+03 -0.91373701390E+02  0.29156862842E+03  0.34760502600E+03  0.82241448965E+02 0.  0.
        -11    1    5    5    0    0 -0.39315396751E+02  0.96916082710E+01  0.39353923633E+02  0.56465555854E+02  0.00000000000E+00 0.  1.
         12    1    5    5    0    0 -0.10457407399E+03 -0.10106530966E+03  0.25221470479E+03  0.29113947015E+03  0.00000000000E+00 0. -1.
         13    1    3    3    0    0  0.13002760835E+02 -0.26992588313E+02 -0.49021529927E+02  0.57452432582E+02  0.00000000000E+00 0. -1.
        -14    1    3    3    0    0 -0.16068687274E+02 -0.70667656011E+02 -0.55207083619E+03  0.55680726332E+03  0.00000000000E+00 0.  1.
          5    1    4    4  501    0  0.15454094025E+03  0.18427323128E+03 -0.17544418363E+03  0.29772077514E+03  0.41800000000E+01 0. -1.
         -5    1    4    4    0  501 -0.75855430755E+01  0.47607144345E+01 -0.59440447452E+02  0.60256485618E+02  0.41800000000E+01 0. -1.
</event>
<event>
11    1  0.6763327E-009  0.1293684E+03  0.7561462E-02  0.1120047E+00
         22   -1    0    0    0    0  0.00000000000E+00  0.00000000000E+00  0.11809873148E+04  0.11809873148E+04  0.00000000000E+00 0. -1.
         22   -1    0    0    0    0 -0.00000000000E+00 -0.00000000000E+00 -0.12166695714E+04  0.12166695714E+04  0.00000000000E+00 0.  1.
         24    2    1    2    0    0 -0.97370983986E+01 -0.25392936550E+02 -0.11959769602E+04  0.11990052276E+04  0.80703372043E+02 0.  0.
         25    2    1    2    0    0  0.31491599391E+01 -0.98884772575E+01  0.21338783635E+03  0.24756887149E+03  0.12509307829E+03 0.  0.
        -24    2    1    2    0    0  0.65879384596E+01  0.35281413807E+02  0.94690686727E+03  0.95108278711E+03  0.81471918880E+02 0.  0.
        -11    1    3    3    0    0  0.83953376795E+01 -0.51570902218E+02 -0.83136966569E+03  0.83300994033E+03  0.00000000000E+00 0.  1.
         12    1    3    3    0    0 -0.18132436078E+02  0.26177965669E+02 -0.36460729449E+03  0.36599528729E+03  0.00000000000E+00 0. -1.
         13    1    5    5    0    0  0.43513866932E+02  0.24752069465E+02  0.58826662224E+03  0.59039286954E+03  0.00000000000E+00 0. -1.
        -14    1    5    5    0    0 -0.36925928473E+02  0.10529344343E+02  0.35864024502E+03  0.36068991757E+03  0.00000000000E+00 0.  1.
          5    1    4    4  501    0  0.91592717583E+01 -0.56159207139E+02  0.18310225331E+03  0.19178544359E+03  0.41800000000E+01 0.  1.
         -5    1    4    4    0  501 -0.60101118192E+01  0.46270729881E+02  0.30285583039E+02  0.55783427896E+02  0.41800000000E+01 0.  1.
</event>
<event>
11    1  0.6763327E-009  0.1534947E+03  0.7561462E-02  0.1093360E+00
         22   -1    0    0    0    0  0.00000000000E+00  0.00000000000E+00  0.65651506682E+03  0.65651506682E+03  0.00000000000E+00 0. -1.
         22   -1    0    0    0    0 -0.00000000000E+00 -0.00000000000E+00 -0.34713311994E+03  0.34713311994E+03  0.00000000000E+00 0.  1.
        -24    2    1    2    0    0  0.65689830298E+02 -0.42947383577E+02 -0.30532547588E+03  0.32532284225E+03  0.80322312611E+02 0.  0.
         25    2    1    2    0    0 -0.31877469024E+02 -0.63171864675E+02  0.25441220286E+03  0.29219549467E+03  0.12508309487E+03 0.  0.
         24    2    1    2    0    0 -0.33812361274E+02  0.10611924825E+03  0.36029521990E+03  0.38612984985E+03  0.82940007465E+02 0.  0.
        -13    1    5    5    0    0 -0.50491028689E+02  0.84301626394E+02  0.19279446085E+03  0.21639272706E+03  0.00000000000E+00 0.  1.
         14    1    5    5    0    0  0.16678667416E+02  0.21817621858E+02  0.16750075905E+03  0.16973712279E+03  0.00000000000E+00 0. -1.
         13    1    3    3    0    0  0.12742296679E+02 -0.14279503391E+02 -0.60809960235E+01  0.20081057104E+02  0.00000000000E+00 0. -1.
        -14    1    3    3    0    0  0.52947533618E+02 -0.28667880186E+02 -0.29924447986E+03  0.30524178514E+03  0.00000000000E+00 0.  1.
          5    1    4    4  501    0 -0.21431571289E+02 -0.75755042661E+01 -0.74320067087E+01  0.24277718932E+02  0.41800000000E+01 0.  1.
         -5    1    4    4    0  501 -0.10445897735E+02 -0.55596360409E+02  0.26184420957E+03  0.26791777574E+03  0.41800000000E+01 0.  1.
</event>
<event>
11    1  0.6763327E-009  0.1675389E+03  0.7561462E-02  0.1080194E+00
         22   -1    0    0    0    0  0.00000000000E+00  0.00000000000E+00  0.47232262981E+03  0.47232262981E+03  0.00000000000E+00 0. -1.
         22   -1    0    0    0    0 -0.00000000000E+00 -0.00000000000E+00 -0.62802559367E+03  0.62802559367E+03  0.00000000000E+00 0.  1.
        -24    2    1    2    0    0  0.67581323301E+02  0.86767324325E+02 -0.56856869878E+03  0.58426244322E+03  0.77436641811E+02 0.  0.
         25    2    1    2    0    0 -0.11326400376E+03 -0.12050808706E+03  0.25778055022E+03  0.33084835110E+03  0.12513546963E+03 0.  0.
         24    2    1    2    0    0  0.45682680456E+02  0.33740762733E+02  0.15508518470E+03  0.18523742916E+03  0.83881727971E+02 0.  0.
        -11    1    5    5    0    0 -0.34693753754E+01 -0.24682710691E+02  0.36440169632E+02  0.44149277857E+02  0.00000000000E+00 0.  1.
         12    1    5    5    0    0  0.49152055831E+02  0.58423473423E+02  0.11864501507E+03  0.14108815131E+03  0.00000000000E+00 0. -1.
         13    1    3    3    0    0 -0.93500919910E+01  0.12065265531E+02 -0.19210955418E+02  0.24536822545E+02  0.00000000000E+00 0. -1.
        -14    1    3    3    0    0  0.76931415292E+02  0.74702058794E+02 -0.54935774336E+03  0.55972562067E+03  0.00000000000E+00 0.  1.
          5    1    4    4  501    0 -0.13118058496E+03 -0.12844829063E+03  0.24788745800E+03  0.30850117256E+03  0.41800000000E+01 0. -1.
         -5    1    4    4    0  501  0.17916581207E+02  0.79402035747E+01  0.98930922198E+01  0.22347178539E+02  0.41800000000E+01 0. -1.
</event>
<event>
11    1  0.6763327E-009  0.1444999E+03  0.7561462E-02  0.1102635E+00
         22   -1    0    0    0    0  0.00000000000E+00  0.00000000000E+00  0.90556034865E+03  0.90556034865E+03  0.00000000000E+00 0. -1.
         22   -1    0    0    0    0 -0.00000000000E+00 -0.00000000000E+00 -0.93481638887E+03  0.93481638887E+03  0.00000000000E+00 0. -1.
        -24    2    1    2    0    0 -0.33193614935E+02  0.45688915814E+02 -0.89587425971E+03  0.90118440626E+03  0.79707915446E+02 0.  0.
         25    2    1    2    0    0 -0.36733941166E+02 -0.69721897937E+02  0.13742360880E+03  0.20184896998E+03  0.12508890016E+03 0.  0.
         24    2    1    2    0    0  0.69927556101E+02  0.24032982123E+02  0.72919461069E+03  0.73734336127E+03  0.80517108880E+02 0.  0.
        -13    1    5    5    0    0 -0.37126412208E+01 -0.21568913962E+02  0.11409740533E+03  0.11617753508E+03  0.00000000000E+00 0.  1.
         14    1    5    5    0    0  0.73640197322E+02  0.45601896084E+02  0.61509720536E+03  0.62116582619E+03  0.00000000000E+00 0. -1.
         13    1    3    3    0    0 -0.53017515636E+02  0.50539368346E+02 -0.57247859432E+03  0.57714541120E+03  0.00000000000E+00 0. -1.
        -14    1    3    3    0    0  0.19823900701E+02 -0.48504525318E+01 -0.32339566539E+03  0.32403899506E+03  0.00000000000E+00 0.  1.
          5    1    4    4  501    0 -0.32096869744E+01 -0.51259114739E+02  0.15214229169E+03  0.16063171621E+03  0.41800000000E+01 0. -1.
         -5    1    4    4    0  501 -0.33524254191E+02 -0.18462783198E+02 -0.14718682885E+02  0.41217253770E+02  0.41800000000E+01 0. -1.
</event>
<event>
11    1  0.6763327E-009  0.1435165E+03  0.7561462E-02  0.1103694E+00
         22   -1    0    0    0    0  0.00000000000E+00  0.00000000000E+00  0.50015507884E+03  0.50015507884E+03  0.00000000000E+00 0.  1.
         22   -1    0    0    0    0 -0.00000000000E+00 -0.00000000000E+00 -0.10636073501E+04  0.10636073501E+04  0.00000000000E+00 0.  1.
         24    2    1    2    0    0  0.23754675948E+01  0.33094263193E+02 -0.10191403156E+04  0.10230188862E+04  0.82581993857E+02 0.  0.
         25    2    1    2    0    0 -0.47477438082E+02 -0.78241985721E+02  0.15698770289E+03  0.22060961678E+03  0.12509016227E+03 0.  0.
        -24    2    1    2    0    0  0.45101970487E+02  0.45147722528E+02  0.29870034139E+03  0.32013392594E+03  0.95871434739E+02 0.  0.
        -13    1    3    3    0    0 -0.37291472994E+02  0.83113218249E+01 -0.61401478852E+03  0.61520231839E+03  0.00000000000E+00 0.  1.
         14    1    3    3    0    0  0.39666940588E+02  0.24782941368E+02 -0.40512552704E+03  0.40781656786E+03  0.00000000000E+00 0. -1.
         11    1    5    5    0    0 -0.29604336892E+02  0.10492753675E+02  0.10646425595E+03  0.11100068666E+03  0.00000000000E+00 0. -1.
        -12    1    5    5    0    0  0.74706307379E+02  0.34654968853E+02  0.19223608544E+03  0.20913323928E+03  0.00000000000E+00 0.  1.
          5    1    4    4  501    0 -0.74260866941E+02 -0.47875129570E+01  0.94984669711E+02  0.12073589574E+03  0.41800000000E+01 0.  1.
         -5    1    4    4    0  501  0.26783428859E+02 -0.73454472764E+02  0.62003033184E+02  0.99873721041E+02  0.41800000000E+01 0.  1.
</event>
<event>
11    1  0.6763327E-009  0.1440750E+03  0.7561462E-02  0.1103091E+00
         22   -1    0    0    0    0  0.00000000000E+00  0.00000000000E+00  0.13377339842E+04  0.13377339842E+04  0.00000000000E+00 0. -1.
         22   -1    0    0    0    0 -0.00000000000E+00 -0.00000000000E+00 -0.65999937502E+03  0.65999937502E+03  0.00000000000E+00 0.  1.
         24    2    1    2    0    0 -0.66621325516E+02 -0.62284428043E+00 -0.54444885056E+03  0.55461985619E+03  0.82096559340E+02 0.  0.
         25    2    1    2    0    0  0.10496204548E+03  0.60025107758E+02 -0.38158903266E+02  0.17811188778E+03  0.12509075953E+03 0.  0.
        -24    2    1    2    0    0 -0.38340719959E+02 -0.59402263478E+02  0.12603423630E+04  0.12650016152E+04  0.82265271408E+02 0.  0.
        -11    1    3    3    0    0 -0.36500128738E+02 -0.62643485363E+00 -0.49751062583E+03  0.49884814787E+03  0.00000000000E+00 0.  1.
         12    1    3    3    0    0 -0.30121196778E+02  0.35905731961E-02 -0.46938224731E+02  0.55771708322E+02  0.00000000000E+00 0. -1.
         13    1    5    5    0    0 -0.79777876287E+01 -0.47806792937E+02  0.11157135056E+04  0.11167657593E+04  0.00000000000E+00 0. -1.
        -14    1    5    5    0    0 -0.30362932331E+02 -0.11595470541E+02  0.14462885740E+03  0.14823585595E+03  0.00000000000E+00 0.  1.
          5    1    4    4  501    0 -0.14155549964E+02 -0.23829303325E+02 -0.29400228485E+01  0.28183885930E+02  0.41800000000E+01 0. -1.
         -5    1    4    4    0  501  0.11911759544E+03  0.83854411084E+02 -0.35218880417E+02  0.14992800185E+03  0.41800000000E+01 0. -1.
</event>
<event>
11    1  0.6763327E-009  0.1337456E+03  0.7561462E-02  0.1114751E+00
         22   -1    0    0    0    0  0.00000000000E+00  0.00000000000E+00  0.17410202174E+04  0.17410202174E+04  0.00000000000E+00 0. -1.
         22   -1    0    0    0    0 -0.00000000000E+00 -0.00000000000E+00 -0.16199459337E+03  0.16199459337E+03  0.00000000000E+00 0.  1.
        -24    2    1    2    0    0 -0.58493703539E+01 -0.41241602689E+02 -0.13220027841E+03  0.14952521845E+03  0.56087364129E+02 0.  0.
         25    2    1    2    0    0  0.17203471709E+02  0.84303108699E+02  0.27278975794E+03  0.31219321478E+03  0.12508947896E+03 0.  0.
         24    2    1    2    0    0 -0.11354101355E+02 -0.43061506010E+02  0.14384361445E+04  0.14412963775E+04  0.79079056495E+02 0.  0.
        -13    1    5    5    0    0 -0.33282295708E+02  0.84719287555E+01  0.48205962787E+03  0.48328146002E+03  0.00000000000E+00 0.  1.
         14    1    5    5    0    0  0.21928194354E+02 -0.51533434765E+02  0.95637651661E+03  0.95801491749E+03  0.00000000000E+00 0. -1.
         13    1    3    3    0    0  0.18919835288E+02 -0.51263407868E+01 -0.74805553903E+02  0.77331173740E+02  0.00000000000E+00 0. -1.
        -14    1    3    3    0    0 -0.24769205642E+02 -0.36115261902E+02 -0.57394724502E+02  0.72194044706E+02  0.00000000000E+00 0.  1.
          5    1    4    4  501    0  0.41087988494E+02  0.30278010467E+02  0.24185985500E+02  0.56634044628E+02  0.41800000000E+01 0.  1.
         -5    1    4    4    0  501 -0.23884516785E+02  0.54025098231E+02  0.24860377244E+03  0.25555917016E+03  0.41800000000E+01 0.  1.
</event>
<event>
11    1  0.6763327E-009  0.2351672E+03  0.7561462E-02  0.1032112E+00
         22   -1    0    0    0    0  0.00000000000E+00  0.00000000000E+00  0.94265547973E+03  0.94265547973E+03  0.00000000000E+00 0.  1.
         22   -1    0    0    0    0 -0.00000000000E+00 -0.00000000000E+00 -0.38031294122E+03  0.38031294122E+03  0.00000000000E+00 0.  1.
        -24    2    1    2    0    0  0.10317268330E+03 -0.23911414157E+02 -0.30335136536E+03  0.33130783085E+03  0.80786568258E+02 0.  0.
         25    2    1    2    0    0 -0.80955691206E+02 -0.18293733172E+03  0.29334155013E+03  0.37645637811E+03  0.12510095247E+03 0.  0.
         24    2    1    2    0    0 -0.22216992094E+02  0.20684874588E+03  0.57235235375E+03  0.61520421200E+03  0.87229623477E+02 0.  0.
        -13    1    5    5    0    0  0.16381291218E+02  0.17340931832E+03  0.42806494389E+03  0.46214579363E+03  0.00000000000E+00 0.  1.
         14    1    5    5    0    0 -0.38598283313E+02  0.33439427553E+02  0.14428740986E+03  0.15305841837E+03  0.00000000000E+00 0. -1.
         11    1    3    3    0    0  0.12970790673E+02 -0.29507865936E+01  0.84403005263E+00  0.13328951156E+02  0.00000000000E+00 0. -1.
        -12    1    3    3    0    0  0.90201892627E+02 -0.20960627563E+02 -0.30419539541E+03  0.31797887969E+03  0.00000000000E+00 0.  1.
          5    1    4    4  501    0 -0.10476875274E+03 -0.85966841816E+02  0.15772704166E+03  0.20799538820E+03  0.41800000000E+01 0.  1.
         -5    1    4    4    0  501  0.23813061535E+02 -0.96970489905E+02  0.13561450847E+03  0.16846098991E+03  0.41800000000E+01 0.  1.
</event>
<event>
11    1  0.6763327E-009  0.2067615E+03  0.7561462E-02  0.1049843E+00
         22   -1    0    0    0    0  0.00000000000E+00  0.00000000000E+00  0.69282364574E+03  0.69282364574E+03  0.00000000000E+00 0. -1.
         22   -1    0    0    0    0 -0.00000000000E+00 -0.00000000000E+00 -0.39813680057E+03  0.39813680057E+03  0.00000000000E+00 0. -1.
         24    2    1    2    0    0  0.10365810207E+03  0.48493991790E+02 -0.26537359858E+03  0.29934062326E+03  0.78006362228E+02 0.  0.
         25    2    1    2    0    0 -0.57779790680E+02 -0.20348745207E+03  0.50353208578E+02  0.25085337838E+03  0.12508526879E+03 0.  0.
        -24    2    1    2    0    0 -0.45878311390E+02  0.15499346028E+03  0.50970723516E+03  0.54076644466E+03  0.80616933160E+02 0.  0.
        -13    1    3    3    0    0  0.18025822079E+02 -0.81586832585E+00 -0.21394989000E+01  0.18170673029E+02  0.00000000000E+00 0.  1.
         14    1    3    3    0    0  0.85632279990E+02  0.49309860116E+02 -0.26323409968E+03  0.28116995023E+03  0.00000000000E+00 0. -1.
         13    1    5    5    0    0 -0.63301141892E+02  0.80610420128E+02  0.32835280163E+03  0.34397766895E+03  0.00000000000E+00 0. -1.
        -14    1    5    5    0    0  0.17422830503E+02  0.74383040156E+02  0.18135443353E+03  0.19678877572E+03  0.00000000000E+00 0.  1.
          5    1    4    4  501    0 -0.88619252900E+01 -0.19079464803E+03  0.20838427756E+02  0.19217919738E+03  0.41800000000E+01 0.  1.
         -5    1    4    4    0  501 -0.48917865390E+02 -0.12692804048E+02  0.29514780821E+02  0.58674180998E+02  0.41800000000E+01 0.  1.
</event>
<event>
11    1  0.6763327E-009  0.1414938E+03  0.7561462E-02  0.1105902E+00
         22   -1    0    0    0    0  0.00000000000E+00  0.00000000000E+00  0.14446190450E+04  0.14446190450E+04  0.00000000000E+00 0.  1.
         22   -1    0    0    0    0 -0.00000000000E+00 -0.00000000000E+00 -0.61210422166E+02  0.61210422166E+02  0.00000000000E+00 0.  1.
         24    2    1    2    0    0 -0.13627202434E+02  0.63976641269E+02  0.14662883929E+02  0.10249496053E+03  0.77533899004E+02 0.  0.
         25    2    1    2    0    0  0.37985957446E+02 -0.62946357311E+02  0.32408598563E+03  0.35508808246E+03  0.12510253140E+03 0.  0.
        -24    2    1    2    0    0 -0.24358755011E+02 -0.10302839580E+01  0.10446597533E+04  0.10482464242E+04  0.83139372462E+02 0.  0.
        -11    1    3    3    0    0 -0.17868832304E+02  0.59534363341E+02 -0.21532534779E+02  0.65782107296E+02  0.00000000000E+00 0.  1.
         12    1    3    3    0    0  0.42416298698E+01  0.44422779273E+01  0.36195418708E+02  0.36712853234E+02  0.00000000000E+00 0. -1.
         13    1    5    5    0    0 -0.28368358129E+02  0.37928933628E+02  0.59812773292E+03  0.60000012719E+03  0.00000000000E+00 0. -1.
        -14    1    5    5    0    0  0.40096031176E+01 -0.38959217586E+02  0.44653202038E+03  0.44824629700E+03  0.00000000000E+00 0.  1.
          5    1    4    4  501    0  0.44540292991E+01 -0.94767771028E+02  0.25253549565E+03  0.26980070008E+03  0.41800000000E+01 0.  1.
         -5    1    4    4    0  501  0.33531928146E+02  0.31821413718E+02  0.71550489977E+02  0.85287382373E+02  0.41800000000E+01 0.  1.
</event>
<event>
11    1  0.6763327E-009  0.1852763E+03  0.7561462E-02  0.1065453E+00
         22   -1    0    0    0    0  0.00000000000E+00  0.00000000000E+00  0.28480688361E+03  0.28480688361E+03  0.00000000000E+00 0. -1.
         22   -1    0    0    0    0 -0.00000000000E+00 -0.00000000000E+00 -0.15987267902E+04  0.15987267902E+04  0.00000000000E+00 0.  1.
        -24    2    1    2    0    0  0.33995194379E+01 -0.44212467466E+02 -0.11800093683E+04  0.11835029641E+04  0.79314927457E+02 0.  0.
         25    2    1    2    0    0 -0.10028051697E-01 -0.95103212352E+02 -0.37595635416E+03  0.40747404827E+03  0.12508916291E+03 0.  0.
         24    2    1    2    0    0 -0.33894913862E+01  0.13931567982E+03  0.24204581588E+03  0.29255666145E+03  0.87079709923E+02 0.  0.
        -11    1    5    5    0    0 -0.77266064843E+01  0.41238730005E+02  0.13922795220E+02  0.44206080203E+02  0.00000000000E+00 0.  1.
         12    1    5    5    0    0  0.43371150980E+01  0.98076949813E+02  0.22812302066E+03  0.24835058125E+03  0.00000000000E+00 0. -1.
         13    1    3    3    0    0 -0.35187810128E+02 -0.32651077943E+02 -0.77831563297E+03  0.77979452383E+03  0.00000000000E+00 0. -1.
        -14    1    3    3    0    0  0.38587329566E+02 -0.11561389523E+02 -0.40169373532E+03  0.40370844025E+03  0.00000000000E+00 0.  1.
          5    1    4    4  501    0 -0.42051491164E+02 -0.95233316378E+02 -0.18911852817E+03  0.21591897220E+03  0.41800000000E+01 0.  1.
         -5    1    4    4    0  501  0.42041463113E+02  0.13010402618E+00 -0.18683782599E+03  0.19155507607E+03  0.41800000000E+01 0.  1.
</event>
<event>
11    1  0.6763327E-009  0.1617662E+03  0.7561462E-02  0.1085428E+00
         22   -1    0    0    0    0  0.00000000000E+00  0.00000000000E+00  0.37060459540E+03  0.37060459540E+03  0.00000000000E+00 0.  1.
         22   -1    0    0    0    0 -0.00000000000E+00 -0.00000000000E+00 -0.10491105735E+04  0.10491105735E+04  0.00000000000E+00 0.  1.
         24    2    1    2    0    0  0.72617799966E+02 -0.66814560536E+02 -0.88190618204E+03  0.89091338392E+03  0.78934234336E+02 0.  0.
         25    2    1    2    0    0 -0.11852193113E+03  0.10985246918E+03 -0.85984833859E+02  0.22170021285E+03  0.12507029856E+03 0.  0.
        -24    2    1    2    0    0  0.45904131168E+02 -0.43037908645E+02  0.28938503780E+03  0.30710157213E+03  0.81290987611E+02 0.  0.
        -13    1    3    3    0    0  0.83487463304E+02 -0.69619762087E+02 -0.67450790045E+03  0.68321151599E+03  0.00000000000E+00 0.  1.
         14    1    3    3    0    0 -0.10869663339E+02  0.28052015506E+01 -0.20739828158E+03  0.20770186793E+03  0.00000000000E+00 0. -1.
         13    1    5    5    0    0 -0.22824871727E+02 -0.23903133716E+01  0.64891147069E+02  0.68829857876E+02  0.00000000000E+00 0. -1.
        -14    1    5    5    0    0  0.68729002895E+02 -0.40647595273E+02  0.22449389073E+03  0.23827171426E+03  0.00000000000E+00 0.  1.
          5    1    4    4  501    0 -0.48655341936E+02  0.10638038439E+03 -0.95383190898E+02  0.15099521180E+03  0.41800000000E+01 0. -1.
         -5    1    4    4    0  501 -0.69866589198E+02  0.34720847949E+01  0.93983570384E+01  0.70705001053E+02  0.41800000000E+01 0. -1.
</event>
<event>
11    1  0.6763327E-009  0.1481916E+03  0.7561462E-02  0.1098741E+00
         22   -1    0    0    0    0  0.00000000000E+00  0.00000000000E+00  0.69316417991E+03  0.69316417991E+03  0.00000000000E+00 0.  1.
         22   -1    0    0    0    0 -0.00000000000E+00 -0.00000000000E+00 -0.95227859739E+03  0.95227859739E+03  0.00000000000E+00 0.  1.
         24    2    1    2    0    0 -0.64153085290E+02 -0.43083380883E+02 -0.77285868684E+03  0.78116982836E+03  0.83330395792E+02 0.  0.
         25    2    1    2    0    0  0.80369006649E+02  0.57558467942E+02 -0.13581319829E+03  0.20943714184E+03  0.12508611870E+03 0.  0.
        -24    2    1    2    0    0 -0.16215921359E+02 -0.14475087059E+02  0.64955746765E+03  0.65483580709E+03  0.80078375505E+02 0.  0.
        -11    1    3    3    0    0 -0.67659435922E+02 -0.19963368009E+02 -0.31889606603E+03  0.32660532185E+03  0.00000000000E+00 0.  1.
         12    1    3    3    0    0  0.35063506318E+01 -0.23120012874E+02 -0.45396262081E+03  0.45456450652E+03  0.00000000000E+00 0. -1.
         13    1    5    5    0    0  0.22059789064E+02  0.39550710805E+01  0.65357182500E+02  0.69092967697E+02  0.00000000000E+00 0. -1.
        -14    1    5    5    0    0 -0.38275710423E+02 -0.18430158139E+02  0.58420028515E+03  0.58574283940E+03  0.00000000000E+00 0.  1.
          5    1    4    4  501    0  0.94636539258E+02  0.52498898865E+02 -0.15216043833E+03  0.18676852074E+03  0.41800000000E+01 0.  1.
         -5    1    4    4    0  501 -0.14267532610E+02  0.50595690773E+01  0.16347240038E+02  0.22668621107E+02  0.41800000000E+01 0.  1.
</event>
<event>
11    1  0.6763327E-009  0.1340464E+03  0.7561462E-02  0.1114395E+00
         22   -1    0    0    0    0  0.00000000000E+00  0.00000000000E+00  0.91777773159E+03  0.91777773159E+03  0.00000000000E+00 0. -1.
         22   -1    0    0    0    0 -0.00000000000E+00 -0.00000000000E+00 -0.73669761934E+03  0.73669761934E+03  0.00000000000E+00 0.  1.
        -24    2    1    2    0    0  0.27430793990E+02  0.40116969543E+02 -0.69441903626E+03  0.70092623269E+03  0.81963199411E+02 0.  0.
         25    2    1    2    0    0 -0.95306877872E+01 -0.33605754290E+02  0.78712392084E+02  0.15186657751E+03  0.12509051109E+03 0.  0.
         24    2    1    2    0    0 -0.17900106203E+02 -0.65112152529E+01  0.79678675643E+03  0.80168254073E+03  0.86388374010E+02 0.  0.
        -13    1    5    5    0    0  0.19568605039E+02 -0.31920309461E+02  0.22381649626E+03  0.22692655300E+03  0.00000000000E+00 0.  1.
         14    1    5    5    0    0 -0.37468711242E+02  0.25409094209E+02  0.57297026017E+03  0.57475598773E+03  0.00000000000E+00 0. -1.
         13    1    3    3    0    0  0.30100940945E+02  0.61576210961E+02 -0.41028889043E+03  0.41597436221E+03  0.00000000000E+00 0. -1.
        -14    1    3    3    0    0 -0.26701469547E+01 -0.21459241417E+02 -0.28413014582E+03  0.28495187049E+03  0.00000000000E+00 0.  1.
          5    1    4    4  501    0  0.52253877008E+02  0.14669252765E+01  0.10896382893E+02  0.53561395541E+02  0.41800000000E+01 0.  1.
         -5    1    4    4    0  501 -0.61784564795E+02 -0.35072679567E+02  0.67816009191E+02  0.98305181966E+02  0.41800000000E+01 0.  1.
</event>
<event>
11    1  0.6763327E-009  0.1622682E+03  0.7561462E-02  0.1084963E+00
         22   -1    0    0    0    0  0.00000000000E+00  0.00000000000E+00  0.10932080896E+03  0.10932080896E+03  0.00000000000E+00 0. -1.
         22   -1    0    0    0    0 -0.00000000000E+00 -0.00000000000E+00 -0.12011069783E+04  0.12011069783E+04  0.00000000000E+00 0.  1.
         24    2    1    2    0    0  0.39078999036E+02 -0.18218884049E+02 -0.88411192065E+03  0.88847417682E+03  0.76637971909E+02 0.  0.
         25    2    1    2    0    0 -0.84745963555E+02 -0.74035178099E+02 -0.23495658977E+03  0.28898986669E+03  0.12508979989E+03 0.  0.
        -24    2    1    2    0    0  0.45666964519E+02  0.92254062148E+02  0.27282341034E+02  0.13296374380E+03  0.79616250870E+02 0.  0.
        -11    1    3    3    0    0  0.47173836380E+02  0.80431062606E+01 -0.75269100871E+03  0.75421072453E+03  0.00000000000E+00 0.  1.
         12    1    3    3    0    0 -0.80948373442E+01 -0.26261990310E+02 -0.13142091194E+03  0.13426345229E+03  0.00000000000E+00 0. -1.
         11    1    5    5    0    0  0.61569553627E+02  0.93899688031E+02  0.16053590903E+02  0.11342697707E+03  0.00000000000E+00 0. -1.
        -12    1    5    5    0    0 -0.15902589108E+02 -0.16456258829E+01  0.11228750131E+02  0.19536766734E+02  0.00000000000E+00 0.  1.
          5    1    4    4  501    0 -0.14338052112E+02 -0.71500110522E+02 -0.43678987246E+02  0.85106826223E+02  0.41800000000E+01 0. -1.
         -5    1    4    4    0  501 -0.70407911444E+02 -0.25350675767E+01 -0.19127760252E+03  0.20388304046E+03  0.41800000000E+01 0. -1.
</event>
<event>
11    1  0.6763327E-009  0.1669244E+03  0.7561462E-02  0.1080740E+00
         22   -1    0    0    0    0  0.00000000000E+00  0.00000000000E+00  0.31522139115E+03  0.31522139115E+03  0.00000000000E+00 0. -1.
         22   -1    0    0    0    0 -0.00000000000E+00 -0.00000000000E+00 -0.13593802150E+04  0.13593802150E+04  0.00000000000E+00 0. -1.
        -24    2    1    2    0    0 -0.82767888650E+02 -0.74831628247E+02 -0.13098727359E+04  0.13171427980E+04  0.81536925883E+02 0.  0.
         25    2    1    2    0    0  0.58940479101E+02  0.23771665084E+02  0.14617898132E+03  0.20262297053E+03  0.12509476995E+03 0.  0.
         24    2    1    2    0    0  0.23827409549E+02  0.51059963163E+02  0.11953493071E+03  0.15483583756E+03  0.80688733092E+02 0.  0.
        -13    1    5    5    0    0  0.34888528004E+02  0.23801276827E+01  0.90649016917E+02  0.97160273065E+02  0.00000000000E+00 0.  1.
         14    1    5    5    0    0 -0.11061118455E+02  0.48679835480E+02  0.28885913795E+02  0.57675564493E+02  0.00000000000E+00 0. -1.
         13    1    3    3    0    0 -0.41758702985E+02 -0.20585368595E+02 -0.93456864557E+03  0.93572757786E+03  0.00000000000E+00 0. -1.
        -14    1    3    3    0    0 -0.41009185665E+02 -0.54246259652E+02 -0.37530409030E+03  0.38141522019E+03  0.00000000000E+00 0.  1.
          5    1    4    4  501    0  0.89571108507E+02  0.47288151341E+02  0.10901187007E+03  0.14886306779E+03  0.41800000000E+01 0. -1.
         -5    1    4    4    0  501 -0.30630629406E+02 -0.23516486256E+02  0.37167111256E+02  0.53759902741E+02  0.41800000000E+01 0. -1.
</event>
<event>
11    1  0.6763327E-009  0.2615645E+03  0.7561462E-02  0.1017913E+00
         22   -1    0    0    0    0  0.00000000000E+00  0.00000000000E+00  0.25155021564E+04  0.25155021564E+04  0.00000000000E+00 0.  1.
         22   -1    0    0    0    0 -0.00000000000E+00 -0.00000000000E+00 -0.64969751407E+02  0.64969751407E+02  0.00000000000E+00 0.  1.
         24    2    1    2    0    0  0.29523295835E+02 -0.58167856714E+02  0.64876095199E+02  0.12144269327E+03  0.79273548351E+02 0.  0.
         25    2    1    2    0    0 -0.56543005629E+01 -0.18402946134E+03  0.40765756286E+03  0.46446894266E+03  0.12509155199E+03 0.  0.
        -24    2    1    2    0    0 -0.23868995272E+02  0.24219731805E+03  0.19779987469E+04  0.19945602718E+04  0.81008428532E+02 0.  0.
        -11    1    3    3    0    0  0.52322691964E+02 -0.34859703445E+02  0.20007448091E+02  0.65978488901E+02  0.00000000000E+00 0.  1.
         12    1    3    3    0    0 -0.22799396129E+02 -0.23308153269E+02  0.44868647108E+02  0.55464204366E+02  0.00000000000E+00 0. -1.
         11    1    5    5    0    0  0.63272491548E+01  0.42954038816E+02  0.64000624248E+03  0.64147725910E+03  0.00000000000E+00 0. -1.
        -12    1    5    5    0    0 -0.30196244427E+02  0.19924327924E+03  0.13379925044E+04  0.13530830127E+04  0.00000000000E+00 0.  1.
          5    1    4    4  501    0  0.31653588343E+02 -0.48424731061E+02  0.39061226975E+02  0.69929650979E+02  0.41800000000E+01 0.  1.
         -5    1    4    4    0  501 -0.37307888906E+02 -0.13560473028E+03  0.36859633589E+03  0.39453929168E+03  0.41800000000E+01 0.  1.
</event>
<event>
11    1  0.6763327E-009  0.2350463E+03  0.7561462E-02  0.1032181E+00
         22   -1    0    0    0    0  0.00000000000E+00  0.00000000000E+00  0.66453428020E+03  0.66453428020E+03  0.00000000000E+00 0. -1.
         22   -1    0    0    0    0 -0.00000000000E+00 -0.00000000000E+00 -0.55987204992E+03  0.55987204992E+03  0.00000000000E+00 0.  1.
         24    2    1    2    0    0  0.73880857182E+02 -0.18224978984E+03 -0.39575549271E+03  0.44893820000E+03  0.79055236739E+02 0.  0.
         25    2    1    2    0    0 -0.13682151058E+03  0.16849416698E+03 -0.14260744876E+02  0.25092016631E+03  0.12508857243E+03 0.  0.
        -24    2    1    2    0    0  0.62940653401E+02  0.13755622859E+02  0.51467846787E+03  0.52454796382E+03  0.78140246011E+02 0.  0.
        -11    1    3    3    0    0  0.61034650180E+02 -0.12909246635E+03 -0.20038059595E+03  0.24605380839E+03  0.00000000000E+00 0.  1.
         12    1    3    3    0    0  0.12846207001E+02 -0.53157323487E+02 -0.19537489675E+03  0.20288439160E+03  0.00000000000E+00 0. -1.
         11    1    5    5    0    0  0.41849759388E+02  0.99211485191E+01  0.48989702743E+03  0.49178138337E+03  0.00000000000E+00 0. -1.
        -12    1    5    5    0    0  0.21090894013E+02  0.38344743396E+01  0.24781440438E+02  0.32766580443E+02  0.00000000000E+00 0.  1.
          5    1    4    4  501    0 -0.12429867124E+03  0.18359026540E+03  0.67793312237E+01  0.22185350336E+03  0.41800000000E+01 0.  1.
         -5    1    4    4    0  501 -0.12522839347E+02 -0.15096098422E+02 -0.21040076100E+02  0.29066662952E+02  0.41800000000E+01 0.  1.
</event>
<event>
11    1  0.6763327E-009  0.2272807E+03  0.7561462E-02  0.1036750E+00
         22   -1    0    0    0    0  0.00000000000E+00  0.00000000000E+00  0.24854239620E+04  0.24854239620E+04  0.00000000000E+00 0.  1.
         22   -1    0    0    0    0 -0.00000000000E+00 -0.00000000000E+00 -0.57290087668E+03  0.57290087668E+03  0.00000000000E+00 0. -1.
         24    2    1    2    0    0  0.70990595310E+02 -0.19191887988E+02 -0.46668252585E+03  0.47889292284E+03  0.78344485633E+02 0.  0.
         25    2    1    2    0    0 -0.24826868839E+03  0.76957212605E+02  0.12197558283E+03  0.31318662025E+03  0.12509221434E+03 0.  0.
        -24    2    1    2    0    0  0.17727809308E+03 -0.57765324617E+02  0.22572300283E+04  0.22662452956E+04  0.77562773919E+02 0.  0.
        -13    1    3    3    0    0  0.35936320818E+02 -0.66994359427E+01 -0.58262165927E+02  0.68780677333E+02  0.00000000000E+00 0.  1.
         14    1    3    3    0    0  0.35054274492E+02 -0.12492452045E+02 -0.40842035992E+03  0.41011224551E+03  0.00000000000E+00 0. -1.
         11    1    5    5    0    0  0.11965069592E+03 -0.28461295678E+02  0.10305864240E+04  0.10378991819E+04  0.00000000000E+00 0. -1.
        -12    1    5    5    0    0  0.57627397166E+02 -0.29304028939E+02  0.12266436043E+04  0.12283461137E+04  0.00000000000E+00 0.  1.
          5    1    4    4  501    0 -0.95966469812E+02  0.77357638653E+02  0.10095425555E+03  0.15938319140E+03  0.41800000000E+01 0.  1.
         -5    1    4    4    0  501 -0.15230221858E+03 -0.40042604810E+00  0.21021327282E+02  0.15380342885E+03  0.41800000000E+01 0.  1.
</event>
<event>
11    1  0.6763327E-009  0.1648666E+03  0.7561462E-02  0.1082587E+00
         22   -1    0    0    0    0  0.00000000000E+00  0.00000000000E+00  0.27201428946E+04  0.27201428946E+04  0.00000000000E+00 0. -1.
         22   -1    0    0    0    0 -0.00000000000E+00 -0.00000000000E+00 -0.23618020858E+03  0.23618020858E+03  0.00000000000E+00 0. -1.
         24    2    1    2    0    0  0.31722820527E+01  0.69969885615E+02 -0.17461511281E+03  0.20432792426E+03  0.79709564951E+02 0.  0.
         25    2    1    2    0    0 -0.56013754928E+02  0.26124621874E+02  0.63408664935E+02  0.15326019462E+03  0.12509193362E+03 0.  0.
        -24    2    1    2    0    0  0.52841472875E+02 -0.96094507489E+02  0.25951691339E+04  0.25987349843E+04  0.80587278501E+02 0.  0.
        -11    1    3    3    0    0 -0.69783998714E+01  0.60983060886E+02 -0.50529378561E+02  0.79503772725E+02  0.00000000000E+00 0.  1.
         12    1    3    3    0    0  0.10150681924E+02  0.89868247283E+01 -0.12408573425E+03  0.12482415154E+03  0.00000000000E+00 0. -1.
         13    1    5    5    0    0  0.51038345904E+02 -0.42194158558E+02  0.20087358453E+04  0.20098270960E+04  0.00000000000E+00 0. -1.
        -14    1    5    5    0    0  0.18031269715E+01 -0.53900348931E+02  0.58643328860E+03  0.58890788826E+03  0.00000000000E+00 0.  1.
          5    1    4    4  501    0 -0.83270083631E+02  0.46107596510E+02  0.18755675201E+02  0.97103372938E+02  0.41800000000E+01 0. -1.
         -5    1    4    4    0  501  0.27256328703E+02 -0.19982974636E+02  0.44652989734E+02  0.56156821685E+02  0.41800000000E+01 0. -1.
</event>
<event>
11    1  0.6763327E-009  0.1347149E+03  0.7561462E-02  0.1113608E+00
         22   -1    0    0    0    0  0.00000000000E+00  0.00000000000E+00  0.31193102171E+04  0.31193102171E+04  0.00000000000E+00 0. -1.
         22   -1    0    0    0    0 -0.00000000000E+00 -0.00000000000E+00 -0.19320468960E+03  0.19320468960E+03  0.00000000000E+00 0.  1.
        -24    2    1    2    0    0 -0.26423381107E+02  0.35759656113E+02 -0.16760250697E+03  0.19272421983E+03  0.84113473919E+02 0.  0.
         25    2    1    2    0    0 -0.73891801616E+01  0.50108009647E+01  0.31084934388E+03  0.33519303444E+03  0.12508935861E+03 0.  0.
         24    2    1    2    0    0  0.33812561268E+02 -0.40770457077E+02  0.27828586906E+04  0.27845976525E+04  0.82922099988E+02 0.  0.
        -11    1    5    5    0    0  0.43488505377E+02  0.98151330182E+01  0.15950437667E+04  0.15956666960E+04  0.00000000000E+00 0.  1.
         12    1    5    5    0    0 -0.96759441086E+01 -0.50585590096E+02  0.11878149239E+04  0.11889309565E+04  0.00000000000E+00 0. -1.
         13    1    3    3    0    0 -0.28455829716E+02  0.47346977758E+02 -0.49918041517E+02  0.74453216294E+02  0.00000000000E+00 0. -1.
        -14    1    3    3    0    0  0.20324486096E+01 -0.11587321645E+02 -0.11768446545E+03  0.11827100354E+03  0.00000000000E+00 0.  1.
          5    1    4    4  501    0 -0.46511048470E+01 -0.58163166990E+02  0.11005747617E+03  0.12463830563E+03  0.41800000000E+01 0.  1.
         -5    1    4    4    0  501 -0.27380753146E+01  0.63173967954E+02  0.20079186772E+03  0.21055472881E+03  0.41800000000E+01 0.  1.
</event>
<event>
11    1  0.6763327E-009  0.1464206E+03  0.7561462E-02  0.1100593E+00
         22   -1    0    0    0    0  0.00000000000E+00  0.00000000000E+00  0.14226581368E+04  0.14226581368E+04  0.00000000000E+00 0.  1.
         22   -1    0    0    0    0 -0.00000000000E+00 -0.00000000000E+00 -0.37955124391E+03  0.37955124391E+03  0.00000000000E+00 0. -1.
        -24    2    1    2    0    0 -0.48063775997E+01 -0.21673281621E+02 -0.35531029530E+03  0.36837359832E+03  0.94661869779E+02 0.  0.
         25    2    1    2    0    0 -0.69203451704E+02 -0.26596385771E+01  0.33082631337E+03  0.36040204031E+03  0.12508952648E+03 0.  0.
         24    2    1    2    0    0  0.74009829304E+02  0.24332920199E+02  0.10675908748E+04  0.10734337420E+04  0.80250712355E+02 0.  0.
        -11    1    5    5    0    0  0.76365020022E+02  0.81221158736E+01  0.10238510749E+04  0.10267271345E+04  0.00000000000E+00 0.  1.
         12    1    5    5    0    0 -0.23551907188E+01  0.16210804325E+02  0.43739799866E+02  0.46706607589E+02  0.00000000000E+00 0. -1.
         11    1    3    3    0    0 -0.65289335132E+01  0.36806772876E+02 -0.16937429256E+03  0.17345032857E+03  0.00000000000E+00 0. -1.
        -12    1    3    3    0    0  0.17225559135E+01 -0.58480054497E+02 -0.18593600274E+03  0.19492326974E+03  0.00000000000E+00 0.  1.
          5    1    4    4  501    0 -0.59912018143E+02  0.56256659736E+02  0.17134639155E+03  0.19008240313E+03  0.41800000000E+01 0.  1.
         -5    1    4    4    0  501 -0.92914335612E+01 -0.58916298313E+02  0.15947992182E+03  0.17031963718E+03  0.41800000000E+01 0.  1.
</event>
<event>
11    1  0.6763327E-009  0.1553824E+03  0.7561462E-02  0.1091503E+00
         22   -1    0    0    0    0  0.00000000000E+00  0.00000000000E+00  0.31136668278E+03  0.31136668278E+03  0.00000000000E+00 0. -1.
         22   -1    0    0    0    0 -0.00000000000E+00 -0.00000000000E+00 -0.10972102888E+04  0.10972102888E+04  0.00000000000E+00 0. -1.
         24    2    1    2    0    0  0.28960439760E+02 -0.31449764468E+02 -0.96663979053E+03  0.97060588198E+03  0.76521230619E+02 0.  0.
         25    2    1    2    0    0  0.29496955803E+02  0.10169415329E+03 -0.54594167083E+02  0.17274272623E+03  0.12509098757E+03 0.  0.
        -24    2    1    2    0    0 -0.58457395563E+02 -0.70244388821E+02  0.23539035154E+03  0.26522836342E+03  0.81153717774E+02 0.  0.
        -13    1    3    3    0    0 -0.83910120960E+01 -0.27894366375E+02 -0.13438468388E+03  0.13750544724E+03  0.00000000000E+00 0.  1.
         14    1    3    3    0    0  0.37351451856E+02 -0.35553980930E+01 -0.83225510665E+03  0.83310043474E+03  0.00000000000E+00 0. -1.
         13    1    5    5    0    0 -0.74056375192E+02 -0.58205564913E+02  0.22267491077E+03  0.24177748112E+03  0.00000000000E+00 0. -1.
        -14    1    5    5    0    0  0.15598979629E+02 -0.12038823908E+02  0.12715440776E+02  0.23450882301E+02  0.00000000000E+00 0.  1.
          5    1    4    4  501    0 -0.32716447859E+02  0.95317251700E+02 -0.28176571014E+02  0.10472409458E+03  0.41800000000E+01 0.  1.
         -5    1    4    4    0  501  0.62213403662E+02  0.63769015893E+01 -0.26417596070E+02  0.68018631647E+02  0.41800000000E+01 0.  1.
</event>
<event>
11    1  0.6763327E-009  0.1725394E+03  0.7561462E-02  0.1075843E+00
         22   -1    0    0    0    0  0.00000000000E+00  0.00000000000E+00  0.15720655944E+03  0.15720655944E+03  0.00000000000E+00 0. -1.
         22   -1    0    0    0    0 -0.00000000000E+00 -0.00000000000E+00 -0.13427805834E+04  0.13427805834E+04  0.00000000000E+00 0. -1.
        -24    2    1    2    0    0 -0.28068762719E+02  0.11413254198E+02 -0.10398632636E+04  0.10434558371E+04  0.81033074533E+02 0.  0.
         25    2    1    2    0    0  0.13454968782E+03  0.34540263197E+02 -0.22760783254E+03  0.29453375205E+03  0.12509259526E+03 0.  0.
         24    2    1    2    0    0 -0.10648092510E+03 -0.45953517395E+02  0.81897072157E+02  0.16199755373E+03  0.78013869373E+02 0.  0.
        -13    1    5    5    0    0 -0.63971143291E+02  0.67803951923E+01  0.13487749181E+02  0.65728230700E+02  0.00000000000E+00 0.  1.
         14    1    5    5    0    0 -0.42509781810E+02 -0.52733912587E+02  0.68409322976E+02  0.96269323028E+02  0.00000000000E+00 0. -1.
         11    1    3    3    0    0 -0.45381333068E+00 -0.33654184389E+02 -0.40636653453E+03  0.40775798026E+03  0.00000000000E+00 0. -1.
        -12    1    3    3    0    0 -0.27614949388E+02  0.45067438587E+02 -0.63349672904E+03  0.63569785681E+03  0.00000000000E+00 0.  1.
          5    1    4    4  501    0  0.47686998460E+02  0.13153595984E+02  0.31855759249E+00  0.49645148689E+02  0.41800000000E+01 0.  1.
         -5    1    4    4    0  501  0.86862689360E+02  0.21386667213E+02 -0.22792639014E+03  0.24488860336E+03  0.41800000000E+01 0.  1.
</event>
<event>
11    1  0.6763327E-009  0.1798090E+03  0.7561462E-02  0.1069797E+00
         22   -1    0    0    0    0  0.00000000000E+00  0.00000000000E+00  0.11936315217E+04  0.11936315217E+04  0.00000000000E+00 0. -1.
         22   -1    0    0    0    0 -0.00000000000E+00 -0.00000000000E+00 -0.24767500645E+03  0.24767500645E+03  0.00000000000E+00 0.  1.
         24    2    1    2    0    0  0.13352673974E+03 -0.61715775835E+02 -0.82244949734E+02  0.18627145431E+03  0.79338488275E+02 0.  0.
         25    2    1    2    0    0 -0.28129304366E+02  0.13508309134E+03 -0.27377804388E+02  0.18824237117E+03  0.12508775639E+03 0.  0.
        -24    2    1    2    0    0 -0.10539743537E+03 -0.73367315506E+02  0.10555792694E+04  0.10667927027E+04  0.85485052429E+02 0.  0.
        -11    1    3    3    0    0  0.36018389420E+02 -0.40067307902E+02 -0.65801449782E+02  0.85044366847E+02  0.00000000000E+00 0.  1.
         12    1    3    3    0    0  0.97508350316E+02 -0.21648467933E+02 -0.16443499952E+02  0.10122708746E+03  0.00000000000E+00 0. -1.
         11    1    5    5    0    0 -0.50619803128E+02 -0.54027963910E+02  0.30065156653E+03  0.30963325049E+03  0.00000000000E+00 0. -1.
        -12    1    5    5    0    0 -0.54777632242E+02 -0.19339351595E+02  0.75492770289E+03  0.75715945223E+03  0.00000000000E+00 0.  1.
          5    1    4    4  501    0 -0.53693122454E+02  0.11773412784E+03 -0.60369643949E+02  0.14285042026E+03  0.41800000000E+01 0.  1.
         -5    1    4    4    0  501  0.25563818089E+02  0.17348963498E+02  0.32991839561E+02  0.45391950909E+02  0.41800000000E+01 0.  1.
</event>
<event>
11    1  0.6763327E-009  0.1531220E+03  0.7561462E-02  0.1093731E+00
         22   -1    0    0    0    0  0.00000000000E+00  0.00000000000E+00  0.17394601241E+03  0.17394601241E+03  0.00000000000E+00 0.  1.
         22   -1    0    0    0    0 -0.00000000000E+00 -0.00000000000E+00 -0.66155377122E+03  0.66155377122E+03  0.00000000000E+00 0. -1.
        -24    2    1    2    0    0  0.63684104355E+01 -0.58417573553E+02 -0.46414031791E+03  0.47664774124E+03  0.91179301194E+02 0.  0.
         25    2    1    2    0    0 -0.12546528668E+02  0.13795383201E+03 -0.11009515633E+03  0.21669764802E+03  0.12509297368E+03 0.  0.
         24    2    1    2    0    0  0.61781182329E+01 -0.79536258459E+02  0.86627715428E+02  0.14215439437E+03  0.79619879445E+02 0.  0.
        -11    1    5    5    0    0  0.32589643855E+02 -0.10556735062E+02  0.47510098524E+02  0.58572510647E+02  0.00000000000E+00 0.  1.
         12    1    5    5    0    0 -0.26411525622E+02 -0.68979523397E+02  0.39117616904E+02  0.83581883719E+02  0.00000000000E+00 0. -1.
         13    1    3    3    0    0 -0.37344668930E+02 -0.42466928337E+02 -0.32632172839E+03  0.33118564993E+03  0.00000000000E+00 0. -1.
        -14    1    3    3    0    0  0.43713079366E+02 -0.15950645216E+02 -0.13781858952E+03  0.14546209131E+03  0.00000000000E+00 0.  1.
          5    1    4    4  501    0 -0.31881311830E+02  0.10820634330E+03 -0.13474328689E+02  0.11368403893E+03  0.41800000000E+01 0.  1.
         -5    1    4    4    0  501  0.19334783161E+02  0.29747488715E+02 -0.96620827637E+02  0.10301360909E+03  0.41800000000E+01 0.  1.
</event>
<event>
11    1  0.6763327E-009  0.1500863E+03  0.7561462E-02  0.1096791E+00
         22   -1    0    0    0    0  0.00000000000E+00  0.00000000000E+00  0.56740645486E+03  0.56740645486E+03  0.00000000000E+00 0.  1.
         22   -1    0    0    0    0 -0.00000000000E+00 -0.00000000000E+00 -0.19372483345E+03  0.19372483345E+03  0.00000000000E+00 0.  1.
        -24    2    1    2    0    0 -0.61630754255E+02  0.58555698021E+02 -0.82182647806E+02  0.14241245631E+03  0.79373802169E+02 0.  0.
         25    2    1    2    0    0  0.84211608090E+02  0.24844353068E+02  0.52166975746E+01  0.15291745988E+03  0.12509076220E+03 0.  0.
         24    2    1    2    0    0 -0.22580853835E+02 -0.83400051090E+02  0.45064757165E+03  0.46580137212E+03  0.80138760630E+02 0.  0.
        -13    1    5    5    0    0 -0.23554776918E+01 -0.92123227747E+02  0.40156176842E+03  0.41200011071E+03  0.00000000000E+00 0.  1.
         14    1    5    5    0    0 -0.20225376144E+02  0.87231766571E+01  0.49085803223E+02  0.53801261409E+02  0.00000000000E+00 0. -1.
         11    1    3    3    0    0 -0.59383529979E+02  0.71773812731E+02 -0.46137823421E+02  0.10395471407E+03  0.00000000000E+00 0. -1.
        -12    1    3    3    0    0 -0.22472242758E+01 -0.13218114710E+02 -0.36044824385E+02  0.38457742242E+02  0.00000000000E+00 0.  1.
          5    1    4    4  501    0 -0.72624208318E+01  0.55565061184E+02  0.38006046369E+01  0.56321716738E+02  0.41800000000E+01 0. -1.
         -5    1    4    4    0  501  0.91474028922E+02 -0.30720708116E+02  0.14160929377E+01  0.96595743144E+02  0.41800000000E+01 0. -1.
</event>
<event>
11    1  0.6763327E-009  0.1630360E+03  0.7561462E-02  0.1084256E+00
         22   -1    0    0    0    0  0.00000000000E+00  0.00000000000E+00  0.32500112240E+03  0.32500112240E+03  0.00000000000E+00 0. -1.
         22   -1    0    0    0    0 -0.00000000000E+00 -0.00000000000E+00 -0.12707337156E+04  0.12707337156E+04  0.00000000000E+00 0. -1.
        -24    2    1    2    0    0 -0.74155444573E+02 -0.71540366043E+02 -0.11448702515E+04  0.11523181006E+04  0.80573309945E+02 0.  0.
         25    2    1    2    0    0  0.11976503816E+03  0.71742078081E+02 -0.36152256486E+02  0.19090559922E+03  0.12508945613E+03 0.  0.
         24    2    1    2    0    0 -0.45609593583E+02 -0.20171203771E+00  0.23528991472E+03  0.25251113825E+03  0.79500033056E+02 0.  0.
        -13    1    5    5    0    0  0.16543251678E+02  0.56329113628E+01  0.13442425749E+02  0.22047849703E+02  0.00000000000E+00 0.  1.
         14    1    5    5    0    0 -0.62152845261E+02 -0.58346234005E+01  0.22184748897E+03  0.23046328855E+03  0.00000000000E+00 0. -1.
         13    1    3    3    0    0 -0.77085469905E+02 -0.51186040121E+02 -0.10864663657E+04  0.10903996259E+04  0.00000000000E+00 0. -1.
        -14    1    3    3    0    0  0.29300253315E+01 -0.20354325922E+02 -0.58403885735E+02  0.61918474635E+02  0.00000000000E+00 0.  1.
          5    1    4    4  501    0  0.41203694641E+02  0.95876764405E+02 -0.28507384595E+02  0.10826006550E+03  0.41800000000E+01 0.  1.
         -5    1    4    4    0  501  0.78561343515E+02 -0.24134686324E+02 -0.76448718914E+01  0.82645533727E+02  0.41800000000E+01 0.  1.
</event>
<event>
11    1  0.6763327E-009  0.1981417E+03  0.7561462E-02  0.1055846E+00
         22   -1    0    0    0    0  0.00000000000E+00  0.00000000000E+00  0.81343122846E+03  0.81343122846E+03  0.00000000000E+00 0. -1.
         22   -1    0    0    0    0 -0.00000000000E+00 -0.00000000000E+00 -0.11507787338E+03  0.11507787338E+03  0.00000000000E+00 0. -1.
         24    2    1    2    0    0 -0.19452748041E+02 -0.16426509286E+03  0.35260125139E+02  0.18705137136E+03  0.79896864549E+02 0.  0.
         25    2    1    2    0    0  0.12902513359E+02  0.12867500477E+03  0.19537045886E+03  0.26559480292E+03  0.12508897410E+03 0.  0.
        -24    2    1    2    0    0  0.65502346816E+01  0.35590088091E+02  0.46772277108E+03  0.47586292757E+03  0.79820895132E+02 0.  0.
        -13    1    3    3    0    0 -0.16197284442E+02 -0.34925527385E+02 -0.23337353258E+02  0.45019735045E+02  0.00000000000E+00 0.  1.
         14    1    3    3    0    0 -0.32554635986E+01 -0.12933956547E+03  0.58597478396E+02  0.14203163631E+03  0.00000000000E+00 0. -1.
         11    1    5    5    0    0  0.28699995444E+02  0.54104431082E+01  0.37100873830E+03  0.37215648124E+03  0.00000000000E+00 0. -1.
        -12    1    5    5    0    0 -0.22149760763E+02  0.30179644983E+02  0.96714032784E+02  0.10370644633E+03  0.00000000000E+00 0.  1.
          5    1    4    4  501    0  0.46064569961E+02  0.12780829785E+03  0.11321296774E+03  0.17689418891E+03  0.41800000000E+01 0.  1.
         -5    1    4    4    0  501 -0.33162056602E+02  0.86670691407E+00  0.82157491119E+02  0.88700614011E+02  0.41800000000E+01 0.  1.
</event>
<event>
11    1  0.6763327E-009  0.1339663E+03  0.7561462E-02  0.1114490E+00
         22   -1    0    0    0    0  0.00000000000E+00  0.00000000000E+00  0.28414178721E+03  0.28414178721E+03  0.00000000000E+00 0. -1.
         22   -1    0    0    0    0 -0.00000000000E+00 -0.00000000000E+00 -0.56506100291E+03  0.56506100291E+03  0.00000000000E+00 0.  1.
        -24    2    1    2    0    0  0.20167949078E+02 -0.43177755535E+02 -0.50462341183E+03  0.51350516721E+03  0.82290365438E+02 0.  0.
         25    2    1    2    0    0 -0.12259883172E+02  0.54454378335E+02  0.53630445392E+02  0.14710409819E+03  0.12509119464E+03 0.  0.
         24    2    1    2    0    0 -0.79080659063E+01 -0.11276622800E+02  0.17007375073E+03  0.18859352472E+03  0.80328930983E+02 0.  0.
        -11    1    5    5    0    0 -0.14790392047E+02 -0.27338472802E+02  0.18825806675E+02  0.36339493516E+02  0.00000000000E+00 0.  1.
         12    1    5    5    0    0  0.68823261409E+01  0.16061850002E+02  0.15124794405E+03  0.15225403121E+03  0.00000000000E+00 0. -1.
         13    1    3    3    0    0  0.13413635329E+02  0.30601725365E+01 -0.10839901385E+02  0.17515528275E+02  0.00000000000E+00 0. -1.
        -14    1    3    3    0    0  0.67543137487E+01 -0.46237928071E+02 -0.49378351044E+03  0.49598963893E+03  0.00000000000E+00 0.  1.
          5    1    4    4  501    0 -0.23576947201E+02  0.31671226123E+02 -0.36149902370E+02  0.53695687395E+02  0.41800000000E+01 0.  1.
         -5    1    4    4    0  501  0.11317064029E+02  0.22783152212E+02  0.89780347763E+02  0.93408410796E+02  0.41800000000E+01 0.  1.
</event>
<event>
11    1  0.6763327E-009  0.1570208E+03  0.7561462E-02  0.1089913E+00
         22   -1    0    0    0    0  0.00000000000E+00  0.00000000000E+00  0.16700359082E+04  0.16700359082E+04  0.00000000000E+00 0. -1.
         22   -1    0    0    0    0 -0.00000000000E+00 -0.00000000000E+00 -0.61997204173E+03  0.61997204173E+03  0.00000000000E+00 0. -1.
         24    2    1    2    0    0  0.12231639064E+02  0.61690804827E+02 -0.53916956085E+03  0.54842832619E+03  0.78194918169E+02 0.  0.
         25    2    1    2    0    0 -0.10644585811E+03 -0.67236976489E+02  0.33149376610E+02  0.18054807705E+03  0.12508874946E+03 0.  0.
        -24    2    1    2    0    0  0.94214219051E+02  0.55461716619E+01  0.15560840507E+04  0.15610315466E+04  0.80714544945E+02 0.  0.
        -13    1    3    3    0    0  0.20533120300E+02 -0.24647130140E+01 -0.29852106570E+03  0.29923654608E+03  0.00000000000E+00 0.  1.
         14    1    3    3    0    0 -0.83014812358E+01  0.64155517841E+02 -0.24064849515E+03  0.24919178011E+03  0.00000000000E+00 0. -1.
         13    1    5    5    0    0  0.77222718636E+02  0.36966834262E+02  0.93123085497E+03  0.93515816863E+03  0.00000000000E+00 0. -1.
        -14    1    5    5    0    0  0.16991500414E+02 -0.31420662600E+02  0.62485319570E+03  0.62587337801E+03  0.00000000000E+00 0.  1.
          5    1    4    4  501    0 -0.62097111046E+01  0.32775297104E+02 -0.46338416360E+01  0.33937081498E+02  0.41800000000E+01 0.  1.
         -5    1    4    4    0  501 -0.10023614701E+03 -0.10001227359E+03  0.37783218246E+02  0.14661099556E+03  0.41800000000E+01 0.  1.
</event>
<event>
11    1  0.6763327E-009  0.1329526E+03  0.7561462E-02  0.1115693E+00
         22   -1    0    0    0    0  0.00000000000E+00  0.00000000000E+00  0.22589293271E+03  0.22589293271E+03  0.00000000000E+00 0. -1.
         22   -1    0    0    0    0 -0.00000000000E+00 -0.00000000000E+00 -0.18738923185E+03  0.18738923185E+03  0.00000000000E+00 0.  1.
        -24    2    1    2    0    0 -0.27069890327E+02  0.28521220029E+02 -0.89304162762E+02  0.12653910758E+03  0.80564715027E+02 0.  0.
         25    2    1    2    0    0  0.53985088708E+02 -0.43834010027E+02  0.13025114926E+02  0.14371114347E+03  0.12508968343E+03 0.  0.
         24    2    1    2    0    0 -0.26915198381E+02  0.15312789998E+02  0.11478274870E+03  0.14303191350E+03  0.79524458134E+02 0.  0.
        -13    1    5    5    0    0  0.45435603481E+01 -0.29909246080E+02  0.40477796647E+02  0.50533740838E+02  0.00000000000E+00 0.  1.
         14    1    5    5    0    0 -0.31458758729E+02  0.45222036078E+02  0.74304952048E+02  0.92498172667E+02  0.00000000000E+00 0. -1.
         13    1    3    3    0    0  0.39970806496E+00 -0.19686112987E+02  0.19021402692E+01  0.19781833804E+02  0.00000000000E+00 0. -1.
        -14    1    3    3    0    0 -0.27469598392E+02  0.48207333016E+02 -0.91206303031E+02  0.10675727378E+03  0.00000000000E+00 0.  1.
          5    1    4    4  501    0  0.89723112773E+02 -0.27475969203E+02  0.32830579660E+02  0.99501181954E+02  0.41800000000E+01 0.  1.
         -5    1    4    4    0  501 -0.35738024066E+02 -0.16358040824E+02 -0.19805464734E+02  0.44209961514E+02  0.41800000000E+01 0.  1.
</event>
<event>
11    1  0.6763327E-009  0.1646675E+03  0.7561462E-02  0.1082768E+00
         22   -1    0    0    0    0  0.00000000000E+00  0.00000000000E+00  0.36082560955E+03  0.36082560955E+03  0.00000000000E+00 0.  1.
         22   -1    0    0    0    0 -0.00000000000E+00 -0.00000000000E+00 -0.50885283659E+03  0.50885283659E+03  0.00000000000E+00 0. -1.
         24    2    1    2    0    0 -0.73178183766E+02  0.55517990827E+02 -0.39092481118E+03  0.40861974122E+03  0.75568452640E+02 0.  0.
         25    2    1    2    0    0  0.91173692938E+02  0.56145326830E+02 -0.18271253961E+02  0.16566774579E+03  0.12508806204E+03 0.  0.
        -24    2    1    2    0    0 -0.17995509172E+02 -0.11166331766E+03  0.26116883810E+03  0.29539095913E+03  0.79083006282E+02 0.  0.
        -13    1    3    3    0    0  0.14235754991E+02  0.15444226352E+02 -0.10108618805E+03  0.10324533046E+03  0.00000000000E+00 0.  1.
         14    1    3    3    0    0 -0.87413938757E+02  0.40073764474E+02 -0.28983862313E+03  0.30537441076E+03  0.00000000000E+00 0. -1.
         13    1    5    5    0    0  0.74964270508E+01 -0.10187774619E+03  0.15401780695E+03  0.18481546593E+03  0.00000000000E+00 0. -1.
        -14    1    5    5    0    0 -0.25491936223E+02 -0.97855714628E+01  0.10715103115E+03  0.11057549321E+03  0.00000000000E+00 0.  1.
          5    1    4    4  501    0  0.60393258106E+02 -0.25543760407E+02  0.22201208811E+02  0.69355572185E+02  0.41800000000E+01 0. -1.
         -5    1    4    4    0  501  0.30780434831E+02  0.81689087238E+02 -0.40472462772E+02  0.96312173607E+02  0.41800000000E+01 0. -1.
</event>
<event>
11    1  0.6763327E-009  0.2364504E+03  0.7561462E-02  0.1031375E+00
         22   -1    0    0    0    0  0.00000000000E+00  0.00000000000E+00  0.69462319462E+03  0.69462319462E+03  0.00000000000E+00 0.  1.
         22   -1    0    0    0    0 -0.00000000000E+00 -0.00000000000E+00 -0.11298855953E+04  0.11298855953E+04  0.00000000000E+00 0. -1.
        -24    2    1    2    0    0 -0.65416299989E+00  0.12202877304E+02 -0.10486976976E+04  0.10522099893E+04  0.85027421172E+02 0.  0.
         25    2    1    2    0    0 -0.57289785670E+02  0.18438129336E+03  0.21006982080E+03  0.31153678094E+03  0.12508898984E+03 0.  0.
         24    2    1    2    0    0  0.57943948670E+02 -0.19658417067E+03  0.40336547619E+03  0.46076201968E+03  0.87149836830E+02 0.  0.
        -13    1    5    5    0    0  0.32672182990E+02 -0.13193288461E+03  0.34234511021E+03  0.36833942507E+03  0.00000000000E+00 0.  1.
         14    1    5    5    0    0  0.25271765679E+02 -0.64651286062E+02  0.61020365980E+02  0.92422594610E+02  0.00000000000E+00 0. -1.
         13    1    3    3    0    0 -0.25365078613E+02  0.39786956163E+02 -0.68798864244E+03  0.68960478626E+03  0.00000000000E+00 0. -1.
        -14    1    3    3    0    0  0.24710915613E+02 -0.27584078859E+02 -0.36070905519E+03  0.36260520301E+03  0.00000000000E+00 0.  1.
          5    1    4    4  501    0 -0.71182741320E+02  0.16730016166E+03  0.11802599975E+03  0.21680391087E+03  0.41800000000E+01 0.  1.
         -5    1    4    4    0  501  0.13892955651E+02  0.17081131708E+02  0.92043821051E+02  0.94732870065E+02  0.41800000000E+01 0.  1.
</event>
<event>
11    1  0.6763327E-009  0.1367160E+03  0.7561462E-02  0.1111282E+00
         22   -1    0    0    0    0  0.00000000000E+00  0.00000000000E+00  0.17343684511E+04  0.17343684511E+04  0.00000000000E+00 0.  1.
         22   -1    0    0    0    0 -0.00000000000E+00 -0.00000000000E+00 -0.32009368877E+03  0.32009368877E+03  0.00000000000E+00 0.  1.
         24    2    1    2    0    0  0.13375191262E+02 -0.35456701516E+02 -0.16858996696E+03  0.18838667364E+03  0.75039245879E+02 0.  0.
         25    2    1    2    0    0 -0.68311708125E+02  0.38186960141E+02 -0.10140325439E+03  0.17904403628E+03  0.12509761602E+03 0.  0.
        -24    2    1    2    0    0  0.54936516863E+02 -0.27302586252E+01  0.16842679837E+04  0.16870314300E+04  0.79315380491E+02 0.  0.
        -13    1    3    3    0    0 -0.95875085390E+01 -0.53110582798E+02 -0.94323944258E+02  0.10867226318E+03  0.00000000000E+00 0.  1.
         14    1    3    3    0    0  0.22962699801E+02  0.17653881282E+02 -0.74266022705E+02  0.79714410459E+02  0.00000000000E+00 0. -1.
         11    1    5    5    0    0  0.12213887111E+02  0.88494708778E+00  0.32871463521E+02  0.35078416209E+02  0.00000000000E+00 0. -1.
        -12    1    5    5    0    0  0.42722629752E+02 -0.36152057130E+01  0.16513965202E+04  0.16519530138E+04  0.00000000000E+00 0.  1.
          5    1    4    4  501    0 -0.89493299735E+02  0.29028426537E+02 -0.22634507972E+02  0.96858110635E+02  0.41800000000E+01 0. -1.
         -5    1    4    4    0  501  0.21181591610E+02  0.91585336043E+01 -0.78768746420E+02  0.82185925641E+02  0.41800000000E+01 0. -1.
</event>
<event>
11    1  0.6763327E-009  0.1346235E+03  0.7561462E-02  0.1113715E+00
         22   -1    0    0    0    0  0.00000000000E+00  0.00000000000E+00  0.28428535334E+03  0.28428535334E+03  0.00000000000E+00 0. -1.
         22   -1    0    0    0    0 -0.00000000000E+00 -0.00000000000E+00 -0.63996017121E+03  0.63996017121E+03  0.00000000000E+00 0. -1.
        -24    2    1    2    0    0  0.10261913299E+02  0.19796548861E+02 -0.54934188625E+03  0.55566556463E+03  0.80563648853E+02 0.  0.
         25    2    1    2    0    0 -0.33880879278E+02  0.25646420374E+02 -0.20724525508E+02  0.13372616856E+03  0.12509008491E+03 0.  0.
         24    2    1    2    0    0  0.23618965979E+02 -0.45442969235E+02  0.21439159388E+03  0.23485379136E+03  0.81053246596E+02 0.  0.
        -11    1    5    5    0    0  0.21985485272E+02 -0.16708942688E+01  0.73685705309E+01  0.23247565076E+02  0.00000000000E+00 0.  1.
         12    1    5    5    0    0  0.16334807071E+01 -0.43772074966E+02  0.20702302335E+03  0.21160622628E+03  0.00000000000E+00 0. -1.
         11    1    3    3    0    0  0.33025492480E+02  0.17919529431E+01 -0.47033550835E+03  0.47149696145E+03  0.00000000000E+00 0. -1.
        -12    1    3    3    0    0 -0.22763579181E+02  0.18004595918E+02 -0.79006377902E+02  0.84168603176E+02  0.00000000000E+00 0.  1.
          5    1    4    4  501    0  0.19917169303E+02  0.62170724910E+02 -0.22126265515E+00  0.65417230345E+02  0.41800000000E+01 0.  1.
         -5    1    4    4    0  501 -0.53798048581E+02 -0.36524304536E+02 -0.20503262853E+02  0.68308938219E+02  0.41800000000E+01 0.  1.
</event>
<event>
11    1  0.6763327E-009  0.1491653E+03  0.7561462E-02  0.1097735E+00
         22   -1    0    0    0    0  0.00000000000E+00  0.00000000000E+00  0.62863510597E+03  0.62863510597E+03  0.00000000000E+00 0.  1.
         22   -1    0    0    0    0 -0.00000000000E+00 -0.00000000000E+00 -0.15518923360E+04  0.15518923360E+04  0.00000000000E+00 0. -1.
         24    2    1    2    0    0 -0.14328837245E+02 -0.35148711259E+02 -0.14822473330E+04  0.14849498381E+04  0.81105597180E+02 0.  0.
         25    2    1    2    0    0 -0.37606566148E+02 -0.31556009408E+02  0.10415592193E+02  0.13477245756E+03  0.12508035501E+03 0.  0.
        -24    2    1    2    0    0  0.51935403393E+02  0.66704720667E+02  0.54857451081E+03  0.56080514631E+03  0.80134963212E+02 0.  0.
        -13    1    3    3    0    0  0.98920193638E+01 -0.51888319118E+02 -0.63576807559E+03  0.63795869431E+03  0.00000000000E+00 0.  1.
         14    1    3    3    0    0 -0.24220856608E+02  0.16739607859E+02 -0.84647925742E+03  0.84699114376E+03  0.00000000000E+00 0. -1.
         11    1    5    5    0    0 -0.62621113128E+01 -0.13219653338E+02  0.37431816927E+02  0.40188483312E+02  0.00000000000E+00 0. -1.
        -12    1    5    5    0    0  0.58197514706E+02  0.79924374004E+02  0.51114269388E+03  0.52061666299E+03  0.00000000000E+00 0.  1.
          5    1    4    4  501    0 -0.73856025521E+02 -0.52397607385E+02  0.17016975817E+02  0.92234872101E+02  0.41800000000E+01 0. -1.
         -5    1    4    4    0  501  0.36249459373E+02  0.20841597977E+02 -0.66013836241E+01  0.42537585461E+02  0.41800000000E+01 0. -1.
</event>
<event>
11    1  0.6763327E-009  0.1452648E+03  0.7561462E-02  0.1101818E+00
         22   -1    0    0    0    0  0.00000000000E+00  0.00000000000E+00  0.97232102821E+03  0.97232102821E+03  0.00000000000E+00 0.  1.
         22   -1    0    0    0    0 -0.00000000000E+00 -0.00000000000E+00 -0.13772476888E+03  0.13772476888E+03  0.00000000000E+00 0.  1.
        -24    2    1    2    0    0  0.13408593751E+02  0.18416966836E+02 -0.80027278112E+02  0.11554465408E+03  0.80169986842E+02 0.  0.
         25    2    1    2    0    0 -0.20507066929E+02  0.56676273064E+02  0.96945538686E+02  0.16935180278E+03  0.12509538725E+03 0.  0.
         24    2    1    2    0    0  0.70984731780E+01 -0.75093239899E+02  0.81767799876E+03  0.82514934023E+03  0.81146417187E+02 0.  0.
        -13    1    5    5    0    0  0.34506881628E+02 -0.73641702774E+02  0.53558025602E+03  0.54171951775E+03  0.00000000000E+00 0.  1.
         14    1    5    5    0    0 -0.27408408450E+02 -0.14515371252E+01  0.28209774274E+03  0.28342982248E+03  0.00000000000E+00 0. -1.
         13    1    3    3    0    0 -0.31137901978E+02  0.15026897837E+02 -0.17649103820E+02  0.38818390794E+02  0.00000000000E+00 0. -1.
        -14    1    3    3    0    0  0.44546495728E+02  0.33900689990E+01 -0.62378174293E+02  0.76726263284E+02  0.00000000000E+00 0.  1.
          5    1    4    4  501    0 -0.28411921415E+02 -0.59693826688E+01 -0.20608426577E+02  0.35847600393E+02  0.41800000000E+01 0. -1.
         -5    1    4    4    0  501  0.79048544862E+01  0.62645655732E+02  0.11755396526E+03  0.13350420239E+03  0.41800000000E+01 0. -1.
</event>
<event>
11    1  0.6763327E-009  0.1376005E+03  0.7561462E-02  0.1110268E+00
         22   -1    0    0    0    0  0.00000000000E+00  0.00000000000E+00  0.70604325177E+03  0.70604325177E+03  0.00000000000E+00 0.  1.
         22   -1    0    0    0    0 -0.00000000000E+00 -0.00000000000E+00 -0.31802217668E+03  0.31802217668E+03  0.00000000000E+00 0.  1.
         24    2    1    2    0    0 -0.22247194650E+02 -0.15396028246E+02 -0.28761607141E+03  0.29983249421E+03  0.80277921613E+02 0.  0.
         25    2    1    2    0    0 -0.31520074525E+02  0.41934667818E+02  0.22336521770E+03  0.26132801203E+03  0.12509307707E+03 0.  0.
        -24    2    1    2    0    0  0.53767269175E+02 -0.26538639572E+02  0.45227192880E+03  0.46290492222E+03  0.78331671806E+02 0.  0.
        -11    1    3    3    0    0  0.23537788562E+01  0.19438460420E+02 -0.21293217971E+03  0.21383055716E+03  0.00000000000E+00 0.  1.
         12    1    3    3    0    0 -0.24600973506E+02 -0.34834488666E+02 -0.74683891694E+02  0.86001937051E+02  0.00000000000E+00 0. -1.
         11    1    5    5    0    0 -0.82010790664E+01 -0.11913666596E+02  0.14335383785E+02  0.20364095312E+02  0.00000000000E+00 0. -1.
        -12    1    5    5    0    0  0.61968348241E+02 -0.14624972975E+02  0.43793654502E+03  0.44254082691E+03  0.00000000000E+00 0.  1.
          5    1    4    4  501    0 -0.61083705741E+02  0.55362182791E+02  0.21058275786E+03  0.22618302478E+03  0.41800000000E+01 0.  1.
         -5    1    4    4    0  501  0.29563631216E+02 -0.13427514973E+02  0.12782459835E+02  0.35144987245E+02  0.41800000000E+01 0.  1.
</event>
<event>
11    1  0.6763327E-009  0.1619300E+03  0.7561462E-02  0.1085276E+00
         22   -1    0    0    0    0  0.00000000000E+00  0.00000000000E+00  0.31500210636E+03  0.31500210636E+03  0.00000000000E+00 0.  1.
         22   -1    0    0    0    0 -0.00000000000E+00 -0.00000000000E+00 -0.14440091548E+04  0.14440091548E+04  0.00000000000E+00 0. -1.
        -24    2    1    2    0    0 -0.90389746546E+01 -0.10046174485E+03 -0.13183637192E+04  0.13243920647E+04  0.75876081995E+02 0.  0.
         25    2    1    2    0    0  0.21212225976E+02  0.16789838200E+03 -0.79766575863E+01  0.21059142801E+03  0.12508116275E+03 0.  0.
         24    2    1    2    0    0 -0.12173251321E+02 -0.67436637150E+02  0.19733332828E+03  0.22402776847E+03  0.80945108041E+02 0.  0.
        -11    1    5    5    0    0 -0.21986422128E+01 -0.53119686046E+02  0.19948365828E+03  0.20644676068E+03  0.00000000000E+00 0.  1.
         12    1    5    5    0    0 -0.99746091086E+01 -0.14316951103E+02 -0.21503299995E+01  0.17581007789E+02  0.00000000000E+00 0. -1.
         11    1    3    3    0    0 -0.19012314583E+02 -0.61999043824E+02 -0.11311866381E+04  0.11330439355E+04  0.00000000000E+00 0. -1.
        -12    1    3    3    0    0  0.99733399286E+01 -0.38462701030E+02 -0.18717708110E+03  0.19134812925E+03  0.00000000000E+00 0.  1.
          5    1    4    4  501    0  0.39645934129E+02  0.18747901452E+01  0.13476773602E+02  0.42123755267E+02  0.41800000000E+01 0.  1.
         -5    1    4    4    0  501 -0.18433708153E+02  0.16602359186E+03 -0.21453431188E+02  0.16846767274E+03  0.41800000000E+01 0.  1.
</event>
<event>
11    1  0.6763327E-009  0.1386380E+03  0.7561462E-02  0.1109089E+00
         22   -1    0    0    0    0  0.00000000000E+00  0.00000000000E+00  0.25589003399E+04  0.25589003399E+04  0.00000000000E+00 0.  1.
         22   -1    0    0    0    0 -0.00000000000E+00 -0.00000000000E+00 -0.16395209034E+03  0.16395209034E+03  0.00000000000E+00 0.  1.
         24    2    1    2    0    0  0.17929208754E+02 -0.57562768873E+02 -0.13891250375E+03  0.17174620415E+03  0.81025588878E+02 0.  0.
         25    2    1    2    0    0 -0.45745295187E+02  0.28262027363E+02  0.59842930648E+03  0.61372314657E+03  0.12508833503E+03 0.  0.
        -24    2    1    2    0    0  0.27816086433E+02  0.29300741510E+02  0.19354314469E+04  0.19373830795E+04  0.76980798223E+02 0.  0.
        -13    1    3    3    0    0  0.26909399371E+02 -0.36950536445E+02 -0.14188554685E+03  0.14906698603E+03  0.00000000000E+00 0.  1.
         14    1    3    3    0    0 -0.89801906164E+01 -0.20612232429E+02  0.29730430990E+01  0.22679218119E+02  0.00000000000E+00 0. -1.
         13    1    5    5    0    0  0.19329616964E+02 -0.40031160149E+01  0.11896878891E+03  0.12059532232E+03  0.00000000000E+00 0. -1.
        -14    1    5    5    0    0  0.84864694689E+01  0.33303857525E+02  0.18164626580E+04  0.18167877572E+04  0.00000000000E+00 0.  1.
          5    1    4    4  501    0 -0.13932425536E+01 -0.43805816890E+02  0.30988995847E+03  0.31300183623E+03  0.41800000000E+01 0.  1.
         -5    1    4    4    0  501 -0.44352052633E+02  0.72067844253E+02  0.28853934801E+03  0.30072131035E+03  0.41800000000E+01 0.  1.
</event>
<event>
11    1  0.8803014E-009  0.1539890E+03  0.7561462E-02  0.1092871E+00
         22   -1    0    0    0    0  0.00000000000E+00  0.00000000000E+00  0.72583287365E+03  0.72583287365E+03  0.00000000000E+00 0.  1.
         22   -1    0    0    0    0 -0.00000000000E+00 -0.00000000000E+00 -0.49111912333E+03  0.49111912333E+03  0.00000000000E+00 0.  1.
        -24    2    1    2    0    0  0.58000479048E+02  0.25442230244E+02 -0.36372478923E+03  0.37776632017E+03  0.80001923136E+02 0.  0.
         25    2    1    2    0    0 -0.89910096709E+02  0.58586597406E+02 -0.55626375719E+02  0.17395987643E+03  0.12510607518E+03 0.  0.
         24    2    1    2    0    0  0.31909617661E+02 -0.84028827650E+02  0.65406491527E+03  0.66522580038E+03  0.81519227997E+02 0.  0.
        -11    1    5    5    0    0  0.37172302310E+02 -0.92064108546E+02  0.64279672911E+03  0.65041926101E+03  0.00000000000E+00 0.  1.
         12    1    5    5    0    0 -0.52626846485E+01  0.80352808960E+01  0.11268186156E+02  0.14806539367E+02  0.00000000000E+00 0. -1.
         13    1    3    3    0    0  0.52757789015E+01 -0.26143572397E+02 -0.12884198506E+03  0.13157346744E+03  0.00000000000E+00 0. -1.
        -14    1    3    3    0    0  0.52724700146E+02  0.51585802641E+02 -0.23488280417E+03  0.24619285273E+03  0.00000000000E+00 0.  1.
          5    1    4    4  501    0 -0.12102936121E+03  0.40278757792E+02 -0.35765074520E+02  0.13254092787E+03  0.41800000000E+01 0. -1.
         -5    1    4    4    0  501  0.31119264505E+02  0.18307839614E+02 -0.19861301198E+02  0.41418948562E+02  0.41800000000E+01 0. -1.
</event>
<event>
11    1  0.6763327E-009  0.1528804E+03  0.7561462E-02  0.1093971E+00
         22   -1    0    0    0    0  0.00000000000E+00  0.00000000000E+00  0.22608258051E+03  0.22608258051E+03  0.00000000000E+00 0. -1.
         22   -1    0    0    0    0 -0.00000000000E+00 -0.00000000000E+00 -0.54028526183E+03  0.54028526183E+03  0.00000000000E+00 0. -1.
         24    2    1    2    0    0  0.22383398229E+02 -0.81443162379E+02 -0.40748759580E+03  0.42400049893E+03  0.81217468252E+02 0.  0.
         25    2    1    2    0    0 -0.99391984456E+02  0.99701362045E+02 -0.10931657715E+02  0.18864199721E+03  0.12508866378E+03 0.  0.
        -24    2    1    2    0    0  0.77008586226E+02 -0.18258199666E+02  0.10421657220E+03  0.15372534619E+03  0.80664142793E+02 0.  0.
        -13    1    3    3    0    0  0.22865518971E+02 -0.47015494889E+01 -0.26305481367E+02  0.35169800616E+02  0.00000000000E+00 0.  1.
         14    1    3    3    0    0 -0.48212074214E+00 -0.76741612890E+02 -0.38118211443E+03  0.38883069832E+03  0.00000000000E+00 0. -1.
         11    1    5    5    0    0  0.41526154587E+02 -0.40363936953E+02  0.94456951199E+02  0.11079613960E+03  0.00000000000E+00 0. -1.
        -12    1    5    5    0    0  0.35482431639E+02  0.22105737287E+02  0.97596209992E+01  0.42929206586E+02  0.00000000000E+00 0.  1.
          5    1    4    4  501    0 -0.12713476729E+03  0.75570668547E+02  0.57058012838E+01  0.14806823956E+03  0.41800000000E+01 0. -1.
         -5    1    4    4    0  501  0.27742782835E+02  0.24130693498E+02 -0.16637458999E+02  0.40573757652E+02  0.41800000000E+01 0. -1.
</event>
<event>
11    1  0.6763327E-009  0.1327742E+03  0.7561462E-02  0.1115907E+00
         22   -1    0    0    0    0  0.00000000000E+00  0.00000000000E+00  0.83493167932E+03  0.83493167932E+03  0.00000000000E+00 0.  1.
         22   -1    0    0    0    0 -0.00000000000E+00 -0.00000000000E+00 -0.93264764728E+03  0.93264764728E+03  0.00000000000E+00 0. -1.
        -24    2    1    2    0    0  0.46576402522E+02  0.31730874108E+01 -0.84683982133E+03  0.85273723002E+03  0.88564500329E+02 0.  0.
         25    2    1    2    0    0 -0.76838526120E+01 -0.74570275667E+01 -0.31222480443E+02  0.12937515114E+03  0.12509371525E+03 0.  0.
         24    2    1    2    0    0 -0.38892549910E+02  0.42839401559E+01  0.78034633381E+03  0.78546694544E+03  0.80541536515E+02 0.  0.
        -13    1    5    5    0    0 -0.42427172787E+02  0.13999471952E+02  0.76827722145E+03  0.76957516800E+03  0.00000000000E+00 0.  1.
         14    1    5    5    0    0  0.35346228775E+01 -0.97155317961E+01  0.12069112362E+02  0.15891777439E+02  0.00000000000E+00 0. -1.
         13    1    3    3    0    0  0.18429004248E+01  0.41298319210E+02 -0.34982921526E+03  0.35226329259E+03  0.00000000000E+00 0. -1.
        -14    1    3    3    0    0  0.44733502097E+02 -0.38125231799E+02 -0.49701060607E+03  0.50047393744E+03  0.00000000000E+00 0.  1.
          5    1    4    4  501    0  0.74236350310E+01  0.36497277449E+02 -0.62726873394E+02  0.73070477376E+02  0.41800000000E+01 0.  1.
         -5    1    4    4    0  501 -0.15107487643E+02 -0.43954305016E+02  0.31504392951E+02  0.56304673762E+02  0.41800000000E+01 0.  1.
</event>
<event>
11    1  0.6763327E-009  0.1256006E+03  0.7561462E-02  0.1124796E+00
         22   -1    0    0    0    0  0.00000000000E+00  0.00000000000E+00  0.17050513724E+03  0.17050513724E+03  0.00000000000E+00 0. -1.
         22   -1    0    0    0    0 -0.00000000000E+00 -0.00000000000E+00 -0.39485627776E+03  0.39485627776E+03  0.00000000000E+00 0. -1.
        -24    2    1    2    0    0 -0.99935876677E+01 -0.26298094264E+02 -0.31022012275E+03  0.32198259813E+03  0.81515687966E+02 0.  0.
         25    2    1    2    0    0  0.12867997888E+02  0.54673481489E+01  0.54340625658E+02  0.13709903109E+03  0.12509102072E+03 0.  0.
         24    2    1    2    0    0 -0.28744102206E+01  0.20830746115E+02  0.31528356565E+02  0.10627978578E+03  0.99293370273E+02 0.  0.
        -13    1    5    5    0    0 -0.45124793878E+02 -0.86103327293E+01  0.29793310512E+02  0.54754234571E+02  0.00000000000E+00 0.  1.
         14    1    5    5    0    0  0.42250383657E+02  0.29441078844E+02  0.17350460528E+01  0.51525551210E+02  0.00000000000E+00 0. -1.
         13    1    3    3    0    0 -0.56770450942E+01  0.25317547889E+02 -0.17965384826E+03  0.18151780151E+03  0.00000000000E+00 0. -1.
        -14    1    3    3    0    0 -0.43165425735E+01 -0.51615642153E+02 -0.13056627449E+03  0.14046479662E+03  0.00000000000E+00 0.  1.
          5    1    4    4  501    0 -0.14680907395E+02 -0.35301783655E+02 -0.23385880097E+02  0.45012406724E+02  0.41800000000E+01 0. -1.
         -5    1    4    4    0  501  0.27548905283E+02  0.40769131804E+02  0.77726505755E+02  0.92086624367E+02  0.41800000000E+01 0. -1.
</event>
<event>
11    1  0.6763327E-009  0.1527333E+03  0.7561462E-02  0.1094118E+00
         22   -1    0    0    0    0  0.00000000000E+00  0.00000000000E+00  0.18155840542E+04  0.18155840542E+04  0.00000000000E+00 0.  1.
         22   -1    0    0    0    0 -0.00000000000E+00 -0.00000000000E+00 -0.16156299065E+03  0.16156299065E+03  0.00000000000E+00 0. -1.
         24    2    1    2    0    0 -0.57713464117E+02 -0.59444348247E+02 -0.10476547219E+03  0.15641339632E+03  0.81393316104E+02 0.  0.
         25    2    1    2    0    0  0.79176478589E+02  0.13378988249E+03  0.31604250112E+03  0.37376083517E+03  0.12508258062E+03 0.  0.
        -24    2    1    2    0    0 -0.21463014472E+02 -0.74345534246E+02  0.14427440346E+04  0.14469728134E+04  0.78943357675E+02 0.  0.
        -11    1    3    3    0    0 -0.24807956184E+02  0.17947107837E+02 -0.17707021899E+02  0.35370496098E+02  0.00000000000E+00 0.  1.
         12    1    3    3    0    0 -0.32905507933E+02 -0.77391456084E+02 -0.87058450288E+02  0.12104290022E+03  0.00000000000E+00 0. -1.
         13    1    5    5    0    0 -0.48014133578E+02 -0.54708746861E+02  0.77441443738E+03  0.77782782467E+03  0.00000000000E+00 0. -1.
        -14    1    5    5    0    0  0.26551119106E+02 -0.19636787385E+02  0.66832959724E+03  0.66914498869E+03  0.00000000000E+00 0.  1.
          5    1    4    4  501    0  0.89880461267E+02  0.70338534667E+02  0.27382197019E+03  0.29668493480E+03  0.41800000000E+01 0.  1.
         -5    1    4    4    0  501 -0.10703982678E+02  0.63451347826E+02  0.42220530925E+02  0.77075900369E+02  0.41800000000E+01 0.  1.
</event>
<event>
11    1  0.6763327E-009  0.1436334E+03  0.7561462E-02  0.1103568E+00
         22   -1    0    0    0    0  0.00000000000E+00  0.00000000000E+00  0.78334672974E+03  0.78334672974E+03  0.00000000000E+00 0. -1.
         22   -1    0    0    0    0 -0.00000000000E+00 -0.00000000000E+00 -0.11657090045E+04  0.11657090045E+04  0.00000000000E+00 0. -1.
         24    2    1    2    0    0  0.17061779642E+02  0.29317290208E+02 -0.10859533160E+04  0.10895176420E+04  0.81261797236E+02 0.  0.
         25    2    1    2    0    0 -0.89167890425E+01 -0.98004755459E+02  0.11733529858E+02  0.15959598564E+03  0.12509501065E+03 0.  0.
        -24    2    1    2    0    0 -0.81449905999E+01  0.68687465250E+02  0.69185751142E+03  0.69994210665E+03  0.80422806519E+02 0.  0.
        -11    1    3    3    0    0  0.14846109619E+02 -0.62979684359E+01 -0.42538315432E+02  0.45492632997E+02  0.00000000000E+00 0.  1.
         12    1    3    3    0    0  0.22156700237E+01  0.35615258644E+02 -0.10434150006E+04  0.10440250090E+04  0.00000000000E+00 0. -1.
         11    1    5    5    0    0 -0.39814530087E+02  0.51007337815E+02  0.53748251748E+03  0.54136346562E+03  0.00000000000E+00 0. -1.
        -12    1    5    5    0    0  0.31669539487E+02  0.17680127435E+02  0.15437499394E+03  0.15857864103E+03  0.00000000000E+00 0.  1.
          5    1    4    4  501    0  0.28443731272E+02 -0.35876609959E+02  0.57606756280E+02  0.73703376856E+02  0.41800000000E+01 0. -1.
         -5    1    4    4    0  501 -0.37360520315E+02 -0.62128145500E+02 -0.45873226422E+02  0.85892608784E+02  0.41800000000E+01 0. -1.
</event>
<event>
11    1  0.6763327E-009  0.1984859E+03  0.7561462E-02  0.1055600E+00
         22   -1    0    0    0    0  0.00000000000E+00  0.00000000000E+00  0.12048601236E+03  0.12048601236E+03  0.00000000000E+00 0.  1.
         22   -1    0    0    0    0 -0.00000000000E+00 -0.00000000000E+00 -0.17586013705E+04  0.17586013705E+04  0.00000000000E+00 0.  1.
        -24    2    1    2    0    0  0.84063571490E+01  0.29943893510E+01 -0.96419994584E+03  0.96741333298E+03  0.78277634529E+02 0.  0.
         25    2    1    2    0    0 -0.83318386213E+02  0.13152867580E+03 -0.70720955293E+03  0.73486987666E+03  0.12508652138E+03 0.  0.
         24    2    1    2    0    0  0.74912029064E+02 -0.13452306515E+03  0.33294140578E+02  0.17680417327E+03  0.80267980750E+02 0.  0.
        -13    1    5    5    0    0  0.89589239469E+02 -0.92360660380E+02  0.19963496787E+02  0.13021238274E+03  0.00000000000E+00 0.  1.
         14    1    5    5    0    0 -0.14677210405E+02 -0.42162404769E+02  0.13330643791E+02  0.46591790533E+02  0.00000000000E+00 0. -1.
         11    1    3    3    0    0 -0.18442289218E+02 -0.22524720521E+02 -0.17998874510E+03  0.18232780762E+03  0.00000000000E+00 0. -1.
        -12    1    3    3    0    0  0.26848646367E+02  0.25519109872E+02 -0.78421120073E+03  0.78508552536E+03  0.00000000000E+00 0.  1.
          5    1    4    4  501    0  0.10519597657E+02  0.97051995747E+02 -0.29823873042E+03  0.31383684382E+03  0.41800000000E+01 0. -1.
         -5    1    4    4    0  501 -0.93837983870E+02  0.34476680052E+02 -0.40897082251E+03  0.42103303284E+03  0.41800000000E+01 0. -1.
</event>
<event>
11    1  0.6763327E-009  0.1554310E+03  0.7561462E-02  0.1091455E+00
         22   -1    0    0    0    0  0.00000000000E+00  0.00000000000E+00  0.23539284804E+03  0.23539284804E+03  0.00000000000E+00 0.  1.
         22   -1    0    0    0    0 -0.00000000000E+00 -0.00000000000E+00 -0.24971554071E+04  0.24971554071E+04  0.00000000000E+00 0.  1.
         24    2    1    2    0    0 -0.98109917296E+02  0.27941610009E+02 -0.17983754045E+04  0.18030520481E+04  0.80226575155E+02 0.  0.
         25    2    1    2    0    0  0.67914917122E+02  0.28951296357E+02 -0.67685531374E+03  0.69226516455E+03  0.12508928322E+03 0.  0.
        -24    2    1    2    0    0  0.30195000174E+02 -0.56892906366E+02  0.21346815913E+03  0.23723104250E+03  0.81002294614E+02 0.  0.
        -11    1    3    3    0    0 -0.65773149689E+02  0.55604120097E+02 -0.13087246695E+04  0.13115556359E+04  0.00000000000E+00 0.  1.
         12    1    3    3    0    0 -0.32336767606E+02 -0.27662510088E+02 -0.48965073498E+03  0.49149641226E+03  0.00000000000E+00 0. -1.
         11    1    5    5    0    0  0.43918724337E+02 -0.27054234988E+02  0.55035905917E+02  0.75430344811E+02  0.00000000000E+00 0. -1.
        -12    1    5    5    0    0 -0.13723724163E+02 -0.29838671378E+02  0.15843225321E+03  0.16180069769E+03  0.00000000000E+00 0.  1.
          5    1    4    4  501    0  0.33065872957E+02  0.19050516703E+01 -0.33184066810E+02  0.47070541385E+02  0.41800000000E+01 0.  1.
         -5    1    4    4    0  501  0.34849044166E+02  0.27046244686E+02 -0.64367124693E+03  0.64519462316E+03  0.41800000000E+01 0.  1.
</event>
<event>
11    1  0.6763327E-009  0.1575074E+03  0.7561462E-02  0.1089445E+00
         22   -1    0    0    0    0  0.00000000000E+00  0.00000000000E+00  0.95741656037E+02  0.95741656037E+02  0.00000000000E+00 0.  1.
         22   -1    0    0    0    0 -0.00000000000E+00 -0.00000000000E+00 -0.74530253226E+03  0.74530253226E+03  0.00000000000E+00 0. -1.
         24    2    1    2    0    0  0.27618912244E+02  0.14165313043E+02 -0.24431928214E+03  0.26745306409E+03  0.10428695729E+03 0.  0.
         25    2    1    2    0    0 -0.99781394539E+01 -0.10715456420E+03 -0.41744384949E+03  0.44887399604E+03  0.12508730130E+03 0.  0.
        -24    2    1    2    0    0 -0.17640772790E+02  0.92989251155E+02  0.12202255408E+02  0.12471712816E+03  0.80294889781E+02 0.  0.
        -13    1    3    3    0    0 -0.38321908619E+02  0.10217392267E+02 -0.62672248782E+02  0.74167206717E+02  0.00000000000E+00 0.  1.
         14    1    3    3    0    0  0.65940820863E+02  0.39479207758E+01 -0.18164703335E+03  0.19328585737E+03  0.00000000000E+00 0. -1.
         11    1    5    5    0    0 -0.48011960393E+02  0.49955213346E+02  0.18382136855E+02  0.71683851993E+02  0.00000000000E+00 0. -1.
        -12    1    5    5    0    0  0.30371187602E+02  0.43034037808E+02 -0.61798814473E+01  0.53033276168E+02  0.00000000000E+00 0.  1.
          5    1    4    4  501    0  0.28843978545E+02 -0.63563670020E+02 -0.79401978228E+02  0.10580388363E+03  0.41800000000E+01 0.  1.
         -5    1    4    4    0  501 -0.38822117999E+02 -0.43590894178E+02 -0.33804187126E+03  0.34307011241E+03  0.41800000000E+01 0.  1.
</event>
<event>
11    1  0.6763327E-009  0.1432354E+03  0.7561462E-02  0.1103998E+00
         22   -1    0    0    0    0  0.00000000000E+00  0.00000000000E+00  0.95136118473E+03  0.95136118473E+03  0.00000000000E+00 0. -1.
         22   -1    0    0    0    0 -0.00000000000E+00 -0.00000000000E+00 -0.47910825682E+03  0.47910825682E+03  0.00000000000E+00 0. -1.
         24    2    1    2    0    0  0.25897680667E+02  0.62725299520E+02 -0.40884282976E+03  0.42226011367E+03  0.80907299340E+02 0.  0.
         25    2    1    2    0    0 -0.62283452297E+02 -0.82836650324E+02  0.46886375264E+02  0.16907680781E+03  0.12508995039E+03 0.  0.
        -24    2    1    2    0    0  0.36385771630E+02  0.20111350804E+02  0.83420938240E+03  0.83913252006E+03  0.80682722619E+02 0.  0.
        -11    1    3    3    0    0 -0.66475776840E+01 -0.12727662786E+02 -0.18805497450E+02  0.23660735901E+02  0.00000000000E+00 0.  1.
         12    1    3    3    0    0  0.32545258351E+02  0.75452962306E+02 -0.39003733232E+03  0.39859937777E+03  0.00000000000E+00 0. -1.
         11    1    5    5    0    0  0.23196742623E+02 -0.18552379023E+01  0.76465497021E+03  0.76500898965E+03  0.00000000000E+00 0. -1.
        -12    1    5    5    0    0  0.13189029007E+02  0.21966588706E+02  0.69554412191E+02  0.74123530412E+02  0.00000000000E+00 0.  1.
          5    1    4    4  501    0 -0.99092014572E+02 -0.43177825131E+02  0.31856256644E+02  0.11276455747E+03  0.41800000000E+01 0.  1.
         -5    1    4    4    0  501  0.36808562275E+02 -0.39658825193E+02  0.15030118620E+02  0.56312250339E+02  0.41800000000E+01 0.  1.
</event>
<event>
11    1  0.6763327E-009  0.1368917E+03  0.7561462E-02  0.1111080E+00
         22   -1    0    0    0    0  0.00000000000E+00  0.00000000000E+00  0.15456009767E+04  0.15456009767E+04  0.00000000000E+00 0.  1.
         22   -1    0    0    0    0 -0.00000000000E+00 -0.00000000000E+00 -0.39039315116E+03  0.39039315116E+03  0.00000000000E+00 0. -1.
        -24    2    1    2    0    0  0.15965179196E+02 -0.43431804257E+01 -0.37453730593E+03  0.38328135832E+03  0.79703550397E+02 0.  0.
         25    2    1    2    0    0  0.34285557948E+02  0.32074717948E+02  0.44900613668E+03  0.46846342967E+03  0.12508871711E+03 0.  0.
         24    2    1    2    0    0 -0.50250737144E+02 -0.27731537522E+02  0.10807389948E+04  0.10842493399E+04  0.65617691148E+02 0.  0.
        -11    1    5    5    0    0 -0.56148422962E+02 -0.16343328895E+02  0.10375439605E+04  0.10391906561E+04  0.00000000000E+00 0.  1.
         12    1    5    5    0    0  0.58976858185E+01 -0.11388208627E+02  0.43195034274E+02  0.45058683732E+02  0.00000000000E+00 0. -1.
         13    1    3    3    0    0  0.66743037438E+01 -0.78669482547E+01 -0.37309844913E+03  0.37324105876E+03  0.00000000000E+00 0. -1.
        -14    1    3    3    0    0  0.92908754522E+01  0.35237678290E+01 -0.14388567976E+01  0.10040299561E+02  0.00000000000E+00 0.  1.
          5    1    4    4  501    0 -0.12026698901E+02  0.70608792179E+02  0.27789878947E+03  0.28701124126E+03  0.41800000000E+01 0.  1.
         -5    1    4    4    0  501  0.46312256848E+02 -0.38534074231E+02  0.17110734721E+03  0.18145218842E+03  0.41800000000E+01 0.  1.
</event>
<event>
11    1  0.7321893E-009  0.1563959E+03  0.7561462E-02  0.1090517E+00
         22   -1    0    0    0    0  0.00000000000E+00  0.00000000000E+00  0.12474197157E+04  0.12474197157E+04  0.00000000000E+00 0.  1.
         22   -1    0    0    0    0 -0.00000000000E+00 -0.00000000000E+00 -0.21813844313E+03  0.21813844313E+03  0.00000000000E+00 0.  1.
        -24    2    1    2    0    0 -0.32998471300E+02  0.32625906503E+02 -0.12177870860E+03  0.15244135010E+03  0.79088320683E+02 0.  0.
         25    2    1    2    0    0  0.98170681540E+02 -0.97551919260E+02  0.34169241366E+02  0.18965355470E+03  0.12508826519E+03 0.  0.
         24    2    1    2    0    0 -0.65172210240E+02  0.64926012757E+02  0.11168907398E+04  0.11234632540E+04  0.79132511525E+02 0.  0.
        -13    1    5    5    0    0 -0.10086243993E+02  0.24510520731E+02  0.73708308722E+03  0.73755947246E+03  0.00000000000E+00 0.  1.
         14    1    5    5    0    0 -0.55085966247E+02  0.40415492026E+02  0.37980765259E+03  0.38590378158E+03  0.00000000000E+00 0. -1.
         13    1    3    3    0    0 -0.41252463174E+02  0.15329878099E+02 -0.19074942348E+02  0.47964823631E+02  0.00000000000E+00 0. -1.
        -14    1    3    3    0    0  0.82539918739E+01  0.17296028404E+02 -0.10270376625E+03  0.10447652646E+03  0.00000000000E+00 0.  1.
          5    1    4    4  501    0  0.10950163132E+03 -0.94903926715E+02  0.63167337722E+02  0.15812952767E+03  0.41800000000E+01 0. -1.
         -5    1    4    4    0  501 -0.11330949780E+02 -0.26479925448E+01 -0.28998096356E+02  0.31524027023E+02  0.41800000000E+01 0. -1.
</event>
<event>
11    1  0.6763327E-009  0.1418930E+03  0.7561462E-02  0.1105463E+00
         22   -1    0    0    0    0  0.00000000000E+00  0.00000000000E+00  0.12164281104E+03  0.12164281104E+03  0.00000000000E+00 0. -1.
         22   -1    0    0    0    0 -0.00000000000E+00 -0.00000000000E+00 -0.12482129920E+04  0.12482129920E+04  0.00000000000E+00 0. -1.
        -24    2    1    2    0    0 -0.22366675356E+02 -0.60393687791E+02 -0.10138680609E+04  0.10190188346E+04  0.79519020587E+02 0.  0.
         25    2    1    2    0    0  0.48599806365E+02  0.86070065483E+02 -0.17609679177E+03  0.23754440037E+03  0.12508902720E+03 0.  0.
         24    2    1    2    0    0 -0.26233131009E+02 -0.25676377693E+02  0.63394671806E+02  0.11329256799E+03  0.86422612867E+02 0.  0.
        -11    1    5    5    0    0  0.24955509668E+02  0.93443314170E+01  0.37681283026E+02  0.46151631422E+02  0.00000000000E+00 0.  1.
         12    1    5    5    0    0 -0.51188640677E+02 -0.35020709110E+02  0.25713388781E+02  0.67140936570E+02  0.00000000000E+00 0. -1.
         11    1    3    3    0    0  0.16779902799E+02  0.73077475421E+01 -0.89720033295E+02  0.91567749162E+02  0.00000000000E+00 0. -1.
        -12    1    3    3    0    0 -0.39146578155E+02 -0.67701435333E+02 -0.92414802765E+03  0.92745108547E+03  0.00000000000E+00 0.  1.
          5    1    4    4  501    0  0.20985124390E+02  0.11429598722E+03 -0.15094400203E+03  0.19054005430E+03  0.41800000000E+01 0. -1.
         -5    1    4    4    0  501  0.27614681974E+02 -0.28225921741E+02 -0.25152789734E+02  0.47004346077E+02  0.41800000000E+01 0. -1.
</event>
<event>
11    1  0.6763327E-009  0.1388715E+03  0.7561462E-02  0.1108825E+00
         22   -1    0    0    0    0  0.00000000000E+00  0.00000000000E+00  0.16302389703E+04  0.16302389703E+04  0.00000000000E+00 0.  1.
         22   -1    0    0    0    0 -0.00000000000E+00 -0.00000000000E+00 -0.24406980441E+03  0.24406980441E+03  0.00000000000E+00 0.  1.
        -24    2    1    2    0    0 -0.39814678360E+02  0.44917903335E+02 -0.21137189090E+03  0.23419908398E+03  0.81045098676E+02 0.  0.
         25    2    1    2    0    0  0.25339325393E+02 -0.66683014654E+02  0.23949966412E+03  0.27945705350E+03  0.12508976690E+03 0.  0.
         24    2    1    2    0    0  0.14475352967E+02  0.21765111319E+02  0.13580413927E+04  0.13606526373E+04  0.80099432400E+02 0.  0.
        -13    1    5    5    0    0 -0.31988326620E+02  0.14385356958E+02  0.73567192617E+03  0.73650755223E+03  0.00000000000E+00 0.  1.
         14    1    5    5    0    0  0.46463679588E+02  0.73797543611E+01  0.62236946655E+03  0.62414508505E+03  0.00000000000E+00 0. -1.
         13    1    3    3    0    0  0.24536471504E+02  0.47812432516E+01 -0.53970104858E+02  0.59478323272E+02  0.00000000000E+00 0. -1.
        -14    1    3    3    0    0 -0.64351149864E+02  0.40136660083E+02 -0.15740178604E+03  0.17472076070E+03  0.00000000000E+00 0.  1.
          5    1    4    4  501    0 -0.37797165580E+02 -0.58066966703E+02  0.71133407490E+02  0.99387284947E+02  0.41800000000E+01 0. -1.
         -5    1    4    4    0  501  0.63136490973E+02 -0.86160479502E+01  0.16836625663E+03  0.18006976855E+03  0.41800000000E+01 0. -1.
</event>
<event>
11    1  0.6763327E-009  0.1836460E+03  0.7561462E-02  0.1066731E+00
         22   -1    0    0    0    0  0.00000000000E+00  0.00000000000E+00  0.12010881974E+04  0.12010881974E+04  0.00000000000E+00 0. -1.
         22   -1    0    0    0    0 -0.00000000000E+00 -0.00000000000E+00 -0.14020006631E+03  0.14020006631E+03  0.00000000000E+00 0. -1.
         24    2    1    2    0    0  0.15502190660E+02 -0.21795608758E+02 -0.87082675720E+02  0.12049971781E+03  0.78875998278E+02 0.  0.
         25    2    1    2    0    0 -0.11380568423E+03 -0.70799751114E+02  0.25426803272E+03  0.31347206417E+03  0.12509262181E+03 0.  0.
        -24    2    1    2    0    0  0.98303493574E+02  0.92595359872E+02  0.89370277406E+03  0.90731648171E+03  0.79253215082E+02 0.  0.
        -13    1    3    3    0    0  0.46731229887E+01 -0.44227002763E+02 -0.19663450662E+02  0.48626300947E+02  0.00000000000E+00 0.  1.
         14    1    3    3    0    0  0.10829067672E+02  0.22431394004E+02 -0.67419225058E+02  0.71873416860E+02  0.00000000000E+00 0. -1.
         13    1    5    5    0    0  0.11089826864E+03  0.75600724303E+02  0.72797443911E+03  0.74024366225E+03  0.00000000000E+00 0. -1.
        -14    1    5    5    0    0 -0.12594775068E+02  0.16994635569E+02  0.16572833494E+03  0.16707281945E+03  0.00000000000E+00 0.  1.
          5    1    4    4  501    0  0.66840847319E+01 -0.26307410365E+02 -0.12136575025E+01  0.27490038075E+02  0.41800000000E+01 0.  1.
         -5    1    4    4    0  501 -0.12048976897E+03 -0.44492340748E+02  0.25548169022E+03  0.28598202609E+03  0.41800000000E+01 0.  1.
</event>
<event>
11    1  0.6763327E-009  0.1405986E+03  0.7561462E-02  0.1106892E+00
         22   -1    0    0    0    0  0.00000000000E+00  0.00000000000E+00  0.53281503302E+03  0.53281503302E+03  0.00000000000E+00 0.  1.
         22   -1    0    0    0    0 -0.00000000000E+00 -0.00000000000E+00 -0.30998702282E+03  0.30998702282E+03  0.00000000000E+00 0.  1.
         24    2    1    2    0    0  0.38395773805E+01 -0.12096521793E+02 -0.22881444223E+03  0.24278740441E+03  0.80178591748E+02 0.  0.
         25    2    1    2    0    0 -0.56578850966E+02  0.47305824956E+02  0.88133256387E+01  0.14547618080E+03  0.12508651813E+03 0.  0.
        -24    2    1    2    0    0  0.52739273585E+02 -0.35209303162E+02  0.44282912679E+03  0.45453847063E+03  0.80538560602E+02 0.  0.
        -13    1    3    3    0    0  0.14549818457E+02 -0.44513572678E+02 -0.12372845910E+03  0.13229469740E+03  0.00000000000E+00 0.  1.
         14    1    3    3    0    0 -0.10710241076E+02  0.32417050885E+02 -0.10508598313E+03  0.11049270701E+03  0.00000000000E+00 0. -1.
         11    1    5    5    0    0  0.32237670483E+02 -0.42544876201E+02  0.12443810564E+03  0.13540375189E+03  0.00000000000E+00 0. -1.
        -12    1    5    5    0    0  0.20501603102E+02  0.73355730390E+01  0.31839102114E+03  0.31913471874E+03  0.00000000000E+00 0.  1.
          5    1    4    4  501    0 -0.88105650041E+02  0.59000377720E+02 -0.10224012649E+02  0.10660981650E+03  0.41800000000E+01 0.  1.
         -5    1    4    4    0  501  0.31526799076E+02 -0.11694552764E+02  0.19037338288E+02  0.38866364293E+02  0.41800000000E+01 0.  1.
</event>
<event>
11    1  0.6763327E-009  0.1461994E+03  0.7561462E-02  0.1100827E+00
         22   -1    0    0    0    0  0.00000000000E+00  0.00000000000E+00  0.52504349646E+03  0.52504349646E+03  0.00000000000E+00 0. -1.
         22   -1    0    0    0    0 -0.00000000000E+00 -0.00000000000E+00 -0.14079591789E+03  0.14079591789E+03  0.00000000000E+00 0. -1.
         24    2    1    2    0    0 -0.44313729672E+02 -0.98181244794E+01 -0.69798194432E+02  0.11010205316E+03  0.72045624150E+02 0.  0.
         25    2    1    2    0    0 -0.20286079690E+00 -0.57548153634E+02  0.68676100602E+02  0.15388995294E+03  0.12511546541E+03 0.  0.
        -24    2    1    2    0    0  0.44516590469E+02  0.67366278114E+02  0.38536967240E+03  0.40184740825E+03  0.80321932580E+02 0.  0.
        -11    1    3    3    0    0 -0.44723370746E+02  0.44870226362E+01 -0.67522297763E+01  0.45452237238E+02  0.00000000000E+00 0.  1.
         12    1    3    3    0    0  0.40964107366E+00 -0.14305147116E+02 -0.63045964656E+02  0.64649815925E+02  0.00000000000E+00 0. -1.
         13    1    5    5    0    0  0.67089606608E+02  0.55512095215E+02  0.32130511499E+03  0.33289575688E+03  0.00000000000E+00 0. -1.
        -14    1    5    5    0    0 -0.22573016139E+02  0.11854182899E+02  0.64064557417E+02  0.68951651371E+02  0.00000000000E+00 0.  1.
          5    1    4    4  501    0  0.12507242994E+02  0.30682340627E+02 -0.10063102383E+02  0.34879443563E+02  0.41800000000E+01 0. -1.
         -5    1    4    4    0  501 -0.12710103791E+02 -0.88230494262E+02  0.78739202985E+02  0.11901050938E+03  0.41800000000E+01 0. -1.
</event>
<event>
11    1  0.6763327E-009  0.1300535E+03  0.7561462E-02  0.1119203E+00
         22   -1    0    0    0    0  0.00000000000E+00  0.00000000000E+00  0.17646932626E+03  0.17646932626E+03  0.00000000000E+00 0. -1.
         22   -1    0    0    0    0 -0.00000000000E+00 -0.00000000000E+00 -0.21676652958E+04  0.21676652958E+04  0.00000000000E+00 0.  1.
         24    2    1    2    0    0 -0.20535439888E+02  0.23582628663E+02 -0.15562546743E+04  0.15585594283E+04  0.78746654646E+02 0.  0.
         25    2    1    2    0    0 -0.15445990218E+02 -0.21063126902E+02 -0.59049293873E+03  0.60416092988E+03  0.12508510936E+03 0.  0.
        -24    2    1    2    0    0  0.35981430106E+02 -0.25195017612E+01  0.15555164355E+03  0.18141426380E+03  0.86103484823E+02 0.  0.
        -11    1    3    3    0    0 -0.42370960152E+02  0.29060863171E+02 -0.13678380990E+04  0.13688027240E+04  0.00000000000E+00 0.  1.
         12    1    3    3    0    0  0.21835520263E+02 -0.54782345085E+01 -0.18841657530E+03  0.18975670435E+03  0.00000000000E+00 0. -1.
         11    1    5    5    0    0  0.42499539354E+02  0.18944286604E+02  0.15167276815E+03  0.15864969411E+03  0.00000000000E+00 0. -1.
        -12    1    5    5    0    0 -0.65181092483E+01 -0.21463788365E+02  0.38788753945E+01  0.22764569697E+02  0.00000000000E+00 0.  1.
          5    1    4    4  501    0 -0.35432309241E+02 -0.31864712623E+02 -0.57348157747E+03  0.57547319707E+03  0.41800000000E+01 0.  1.
         -5    1    4    4    0  501  0.19986319024E+02  0.10801585721E+02 -0.17011361259E+02  0.28687732815E+02  0.41800000000E+01 0.  1.
</event>
<event>
11    1  0.6763327E-009  0.1826609E+03  0.7561462E-02  0.1067511E+00
         22   -1    0    0    0    0  0.00000000000E+00  0.00000000000E+00  0.25460247733E+03  0.25460247733E+03  0.00000000000E+00 0.  1.
         22   -1    0    0    0    0 -0.00000000000E+00 -0.00000000000E+00 -0.10128213840E+04  0.10128213840E+04  0.00000000000E+00 0.  1.
         24    2    1    2    0    0 -0.10835657870E+03 -0.72471732332E+02 -0.84888770390E+03  0.86212015494E+03  0.75150033744E+02 0.  0.
         25    2    1    2    0    0  0.12404401404E+03  0.10967096932E+03 -0.70804969746E+02  0.21924693238E+03  0.12506492188E+03 0.  0.
        -24    2    1    2    0    0 -0.15687435340E+02 -0.37199236991E+02  0.16147376702E+03  0.18605677397E+03  0.83147260003E+02 0.  0.
        -11    1    3    3    0    0 -0.76009195990E+02 -0.32685340932E+02 -0.69515014726E+03  0.70005675243E+03  0.00000000000E+00 0.  1.
         12    1    3    3    0    0 -0.32347382712E+02 -0.39786391400E+02 -0.15373755664E+03  0.16206340251E+03  0.00000000000E+00 0. -1.
         11    1    5    5    0    0  0.25163874913E+02 -0.44240198912E+02  0.92837809491E+02  0.10587386208E+03  0.00000000000E+00 0. -1.
        -12    1    5    5    0    0 -0.40851310253E+02  0.70409619214E+01  0.68635957525E+02  0.80182911892E+02  0.00000000000E+00 0.  1.
          5    1    4    4  501    0  0.55747221587E+02  0.50967482981E+02  0.32324239544E+02  0.82266432390E+02  0.41800000000E+01 0. -1.
         -5    1    4    4    0  501  0.68296792454E+02  0.58703486342E+02 -0.10312920929E+03  0.13698049999E+03  0.41800000000E+01 0. -1.
</event>
<event>
11    1  0.6763327E-009  0.1793110E+03  0.7561462E-02  0.1070202E+00
         22   -1    0    0    0    0  0.00000000000E+00  0.00000000000E+00  0.44447786956E+03  0.44447786956E+03  0.00000000000E+00 0.  1.
         22   -1    0    0    0    0 -0.00000000000E+00 -0.00000000000E+00 -0.56284810607E+03  0.56284810607E+03  0.00000000000E+00 0. -1.
         24    2    1    2    0    0 -0.59946746136E+01 -0.12818438255E+03 -0.49887688698E+03  0.52139567899E+03  0.80673004522E+02 0.  0.
         25    2    1    2    0    0 -0.64465743046E+01  0.13122258417E+03  0.13534996353E+03  0.22633676548E+03  0.12509114223E+03 0.  0.
        -24    2    1    2    0    0  0.12441248918E+02 -0.30382016150E+01  0.24515668693E+03  0.25959353116E+03  0.84397777996E+02 0.  0.
        -11    1    3    3    0    0 -0.22001309723E+02  0.21784865670E+00 -0.81818416707E+02  0.84725193420E+02  0.00000000000E+00 0.  1.
         12    1    3    3    0    0  0.16006635109E+02 -0.12840223121E+03 -0.41705847027E+03  0.43667048557E+03  0.00000000000E+00 0. -1.
         13    1    5    5    0    0 -0.36241115290E+02  0.14981112492E+00  0.93257188377E+02  0.10005170696E+03  0.00000000000E+00 0. -1.
        -14    1    5    5    0    0  0.48682364208E+02 -0.31880127399E+01  0.15189949855E+03  0.15954182421E+03  0.00000000000E+00 0.  1.
          5    1    4    4  501    0 -0.11838375243E+02 -0.22111871035E+02  0.73130479662E+01  0.26458175289E+02  0.41800000000E+01 0.  1.
         -5    1    4    4    0  501  0.53918009384E+01  0.15333445520E+03  0.12803691557E+03  0.19987859019E+03  0.41800000000E+01 0.  1.
</event>
<event>
11    1  0.6763327E-009  0.1437495E+03  0.7561462E-02  0.1103442E+00
         22   -1    0    0    0    0  0.00000000000E+00  0.00000000000E+00  0.81869206463E+03  0.81869206463E+03  0.00000000000E+00 0. -1.
         22   -1    0    0    0    0 -0.00000000000E+00 -0.00000000000E+00 -0.80330416638E+03  0.80330416638E+03  0.00000000000E+00 0. -1.
        -24    2    1    2    0    0  0.71352810539E+02 -0.34736967155E+01 -0.74910248961E+03  0.75679883374E+03  0.80539708713E+02 0.  0.
         25    2    1    2    0    0 -0.55358601917E+02  0.93247580231E-01  0.48240432248E+02  0.14505260091E+03  0.12509410149E+03 0.  0.
         24    2    1    2    0    0 -0.15994208622E+02  0.33804491353E+01  0.71624995561E+03  0.72014479635E+03  0.72988263769E+02 0.  0.
        -11    1    5    5    0    0  0.71684957506E+00 -0.12249376142E+01 -0.15695151631E+01  0.21160631652E+01  0.00000000000E+00 0.  1.
         12    1    5    5    0    0 -0.16711058197E+02  0.46053867495E+01  0.71781947077E+03  0.71802873318E+03  0.00000000000E+00 0. -1.
         13    1    3    3    0    0  0.27286116273E+02 -0.21998287501E+02 -0.58032736470E+03  0.58138481835E+03  0.00000000000E+00 0. -1.
        -14    1    3    3    0    0  0.44066694267E+02  0.18524590785E+02 -0.16877512491E+03  0.17541401539E+03  0.00000000000E+00 0.  1.
          5    1    4    4  501    0  0.30940239343E+02  0.22508644037E+02  0.39844083985E+02  0.55398203000E+02  0.41800000000E+01 0.  1.
         -5    1    4    4    0  501 -0.86298841260E+02 -0.22415396457E+02  0.83963482632E+01  0.89654397914E+02  0.41800000000E+01 0.  1.
</event>
<event>
11    1  0.6763327E-009  0.1506812E+03  0.7561462E-02  0.1096185E+00
         22   -1    0    0    0    0  0.00000000000E+00  0.00000000000E+00  0.72706135273E+03  0.72706135273E+03  0.00000000000E+00 0.  1.
         22   -1    0    0    0    0 -0.00000000000E+00 -0.00000000000E+00 -0.12479914462E+03  0.12479914462E+03  0.00000000000E+00 0.  1.
         24    2    1    2    0    0 -0.17182957214E+02 -0.76483672558E+02 -0.41610237633E+02  0.12143990388E+03  0.82892895908E+02 0.  0.
         25    2    1    2    0    0  0.44161302788E+02  0.10157915175E+03  0.14074613281E+03  0.21846363141E+03  0.12509332361E+03 0.  0.
        -24    2    1    2    0    0 -0.26978345575E+02 -0.25095479192E+02  0.50312631293E+03  0.51195696206E+03  0.87213703211E+02 0.  0.
        -13    1    3    3    0    0  0.30692652436E+01 -0.83008340151E+02 -0.10466624479E+02  0.83721891712E+02  0.00000000000E+00 0.  1.
         14    1    3    3    0    0 -0.20252222457E+02  0.65246675929E+01 -0.31143613154E+02  0.37718012169E+02  0.00000000000E+00 0. -1.
         13    1    5    5    0    0  0.29520787499E+02 -0.24197885455E+02  0.20206433279E+03  0.20563805373E+03  0.00000000000E+00 0. -1.
        -14    1    5    5    0    0 -0.56499133074E+02 -0.89759373711E+00  0.30106198014E+03  0.30631890833E+03  0.00000000000E+00 0.  1.
          5    1    4    4  501    0 -0.14313160963E+02  0.45408040460E+02  0.12754649157E+03  0.13620696248E+03  0.41800000000E+01 0. -1.
         -5    1    4    4    0  501  0.58474463751E+02  0.56171111290E+02  0.13199641238E+02  0.82256668930E+02  0.41800000000E+01 0. -1.
</event>
<event>
11    1  0.6763327E-009  0.2296342E+03  0.7561462E-02  0.1035345E+00
         22   -1    0    0    0    0  0.00000000000E+00  0.00000000000E+00  0.14047467486E+03  0.14047467486E+03  0.00000000000E+00 0. -1.
         22   -1    0    0    0    0 -0.00000000000E+00 -0.00000000000E+00 -0.20352661000E+04  0.20352661000E+04  0.00000000000E+00 0.  1.
        -24    2    1    2    0    0 -0.44250312890E+02 -0.14037842722E+02 -0.13247620964E+04  0.13280119766E+04  0.80411731747E+02 0.  0.
         25    2    1    2    0    0 -0.11975992769E+03 -0.97698772905E+02 -0.59893359420E+03  0.63107542827E+03  0.12508898995E+03 0.  0.
         24    2    1    2    0    0  0.16401024058E+03  0.11173661563E+03  0.28904265524E+02  0.21665336997E+03  0.81968261320E+02 0.  0.
        -13    1    5    5    0    0  0.58603403729E+02  0.66903955187E+02  0.47147387769E+02  0.10066466273E+03  0.00000000000E+00 0.  1.
         14    1    5    5    0    0  0.10540683685E+03  0.44832660440E+02 -0.18243122246E+02  0.11598870724E+03  0.00000000000E+00 0. -1.
         11    1    3    3    0    0 -0.40853755789E+02  0.16105750263E+02 -0.34542394955E+03  0.34820414914E+03  0.00000000000E+00 0. -1.
        -12    1    3    3    0    0 -0.33965571002E+01 -0.30143592985E+02 -0.97933814687E+03  0.97980782744E+03  0.00000000000E+00 0.  1.
          5    1    4    4  501    0  0.91419119051E+00 -0.75758163821E+02 -0.24376809787E+03  0.25530470632E+03  0.41800000000E+01 0.  1.
         -5    1    4    4    0  501 -0.12067411888E+03 -0.21940609085E+02 -0.35516549632E+03  0.37577072195E+03  0.41800000000E+01 0.  1.
</event>
<event>
11    1  0.6763327E-009  0.1582194E+03  0.7561462E-02  0.1088764E+00
         22   -1    0    0    0    0  0.00000000000E+00  0.00000000000E+00  0.41374359712E+03  0.41374359712E+03  0.00000000000E+00 0. -1.
         22   -1    0    0    0    0 -0.00000000000E+00 -0.00000000000E+00 -0.92508305795E+03  0.92508305795E+03  0.00000000000E+00 0.  1.
         24    2    1    2    0    0  0.68286997252E+02 -0.10942728862E+02 -0.50286430582E+03  0.51412421006E+03  0.81659879928E+02 0.  0.
         25    2    1    2    0    0 -0.12527574690E+02 -0.69652859427E+02 -0.39407183664E+03  0.41946177193E+03  0.12508838764E+03 0.  0.
        -24    2    1    2    0    0 -0.55759422562E+02  0.80595588289E+02  0.38559668164E+03  0.40524067308E+03  0.77009351217E+02 0.  0.
        -13    1    3    3    0    0  0.25126510074E+02 -0.26699197852E+02 -0.39737784689E+03  0.39906558593E+03  0.00000000000E+00 0.  1.
         14    1    3    3    0    0  0.43160487178E+02  0.15756468990E+02 -0.10548645893E+03  0.11505862413E+03  0.00000000000E+00 0. -1.
         11    1    5    5    0    0  0.52750397433E+01  0.53260261822E+02  0.22496040838E+03  0.23123941462E+03  0.00000000000E+00 0. -1.
        -12    1    5    5    0    0 -0.61034462305E+02  0.27335326467E+02  0.16063627326E+03  0.17400125847E+03  0.00000000000E+00 0.  1.
          5    1    4    4  501    0 -0.51248482965E+02  0.23320596594E+01 -0.81833949243E+02  0.96675297554E+02  0.41800000000E+01 0. -1.
         -5    1    4    4    0  501  0.38720908275E+02 -0.71984919087E+02 -0.31223788740E+03  0.32278647438E+03  0.41800000000E+01 0. -1.
</event>
<event>
11    1  0.6763327E-009  0.2098504E+03  0.7561462E-02  0.1047768E+00
         22   -1    0    0    0    0  0.00000000000E+00  0.00000000000E+00  0.24089200018E+04  0.24089200018E+04  0.00000000000E+00 0.  1.
         22   -1    0    0    0    0 -0.00000000000E+00 -0.00000000000E+00 -0.38410596750E+03  0.38410596750E+03  0.00000000000E+00 0.  1.
        -24    2    1    2    0    0  0.10949049625E+02 -0.20992414324E+02 -0.20169147763E+03  0.21856164213E+03  0.80803317462E+02 0.  0.
         25    2    1    2    0    0  0.11024283804E+03 -0.96748344685E+02 -0.11568287478E+03  0.22482339368E+03  0.12509718338E+03 0.  0.
         24    2    1    2    0    0 -0.12119188767E+03  0.11774075901E+03  0.23421883867E+04  0.23496409335E+04  0.80098174455E+02 0.  0.
        -13    1    5    5    0    0 -0.11092464796E+03  0.55855035378E+02  0.15855564014E+04  0.15904128912E+04  0.00000000000E+00 0.  1.
         14    1    5    5    0    0 -0.10267239703E+02  0.61885723631E+02  0.75663198529E+03  0.75922804227E+03  0.00000000000E+00 0. -1.
         11    1    3    3    0    0  0.24269497030E+02 -0.25424919975E+02 -0.29752424439E+02  0.46050426728E+02  0.00000000000E+00 0. -1.
        -12    1    3    3    0    0 -0.13320447405E+02  0.44325056509E+01 -0.17193905320E+03  0.17251121540E+03  0.00000000000E+00 0.  1.
          5    1    4    4  501    0  0.91276384487E+02 -0.12720193349E+03 -0.92208467964E+02  0.18174593314E+03  0.41800000000E+01 0.  1.
         -5    1    4    4    0  501  0.18966453555E+02  0.30453588801E+02 -0.23474406815E+02  0.43077460541E+02  0.41800000000E+01 0.  1.
</event>
<event>
11    1  0.6763327E-009  0.1548128E+03  0.7561462E-02  0.1092060E+00
         22   -1    0    0    0    0  0.00000000000E+00  0.00000000000E+00  0.19320223841E+03  0.19320223841E+03  0.00000000000E+00 0.  1.
         22   -1    0    0    0    0 -0.00000000000E+00 -0.00000000000E+00 -0.74009242827E+03  0.74009242827E+03  0.00000000000E+00 0.  1.
         24    2    1    2    0    0  0.91674481167E+02 -0.15997644932E+02 -0.56276919752E+03  0.57607902750E+03  0.80608567156E+02 0.  0.
         25    2    1    2    0    0 -0.70964152790E+02  0.54585141307E+02 -0.11852960547E+03  0.19419582128E+03  0.12508917219E+03 0.  0.
        -24    2    1    2    0    0 -0.20710328376E+02 -0.38587496375E+02  0.13440861313E+03  0.16301981790E+03  0.81190351435E+02 0.  0.
        -13    1    3    3    0    0  0.71767570993E+02 -0.23452947584E+02 -0.21893467581E+03  0.23158803352E+03  0.00000000000E+00 0.  1.
         14    1    3    3    0    0  0.19906910174E+02  0.74553026518E+01 -0.34383452171E+03  0.34449099397E+03  0.00000000000E+00 0. -1.
         11    1    5    5    0    0 -0.29883964370E+02 -0.23658717383E+02  0.12877467472E+02  0.40232019626E+02  0.00000000000E+00 0. -1.
        -12    1    5    5    0    0  0.91736359935E+01 -0.14928778992E+02  0.12153114566E+03  0.12278779828E+03  0.00000000000E+00 0.  1.
          5    1    4    4  501    0 -0.50184235239E+02  0.77627074749E+02 -0.13109410944E+03  0.16046045660E+03  0.41800000000E+01 0. -1.
         -5    1    4    4    0  501 -0.20779917551E+02 -0.23041933441E+02  0.12564503979E+02  0.33735364685E+02  0.41800000000E+01 0. -1.
</event>
<event>
11    1  0.6763327E-009  0.1469138E+03  0.7561462E-02  0.1100075E+00
         22   -1    0    0    0    0  0.00000000000E+00  0.00000000000E+00  0.66715221834E+03  0.66715221834E+03  0.00000000000E+00 0.  1.
         22   -1    0    0    0    0 -0.00000000000E+00 -0.00000000000E+00 -0.12779138282E+04  0.12779138282E+04  0.00000000000E+00 0.  1.
        -24    2    1    2    0    0  0.59221231692E+02  0.48831975649E+02 -0.12242339061E+04  0.12294277154E+04  0.82777621469E+02 0.  0.
         25    2    1    2    0    0 -0.70968822911E+02 -0.56745714019E+02  0.76476270930E+02  0.17249029669E+03  0.12509049745E+03 0.  0.
         24    2    1    2    0    0  0.11747591220E+02  0.79137383696E+01  0.53699602528E+03  0.54314803440E+03  0.80277163354E+02 0.  0.
        -11    1    5    5    0    0  0.27408452823E+02 -0.29072796648E+02  0.31786468449E+03  0.32036605382E+03  0.00000000000E+00 0.  1.
         12    1    5    5    0    0 -0.15660861603E+02  0.36986535018E+02  0.21913134079E+03  0.22278198059E+03  0.00000000000E+00 0. -1.
         11    1    3    3    0    0  0.47948805834E+02 -0.78236693616E+01 -0.35970585292E+03  0.36297189755E+03  0.00000000000E+00 0. -1.
        -12    1    3    3    0    0  0.11272425857E+02  0.56655645011E+02 -0.86452805313E+03  0.86645581789E+03  0.00000000000E+00 0.  1.
          5    1    4    4  501    0 -0.37359498240E+02 -0.84105729244E+02  0.88054251695E+02  0.12743833584E+03  0.41800000000E+01 0. -1.
         -5    1    4    4    0  501 -0.33609324671E+02  0.27360015226E+02 -0.11577980765E+02  0.45051960852E+02  0.41800000000E+01 0. -1.
</event>
<event>
11    1  0.6763327E-009  0.1694701E+03  0.7561462E-02  0.1078494E+00
         22   -1    0    0    0    0  0.00000000000E+00  0.00000000000E+00  0.20651270453E+03  0.20651270453E+03  0.00000000000E+00 0.  1.
         22   -1    0    0    0    0 -0.00000000000E+00 -0.00000000000E+00 -0.92815379151E+03  0.92815379151E+03  0.00000000000E+00 0. -1.
        -24    2    1    2    0    0  0.29296443707E+02  0.34230846150E+01 -0.53589242771E+03  0.54244518961E+03  0.78715249733E+02 0.  0.
         25    2    1    2    0    0  0.63044087829E+02 -0.73298176978E+02 -0.34486708942E+03  0.37937809910E+03  0.12508898014E+03 0.  0.
         24    2    1    2    0    0 -0.92340531537E+02  0.69875092363E+02  0.15911843015E+03  0.21284320733E+03  0.81081772265E+02 0.  0.
        -11    1    5    5    0    0 -0.43816025313E+02  0.77574165371E+02  0.12294129338E+03  0.15182936747E+03  0.00000000000E+00 0.  1.
         12    1    5    5    0    0 -0.48524506223E+02 -0.76990730081E+01  0.36177136772E+02  0.61013839859E+02  0.00000000000E+00 0. -1.
         11    1    3    3    0    0  0.13653892226E+02  0.36347910997E+02 -0.39536630405E+03  0.39726831460E+03  0.00000000000E+00 0. -1.
        -12    1    3    3    0    0  0.15642551481E+02 -0.32924826382E+02 -0.14052612366E+03  0.14517687502E+03  0.00000000000E+00 0.  1.
          5    1    4    4  501    0 -0.36017020887E+02 -0.60819401872E+01 -0.60253741216E+02  0.70584711663E+02  0.41800000000E+01 0.  1.
         -5    1    4    4    0  501  0.99061108716E+02 -0.67216236791E+02 -0.28461334820E+03  0.30879338744E+03  0.41800000000E+01 0.  1.
</event>
<event>
11    1  0.6763327E-009  0.1439109E+03  0.7561462E-02  0.1103268E+00
         22   -1    0    0    0    0  0.00000000000E+00  0.00000000000E+00  0.97010166606E+02  0.97010166606E+02  0.00000000000E+00 0. -1.
         22   -1    0    0    0    0 -0.00000000000E+00 -0.00000000000E+00 -0.11528917200E+04  0.11528917200E+04  0.00000000000E+00 0. -1.
        -24    2    1    2    0    0 -0.64618803362E+02 -0.26867462044E+02 -0.91341004796E+03  0.91957792031E+03  0.80051143282E+02 0.  0.
         25    2    1    2    0    0  0.80028730235E+02  0.18519943588E+02 -0.18799158156E+03  0.24028128931E+03  0.12508667908E+03 0.  0.
         24    2    1    2    0    0 -0.15409926873E+02  0.83475184554E+01  0.45520076122E+02  0.90042676988E+02  0.75686586912E+02 0.  0.
        -13    1    5    5    0    0  0.13496585746E+01 -0.21613791060E+02 -0.10711212727E+02  0.24160041811E+02  0.00000000000E+00 0.  1.
         14    1    5    5    0    0 -0.16759585447E+02  0.29961309515E+02  0.56231288849E+02  0.65882635177E+02  0.00000000000E+00 0. -1.
         11    1    3    3    0    0 -0.78204039682E+02 -0.40729177940E+01 -0.74280812786E+03  0.74692461152E+03  0.00000000000E+00 0. -1.
        -12    1    3    3    0    0  0.13585236319E+02 -0.22794544250E+02 -0.17060192010E+03  0.17265330879E+03  0.00000000000E+00 0.  1.
          5    1    4    4  501    0  0.68223041429E+00  0.49691876748E+02 -0.12385055798E+03  0.13351472265E+03  0.41800000000E+01 0.  1.
         -5    1    4    4    0  501  0.79346499821E+02 -0.31171933160E+02 -0.64141023584E+02  0.10676656666E+03  0.41800000000E+01 0.  1.
</event>
<event>
11    1  0.6763327E-009  0.1885500E+03  0.7561462E-02  0.1062929E+00
         22   -1    0    0    0    0  0.00000000000E+00  0.00000000000E+00  0.28977600813E+03  0.28977600813E+03  0.00000000000E+00 0.  1.
         22   -1    0    0    0    0 -0.00000000000E+00 -0.00000000000E+00 -0.51138795175E+03  0.51138795175E+03  0.00000000000E+00 0.  1.
        -24    2    1    2    0    0 -0.54399397930E+01  0.41595928719E+02 -0.26122611089E+03  0.27682338484E+03  0.81438879845E+02 0.  0.
         25    2    1    2    0    0 -0.61564200334E+02  0.88051420123E+02 -0.18044314409E+03  0.24443975829E+03  0.12509142190E+03 0.  0.
         24    2    1    2    0    0  0.67004140127E+02 -0.12964734884E+03  0.22005731137E+03  0.27990081675E+03  0.92850724691E+02 0.  0.
        -11    1    5    5    0    0  0.16215507958E+02 -0.29207081965E+02  0.13432474954E+03  0.13841652601E+03  0.00000000000E+00 0.  1.
         12    1    5    5    0    0  0.50788632168E+02 -0.10044026688E+03  0.85732561833E+02  0.14148429074E+03  0.00000000000E+00 0. -1.
         13    1    3    3    0    0 -0.26094621811E+02  0.22864266442E+02 -0.36441159163E+02  0.50315624298E+02  0.00000000000E+00 0. -1.
        -14    1    3    3    0    0  0.20654682018E+02  0.18731662276E+02 -0.22478495173E+03  0.22650776054E+03  0.00000000000E+00 0.  1.
          5    1    4    4  501    0 -0.44388472894E+02  0.11637139025E+03 -0.10892529385E+03  0.16551383337E+03  0.41800000000E+01 0. -1.
         -5    1    4    4    0  501 -0.17175727439E+02 -0.28319970131E+02 -0.71517850245E+02  0.78925924923E+02  0.41800000000E+01 0. -1.
</event>
<event>
11    1  0.6763327E-009  0.1586009E+03  0.7561462E-02  0.1088401E+00
         22   -1    0    0    0    0  0.00000000000E+00  0.00000000000E+00  0.52279087051E+03  0.52279087051E+03  0.00000000000E+00 0.  1.
         22   -1    0    0    0    0 -0.00000000000E+00 -0.00000000000E+00 -0.62434984013E+03  0.62434984013E+03  0.00000000000E+00 0. -1.
         24    2    1    2    0    0 -0.11968253378E+02  0.19331396365E+02 -0.42270548133E+03  0.43023178685E+03  0.76827888766E+02 0.  0.
         25    2    1    2    0    0 -0.66215895166E+02 -0.77440720109E+02 -0.15493729519E+03  0.22368448163E+03  0.12509025532E+03 0.  0.
        -24    2    1    2    0    0  0.78184148544E+02  0.58109323744E+02  0.47608380690E+03  0.49322444217E+03  0.84410334522E+02 0.  0.
        -11    1    3    3    0    0  0.24220608728E+02 -0.40625069373E+01 -0.57943110728E+02  0.62932868444E+02  0.00000000000E+00 0.  1.
         12    1    3    3    0    0 -0.36188862106E+02  0.23393903303E+02 -0.36476237060E+03  0.36729891840E+03  0.00000000000E+00 0. -1.
         13    1    5    5    0    0  0.32403999061E+02 -0.18374121907E+02  0.99761379191E+02  0.10648924964E+03  0.00000000000E+00 0. -1.
        -14    1    5    5    0    0  0.45780149482E+02  0.76483445651E+02  0.37632242770E+03  0.38673519253E+03  0.00000000000E+00 0.  1.
          5    1    4    4  501    0 -0.73893700661E+02 -0.57439279888E+01 -0.31442484361E+02  0.80618694662E+02  0.41800000000E+01 0. -1.
         -5    1    4    4    0  501  0.76778054953E+01 -0.71696792121E+02 -0.12349481083E+03  0.14306578696E+03  0.41800000000E+01 0. -1.
</event>
<event>
11    1  0.6763327E-009  0.1415965E+03  0.7561462E-02  0.1105789E+00
         22   -1    0    0    0    0  0.00000000000E+00  0.00000000000E+00  0.32799287316E+03  0.32799287316E+03  0.00000000000E+00 0.  1.
         22   -1    0    0    0    0 -0.00000000000E+00 -0.00000000000E+00 -0.24041898487E+03  0.24041898487E+03  0.00000000000E+00 0. -1.
         24    2    1    2    0    0 -0.16434501383E+02 -0.85776807360E+01 -0.14628293868E+03  0.16789561956E+03  0.80290544122E+02 0.  0.
         25    2    1    2    0    0  0.69428126899E+02  0.44344652078E+02  0.49873395115E+01  0.14986611944E+03  0.12509303430E+03 0.  0.
        -24    2    1    2    0    0 -0.52993625516E+02 -0.35766971342E+02  0.22886948746E+03  0.25065011903E+03  0.79728535015E+02 0.  0.
        -11    1    3    3    0    0  0.11431957779E+02  0.31026411060E+02 -0.47422222977E+02  0.57811720905E+02  0.00000000000E+00 0.  1.
         12    1    3    3    0    0 -0.27866459162E+02 -0.39604091796E+02 -0.98860715705E+02  0.11008389865E+03  0.00000000000E+00 0. -1.
         13    1    5    5    0    0  0.19101963000E+02 -0.10370774702E+01  0.23903051178E+02  0.30615623067E+02  0.00000000000E+00 0. -1.
        -14    1    5    5    0    0 -0.72095588517E+02 -0.34729893872E+02  0.20496643628E+03  0.22003449597E+03  0.00000000000E+00 0.  1.
          5    1    4    4  501    0 -0.33631160879E+02  0.21266767803E+02 -0.14178910196E+02  0.42448136463E+02  0.41800000000E+01 0.  1.
         -5    1    4    4    0  501  0.10305928778E+03  0.23077884275E+02  0.19166249708E+02  0.10741798298E+03  0.41800000000E+01 0.  1.
</event>
<event>
11    1  0.6763327E-009  0.1677339E+03  0.7561462E-02  0.1080021E+00
         22   -1    0    0    0    0  0.00000000000E+00  0.00000000000E+00  0.49481816788E+03  0.49481816788E+03  0.00000000000E+00 0. -1.
         22   -1    0    0    0    0 -0.00000000000E+00 -0.00000000000E+00 -0.31719282477E+03  0.31719282477E+03  0.00000000000E+00 0.  1.
         24    2    1    2    0    0  0.48880733515E+02 -0.21174182338E+02 -0.23051063613E+03  0.24993554524E+03  0.80591260690E+02 0.  0.
         25    2    1    2    0    0 -0.13051788584E+03 -0.48821922312E+02  0.72859442298E+02  0.20093424521E+03  0.12509026318E+03 0.  0.
        -24    2    1    2    0    0  0.81637152330E+02  0.69996104651E+02  0.33527653694E+03  0.36114120220E+03  0.80302754600E+02 0.  0.
        -11    1    3    3    0    0  0.36227684476E+02 -0.22708394057E+02 -0.23304968394E+03  0.23693938353E+03  0.00000000000E+00 0.  1.
         12    1    3    3    0    0  0.12653049038E+02  0.15342117187E+01  0.25390478061E+01  0.12996161715E+02  0.00000000000E+00 0. -1.
         13    1    5    5    0    0  0.68430135215E+02  0.71027959250E+02  0.33349614756E+03  0.34777483353E+03  0.00000000000E+00 0. -1.
        -14    1    5    5    0    0  0.13207017115E+02 -0.10318545993E+01  0.17803893792E+01  0.13366368666E+02  0.00000000000E+00 0.  1.
          5    1    4    4  501    0 -0.13475889839E+02 -0.66323203177E+02  0.16482800376E+02  0.69781960382E+02  0.41800000000E+01 0. -1.
         -5    1    4    4    0  501 -0.11704199601E+03  0.17501280864E+02  0.56376641922E+02  0.13115228483E+03  0.41800000000E+01 0. -1.
</event>
<event>
11    1  0.6763327E-009  0.2676302E+03  0.7561462E-02  0.1014905E+00
         22   -1    0    0    0    0  0.00000000000E+00  0.00000000000E+00  0.29825859396E+03  0.29825859396E+03  0.00000000000E+00 0. -1.
         22   -1    0    0    0    0 -0.00000000000E+00 -0.00000000000E+00 -0.78176811657E+03  0.78176811657E+03  0.00000000000E+00 0.  1.
         24    2    1    2    0    0  0.17657982520E+03 -0.15075453507E+03 -0.45393080187E+03  0.51613481771E+03  0.80216037420E+02 0.  0.
         25    2    1    2    0    0 -0.15574186087E+03  0.19461648788E+03 -0.21753686774E+03  0.35369573702E+03  0.12508909215E+03 0.  0.
        -24    2    1    2    0    0 -0.20837964332E+02 -0.43861952806E+02  0.18795814700E+03  0.21019615580E+03  0.80598183766E+02 0.  0.
        -13    1    3    3    0    0  0.16657722845E+03 -0.10608557012E+03 -0.39397596968E+03  0.44070305866E+03  0.00000000000E+00 0.  1.
         14    1    3    3    0    0  0.10002596750E+02 -0.44668964948E+02 -0.59954832187E+02  0.75431759053E+02  0.00000000000E+00 0. -1.
         13    1    5    5    0    0 -0.22315241146E+02 -0.61260872777E+02  0.17913704378E+03  0.19063301124E+03  0.00000000000E+00 0. -1.
        -14    1    5    5    0    0  0.14772768136E+01  0.17398919971E+02  0.88211032250E+01  0.19563144559E+02  0.00000000000E+00 0.  1.
          5    1    4    4  501    0 -0.10498489823E+03  0.66671082376E+02 -0.16418671712E+03  0.20601362227E+03  0.41800000000E+01 0.  1.
         -5    1    4    4    0  501 -0.50756962639E+02  0.12794540550E+03 -0.53350150623E+02  0.14768211475E+03  0.41800000000E+01 0.  1.
</event>
<event>
11    1  0.6763327E-009  0.1463256E+03  0.7561462E-02  0.1100694E+00
         22   -1    0    0    0    0  0.00000000000E+00  0.00000000000E+00  0.38644842205E+03  0.38644842205E+03  0.00000000000E+00 0. -1.
         22   -1    0    0    0    0 -0.00000000000E+00 -0.00000000000E+00 -0.14767589082E+04  0.14767589082E+04  0.00000000000E+00 0.  1.
        -24    2    1    2    0    0 -0.73170943993E+02 -0.14224923832E+02 -0.13165862817E+04  0.13212208639E+04  0.81662712903E+02 0.  0.
         25    2    1    2    0    0  0.35347495355E+02  0.81458436499E+02 -0.10942810230E+03  0.18843220937E+03  0.12508903089E+03 0.  0.
         24    2    1    2    0    0  0.37823448638E+02 -0.67233512667E+02  0.33570389779E+03  0.35355425699E+03  0.79702867908E+02 0.  0.
        -13    1    5    5    0    0 -0.33661916236E+01 -0.45945389183E+02  0.69760066251E+02  0.83598904757E+02  0.00000000000E+00 0.  1.
         14    1    5    5    0    0  0.41189640262E+02 -0.21288123484E+02  0.26594383154E+03  0.26995535223E+03  0.00000000000E+00 0. -1.
         11    1    3    3    0    0  0.57428194298E-01 -0.21700600070E+02 -0.96223916580E+02  0.98640567026E+02  0.00000000000E+00 0. -1.
        -12    1    3    3    0    0 -0.73228372188E+02  0.74756762378E+01 -0.12203623651E+04  0.12225802969E+04  0.00000000000E+00 0.  1.
          5    1    4    4  501    0  0.26204392106E+02  0.11518858937E+03 -0.84287761823E+02  0.14517913238E+03  0.41800000000E+01 0.  1.
         -5    1    4    4    0  501  0.91431032492E+01 -0.33730152866E+02 -0.25140340480E+02  0.43253076987E+02  0.41800000000E+01 0.  1.
</event>
<event>
11    1  0.6763327E-009  0.1286561E+03  0.7561462E-02  0.1120931E+00
         22   -1    0    0    0    0  0.00000000000E+00  0.00000000000E+00  0.14758634396E+03  0.14758634396E+03  0.00000000000E+00 0.  1.
         22   -1    0    0    0    0 -0.00000000000E+00 -0.00000000000E+00 -0.71238091997E+03  0.71238091997E+03  0.00000000000E+00 0. -1.
         24    2    1    2    0    0  0.25314679930E+02  0.14916921806E+02 -0.45541268499E+03  0.46340910480E+03  0.80522898487E+02 0.  0.
         25    2    1    2    0    0 -0.25589548040E+02 -0.21723104436E+02 -0.22209524914E+03  0.25709940070E+03  0.12508830447E+03 0.  0.
        -24    2    1    2    0    0  0.27486810981E+00  0.68061826300E+01  0.11271335812E+03  0.13945875843E+03  0.81841581922E+02 0.  0.
        -11    1    3    3    0    0  0.41352647073E+02  0.36346399548E+02 -0.23426267788E+03  0.24064518367E+03  0.00000000000E+00 0.  1.
         12    1    3    3    0    0 -0.16037967143E+02 -0.21429477742E+02 -0.22115000712E+03  0.22276392112E+03  0.00000000000E+00 0. -1.
         13    1    5    5    0    0 -0.33584350188E+01  0.31336184187E+01 -0.12923608862E+02  0.13715623070E+02  0.00000000000E+00 0. -1.
        -14    1    5    5    0    0  0.36333031286E+01  0.36725642112E+01  0.12563696698E+03  0.12574313537E+03  0.00000000000E+00 0.  1.
          5    1    4    4  501    0  0.36739811741E+01 -0.29944823216E+02 -0.22428042657E+03  0.22633906582E+03  0.41800000000E+01 0. -1.
         -5    1    4    4    0  501 -0.29263529214E+02  0.82217187797E+01  0.21851774249E+01  0.30760334883E+02  0.41800000000E+01 0. -1.
</event>
<event>
11    1  0.6763327E-009  0.1592888E+03  0.7561462E-02  0.1087748E+00
         22   -1    0    0    0    0  0.00000000000E+00  0.00000000000E+00  0.44586692568E+03  0.44586692568E+03  0.00000000000E+00 0.  1.
         22   -1    0    0    0    0 -0.00000000000E+00 -0.00000000000E+00 -0.64463801668E+03  0.64463801668E+03  0.00000000000E+00 0.  1.
        -24    2    1    2    0    0 -0.44306695103E+02 -0.29772900230E+02 -0.51895245571E+03  0.52763549364E+03  0.78981352512E+02 0.  0.
         25    2    1    2    0    0  0.25165682343E+02  0.12463083980E+03 -0.39181462424E+02  0.18261577190E+03  0.12508866996E+03 0.  0.
         24    2    1    2    0    0  0.19141012761E+02 -0.94857939574E+02  0.35936282713E+03  0.38025367682E+03  0.78018011664E+02 0.  0.
        -11    1    5    5    0    0 -0.26802605083E+01 -0.98781017135E+02  0.32185487959E+03  0.33668299134E+03  0.00000000000E+00 0.  1.
         12    1    5    5    0    0  0.21821273269E+02  0.39230775608E+01  0.37507947544E+02  0.43570685485E+02  0.00000000000E+00 0. -1.
         11    1    3    3    0    0  0.54643321150E+01 -0.74511364021E+01 -0.44610719565E+01  0.10260580985E+02  0.00000000000E+00 0. -1.
        -12    1    3    3    0    0 -0.49771027218E+02 -0.22321763828E+02 -0.51449138375E+03  0.51737491265E+03  0.00000000000E+00 0.  1.
          5    1    4    4  501    0  0.47533933095E+02  0.83721755677E+02  0.28347329121E+02  0.10044824855E+03  0.41800000000E+01 0. -1.
         -5    1    4    4    0  501 -0.22368250752E+02  0.40909084126E+02 -0.67528791545E+02  0.82167523349E+02  0.41800000000E+01 0. -1.
</event>
<event>
11    1  0.6763327E-009  0.1840920E+03  0.7561462E-02  0.1066380E+00
         22   -1    0    0    0    0  0.00000000000E+00  0.00000000000E+00  0.27419346884E+03  0.27419346884E+03  0.00000000000E+00 0. -1.
         22   -1    0    0    0    0 -0.00000000000E+00 -0.00000000000E+00 -0.54249067855E+03  0.54249067855E+03  0.00000000000E+00 0.  1.
        -24    2    1    2    0    0 -0.85015463457E+02  0.10751012804E+03 -0.39879838204E+03  0.42910924292E+03  0.79426294034E+02 0.  0.
         25    2    1    2    0    0  0.13217452892E+03 -0.50333486710E+02 -0.32593226672E+02  0.19160742284E+03  0.12509004790E+03 0.  0.
         24    2    1    2    0    0 -0.47159065465E+02 -0.57176641330E+02  0.16309439901E+03  0.19596748163E+03  0.79437554706E+02 0.  0.
        -11    1    5    5    0    0  0.10487169355E+02  0.58467385295E+01  0.64122490508E+02  0.65236943992E+02  0.00000000000E+00 0.  1.
         12    1    5    5    0    0 -0.57646234820E+02 -0.63023379859E+02  0.98971908500E+02  0.13073053763E+03  0.00000000000E+00 0. -1.
         13    1    3    3    0    0  0.83338332820E+01 -0.63960052337E+01 -0.37636009443E+02  0.39074683196E+02  0.00000000000E+00 0. -1.
        -14    1    3    3    0    0 -0.93349296739E+02  0.11390613327E+03 -0.36116237260E+03  0.39003455972E+03  0.00000000000E+00 0.  1.
          5    1    4    4  501    0  0.52080808726E+02 -0.57751778859E+02 -0.68221589601E+02  0.10353422761E+03  0.41800000000E+01 0. -1.
         -5    1    4    4    0  501  0.80093720197E+02  0.74182921497E+01  0.35628362929E+02  0.88073195232E+02  0.41800000000E+01 0. -1.
</event>
<event>
11    1  0.6763327E-009  0.1464456E+03  0.7561462E-02  0.1100567E+00
         22   -1    0    0    0    0  0.00000000000E+00  0.00000000000E+00  0.27480154217E+03  0.27480154217E+03  0.00000000000E+00 0. -1.
         22   -1    0    0    0    0 -0.00000000000E+00 -0.00000000000E+00 -0.28558027188E+03  0.28558027188E+03  0.00000000000E+00 0.  1.
        -24    2    1    2    0    0 -0.62210342127E+02 -0.70352287127E+02 -0.13341994602E+03  0.18129062333E+03  0.79030608874E+02 0.  0.
         25    2    1    2    0    0  0.13825865004E+02  0.49304755353E+02 -0.78823216870E+02  0.15646873302E+03  0.12508897415E+03 0.  0.
         24    2    1    2    0    0  0.48384477123E+02  0.21047531773E+02  0.20146443318E+03  0.22262245769E+03  0.78668828705E+02 0.  0.
        -13    1    5    5    0    0 -0.97645760911E+01  0.11470035503E+02  0.26975693692E+01  0.15303121942E+02  0.00000000000E+00 0.  1.
         14    1    5    5    0    0  0.58149053215E+02  0.95774962710E+01  0.19876686381E+03  0.20731933575E+03  0.00000000000E+00 0. -1.
         11    1    3    3    0    0 -0.30001251310E+01 -0.17902680307E+02  0.75381134093E+01  0.19655275799E+02  0.00000000000E+00 0. -1.
        -12    1    3    3    0    0 -0.59210216996E+02 -0.52449606820E+02 -0.14095805943E+03  0.16163534753E+03  0.00000000000E+00 0.  1.
          5    1    4    4  501    0 -0.29569945474E+02  0.69081382438E+02 -0.78283929770E+02  0.10859311735E+03  0.41800000000E+01 0. -1.
         -5    1    4    4    0  501  0.43395810478E+02 -0.19776627084E+02 -0.53928710000E+00  0.47875615677E+02  0.41800000000E+01 0. -1.
</event>
<event>
11    1  0.6763327E-009  0.1494947E+03  0.7561462E-02  0.1097396E+00
         22   -1    0    0    0    0  0.00000000000E+00  0.00000000000E+00  0.77557623179E+03  0.77557623179E+03  0.00000000000E+00 0.  1.
         22   -1    0    0    0    0 -0.00000000000E+00 -0.00000000000E+00 -0.14736865741E+03  0.14736865741E+03  0.00000000000E+00 0. -1.
         24    2    1    2    0    0 -0.54324291895E+02  0.44694740115E+02 -0.30171842101E+02  0.11132148957E+03  0.80829360387E+02 0.  0.
         25    2    1    2    0    0  0.10613809377E+03 -0.39382860959E+02  0.24096715383E+02  0.17042415927E+03  0.12508971854E+03 0.  0.
        -24    2    1    2    0    0 -0.51813801870E+02 -0.53118791560E+01  0.63428270110E+03  0.64119924036E+03  0.78160314793E+02 0.  0.
        -13    1    3    3    0    0 -0.28556004012E+02  0.28323716935E+02  0.25645480704E+02  0.47700827946E+02  0.00000000000E+00 0.  1.
         14    1    3    3    0    0 -0.25768287883E+02  0.16371023180E+02 -0.55817322806E+02  0.63620661625E+02  0.00000000000E+00 0. -1.
         11    1    5    5    0    0 -0.15022592032E+02 -0.21483130408E+02  0.59567792723E+02  0.65080911898E+02  0.00000000000E+00 0. -1.
        -12    1    5    5    0    0 -0.36791209838E+02  0.16171251252E+02  0.57471490837E+03  0.57611832847E+03  0.00000000000E+00 0.  1.
          5    1    4    4  501    0  0.65272822312E+02  0.31776407910E+02  0.45164334768E+02  0.85601232277E+02  0.41800000000E+01 0.  1.
         -5    1    4    4    0  501  0.40865271453E+02 -0.71159268869E+02 -0.21067619386E+02  0.84822926992E+02  0.41800000000E+01 0.  1.
</event>
<event>
11    1  0.6763327E-009  0.1435672E+03  0.7561462E-02  0.1103639E+00
         22   -1    0    0    0    0  0.00000000000E+00  0.00000000000E+00  0.17117283846E+03  0.17117283846E+03  0.00000000000E+00 0. -1.
         22   -1    0    0    0    0 -0.00000000000E+00 -0.00000000000E+00 -0.55627499212E+03  0.55627499212E+03  0.00000000000E+00 0.  1.
        -24    2    1    2    0    0 -0.52169507700E+02 -0.49856422354E+02 -0.37286968002E+03  0.38836559688E+03  0.81170919538E+02 0.  0.
         25    2    1    2    0    0  0.27308058426E+02  0.62022925576E+02 -0.13093490601E+03  0.19335222642E+03  0.12509420649E+03 0.  0.
         24    2    1    2    0    0  0.24861449274E+02 -0.12166503222E+02  0.11870243237E+03  0.14573000727E+03  0.79880236036E+02 0.  0.
        -13    1    5    5    0    0  0.23179292758E+02 -0.25691751991E+02  0.97800927594E+01  0.35958252843E+02  0.00000000000E+00 0.  1.
         14    1    5    5    0    0  0.16821565161E+01  0.13525248769E+02  0.10892233961E+03  0.10977175443E+03  0.00000000000E+00 0. -1.
         13    1    3    3    0    0 -0.36707854575E+02 -0.10334989209E+02 -0.50847237090E+02  0.63558792540E+02  0.00000000000E+00 0. -1.
        -14    1    3    3    0    0 -0.15461653125E+02 -0.39521433145E+02 -0.32202244293E+03  0.32480680435E+03  0.00000000000E+00 0.  1.
          5    1    4    4  501    0 -0.27402544935E+02 -0.20980190313E+02 -0.88813640624E+01  0.35880619867E+02  0.41800000000E+01 0. -1.
         -5    1    4    4    0  501  0.54710603361E+02  0.83003115889E+02 -0.12205354195E+03  0.15747160655E+03  0.41800000000E+01 0. -1.
</event>
<event>
11    1  0.6763327E-009  0.1253091E+03  0.7561462E-02  0.1125171E+00
         22   -1    0    0    0    0  0.00000000000E+00  0.00000000000E+00  0.20880336006E+03  0.20880336006E+03  0.00000000000E+00 0.  1.
         22   -1    0    0    0    0 -0.00000000000E+00 -0.00000000000E+00 -0.12247533063E+04  0.12247533063E+04  0.00000000000E+00 0.  1.
         24    2    1    2    0    0 -0.10217366254E+01  0.11766574515E+01 -0.11335371481E+04  0.11364308651E+04  0.81032194940E+02 0.  0.
         25    2    1    2    0    0  0.19576595068E+00  0.64184756325E+01 -0.26262820736E+02  0.12797534170E+03  0.12508683854E+03 0.  0.
        -24    2    1    2    0    0  0.82597067476E+00 -0.75951330840E+01  0.14385002252E+03  0.16915045960E+03  0.88660480086E+02 0.  0.
        -11    1    3    3    0    0  0.67603316366E+00  0.20375300788E+02 -0.10660653625E+04  0.10662602717E+04  0.00000000000E+00 0.  1.
         12    1    3    3    0    0 -0.16977697891E+01 -0.19198643337E+02 -0.67471785597E+02  0.70170593413E+02  0.00000000000E+00 0. -1.
         11    1    5    5    0    0  0.21718447357E+02 -0.34145922004E+02  0.29949552819E+02  0.50344916915E+02  0.00000000000E+00 0. -1.
        -12    1    5    5    0    0 -0.20892476682E+02  0.26550788920E+02  0.11390046970E+03  0.11880554269E+03  0.00000000000E+00 0.  1.
          5    1    4    4  501    0 -0.22659851611E+02 -0.54595527355E+02 -0.57339647056E+01  0.59535629949E+02  0.41800000000E+01 0.  1.
         -5    1    4    4    0  501  0.22855617561E+02  0.61014002988E+02 -0.20528856030E+02  0.68439711751E+02  0.41800000000E+01 0.  1.
</event>
<event>
11    1  0.6763327E-009  0.1268594E+03  0.7561462E-02  0.1123189E+00
         22   -1    0    0    0    0  0.00000000000E+00  0.00000000000E+00  0.17871492726E+03  0.17871492726E+03  0.00000000000E+00 0.  1.
         22   -1    0    0    0    0 -0.00000000000E+00 -0.00000000000E+00 -0.38763746025E+04  0.38763746025E+04  0.00000000000E+00 0. -1.
         24    2    1    2    0    0 -0.18132830850E+02 -0.10795281925E+02 -0.36974828541E+04  0.36984091252E+04  0.80032888914E+02 0.  0.
         25    2    1    2    0    0  0.23508109573E+02  0.56885507415E+01 -0.14385358344E+03  0.19215929715E+03  0.12508537560E+03 0.  0.
        -24    2    1    2    0    0 -0.53752787232E+01  0.51067311837E+01  0.14367676233E+03  0.16452110739E+03  0.79807333111E+02 0.  0.
        -11    1    3    3    0    0 -0.32099215252E+02  0.27301890553E+02 -0.19492559090E+04  0.19497113509E+04  0.00000000000E+00 0.  1.
         12    1    3    3    0    0  0.13966384402E+02 -0.38097172478E+02 -0.17482269451E+04  0.17486977743E+04  0.00000000000E+00 0. -1.
         13    1    5    5    0    0 -0.20878572691E+02 -0.82725351082E+01  0.33478771185E+01  0.22705900465E+02  0.00000000000E+00 0. -1.
        -14    1    5    5    0    0  0.15503293968E+02  0.13379266292E+02  0.14032888521E+03  0.14181520692E+03  0.00000000000E+00 0.  1.
          5    1    4    4  501    0  0.70260295462E+02  0.20550360363E+02 -0.59241206745E+02  0.94264624361E+02  0.41800000000E+01 0.  1.
         -5    1    4    4    0  501 -0.46752185889E+02 -0.14861809621E+02 -0.84612376699E+02  0.97894672793E+02  0.41800000000E+01 0.  1.
</event>
<event>
11    1  0.6763327E-009  0.1388890E+03  0.7561462E-02  0.1108805E+00
         22   -1    0    0    0    0  0.00000000000E+00  0.00000000000E+00  0.52431610412E+03  0.52431610412E+03  0.00000000000E+00 0. -1.
         22   -1    0    0    0    0 -0.00000000000E+00 -0.00000000000E+00 -0.12754197194E+04  0.12754197194E+04  0.00000000000E+00 0. -1.
        -24    2    1    2    0    0 -0.25137982243E+02  0.52458022079E+02 -0.11083622897E+04  0.11130888423E+04  0.84356644799E+02 0.  0.
         25    2    1    2    0    0  0.67750139537E+02 -0.73756482375E+02 -0.12038476420E+03  0.20044435300E+03  0.12512132951E+03 0.  0.
         24    2    1    2    0    0 -0.42612157295E+02  0.21298460296E+02  0.47764343862E+03  0.48620262816E+03  0.77332533996E+02 0.  0.
        -11    1    5    5    0    0 -0.30240060821E+02 -0.80941012157E+01  0.63141174389E+02  0.70475411713E+02  0.00000000000E+00 0.  1.
         12    1    5    5    0    0 -0.12372096474E+02  0.29392561511E+02  0.41450226423E+03  0.41572721645E+03  0.00000000000E+00 0. -1.
         13    1    3    3    0    0 -0.13945970220E+02  0.41145327253E+02 -0.10774082264E+04  0.10782837819E+04  0.00000000000E+00 0. -1.
        -14    1    3    3    0    0 -0.11192012022E+02  0.11312694826E+02 -0.30954063312E+02  0.34805060449E+02  0.00000000000E+00 0.  1.
          5    1    4    4  501    0  0.42587294410E+02 -0.90388337351E+02 -0.29009210921E+02  0.10412845861E+03  0.41800000000E+01 0.  1.
         -5    1    4    4    0  501  0.25162845127E+02  0.16631854976E+02 -0.91375553278E+02  0.96315894387E+02  0.41800000000E+01 0.  1.
</event>
<event>
11    1  0.7072454E-009  0.1656356E+03  0.7561462E-02  0.1081893E+00
         22   -1    0    0    0    0  0.00000000000E+00  0.00000000000E+00  0.68871222656E+03  0.68871222656E+03  0.00000000000E+00 0. -1.
         22   -1    0    0    0    0 -0.00000000000E+00 -0.00000000000E+00 -0.26647499609E+03  0.26647499609E+03  0.00000000000E+00 0. -1.
         24    2    1    2    0    0 -0.15643782669E+02  0.47431934051E+01 -0.18918265943E+03  0.20725204706E+03  0.83042799588E+02 0.  0.
         25    2    1    2    0    0 -0.17862005691E+02 -0.10803330102E+03  0.54455056573E+02  0.17493887538E+03  0.12509201236E+03 0.  0.
        -24    2    1    2    0    0  0.33505788360E+02  0.10329010762E+03  0.55696483333E+03  0.57299630020E+03  0.79520125100E+02 0.  0.
        -11    1    3    3    0    0  0.22494139875E+02  0.25941068494E+02 -0.12509015501E+03  0.12971689267E+03  0.00000000000E+00 0.  1.
         12    1    3    3    0    0 -0.38137922544E+02 -0.21197875089E+02 -0.64092504422E+02  0.77535154397E+02  0.00000000000E+00 0. -1.
         13    1    5    5    0    0  0.93878638728E+01  0.63057791495E+02  0.46893470013E+03  0.47324852884E+03  0.00000000000E+00 0. -1.
        -14    1    5    5    0    0  0.24117924487E+02  0.40232316124E+02  0.88030133195E+02  0.99747771366E+02  0.00000000000E+00 0.  1.
          5    1    4    4  501    0 -0.69082812173E+02 -0.36789643031E+02  0.27132227686E+02  0.82943010262E+02  0.41800000000E+01 0.  1.
         -5    1    4    4    0  501  0.51220806482E+02 -0.71243657994E+02  0.27322828887E+02  0.91995865121E+02  0.41800000000E+01 0.  1.
</event>
<event>
11    1  0.6763327E-009  0.1307038E+03  0.7561462E-02  0.1118407E+00
         22   -1    0    0    0    0  0.00000000000E+00  0.00000000000E+00  0.36701458950E+03  0.36701458950E+03  0.00000000000E+00 0.  1.
         22   -1    0    0    0    0 -0.00000000000E+00 -0.00000000000E+00 -0.10372149898E+04  0.10372149898E+04  0.00000000000E+00 0.  1.
        -24    2    1    2    0    0  0.42224890108E+02  0.10949975615E+01 -0.69743264017E+03  0.70330320721E+03  0.80243213655E+02 0.  0.
         25    2    1    2    0    0 -0.78024438707E+02 -0.10975999017E+02 -0.31409912521E+03  0.34715118172E+03  0.12508955561E+03 0.  0.
         24    2    1    2    0    0  0.35799548598E+02  0.98810014558E+01  0.34133136511E+03  0.35377519033E+03  0.85267476869E+02 0.  0.
        -11    1    5    5    0    0  0.23086367644E+02  0.45124658502E+02  0.13785617164E+03  0.14687933563E+03  0.00000000000E+00 0.  1.
         12    1    5    5    0    0  0.12713180954E+02 -0.35243657046E+02  0.20347519348E+03  0.20689585470E+03  0.00000000000E+00 0. -1.
         11    1    3    3    0    0 -0.48282638449E+01  0.12861426656E+02 -0.20756014551E+02  0.24890571858E+02  0.00000000000E+00 0. -1.
        -12    1    3    3    0    0  0.47053153953E+02 -0.11766429094E+02 -0.67667662562E+03  0.67841263536E+03  0.00000000000E+00 0.  1.
          5    1    4    4  501    0 -0.59250210021E+02 -0.60433164069E+02 -0.12701000711E+03  0.15268192104E+03  0.41800000000E+01 0. -1.
         -5    1    4    4    0  501 -0.18774228686E+02  0.49457165052E+02 -0.18708911810E+03  0.19446926068E+03  0.41800000000E+01 0. -1.
</event>
<event>
11    1  0.6763327E-009  0.1377368E+03  0.7561462E-02  0.1110112E+00
         22   -1    0    0    0    0  0.00000000000E+00  0.00000000000E+00  0.93998736631E+03  0.93998736631E+03  0.00000000000E+00 0. -1.
         22   -1    0    0    0    0 -0.00000000000E+00 -0.00000000000E+00 -0.10005049270E+04  0.10005049270E+04  0.00000000000E+00 0. -1.
        -24    2    1    2    0    0  0.20456245314E+02 -0.39254463198E+01 -0.50770037811E+03  0.51460389015E+03  0.81385641991E+02 0.  0.
         25    2    1    2    0    0 -0.50805386132E+02  0.52858281837E+02 -0.47601226708E+03  0.49760459646E+03  0.12508985084E+03 0.  0.
         24    2    1    2    0    0  0.30349140817E+02 -0.48932835517E+02  0.92319508451E+03  0.92828380669E+03  0.78141979477E+02 0.  0.
        -11    1    5    5    0    0 -0.14190592256E+02  0.56318520584E+01  0.50663307999E+02  0.52913716970E+02  0.00000000000E+00 0.  1.
         12    1    5    5    0    0  0.44539733073E+02 -0.54564687575E+02  0.87253177651E+03  0.87537008972E+03  0.00000000000E+00 0. -1.
         11    1    3    3    0    0  0.42558551742E+02  0.18814961713E+02 -0.38776326598E+03  0.39054523881E+03  0.00000000000E+00 0. -1.
        -12    1    3    3    0    0 -0.22102306427E+02 -0.22740408033E+02 -0.11993711213E+03  0.12405865134E+03  0.00000000000E+00 0.  1.
          5    1    4    4  501    0 -0.37809932992E+02  0.30166313782E+02 -0.46334395437E+02  0.67111445526E+02  0.41800000000E+01 0.  1.
         -5    1    4    4    0  501 -0.12995453140E+02  0.22691968055E+02 -0.42967787164E+03  0.43049315093E+03  0.41800000000E+01 0.  1.
</event>
<event>
11    1  0.6763327E-009  0.1491988E+03  0.7561462E-02  0.1097700E+00
         22   -1    0    0    0    0  0.00000000000E+00  0.00000000000E+00  0.19374486381E+04  0.19374486381E+04  0.00000000000E+00 0. -1.
         22   -1    0    0    0    0 -0.00000000000E+00 -0.00000000000E+00 -0.71651372371E+02  0.71651372371E+02  0.00000000000E+00 0.  1.
        -24    2    1    2    0    0  0.59365473885E+02  0.52538902797E+02 -0.32041608410E+01  0.11301739543E+03  0.80486453688E+02 0.  0.
         25    2    1    2    0    0 -0.81842772862E+02 -0.59745588361E+02  0.51620490074E+03  0.54072503859E+03  0.12509313733E+03 0.  0.
         24    2    1    2    0    0  0.22477298976E+02  0.72066855649E+01  0.13527965258E+04  0.13553575765E+04  0.79865852903E+02 0.  0.
        -11    1    5    5    0    0 -0.14729436316E+02  0.13237525356E+02  0.97275818840E+02  0.99271210845E+02  0.00000000000E+00 0.  1.
         12    1    5    5    0    0  0.37206735292E+02 -0.60308397914E+01  0.12555207070E+04  0.12560863656E+04  0.00000000000E+00 0. -1.
         13    1    3    3    0    0  0.29545278388E+02 -0.19156336737E+02  0.13135164616E+01  0.35236544066E+02  0.00000000000E+00 0. -1.
        -14    1    3    3    0    0  0.29820195497E+02  0.71695239534E+02 -0.45176773026E+01  0.77780851368E+02  0.00000000000E+00 0.  1.
          5    1    4    4  501    0 -0.83869654638E+02 -0.48226356798E+02  0.51903069695E+03  0.52798696692E+03  0.41800000000E+01 0.  1.
         -5    1    4    4    0  501  0.20268817766E+01 -0.11519231563E+02 -0.28257962119E+01  0.12738071666E+02  0.41800000000E+01 0.  1.
</event>
<event>
11    1  0.6763327E-009  0.1428470E+03  0.7561462E-02  0.1104420E+00
         22   -1    0    0    0    0  0.00000000000E+00  0.00000000000E+00  0.52598517227E+03  0.52598517227E+03  0.00000000000E+00 0. -1.
         22   -1    0    0    0    0 -0.00000000000E+00 -0.00000000000E+00 -0.46455229317E+03  0.46455229317E+03  0.00000000000E+00 0.  1.
         24    2    1    2    0    0  0.67080762253E+02  0.29666643107E+02 -0.41536532515E+03  0.42942370135E+03  0.80600394295E+02 0.  0.
         25    2    1    2    0    0 -0.86390648167E+01  0.27997588282E+02  0.87489821378E+02  0.15543826807E+03  0.12509231769E+03 0.  0.
        -24    2    1    2    0    0 -0.58441697436E+02 -0.57664231389E+02  0.38930838287E+03  0.40567549603E+03  0.79189617527E+02 0.  0.
        -13    1    3    3    0    0  0.83781269784E+02  0.20536179588E+02 -0.37503566967E+03  0.38482825957E+03  0.00000000000E+00 0.  1.
         14    1    3    3    0    0 -0.16700507531E+02  0.91304635196E+01 -0.40329655487E+02  0.44595441780E+02  0.00000000000E+00 0. -1.
         11    1    5    5    0    0 -0.77139632198E+02 -0.54203369242E+02  0.33994160277E+03  0.35277304515E+03  0.00000000000E+00 0. -1.
        -12    1    5    5    0    0  0.18697934762E+02 -0.34608621474E+01  0.49366780106E+02  0.52902450880E+02  0.00000000000E+00 0.  1.
          5    1    4    4  501    0  0.28075494782E+02 -0.35771431824E+02  0.62929213981E+02  0.77752087524E+02  0.41800000000E+01 0. -1.
         -5    1    4    4    0  501 -0.36714559599E+02  0.63769020106E+02  0.24560607397E+02  0.77686180545E+02  0.41800000000E+01 0. -1.
</event>
<event>
11    1  0.6763327E-009  0.1993797E+03  0.7561462E-02  0.1054963E+00
         22   -1    0    0    0    0  0.00000000000E+00  0.00000000000E+00  0.54593791959E+03  0.54593791959E+03  0.00000000000E+00 0.  1.
         22   -1    0    0    0    0 -0.00000000000E+00 -0.00000000000E+00 -0.60777140312E+03  0.60777140312E+03  0.00000000000E+00 0. -1.
         24    2    1    2    0    0 -0.24498404220E+02 -0.50305288233E+02 -0.52270359551E+03  0.53153635804E+03  0.78619700633E+02 0.  0.
         25    2    1    2    0    0 -0.13483278293E+03  0.13429592854E+02  0.78969733563E+02  0.20061146811E+03  0.12509400066E+03 0.  0.
        -24    2    1    2    0    0  0.15933118715E+03  0.36875695379E+02  0.38190037842E+03  0.42156149656E+03  0.71553841518E+02 0.  0.
        -13    1    3    3    0    0 -0.28339259758E+02 -0.41084425658E+02 -0.13876518289E+03  0.14746802928E+03  0.00000000000E+00 0.  1.
         14    1    3    3    0    0  0.38408555376E+01 -0.92208625754E+01 -0.38393841262E+03  0.38406832877E+03  0.00000000000E+00 0. -1.
         11    1    5    5    0    0  0.71638151746E+02  0.53191882698E+02  0.18442548590E+03  0.20487596497E+03  0.00000000000E+00 0. -1.
        -12    1    5    5    0    0  0.87693035403E+02 -0.16316187320E+02  0.19747489252E+03  0.21668553159E+03  0.00000000000E+00 0.  1.
          5    1    4    4  501    0 -0.13703728048E+03 -0.25653445348E+02  0.80813656805E+02  0.16120060492E+03  0.41800000000E+01 0. -1.
         -5    1    4    4    0  501  0.22044975494E+01  0.39083038203E+02 -0.18439232425E+01  0.39410863192E+02  0.41800000000E+01 0. -1.
</event>
<event>
11    1  0.6763327E-009  0.1735405E+03  0.7561462E-02  0.1074991E+00
         22   -1    0    0    0    0  0.00000000000E+00  0.00000000000E+00  0.28703714720E+03  0.28703714720E+03  0.00000000000E+00 0.  1.
         22   -1    0    0    0    0 -0.00000000000E+00 -0.00000000000E+00 -0.55921498712E+03  0.55921498712E+03  0.00000000000E+00 0. -1.
         24    2    1    2    0    0  0.57314561721E+02 -0.46151786623E+02 -0.42194278387E+03  0.43613620401E+03  0.82244326216E+02 0.  0.
         25    2    1    2    0    0 -0.13997808084E+03  0.11116371595E+03  0.11635077032E+02  0.21848063815E+03  0.12508868602E+03 0.  0.
        -24    2    1    2    0    0  0.82663519121E+02 -0.65011929327E+02  0.13812986693E+03  0.19163529216E+03  0.81144418874E+02 0.  0.
        -11    1    3    3    0    0  0.96723726805E+01  0.11560249725E+02 -0.11585880285E+02  0.19011227970E+02  0.00000000000E+00 0.  1.
         12    1    3    3    0    0  0.47642189040E+02 -0.57712036348E+02 -0.41035690359E+03  0.41712497604E+03  0.00000000000E+00 0. -1.
         13    1    5    5    0    0  0.46429711770E+02 -0.62171586533E+02  0.40645598268E+02  0.87596169812E+02  0.00000000000E+00 0. -1.
        -14    1    5    5    0    0  0.36233807351E+02 -0.28403427934E+01  0.97484268659E+02  0.10403912234E+03  0.00000000000E+00 0.  1.
          5    1    4    4  501    0  0.98387411848E+01  0.20903402099E+02  0.34819516130E+02  0.41995525368E+02  0.41800000000E+01 0. -1.
         -5    1    4    4    0  501 -0.14981682203E+03  0.90260313850E+02 -0.23184439098E+02  0.17648511279E+03  0.41800000000E+01 0. -1.
</event>
<event>
11    1  0.6763327E-009  0.1296633E+03  0.7561462E-02  0.1119683E+00
         22   -1    0    0    0    0  0.00000000000E+00  0.00000000000E+00  0.51696143301E+03  0.51696143301E+03  0.00000000000E+00 0.  1.
         22   -1    0    0    0    0 -0.00000000000E+00 -0.00000000000E+00 -0.28637566454E+03  0.28637566454E+03  0.00000000000E+00 0.  1.
         24    2    1    2    0    0  0.28023376319E+02  0.17920777545E+02 -0.25287358536E+03  0.26696689835E+03  0.78865776823E+02 0.  0.
         25    2    1    2    0    0 -0.53185705428E+02 -0.35233307485E+02  0.22727749676E+03  0.26715965384E+03  0.12509642237E+03 0.  0.
        -24    2    1    2    0    0  0.25162329109E+02  0.17312529941E+02  0.25618185708E+03  0.26921054536E+03  0.76891529685E+02 0.  0.
        -11    1    3    3    0    0  0.20517520405E+02  0.42932811061E+02 -0.21945972858E+03  0.22455905098E+03  0.00000000000E+00 0.  1.
         12    1    3    3    0    0  0.75058559136E+01 -0.25012033517E+02 -0.33413856785E+02  0.42407847374E+02  0.00000000000E+00 0. -1.
         11    1    5    5    0    0  0.19941918978E+02 -0.21745299120E+02  0.41365208102E+02  0.50809631052E+02  0.00000000000E+00 0. -1.
        -12    1    5    5    0    0  0.52204101315E+01  0.39057829061E+02  0.21481664897E+03  0.21840091430E+03  0.00000000000E+00 0.  1.
          5    1    4    4  501    0 -0.66592648998E+02  0.13048201732E+02  0.19714710363E+03  0.20854085772E+03  0.41800000000E+01 0.  1.
         -5    1    4    4    0  501  0.13406943570E+02 -0.48281509217E+02  0.30130393123E+02  0.58618796115E+02  0.41800000000E+01 0.  1.
</event>
<event>
11    1  0.6763327E-009  0.2051525E+03  0.7561462E-02  0.1050939E+00
         22   -1    0    0    0    0  0.00000000000E+00  0.00000000000E+00  0.11951035237E+04  0.11951035237E+04  0.00000000000E+00 0.  1.
         22   -1    0    0    0    0 -0.00000000000E+00 -0.00000000000E+00 -0.88223645049E+02  0.88223645049E+02  0.00000000000E+00 0.  1.
         24    2    1    2    0    0 -0.69039515056E+01 -0.49245457763E+02 -0.16951450009E+02  0.93882179788E+02  0.77805734800E+02 0.  0.
         25    2    1    2    0    0  0.91383739993E+02 -0.11099407005E+03  0.50900664855E+03  0.54351261776E+03  0.12509007107E+03 0.  0.
        -24    2    1    2    0    0 -0.84479788488E+02  0.16023952781E+03  0.61482468008E+03  0.64593237116E+03  0.80035616731E+02 0.  0.
        -11    1    3    3    0    0 -0.84130434718E+01 -0.27163165915E+02 -0.47976756340E+02  0.55770834958E+02  0.00000000000E+00 0.  1.
         12    1    3    3    0    0  0.15090919662E+01 -0.22082291849E+02  0.31025306331E+02  0.38111344830E+02  0.00000000000E+00 0. -1.
         11    1    5    5    0    0 -0.97562171550E+02  0.13689008232E+03  0.48293978442E+03  0.51135907866E+03  0.00000000000E+00 0. -1.
        -12    1    5    5    0    0  0.13082383062E+02  0.23349445493E+02  0.13188489566E+03  0.13457329250E+03  0.00000000000E+00 0.  1.
          5    1    4    4  501    0  0.76908450915E+02 -0.19100075876E+02  0.35315028664E+03  0.36195624055E+03  0.41800000000E+01 0. -1.
         -5    1    4    4    0  501  0.14475289078E+02 -0.91893994172E+02  0.15585636191E+03  0.18155637721E+03  0.41800000000E+01 0. -1.
</event>
<event>
11    1  0.6763327E-009  0.2999335E+03  0.7561462E-02  0.1000219E+00
         22   -1    0    0    0    0  0.00000000000E+00  0.00000000000E+00  0.67091830014E+02  0.67091830014E+02  0.00000000000E+00 0. -1.
         22   -1    0    0    0    0 -0.00000000000E+00 -0.00000000000E+00 -0.28899436721E+04  0.28899436721E+04  0.00000000000E+00 0. -1.
         24    2    1    2    0    0 -0.23172299536E+03 -0.22453553718E+03 -0.16741498254E+04  0.17065924421E+04  0.74621521749E+02 0.  0.
         25    2    1    2    0    0  0.20385073985E+02  0.23383134169E+03 -0.67350688022E+03  0.72412132691E+03  0.12509009063E+03 0.  0.
        -24    2    1    2    0    0  0.21133792138E+03 -0.92958045134E+01 -0.47519513646E+03  0.52632173311E+03  0.80336915751E+02 0.  0.
        -13    1    3    3    0    0 -0.20394422287E+03 -0.19604326669E+03 -0.13053158191E+04  0.13356180577E+04  0.00000000000E+00 0.  1.
         14    1    3    3    0    0 -0.27778772495E+02 -0.28492270487E+02 -0.36883400630E+03  0.37097438440E+03  0.00000000000E+00 0. -1.
         13    1    5    5    0    0  0.13355581832E+03  0.28501909103E+02 -0.24615613582E+03  0.28150019295E+03  0.00000000000E+00 0. -1.
        -14    1    5    5    0    0  0.77782103058E+02 -0.37797713617E+02 -0.22903900063E+03  0.24482154015E+03  0.00000000000E+00 0.  1.
          5    1    4    4  501    0 -0.39437831025E+02  0.16488651729E+03 -0.36709963621E+03  0.40437918023E+03  0.41800000000E+01 0.  1.
         -5    1    4    4    0  501  0.59822905010E+02  0.68944824401E+02 -0.30640724401E+03  0.31974214668E+03  0.41800000000E+01 0.  1.
</event>
<event>
11    1  0.6763327E-009  0.1309356E+03  0.7561462E-02  0.1118125E+00
         22   -1    0    0    0    0  0.00000000000E+00  0.00000000000E+00  0.74724572614E+03  0.74724572614E+03  0.00000000000E+00 0.  1.
         22   -1    0    0    0    0 -0.00000000000E+00 -0.00000000000E+00 -0.11502664333E+04  0.11502664333E+04  0.00000000000E+00 0. -1.
        -24    2    1    2    0    0  0.13862906754E+02 -0.36518179054E+02 -0.11068156408E+04  0.11104141944E+04  0.80330957120E+02 0.  0.
         25    2    1    2    0    0 -0.13023336579E+02  0.13456800771E+02  0.64290926649E+02  0.14188556831E+03  0.12508996148E+03 0.  0.
         24    2    1    2    0    0 -0.83957017486E+00  0.23061378283E+02  0.63950400699E+03  0.64521239680E+03  0.82468963782E+02 0.  0.
        -11    1    5    5    0    0  0.22361146560E+02 -0.20682296849E+02  0.36576770454E+03  0.36703377496E+03  0.00000000000E+00 0.  1.
         12    1    5    5    0    0 -0.23200716735E+02  0.43743675132E+02  0.27373630245E+03  0.27817862184E+03  0.00000000000E+00 0. -1.
         11    1    3    3    0    0  0.26025246423E+02 -0.46971021977E+02 -0.10501746261E+04  0.10515466398E+04  0.00000000000E+00 0. -1.
        -12    1    3    3    0    0 -0.12162339670E+02  0.10452842923E+02 -0.56641014748E+02  0.58867554588E+02  0.00000000000E+00 0.  1.
          5    1    4    4  501    0 -0.64887853027E+02  0.26920069581E+02  0.49823107759E+02  0.86226087024E+02  0.41800000000E+01 0.  1.
         -5    1    4    4    0  501  0.51864516448E+02 -0.13463268810E+02  0.14467818890E+02  0.55659481285E+02  0.41800000000E+01 0.  1.
</event>
<event>
11    1  0.6763327E-009  0.1965774E+03  0.7561462E-02  0.1056971E+00
         22   -1    0    0    0    0  0.00000000000E+00  0.00000000000E+00  0.29493365896E+03  0.29493365896E+03  0.00000000000E+00 0.  1.
         22   -1    0    0    0    0 -0.00000000000E+00 -0.00000000000E+00 -0.30992847364E+04  0.30992847364E+04  0.00000000000E+00 0.  1.
         24    2    1    2    0    0  0.31501515508E+01 -0.67195119819E+01 -0.20546168433E+04  0.20566819429E+04  0.91843160420E+02 0.  0.
         25    2    1    2    0    0  0.39649723291E+02  0.15205926486E+03 -0.10087963214E+04  0.10285966613E+04  0.12508778077E+03 0.  0.
        -24    2    1    2    0    0 -0.42799874842E+02 -0.14533975288E+03  0.25906208733E+03  0.30893979115E+03  0.73315458203E+02 0.  0.
        -13    1    3    3    0    0  0.46269630544E+02 -0.36349628861E+01 -0.82402205692E+03  0.82532808141E+03  0.00000000000E+00 0.  1.
         14    1    3    3    0    0 -0.43119478993E+02 -0.30845490959E+01 -0.12305947864E+04  0.12313538615E+04  0.00000000000E+00 0. -1.
         13    1    5    5    0    0  0.62977008887E+01  0.62336883671E+01  0.16535772394E+02  0.18760375151E+02  0.00000000000E+00 0. -1.
        -14    1    5    5    0    0 -0.49097575730E+02 -0.15157344125E+03  0.24252631494E+03  0.29017941600E+03  0.00000000000E+00 0.  1.
          5    1    4    4  501    0  0.54082012899E+02  0.16904770030E+03 -0.91806644414E+03  0.93507510787E+03  0.41800000000E+01 0. -1.
         -5    1    4    4    0  501 -0.14432289608E+02 -0.16988435433E+02 -0.90729877290E+02  0.93521553424E+02  0.41800000000E+01 0. -1.
</event>
<event>
11    1  0.6763327E-009  0.1459064E+03  0.7561462E-02  0.1101137E+00
         22   -1    0    0    0    0  0.00000000000E+00  0.00000000000E+00  0.75751005148E+03  0.75751005148E+03  0.00000000000E+00 0.  1.
         22   -1    0    0    0    0 -0.00000000000E+00 -0.00000000000E+00 -0.23613133291E+03  0.23613133291E+03  0.00000000000E+00 0. -1.
        -24    2    1    2    0    0  0.73339734397E+01 -0.75299561148E+02 -0.18271066844E+03  0.21325729562E+03  0.79822770541E+02 0.  0.
         25    2    1    2    0    0  0.54203104084E+02  0.72430125650E+02  0.14091921863E+03  0.20902124098E+03  0.12509018111E+03 0.  0.
         24    2    1    2    0    0 -0.61537077524E+02  0.28694354976E+01  0.56317016839E+03  0.57136284780E+03  0.74160769337E+02 0.  0.
        -11    1    5    5    0    0 -0.47641483705E+02  0.28102014764E+02  0.21492476521E+03  0.22192811652E+03  0.00000000000E+00 0.  1.
         12    1    5    5    0    0 -0.13895593818E+02 -0.25232579266E+02  0.34824540318E+03  0.34943473127E+03  0.00000000000E+00 0. -1.
         11    1    3    3    0    0  0.10417300988E+02 -0.72126154178E+02 -0.19068597646E+03  0.20413682641E+03  0.00000000000E+00 0. -1.
        -12    1    3    3    0    0 -0.30833275483E+01 -0.31734069697E+01  0.79753080220E+01  0.91204692101E+01  0.00000000000E+00 0.  1.
          5    1    4    4  501    0  0.57499105455E+02  0.10378615518E+03  0.89979918097E+02  0.14896835636E+03  0.41800000000E+01 0. -1.
         -5    1    4    4    0  501 -0.32960013706E+01 -0.31356029532E+02  0.50939300529E+02  0.60052884622E+02  0.41800000000E+01 0. -1.
</event>
<event>
11    1  0.6763327E-009  0.1424007E+03  0.7561462E-02  0.1104907E+00
         22   -1    0    0    0    0  0.00000000000E+00  0.00000000000E+00  0.65277478613E+03  0.65277478613E+03  0.00000000000E+00 0.  1.
         22   -1    0    0    0    0 -0.00000000000E+00 -0.00000000000E+00 -0.74740952764E+03  0.74740952764E+03  0.00000000000E+00 0. -1.
         24    2    1    2    0    0  0.70881420022E+02 -0.42319056444E+01 -0.69742423957E+03  0.70564131568E+03  0.80541987380E+02 0.  0.
         25    2    1    2    0    0  0.12288570897E+01  0.16952259442E+01  0.55029973813E+02  0.13667768442E+03  0.12509239594E+03 0.  0.
        -24    2    1    2    0    0 -0.72110277111E+02  0.25366797002E+01  0.54775952425E+03  0.55786531366E+03  0.77245614573E+02 0.  0.
        -13    1    3    3    0    0  0.12349321128E+02 -0.16506349518E+02 -0.47103572610E+03  0.47148660699E+03  0.00000000000E+00 0.  1.
         14    1    3    3    0    0  0.58532098893E+02  0.12274443874E+02 -0.22638851347E+03  0.23415470869E+03  0.00000000000E+00 0. -1.
         13    1    5    5    0    0 -0.61631828423E+02 -0.23458173505E+02  0.24200829077E+03  0.25083217692E+03  0.00000000000E+00 0. -1.
        -14    1    5    5    0    0 -0.10478448688E+02  0.25994853205E+02  0.30575123349E+03  0.30703313674E+03  0.00000000000E+00 0.  1.
          5    1    4    4  501    0  0.29839066109E+02  0.46090830955E+02  0.62359572183E+02  0.83192086206E+02  0.41800000000E+01 0. -1.
         -5    1    4    4    0  501 -0.28610209019E+02 -0.44395605011E+02 -0.73295983704E+01  0.53485598218E+02  0.41800000000E+01 0. -1.
</event>
<event>
11    1  0.6763327E-009  0.1659651E+03  0.7561462E-02  0.1081597E+00
         22   -1    0    0    0    0  0.00000000000E+00  0.00000000000E+00  0.11186863078E+03  0.11186863078E+03  0.00000000000E+00 0.  1.
         22   -1    0    0    0    0 -0.00000000000E+00 -0.00000000000E+00 -0.20482033982E+04  0.20482033982E+04  0.00000000000E+00 0. -1.
        -24    2    1    2    0    0 -0.15450500708E+02 -0.21135737902E+02 -0.13326481385E+04  0.13352839307E+04  0.79666035724E+02 0.  0.
         25    2    1    2    0    0 -0.93043095741E+02  0.38239487907E+02 -0.65865525174E+03  0.67793314263E+03  0.12508928468E+03 0.  0.
         24    2    1    2    0    0  0.10849359645E+03 -0.17103750006E+02  0.54968622807E+02  0.14685495561E+03  0.80507327361E+02 0.  0.
        -11    1    5    5    0    0  0.11556275350E+03 -0.29604619458E+02  0.39301683964E+02  0.12560177488E+03  0.00000000000E+00 0.  1.
         12    1    5    5    0    0 -0.70691570513E+01  0.12500869452E+02  0.15666938844E+02  0.21253180732E+02  0.00000000000E+00 0. -1.
         11    1    3    3    0    0  0.28041260192E+02  0.61883438129E+01 -0.68528328037E+03  0.68588467123E+03  0.00000000000E+00 0. -1.
        -12    1    3    3    0    0 -0.43491760900E+02 -0.27324081715E+02 -0.64736485813E+03  0.64939925951E+03  0.00000000000E+00 0.  1.
          5    1    4    4  501    0 -0.86895292666E+02 -0.28590030584E+02 -0.42741847326E+03  0.43711806806E+03  0.41800000000E+01 0. -1.
         -5    1    4    4    0  501 -0.61478030752E+01  0.66829518491E+02 -0.23123677847E+03  0.24081507458E+03  0.41800000000E+01 0. -1.
</event>
<event>
11    1  0.6763327E-009  0.1491940E+03  0.7561462E-02  0.1097705E+00
         22   -1    0    0    0    0  0.00000000000E+00  0.00000000000E+00  0.28454240646E+03  0.28454240646E+03  0.00000000000E+00 0.  1.
         22   -1    0    0    0    0 -0.00000000000E+00 -0.00000000000E+00 -0.10398057810E+04  0.10398057810E+04  0.00000000000E+00 0. -1.
         24    2    1    2    0    0  0.17523845046E+02  0.29362578310E+01 -0.96134974063E+03  0.96476624986E+03  0.79151034794E+02 0.  0.
         25    2    1    2    0    0  0.56532857617E+02 -0.43296021181E+02  0.26470216156E+02  0.14634929988E+03  0.12508771239E+03 0.  0.
        -24    2    1    2    0    0 -0.74056702663E+02  0.40359763350E+02  0.17961614991E+03  0.21323263775E+03  0.78056971420E+02 0.  0.
        -11    1    3    3    0    0  0.44024778614E+01  0.33859313206E+02 -0.21798518372E+03  0.22064309467E+03  0.00000000000E+00 0.  1.
         12    1    3    3    0    0  0.13121367184E+02 -0.30923055375E+02 -0.74336455690E+03  0.74412315519E+03  0.00000000000E+00 0. -1.
         11    1    5    5    0    0 -0.29827553827E+02  0.31965085293E+02  0.21285811648E+02  0.48626488898E+02  0.00000000000E+00 0. -1.
        -12    1    5    5    0    0 -0.44229148836E+02  0.83946780569E+01  0.15833033826E+03  0.16460614885E+03  0.00000000000E+00 0.  1.
          5    1    4    4  501    0  0.26539904952E+02 -0.73294821554E+02 -0.22678220869E+02  0.81291275812E+02  0.41800000000E+01 0.  1.
         -5    1    4    4    0  501  0.29992952665E+02  0.29998800373E+02  0.49148437025E+02  0.65058024066E+02  0.41800000000E+01 0.  1.
</event>
<event>
11    1  0.6763327E-009  0.1545137E+03  0.7561462E-02  0.1092354E+00
         22   -1    0    0    0    0  0.00000000000E+00  0.00000000000E+00  0.67110476024E+03  0.67110476024E+03  0.00000000000E+00 0. -1.
         22   -1    0    0    0    0 -0.00000000000E+00 -0.00000000000E+00 -0.15676464562E+03  0.15676464562E+03  0.00000000000E+00 0. -1.
         24    2    1    2    0    0  0.12437980210E+02 -0.39087966940E+02 -0.94048246233E+02  0.13033387830E+03  0.80369613045E+02 0.  0.
         25    2    1    2    0    0 -0.61433872736E+02  0.10741830185E+03  0.17187852124E+03  0.24597649846E+03  0.12509755969E+03 0.  0.
        -24    2    1    2    0    0  0.48995892526E+02 -0.68330334913E+02  0.43650983960E+03  0.45155902910E+03  0.79341568791E+02 0.  0.
        -11    1    3    3    0    0  0.25103327608E+02  0.15318571408E+02 -0.13618647963E+02  0.32408382547E+02  0.00000000000E+00 0.  1.
         12    1    3    3    0    0 -0.12665347399E+02 -0.54406538348E+02 -0.80429598270E+02  0.97925495749E+02  0.00000000000E+00 0. -1.
         13    1    5    5    0    0 -0.19533618657E+02 -0.32345290460E+02  0.16172893907E+03  0.16608440567E+03  0.00000000000E+00 0. -1.
        -14    1    5    5    0    0  0.68529511183E+02 -0.35985044454E+02  0.27478090053E+03  0.28547462343E+03  0.00000000000E+00 0.  1.
          5    1    4    4  501    0  0.17991838749E+02  0.84594162172E+02  0.12117386963E+03  0.14893104988E+03  0.41800000000E+01 0. -1.
         -5    1    4    4    0  501 -0.79425711485E+02  0.22824139681E+02  0.50704651608E+02  0.97045448589E+02  0.41800000000E+01 0. -1.
</event>
<event>
11    1  0.6763327E-009  0.1283736E+03  0.7561462E-02  0.1121284E+00
         22   -1    0    0    0    0  0.00000000000E+00  0.00000000000E+00  0.75359450605E+02  0.75359450605E+02  0.00000000000E+00 0. -1.
         22   -1    0    0    0    0 -0.00000000000E+00 -0.00000000000E+00 -0.29604687576E+04  0.29604687576E+04  0.00000000000E+00 0.  1.
         24    2    1    2    0    0  0.28954259851E+01 -0.27563126944E+02 -0.25072722162E+04  0.25087128979E+04  0.80363723799E+02 0.  0.
         25    2    1    2    0    0  0.25287149251E+02  0.47586228150E+02 -0.42388561788E+03  0.44523063826E+03  0.12508962854E+03 0.  0.
        -24    2    1    2    0    0 -0.28182575236E+02 -0.20023101206E+02  0.46048527162E+02  0.81884672054E+02  0.58218987751E+02 0.  0.
        -11    1    3    3    0    0  0.30919870079E+02 -0.97310034303E+01 -0.20416751835E+04  0.20419324880E+04  0.00000000000E+00 0.  1.
         12    1    3    3    0    0 -0.28024444094E+02 -0.17832123513E+02 -0.46559703278E+03  0.46678040986E+03  0.00000000000E+00 0. -1.
         13    1    5    5    0    0 -0.80163229071E+01 -0.35922729956E+02  0.42070044184E+02  0.55898055226E+02  0.00000000000E+00 0. -1.
        -14    1    5    5    0    0 -0.20166252329E+02  0.15899628750E+02  0.39784829784E+01  0.25986616828E+02  0.00000000000E+00 0.  1.
          5    1    4    4  501    0  0.31650318990E+02  0.83758266853E+02 -0.36384350147E+03  0.37472223835E+03  0.41800000000E+01 0.  1.
         -5    1    4    4    0  501 -0.63631697397E+01 -0.36172038703E+02 -0.60042116416E+02  0.70508399902E+02  0.41800000000E+01 0.  1.
</event>
<event>
11    1  0.6763327E-009  0.1540656E+03  0.7561462E-02  0.1092795E+00
         22   -1    0    0    0    0  0.00000000000E+00  0.00000000000E+00  0.93608583318E+03  0.93608583318E+03  0.00000000000E+00 0.  1.
         22   -1    0    0    0    0 -0.00000000000E+00 -0.00000000000E+00 -0.41719878160E+03  0.41719878160E+03  0.00000000000E+00 0. -1.
        -24    2    1    2    0    0 -0.29825225480E+02 -0.63473658083E+01 -0.39101396904E+03  0.40168041895E+03  0.86749074085E+02 0.  0.
         25    2    1    2    0    0 -0.39523805629E+02  0.74832239558E+02  0.54114945899E+03  0.56182940631E+03  0.12509016565E+03 0.  0.
         24    2    1    2    0    0  0.69349031109E+02 -0.68484873750E+02  0.36875156164E+03  0.38977478951E+03  0.80294497199E+02 0.  0.
        -11    1    5    5    0    0  0.33326181578E+02 -0.77810871656E+02  0.29859006289E+03  0.31035655589E+03  0.00000000000E+00 0.  1.
         12    1    5    5    0    0  0.36022849532E+02  0.93259979059E+01  0.70161498749E+02  0.79418233624E+02  0.00000000000E+00 0. -1.
         11    1    3    3    0    0  0.16514331211E+02  0.15477450376E+02 -0.26040121391E+03  0.26138298876E+03  0.00000000000E+00 0. -1.
        -12    1    3    3    0    0 -0.46339556691E+02 -0.21824816184E+02 -0.13061275513E+03  0.14029743019E+03  0.00000000000E+00 0.  1.
          5    1    4    4  501    0 -0.50283017040E+02  0.10086458239E+03  0.32936598142E+03  0.34814001192E+03  0.41800000000E+01 0. -1.
         -5    1    4    4    0  501  0.10759211411E+02 -0.26032342830E+02  0.21178347757E+03  0.21368939439E+03  0.41800000000E+01 0. -1.
</event>
<event>
11    1  0.6763327E-009  0.1395123E+03  0.7561462E-02  0.1108104E+00
         22   -1    0    0    0    0  0.00000000000E+00  0.00000000000E+00  0.76120444981E+03  0.76120444981E+03  0.00000000000E+00 0. -1.
         22   -1    0    0    0    0 -0.00000000000E+00 -0.00000000000E+00 -0.43491824933E+03  0.43491824933E+03  0.00000000000E+00 0.  1.
        -24    2    1    2    0    0  0.60368846053E+02 -0.30293678561E+02 -0.33164266960E+03  0.34783025661E+03  0.80230434266E+02 0.  0.
         25    2    1    2    0    0 -0.43150094713E+02 -0.37020725685E+02 -0.39706798103E+02  0.14302490608E+03  0.12508808552E+03 0.  0.
         24    2    1    2    0    0 -0.17218751340E+02  0.67314404246E+02  0.69763566818E+03  0.70526753645E+03  0.76675015741E+02 0.  0.
        -11    1    5    5    0    0  0.63811201284E+01  0.70161632304E+02  0.36203962368E+03  0.36883066908E+03  0.00000000000E+00 0.  1.
         12    1    5    5    0    0 -0.23599871468E+02 -0.28472280579E+01  0.33559604450E+03  0.33643686737E+03  0.00000000000E+00 0. -1.
         11    1    3    3    0    0  0.21450832940E+01  0.99979958234E+01 -0.16879545439E+01  0.10363903385E+02  0.00000000000E+00 0. -1.
        -12    1    3    3    0    0  0.58223762759E+02 -0.40291674385E+02 -0.32995471505E+03  0.33746635323E+03  0.00000000000E+00 0.  1.
          5    1    4    4  501    0  0.14932954510E+02  0.31606507675E+02  0.14368818876E+02  0.38024989332E+02  0.41800000000E+01 0.  1.
         -5    1    4    4    0  501 -0.58083049223E+02 -0.68627233360E+02 -0.54075616980E+02  0.10499991675E+03  0.41800000000E+01 0.  1.
</event>
<event>
11    1  0.6763327E-009  0.1485785E+03  0.7561462E-02  0.1098340E+00
         22   -1    0    0    0    0  0.00000000000E+00  0.00000000000E+00  0.65734377766E+03  0.65734377766E+03  0.00000000000E+00 0.  1.
         22   -1    0    0    0    0 -0.00000000000E+00 -0.00000000000E+00 -0.86103097829E+03  0.86103097829E+03  0.00000000000E+00 0. -1.
         24    2    1    2    0    0 -0.66762564213E+02  0.70173319387E+02 -0.53544666444E+03  0.54974847713E+03  0.78350002600E+02 0.  0.
         25    2    1    2    0    0  0.22812120626E+02 -0.42538247719E+02 -0.30058936567E+03  0.32913657136E+03  0.12508805094E+03 0.  0.
        -24    2    1    2    0    0  0.43950443588E+02 -0.27635071668E+02  0.63234882948E+03  0.63948970747E+03  0.79916863857E+02 0.  0.
        -13    1    3    3    0    0 -0.14913861199E+02 -0.10082803246E+02 -0.27330099767E+02  0.32726450013E+02  0.00000000000E+00 0.  1.
         14    1    3    3    0    0 -0.51848703015E+02  0.80256122633E+02 -0.50811656468E+03  0.51702202712E+03  0.00000000000E+00 0. -1.
         11    1    5    5    0    0 -0.23583640720E+02 -0.53579860810E+01  0.16214138549E+03  0.16393512441E+03  0.00000000000E+00 0. -1.
        -12    1    5    5    0    0  0.67534084308E+02 -0.22277085587E+02  0.47020744399E+03  0.47555458306E+03  0.00000000000E+00 0.  1.
          5    1    4    4  501    0  0.39457837367E+02 -0.39453135339E+02 -0.42009911239E+02  0.69969821066E+02  0.41800000000E+01 0. -1.
         -5    1    4    4    0  501 -0.16645716741E+02 -0.30851123796E+01 -0.25857945443E+03  0.25916675030E+03  0.41800000000E+01 0. -1.
</event>
<event>
11    1  0.6763327E-009  0.1389106E+03  0.7561462E-02  0.1108781E+00
         22   -1    0    0    0    0  0.00000000000E+00  0.00000000000E+00  0.87079862489E+03  0.87079862489E+03  0.00000000000E+00 0. -1.
         22   -1    0    0    0    0 -0.00000000000E+00 -0.00000000000E+00 -0.65039756820E+02  0.65039756820E+02  0.00000000000E+00 0.  1.
        -24    2    1    2    0    0  0.82782821147E+01 -0.42888195392E+02  0.23547754675E+02  0.94432104383E+02  0.80343004233E+02 0.  0.
         25    2    1    2    0    0 -0.67362847757E+02  0.32530257682E+02  0.18366327536E+03  0.23446748825E+03  0.12508730314E+03 0.  0.
         24    2    1    2    0    0  0.59084565642E+02  0.10357937710E+02  0.59854783803E+03  0.60693878907E+03  0.80727359083E+02 0.  0.
        -11    1    5    5    0    0 -0.17553083218E+02 -0.11290761191E+02  0.11555160539E+03  0.11742131632E+03  0.00000000000E+00 0.  1.
         12    1    5    5    0    0  0.76637648860E+02  0.21648698901E+02  0.48299623264E+03  0.48951747275E+03  0.00000000000E+00 0. -1.
         13    1    3    3    0    0  0.54700079995E+01 -0.32266717748E+02  0.53395275243E+02  0.62626811192E+02  0.00000000000E+00 0. -1.
        -14    1    3    3    0    0  0.28082741151E+01 -0.10621477644E+02 -0.29847520569E+02  0.31805293191E+02  0.00000000000E+00 0.  1.
          5    1    4    4  501    0  0.26466798675E+01  0.65400802925E+02  0.62080613746E+02  0.90309163104E+02  0.41800000000E+01 0.  1.
         -5    1    4    4    0  501 -0.70009527624E+02 -0.32870545243E+02  0.12158266162E+03  0.14415832515E+03  0.41800000000E+01 0.  1.
</event>
<event>
11    1  0.6763327E-009  0.2690043E+03  0.7561462E-02  0.1014236E+00
         22   -1    0    0    0    0  0.00000000000E+00  0.00000000000E+00  0.13730456014E+04  0.13730456014E+04  0.00000000000E+00 0. -1.
         22   -1    0    0    0    0 -0.00000000000E+00 -0.00000000000E+00 -0.24558533628E+04  0.24558533628E+04  0.00000000000E+00 0.  1.
         24    2    1    2    0    0  0.42980087574E+02  0.13068187089E+02 -0.23947224805E+04  0.23963646692E+04  0.76484007671E+02 0.  0.
         25    2    1    2    0    0  0.40913569376E+02 -0.23645739748E+03  0.37438183915E+03  0.46194685436E+03  0.12508842387E+03 0.  0.
        -24    2    1    2    0    0 -0.83893656950E+02  0.22338921039E+03  0.93753288006E+03  0.97058744069E+03  0.78301940203E+02 0.  0.
        -11    1    3    3    0    0  0.40357077144E+02  0.18668825069E+02 -0.23797476144E+04  0.23801630042E+04  0.00000000000E+00 0.  1.
         12    1    3    3    0    0  0.26230104301E+01 -0.56006379806E+01 -0.14974866158E+02  0.16201664913E+02  0.00000000000E+00 0. -1.
         11    1    5    5    0    0  0.98877056102E+01  0.66932521936E+02  0.29533392818E+03  0.30298491439E+03  0.00000000000E+00 0. -1.
        -12    1    5    5    0    0 -0.93781362560E+02  0.15645668845E+03  0.64219895188E+03  0.66760252630E+03  0.00000000000E+00 0.  1.
          5    1    4    4  501    0 -0.24216108246E+02 -0.20204155496E+01  0.18533447739E+02  0.30845794895E+02  0.41800000000E+01 0. -1.
         -5    1    4    4    0  501  0.65129677622E+02 -0.23443698193E+03  0.35584839141E+03  0.43110105947E+03  0.41800000000E+01 0. -1.
</event>
<event>
11    1  0.6763327E-009  0.2545808E+03  0.7561462E-02  0.1021487E+00
         22   -1    0    0    0    0  0.00000000000E+00  0.00000000000E+00  0.54258153275E+03  0.54258153275E+03  0.00000000000E+00 0. -1.
         22   -1    0    0    0    0 -0.00000000000E+00 -0.00000000000E+00 -0.42764877880E+03  0.42764877880E+03  0.00000000000E+00 0.  1.
         24    2    1    2    0    0 -0.80038956011E+01  0.51568615975E+02 -0.26154261231E+03  0.27793814535E+03  0.78241230104E+02 0.  0.
         25    2    1    2    0    0 -0.56727222645E+02 -0.25270396569E+03  0.45598899551E+02  0.29121652083E+03  0.12510207952E+03 0.  0.
        -24    2    1    2    0    0  0.64731118246E+02  0.20113534971E+03  0.33087646671E+03  0.40107564537E+03  0.82078563066E+02 0.  0.
        -13    1    3    3    0    0  0.34303724714E+01  0.17638342926E+02 -0.22853402512E+03  0.22923934923E+03  0.00000000000E+00 0.  1.
         14    1    3    3    0    0 -0.11434268072E+02  0.33930273049E+02 -0.33008587190E+02  0.48698796123E+02  0.00000000000E+00 0. -1.
         13    1    5    5    0    0  0.79817871611E+02  0.12382742617E+03  0.20159143535E+03  0.24968626495E+03  0.00000000000E+00 0. -1.
        -14    1    5    5    0    0 -0.15086753365E+02  0.77307923540E+02  0.12928503136E+03  0.15138938042E+03  0.00000000000E+00 0.  1.
          5    1    4    4  501    0 -0.79295396112E+02 -0.85634865457E+02  0.10327355203E+01  0.11678882211E+03  0.41800000000E+01 0.  1.
         -5    1    4    4    0  501  0.22568173467E+02 -0.16706910023E+03  0.44566164031E+02  0.17442769872E+03  0.41800000000E+01 0.  1.
</event>
<event>
11    1  0.6763327E-009  0.1305976E+03  0.7561462E-02  0.1118537E+00
         22   -1    0    0    0    0  0.00000000000E+00  0.00000000000E+00  0.71125778857E+02  0.71125778857E+02  0.00000000000E+00 0. -1.
         22   -1    0    0    0    0 -0.00000000000E+00 -0.00000000000E+00 -0.56363654513E+03  0.56363654513E+03  0.00000000000E+00 0.  1.
         24    2    1    2    0    0 -0.26830800538E+02  0.20387994802E+02 -0.33022311412E+03  0.34138268063E+03  0.79745014543E+02 0.  0.
         25    2    1    2    0    0  0.51529956709E+02 -0.22122754598E+02 -0.16001873413E+03  0.21071083088E+03  0.12509319033E+03 0.  0.
        -24    2    1    2    0    0 -0.24699156171E+02  0.17347597958E+01 -0.22689180251E+01  0.82668812482E+02  0.78841149542E+02 0.  0.
        -11    1    3    3    0    0 -0.16469637446E+02  0.86870759584E+01 -0.32404081579E+03  0.32457536035E+03  0.00000000000E+00 0.  1.
         12    1    3    3    0    0 -0.10361163092E+02  0.11700918844E+02 -0.61822983295E+01  0.16807320281E+02  0.00000000000E+00 0. -1.
         13    1    5    5    0    0 -0.28046640352E+02 -0.17394568593E+02  0.30265414745E+02  0.44779240516E+02  0.00000000000E+00 0. -1.
        -14    1    5    5    0    0  0.33474841808E+01  0.19129328389E+02 -0.32534332770E+02  0.37889571965E+02  0.00000000000E+00 0.  1.
          5    1    4    4  501    0  0.12922208510E+02 -0.27887137468E+02  0.12750781787E+02  0.33537005607E+02  0.41800000000E+01 0.  1.
         -5    1    4    4    0  501  0.38607748199E+02  0.57643828701E+01 -0.17276951592E+03  0.17717382527E+03  0.41800000000E+01 0.  1.
</event>
<event>
11    1  0.6763327E-009  0.1394615E+03  0.7561462E-02  0.1108161E+00
         22   -1    0    0    0    0  0.00000000000E+00  0.00000000000E+00  0.73443344568E+03  0.73443344568E+03  0.00000000000E+00 0. -1.
         22   -1    0    0    0    0 -0.00000000000E+00 -0.00000000000E+00 -0.21981777815E+03  0.21981777815E+03  0.00000000000E+00 0. -1.
         24    2    1    2    0    0 -0.37573958808E+02  0.46844874188E+02 -0.15224925259E+03  0.18205806854E+03  0.79743719415E+02 0.  0.
         25    2    1    2    0    0  0.84466908614E+02 -0.24891569055E+02  0.70898003433E+02  0.16860849215E+03  0.12509215752E+03 0.  0.
        -24    2    1    2    0    0 -0.46892949806E+02 -0.21953305133E+02  0.59596691669E+03  0.60358466314E+03  0.80355357264E+02 0.  0.
        -11    1    3    3    0    0 -0.35720343728E+02  0.17908017996E+01 -0.17212552230E+02  0.39691584517E+02  0.00000000000E+00 0.  1.
         12    1    3    3    0    0 -0.18536150794E+01  0.45054072388E+02 -0.13503670036E+03  0.14236648402E+03  0.00000000000E+00 0. -1.
         11    1    5    5    0    0  0.68333745249E+01  0.87154734536E+01  0.34244451327E+03  0.34262355312E+03  0.00000000000E+00 0. -1.
        -12    1    5    5    0    0 -0.53726324331E+02 -0.30668778587E+02  0.25352240342E+03  0.26096111002E+03  0.00000000000E+00 0.  1.
          5    1    4    4  501    0 -0.57260607969E+01 -0.34454578180E+02  0.69394935000E+02  0.77801254061E+02  0.41800000000E+01 0.  1.
         -5    1    4    4    0  501  0.90192969411E+02  0.95630091254E+01  0.15030684325E+01  0.90807238089E+02  0.41800000000E+01 0.  1.
</event>
<event>
11    1  0.6763327E-009  0.1445910E+03  0.7561462E-02  0.1102537E+00
         22   -1    0    0    0    0  0.00000000000E+00  0.00000000000E+00  0.47602197716E+02  0.47602197716E+02  0.00000000000E+00 0. -1.
         22   -1    0    0    0    0 -0.00000000000E+00 -0.00000000000E+00 -0.27875997339E+04  0.27875997339E+04  0.00000000000E+00 0. -1.
        -24    2    1    2    0    0  0.72998631727E+02  0.33392209007E+02 -0.22531398094E+04  0.22560053561E+04  0.80481837738E+02 0.  0.
         25    2    1    2    0    0 -0.26862811053E+02 -0.17587180865E+01 -0.45995626966E+03  0.47742235920E+03  0.12509050867E+03 0.  0.
         24    2    1    2    0    0 -0.46135820674E+02 -0.31633490921E+02 -0.26901457067E+02  0.10177421626E+03  0.80654268362E+02 0.  0.
        -11    1    5    5    0    0  0.22901783011E+02 -0.20976831435E+01 -0.79045904804E+01  0.24318192579E+02  0.00000000000E+00 0.  1.
         12    1    5    5    0    0 -0.69037603685E+02 -0.29535807777E+02 -0.18996866587E+02  0.77456023676E+02  0.00000000000E+00 0. -1.
         13    1    3    3    0    0  0.74751104050E+02  0.23578479701E+02 -0.22203630590E+04  0.22217461120E+04  0.00000000000E+00 0. -1.
        -14    1    3    3    0    0 -0.17524723228E+01  0.98137293060E+01 -0.32776750416E+02  0.34259244153E+02  0.00000000000E+00 0.  1.
          5    1    4    4  501    0 -0.35387610675E+02  0.34622011493E+02 -0.41856475519E+03  0.42150313564E+03  0.41800000000E+01 0. -1.
         -5    1    4    4    0  501  0.85247996220E+01 -0.36380729580E+02 -0.41391514470E+02  0.55919223559E+02  0.41800000000E+01 0. -1.
</event>
<event>
11    1  0.6763327E-009  0.2076713E+03  0.7561462E-02  0.1049228E+00
         22   -1    0    0    0    0  0.00000000000E+00  0.00000000000E+00  0.38125844659E+03  0.38125844659E+03  0.00000000000E+00 0. -1.
         22   -1    0    0    0    0 -0.00000000000E+00 -0.00000000000E+00 -0.42777251821E+03  0.42777251821E+03  0.00000000000E+00 0.  1.
        -24    2    1    2    0    0  0.46840967381E+02  0.29377200275E+02 -0.17491724218E+03  0.20024518260E+03  0.80280728814E+02 0.  0.
         25    2    1    2    0    0  0.10814226812E+02 -0.18335059334E+03 -0.15531731139E+03  0.27111871324E+03  0.12508997511E+03 0.  0.
         24    2    1    2    0    0 -0.57655194193E+02  0.15397339307E+03  0.28372048195E+03  0.33766706895E+03  0.80559359401E+02 0.  0.
        -11    1    5    5    0    0 -0.48035431727E+02  0.49618135234E+02  0.63651927738E+02  0.93919805952E+02  0.00000000000E+00 0.  1.
         12    1    5    5    0    0 -0.96197624659E+01  0.10435525783E+03  0.22006855421E+03  0.24374726300E+03  0.00000000000E+00 0. -1.
         11    1    3    3    0    0 -0.22126543617E+02  0.44029284161E+01 -0.57890328737E+02  0.62130989629E+02  0.00000000000E+00 0. -1.
        -12    1    3    3    0    0  0.68967510998E+02  0.24974271859E+02 -0.11702691345E+03  0.13811419297E+03  0.00000000000E+00 0.  1.
          5    1    4    4  501    0  0.66997020121E+02 -0.84205157959E+02 -0.84519097327E+02  0.13689433715E+03  0.41800000000E+01 0. -1.
         -5    1    4    4    0  501 -0.56182793310E+02 -0.99145435384E+02 -0.70798214065E+02  0.13422437609E+03  0.41800000000E+01 0. -1.
</event>
<event>
11    1  0.6763327E-009  0.1593757E+03  0.7561462E-02  0.1087666E+00
         22   -1    0    0    0    0  0.00000000000E+00  0.00000000000E+00  0.11987436463E+04  0.11987436463E+04  0.00000000000E+00 0. -1.
         22   -1    0    0    0    0 -0.00000000000E+00 -0.00000000000E+00 -0.15303192160E+03  0.15303192160E+03  0.00000000000E+00 0. -1.
         24    2    1    2    0    0  0.93303056535E+02  0.41570314421E+02 -0.65758446268E+02  0.14677807884E+03  0.82377665490E+02 0.  0.
         25    2    1    2    0    0 -0.93984129478E+02  0.17927294530E+00  0.92041062666E+02  0.18150687537E+03  0.12506054477E+03 0.  0.
        -24    2    1    2    0    0  0.68107294376E+00 -0.41749587366E+02  0.10194291083E+04  0.10234906137E+04  0.80955775302E+02 0.  0.
        -11    1    3    3    0    0 -0.22737245774E+01 -0.17892047462E+02 -0.14263007298E+02  0.22994098439E+02  0.00000000000E+00 0.  1.
         12    1    3    3    0    0  0.95576781112E+02  0.59462361883E+02 -0.51495438970E+02  0.12378398040E+03  0.00000000000E+00 0. -1.
         13    1    5    5    0    0 -0.16813953236E+02 -0.55000775895E+02  0.45298726708E+03  0.45662376034E+03  0.00000000000E+00 0. -1.
        -14    1    5    5    0    0  0.17495026180E+02  0.13251188529E+02  0.56644184125E+03  0.56686685338E+03  0.00000000000E+00 0.  1.
          5    1    4    4  501    0 -0.11512119059E+03 -0.30123200214E+02  0.73859485688E+02  0.14011777810E+03  0.41800000000E+01 0. -1.
         -5    1    4    4    0  501  0.21137061107E+02  0.30302473159E+02  0.18181576978E+02  0.41389097274E+02  0.41800000000E+01 0. -1.
</event>
<event>
11    1  0.6763327E-009  0.1558638E+03  0.7561462E-02  0.1091033E+00
         22   -1    0    0    0    0  0.00000000000E+00  0.00000000000E+00  0.24802086730E+04  0.24802086730E+04  0.00000000000E+00 0.  1.
         22   -1    0    0    0    0 -0.00000000000E+00 -0.00000000000E+00 -0.56877215289E+02  0.56877215289E+02  0.00000000000E+00 0.  1.
        -24    2    1    2    0    0 -0.29347888462E+02  0.88868332422E+02  0.29031693839E+02  0.12621183340E+03  0.79546895461E+02 0.  0.
         25    2    1    2    0    0 -0.20642171808E+02 -0.96001601184E+02  0.93101896355E+03  0.94450295911E+03  0.12508845905E+03 0.  0.
         24    2    1    2    0    0  0.49990060270E+02  0.71332687619E+01  0.14632808003E+04  0.14663710958E+04  0.80644902579E+02 0.  0.
        -13    1    5    5    0    0  0.50224310119E+02 -0.29645534268E+02  0.87421283322E+03  0.87615604592E+03  0.00000000000E+00 0.  1.
         14    1    5    5    0    0 -0.23424984897E+00  0.36778803030E+02  0.58906796713E+03  0.59021504989E+03  0.00000000000E+00 0. -1.
         13    1    3    3    0    0  0.23954702546E+02  0.29335725296E+02  0.26573042953E+02  0.46265961186E+02  0.00000000000E+00 0. -1.
        -14    1    3    3    0    0 -0.53302591008E+02  0.59532607126E+02  0.24586508867E+01  0.79945872211E+02  0.00000000000E+00 0.  1.
          5    1    4    4  501    0 -0.10949807864E+02 -0.27317530290E+02  0.35543619056E+02  0.46335375352E+02  0.41800000000E+01 0. -1.
         -5    1    4    4    0  501 -0.96923639446E+01 -0.68684070894E+02  0.89547534449E+03  0.89816758376E+03  0.41800000000E+01 0. -1.
</event>
<event>
11    1  0.6763327E-009  0.1324187E+03  0.7561462E-02  0.1116332E+00
         22   -1    0    0    0    0  0.00000000000E+00  0.00000000000E+00  0.32725818517E+02  0.32725818517E+02  0.00000000000E+00 0. -1.
         22   -1    0    0    0    0 -0.00000000000E+00 -0.00000000000E+00 -0.96861652537E+03  0.96861652537E+03  0.00000000000E+00 0.  1.
        -24    2    1    2    0    0  0.19044475942E+01 -0.28859618243E+01 -0.50810761726E+03  0.51406839754E+03  0.77980836932E+02 0.  0.
         25    2    1    2    0    0  0.33514470924E+02 -0.23811717840E+02 -0.31489551974E+03  0.34131750077E+03  0.12509288675E+03 0.  0.
         24    2    1    2    0    0 -0.35418918519E+02  0.26697679664E+02 -0.11288756985E+03  0.14595644558E+03  0.81193686269E+02 0.  0.
        -13    1    5    5    0    0  0.26093153048E+02  0.26412996001E+01 -0.27439343174E+02  0.37957168670E+02  0.00000000000E+00 0.  1.
         14    1    5    5    0    0 -0.61512071567E+02  0.24056380064E+02 -0.85448226680E+02  0.10799927691E+03  0.00000000000E+00 0. -1.
         11    1    3    3    0    0 -0.34371390291E+02  0.15124727059E+02 -0.24166361389E+03  0.24456379969E+03  0.00000000000E+00 0. -1.
        -12    1    3    3    0    0  0.36275837885E+02 -0.18010688883E+02 -0.26644400337E+03  0.26950459785E+03  0.00000000000E+00 0.  1.
          5    1    4    4  501    0  0.30996150430E+01 -0.48546631202E+02 -0.29131560033E+03  0.29537879817E+03  0.41800000000E+01 0.  1.
         -5    1    4    4    0  501  0.30414855881E+02  0.24734913362E+02 -0.23579919409E+02  0.45938702601E+02  0.41800000000E+01 0.  1.
</event>
<event>
11    1  0.6763327E-009  0.1345916E+03  0.7561462E-02  0.1113753E+00
         22   -1    0    0    0    0  0.00000000000E+00  0.00000000000E+00  0.65271679920E+03  0.65271679920E+03  0.00000000000E+00 0.  1.
         22   -1    0    0    0    0 -0.00000000000E+00 -0.00000000000E+00 -0.16920270283E+04  0.16920270283E+04  0.00000000000E+00 0. -1.
         24    2    1    2    0    0 -0.84290681313E+01  0.31279734082E+02 -0.14755103173E+04  0.14780495304E+04  0.80313428287E+02 0.  0.
         25    2    1    2    0    0  0.57187171577E+02 -0.39465119590E+02 -0.18758016775E+03  0.23592965140E+03  0.12509441562E+03 0.  0.
        -24    2    1    2    0    0 -0.48758103445E+02  0.81853855076E+01  0.62378025598E+03  0.63076464573E+03  0.79485076363E+02 0.  0.
        -11    1    3    3    0    0  0.16033531369E+01 -0.16145359893E+02 -0.76592702121E+02  0.78292307449E+02  0.00000000000E+00 0.  1.
         12    1    3    3    0    0 -0.10032421268E+02  0.47425093975E+02 -0.13989176152E+04  0.13997572229E+04  0.00000000000E+00 0. -1.
         13    1    5    5    0    0 -0.53840436810E+02  0.10886830023E+02  0.21378892177E+03  0.22073291276E+03  0.00000000000E+00 0. -1.
        -14    1    5    5    0    0  0.50823333647E+01 -0.27014445152E+01  0.40999133421E+03  0.41003173297E+03  0.00000000000E+00 0.  1.
          5    1    4    4  501    0  0.56193828861E+02 -0.92541872638E+01 -0.19610208607E+03  0.20424712224E+03  0.41800000000E+01 0.  1.
         -5    1    4    4    0  501  0.99334271544E+00 -0.30210932326E+02  0.85219183192E+01  0.31682529154E+02  0.41800000000E+01 0.  1.
</event>
<event>
11    1  0.6763327E-009  0.1432585E+03  0.7561462E-02  0.1103973E+00
         22   -1    0    0    0    0  0.00000000000E+00  0.00000000000E+00  0.26174873393E+04  0.26174873393E+04  0.00000000000E+00 0. -1.
         22   -1    0    0    0    0 -0.00000000000E+00 -0.00000000000E+00 -0.92280594334E+02  0.92280594334E+02  0.00000000000E+00 0. -1.
         24    2    1    2    0    0  0.69638192762E+01 -0.44964331604E+02 -0.56866827751E+02  0.10826580774E+03  0.80108446075E+02 0.  0.
         25    2    1    2    0    0 -0.75658347564E+02  0.41359978583E+02  0.69166200989E+03  0.70815194819E+03  0.12509201580E+03 0.  0.
        -24    2    1    2    0    0  0.68694528288E+02  0.36043530206E+01  0.18904115628E+04  0.18933501777E+04  0.79919265193E+02 0.  0.
        -11    1    3    3    0    0 -0.43826809554E+01 -0.40579932031E+02  0.85717337945E+01  0.41706275262E+02  0.00000000000E+00 0.  1.
         12    1    3    3    0    0  0.11346500232E+02 -0.43843995735E+01 -0.65438561546E+02  0.66559532483E+02  0.00000000000E+00 0. -1.
         11    1    5    5    0    0  0.31418837167E+02 -0.13626056525E+02  0.15627651526E+04  0.15631403440E+04  0.00000000000E+00 0. -1.
        -12    1    5    5    0    0  0.37275691121E+02  0.17230409546E+02  0.32764641023E+03  0.33020983374E+03  0.00000000000E+00 0.  1.
          5    1    4    4  501    0 -0.58710159838E+02  0.80986220673E+02  0.35952122121E+03  0.37320052480E+03  0.41800000000E+01 0. -1.
         -5    1    4    4    0  501 -0.16948187726E+02 -0.39626242090E+02  0.33214078867E+03  0.33495142339E+03  0.41800000000E+01 0. -1.
</event>
<event>
11    1  0.6763327E-009  0.1521183E+03  0.7561462E-02  0.1094734E+00
         22   -1    0    0    0    0  0.00000000000E+00  0.00000000000E+00  0.25635007603E+04  0.25635007603E+04  0.00000000000E+00 0. -1.
         22   -1    0    0    0    0 -0.00000000000E+00 -0.00000000000E+00 -0.11891236511E+03  0.11891236511E+03  0.00000000000E+00 0. -1.
         24    2    1    2    0    0 -0.12287507050E+02  0.40749582802E+02 -0.88721957686E+02  0.12801763701E+03  0.81886618460E+02 0.  0.
         25    2    1    2    0    0  0.73617790639E+02  0.25439612868E+02  0.62174370444E+03  0.63896833841E+03  0.12509416643E+03 0.  0.
        -24    2    1    2    0    0 -0.61330283589E+02 -0.66189195670E+02  0.19115666484E+04  0.19154271500E+04  0.81435264017E+02 0.  0.
        -11    1    3    3    0    0 -0.24119938495E+02  0.85797260514E+01  0.68365016457E+01  0.26497563791E+02  0.00000000000E+00 0.  1.
         12    1    3    3    0    0  0.11832431445E+02  0.32169856751E+02 -0.95558459332E+02  0.10152007322E+03  0.00000000000E+00 0. -1.
         13    1    5    5    0    0 -0.59429987043E+02 -0.79100162606E+02  0.18414776165E+04  0.18441335556E+04  0.00000000000E+00 0. -1.
        -14    1    5    5    0    0 -0.19002965464E+01  0.12910966936E+02  0.70089031956E+02  0.71293594345E+02  0.00000000000E+00 0.  1.
          5    1    4    4  501    0  0.14071447164E+02 -0.46018871970E+02  0.13456848160E+03  0.14297514065E+03  0.41800000000E+01 0. -1.
         -5    1    4    4    0  501  0.59546343475E+02  0.71458484838E+02  0.48717522284E+03  0.49599319776E+03  0.41800000000E+01 0. -1.
</event>
<event>
11    1  0.6763327E-009  0.1524293E+03  0.7561462E-02  0.1094422E+00
         22   -1    0    0    0    0  0.00000000000E+00  0.00000000000E+00  0.24575846878E+03  0.24575846878E+03  0.00000000000E+00 0.  1.
         22   -1    0    0    0    0 -0.00000000000E+00 -0.00000000000E+00 -0.27377084992E+03  0.27377084992E+03  0.00000000000E+00 0. -1.
        -24    2    1    2    0    0  0.22255059848E+02 -0.37488226115E+02 -0.17972783275E+03  0.20237976316E+03  0.82187711272E+02 0.  0.
         25    2    1    2    0    0 -0.77941497306E+02 -0.35229049536E+02  0.51997905167E+02  0.16020853444E+03  0.12508808670E+03 0.  0.
         24    2    1    2    0    0  0.55686437458E+02  0.72717275650E+02  0.99717546442E+02  0.15694102110E+03  0.79360654868E+02 0.  0.
        -11    1    5    5    0    0 -0.10320464839E+02 -0.29017957016E+00  0.41118183523E+02  0.42394589453E+02  0.00000000000E+00 0.  1.
         12    1    5    5    0    0  0.66006902297E+02  0.73007455221E+02  0.58599362919E+02  0.11454643165E+03  0.00000000000E+00 0. -1.
         11    1    3    3    0    0  0.40952027744E+02 -0.54162000440E+02 -0.12745340870E+03  0.14441247265E+03  0.00000000000E+00 0. -1.
        -12    1    3    3    0    0 -0.18696967896E+02  0.16673774325E+02 -0.52274424051E+02  0.57967290506E+02  0.00000000000E+00 0.  1.
          5    1    4    4  501    0 -0.66665626973E+02 -0.79592854861E+02  0.46766579174E+02  0.11394697755E+03  0.41800000000E+01 0.  1.
         -5    1    4    4    0  501 -0.11275870334E+02  0.44363805326E+02  0.52313259931E+01  0.46261556895E+02  0.41800000000E+01 0.  1.
</event>
<event>
11    1  0.6763327E-009  0.1664491E+03  0.7561462E-02  0.1081164E+00
         22   -1    0    0    0    0  0.00000000000E+00  0.00000000000E+00  0.16252836063E+04  0.16252836063E+04  0.00000000000E+00 0. -1.
         22   -1    0    0    0    0 -0.00000000000E+00 -0.00000000000E+00 -0.30860202494E+04  0.30860202494E+04  0.00000000000E+00 0. -1.
        -24    2    1    2    0    0 -0.86429895919E+02 -0.75204305126E+02 -0.23146797763E+04  0.23189062075E+04  0.80359928729E+02 0.  0.
         25    2    1    2    0    0  0.91266382178E+02  0.32633197207E+02 -0.75980966960E+03  0.77611399959E+03  0.12509087998E+03 0.  0.
         24    2    1    2    0    0 -0.48364862597E+01  0.42571107919E+02  0.16137528028E+04  0.16162836486E+04  0.79618048088E+02 0.  0.
        -11    1    5    5    0    0 -0.28633127822E+02  0.28636837998E+02  0.36726912093E+03  0.36949496842E+03  0.00000000000E+00 0.  1.
         12    1    5    5    0    0  0.23796641562E+02  0.13934269921E+02  0.12464836818E+04  0.12467886802E+04  0.00000000000E+00 0. -1.
         11    1    3    3    0    0 -0.66856247712E+02 -0.89462761488E+02 -0.20757485894E+04  0.20787509591E+04  0.00000000000E+00 0. -1.
        -12    1    3    3    0    0 -0.19573648207E+02  0.14258456362E+02 -0.23893118684E+03  0.24015524839E+03  0.00000000000E+00 0.  1.
          5    1    4    4  501    0  0.59240768550E+02  0.45148390764E+02 -0.71780016735E+03  0.72166640389E+03  0.41800000000E+01 0.  1.
         -5    1    4    4    0  501  0.32025613628E+02 -0.12515193557E+02 -0.42009502250E+02  0.54447595699E+02  0.41800000000E+01 0.  1.
</event>
<event>
11    1  0.6763327E-009  0.5166167E+03  0.7561462E-02  0.9357138E-01
         22   -1    0    0    0    0  0.00000000000E+00  0.00000000000E+00  0.41787576267E+03  0.41787576267E+03  0.00000000000E+00 0.  1.
         22   -1    0    0    0    0 -0.00000000000E+00 -0.00000000000E+00 -0.44445976114E+03  0.44445976114E+03  0.00000000000E+00 0. -1.
         24    2    1    2    0    0 -0.23953812278E+03  0.13791727114E+03 -0.15929278475E+03  0.32894594271E+03  0.80196982569E+02 0.  0.
         25    2    1    2    0    0  0.16162736977E+01 -0.47484464288E+02  0.21558185767E+03  0.25372728086E+03  0.12507841145E+03 0.  0.
        -24    2    1    2    0    0  0.23792184908E+03 -0.90432806847E+02 -0.82873071390E+02  0.27966230023E+03  0.80982451112E+02 0.  0.
        -13    1    3    3    0    0 -0.20474749175E+02  0.11167115114E+02  0.90131137830E+01  0.25003120482E+02  0.00000000000E+00 0.  1.
         14    1    3    3    0    0 -0.21906337360E+03  0.12675015602E+03 -0.16830589853E+03  0.30394282223E+03  0.00000000000E+00 0. -1.
         13    1    5    5    0    0  0.24219148692E+03 -0.88250631993E+02 -0.88250628866E+02  0.27245745334E+03  0.00000000000E+00 0. -1.
        -14    1    5    5    0    0 -0.42696378426E+01 -0.21821748537E+01  0.53775574761E+01  0.72048468970E+01  0.00000000000E+00 0.  1.
          5    1    4    4  501    0 -0.57536904415E+02 -0.92482754137E+01  0.64781852638E+02  0.87236384605E+02  0.41800000000E+01 0. -1.
         -5    1    4    4    0  501  0.59153178113E+02 -0.38236188875E+02  0.15080000503E+03  0.16649089626E+03  0.41800000000E+01 0. -1.
</event>
<event>
11    1  0.6763327E-009  0.1894026E+03  0.7561462E-02  0.1062281E+00
         22   -1    0    0    0    0  0.00000000000E+00  0.00000000000E+00  0.36558540829E+03  0.36558540829E+03  0.00000000000E+00 0.  1.
         22   -1    0    0    0    0 -0.00000000000E+00 -0.00000000000E+00 -0.38087943823E+03  0.38087943823E+03  0.00000000000E+00 0.  1.
         24    2    1    2    0    0  0.41079469102E+02  0.13134489660E+03 -0.23942186138E+03  0.28888891202E+03  0.84823175693E+02 0.  0.
         25    2    1    2    0    0  0.20693193172E+02 -0.17384507182E+03  0.84212471050E+01  0.21533427371E+03  0.12509042645E+03 0.  0.
        -24    2    1    2    0    0 -0.61772662274E+02  0.42500175221E+02  0.21570658434E+03  0.24224166080E+03  0.80805723832E+02 0.  0.
        -11    1    3    3    0    0  0.51675275188E+00  0.89435978923E+02 -0.19826918824E+03  0.21750800529E+03  0.00000000000E+00 0.  1.
         12    1    3    3    0    0  0.40562716350E+02  0.41908917680E+02 -0.41152673139E+02  0.71380906728E+02  0.00000000000E+00 0. -1.
         11    1    5    5    0    0  0.13657582564E+02  0.95126974703E+01  0.73215119890E+01  0.18183110638E+02  0.00000000000E+00 0. -1.
        -12    1    5    5    0    0 -0.75430244838E+02  0.32987477751E+02  0.20838507235E+03  0.22405855016E+03  0.00000000000E+00 0.  1.
          5    1    4    4  501    0  0.50733147038E+02 -0.17731022005E+03  0.10210260242E+02  0.18475521145E+03  0.41800000000E+01 0. -1.
         -5    1    4    4    0  501 -0.30039953866E+02  0.34651482283E+01 -0.17890131372E+01  0.30579062257E+02  0.41800000000E+01 0. -1.
</event>
<event>
11    1  0.6763327E-009  0.1771495E+03  0.7561462E-02  0.1071972E+00
         22   -1    0    0    0    0  0.00000000000E+00  0.00000000000E+00  0.93648986311E+03  0.93648986311E+03  0.00000000000E+00 0.  1.
         22   -1    0    0    0    0 -0.00000000000E+00 -0.00000000000E+00 -0.56391395602E+03  0.56391395602E+03  0.00000000000E+00 0. -1.
         24    2    1    2    0    0 -0.12519255756E+03 -0.11056015004E+02 -0.50891509846E+03  0.53039418545E+03  0.80796055467E+02 0.  0.
         25    2    1    2    0    0  0.12179466419E+03  0.67349560832E+00  0.13874664942E+03  0.22300610241E+03  0.12508675057E+03 0.  0.
        -24    2    1    2    0    0  0.33978933713E+01  0.10382519396E+02  0.74274435613E+03  0.74700353128E+03  0.78903452300E+02 0.  0.
        -11    1    3    3    0    0  0.72448356497E+00  0.10450196129E+02 -0.13212171795E+03  0.13253633400E+03  0.00000000000E+00 0.  1.
         12    1    3    3    0    0 -0.12591704113E+03 -0.21506211134E+02 -0.37679338051E+03  0.39785785145E+03  0.00000000000E+00 0. -1.
         11    1    5    5    0    0  0.13147659692E+02 -0.32014442205E+02  0.25799423835E+03  0.26030522946E+03  0.00000000000E+00 0. -1.
        -12    1    5    5    0    0 -0.97497663202E+01  0.42396961601E+02  0.48475011778E+03  0.48669830181E+03  0.00000000000E+00 0.  1.
          5    1    4    4  501    0  0.94613653441E+02  0.34144827222E+02  0.28615014400E+02  0.10466090050E+03  0.41800000000E+01 0.  1.
         -5    1    4    4    0  501  0.27181010750E+02 -0.33471331614E+02  0.11013163502E+03  0.11834520192E+03  0.41800000000E+01 0.  1.
</event>
<event>
11    1  0.6763327E-009  0.1882589E+03  0.7561462E-02  0.1063151E+00
         22   -1    0    0    0    0  0.00000000000E+00  0.00000000000E+00  0.82263354984E+03  0.82263354984E+03  0.00000000000E+00 0. -1.
         22   -1    0    0    0    0 -0.00000000000E+00 -0.00000000000E+00 -0.12658897580E+03  0.12658897580E+03  0.00000000000E+00 0.  1.
        -24    2    1    2    0    0  0.12468281180E+03  0.75071217845E+02 -0.33965204479E+02  0.16135595256E+03  0.60832696832E+02 0.  0.
         25    2    1    2    0    0 -0.12738898635E+03  0.10973903295E+02  0.43944940361E+03  0.47445874835E+03  0.12508774985E+03 0.  0.
         24    2    1    2    0    0  0.27061745473E+01 -0.86045121140E+02  0.29056037491E+03  0.31340782473E+03  0.79925258092E+02 0.  0.
        -13    1    5    5    0    0  0.48509825038E+01 -0.67797680820E+02  0.94051943004E+02  0.11604234373E+03  0.00000000000E+00 0.  1.
         14    1    5    5    0    0 -0.21448079565E+01 -0.18247440320E+02  0.19650843191E+03  0.19736548100E+03  0.00000000000E+00 0. -1.
         11    1    3    3    0    0 -0.64835266520E+01  0.50048870166E+00  0.70762025798E+00  0.65412027347E+01  0.00000000000E+00 0. -1.
        -12    1    3    3    0    0  0.13116633846E+03  0.74570729143E+02 -0.34672824737E+02  0.15481474983E+03  0.00000000000E+00 0.  1.
          5    1    4    4  501    0 -0.61116953267E+02  0.83032618943E+01  0.50363917884E+02  0.79738464742E+02  0.41800000000E+01 0. -1.
         -5    1    4    4    0  501 -0.66272033084E+02  0.26706414006E+01  0.38908548572E+03  0.39472028361E+03  0.41800000000E+01 0. -1.
</event>
<event>
11    1  0.6763327E-009  0.1376446E+03  0.7561462E-02  0.1110217E+00
         22   -1    0    0    0    0  0.00000000000E+00  0.00000000000E+00  0.65371317782E+03  0.65371317782E+03  0.00000000000E+00 0. -1.
         22   -1    0    0    0    0 -0.00000000000E+00 -0.00000000000E+00 -0.26138724114E+03  0.26138724114E+03  0.00000000000E+00 0.  1.
        -24    2    1    2    0    0  0.65686494585E+01  0.17660006443E+02 -0.17631935213E+03  0.19161608500E+03  0.72616713710E+02 0.  0.
         25    2    1    2    0    0  0.34945163427E+02  0.23373394962E+02 -0.13617668325E+02  0.13266843664E+03  0.12509193879E+03 0.  0.
         24    2    1    2    0    0 -0.41513812885E+02 -0.41033401405E+02  0.58226295713E+03  0.59081589733E+03  0.81401084740E+02 0.  0.
        -11    1    5    5    0    0 -0.42263694420E+02 -0.62372867876E+02  0.37768821581E+03  0.38512982600E+03  0.00000000000E+00 0.  1.
         12    1    5    5    0    0  0.74988153526E+00  0.21339466470E+02  0.20457474133E+03  0.20568607133E+03  0.00000000000E+00 0. -1.
         11    1    3    3    0    0  0.48084207277E+01 -0.28423080001E+02 -0.72106920149E+02  0.77655652209E+02  0.00000000000E+00 0. -1.
        -12    1    3    3    0    0  0.17602287308E+01  0.46083086444E+02 -0.10421243198E+03  0.11396043279E+03  0.00000000000E+00 0.  1.
          5    1    4    4  501    0  0.42613204943E+02  0.13179455036E+02 -0.65345054012E+02  0.79227720871E+02  0.41800000000E+01 0. -1.
         -5    1    4    4    0  501 -0.76680415165E+01  0.10193939926E+02  0.51727385687E+02  0.53440715769E+02  0.41800000000E+01 0. -1.
</event>
<event>
11    1  0.6763327E-009  0.1351920E+03  0.7561462E-02  0.1113049E+00
         22   -1    0    0    0    0  0.00000000000E+00  0.00000000000E+00  0.19818281028E+03  0.19818281028E+03  0.00000000000E+00 0. -1.
         22   -1    0    0    0    0 -0.00000000000E+00 -0.00000000000E+00 -0.68456794042E+03  0.68456794042E+03  0.00000000000E+00 0.  1.
         24    2    1    2    0    0  0.39395967082E+02 -0.30534881126E+02 -0.46442360077E+03  0.47517820416E+03  0.87296182995E+02 0.  0.
         25    2    1    2    0    0 -0.42679325609E+02  0.38664408285E+02 -0.18206790748E+03  0.22828128262E+03  0.12508860763E+03 0.  0.
        -24    2    1    2    0    0  0.32833585271E+01 -0.81295271583E+01  0.16010637812E+03  0.17929126392E+03  0.80214932220E+02 0.  0.
        -13    1    3    3    0    0  0.20605280212E+02 -0.59393005574E+02 -0.35300895201E+03  0.35856300267E+03  0.00000000000E+00 0.  1.
         14    1    3    3    0    0  0.18790686870E+02  0.28858124448E+02 -0.11141464876E+03  0.11661520149E+03  0.00000000000E+00 0. -1.
         11    1    5    5    0    0 -0.25026283430E+02  0.18022497751E+01  0.14210632856E+03  0.14430444062E+03  0.00000000000E+00 0. -1.
        -12    1    5    5    0    0  0.28309641957E+02 -0.99317769333E+01  0.18000049558E+02  0.34986823303E+02  0.00000000000E+00 0.  1.
          5    1    4    4  501    0 -0.28003539173E+02  0.48610960239E+02 -0.19690796878E+03  0.20478633800E+03  0.41800000000E+01 0.  1.
         -5    1    4    4    0  501 -0.14675786436E+02 -0.99465519545E+01  0.14840061303E+02  0.23494944622E+02  0.41800000000E+01 0.  1.
</event>
<event>
11    1  0.8421189E-009  0.1928371E+03  0.7561462E-02  0.1059708E+00
         22   -1    0    0    0    0  0.00000000000E+00  0.00000000000E+00  0.26139682331E+04  0.26139682331E+04  0.00000000000E+00 0.  1.
         22   -1    0    0    0    0 -0.00000000000E+00 -0.00000000000E+00 -0.17538980803E+03  0.17538980803E+03  0.00000000000E+00 0. -1.
         24    2    1    2    0    0 -0.58401995224E+02 -0.49036213179E+02 -0.12320643863E+03  0.16531715418E+03  0.79590148244E+02 0.  0.
         25    2    1    2    0    0  0.32860835816E+02 -0.10138101898E+03  0.21339199416E+03  0.26933477747E+03  0.12508850325E+03 0.  0.
        -24    2    1    2    0    0  0.25541159408E+02  0.15041723216E+03  0.23483928695E+04  0.23547061094E+04  0.80088062723E+02 0.  0.
        -11    1    3    3    0    0 -0.93992126413E+01  0.21006320022E+02 -0.15216651501E+02  0.27589076862E+02  0.00000000000E+00 0.  1.
         12    1    3    3    0    0 -0.49002782583E+02 -0.70042533201E+02 -0.10798978712E+03  0.13772807732E+03  0.00000000000E+00 0. -1.
         11    1    5    5    0    0  0.20532901727E+02  0.26081150710E+02  0.20199733177E+03  0.20470649359E+03  0.00000000000E+00 0. -1.
        -12    1    5    5    0    0  0.50082576814E+01  0.12433608145E+03  0.21463955377E+04  0.21499996158E+04  0.00000000000E+00 0.  1.
          5    1    4    4  501    0 -0.37174785650E+02 -0.70674437317E+02  0.67843701852E+02  0.10486696839E+03  0.41800000000E+01 0. -1.
         -5    1    4    4    0  501  0.70035621466E+02 -0.30706581665E+02  0.14554829231E+03  0.16446780908E+03  0.41800000000E+01 0. -1.
</event>
<event>
11    1  0.6763327E-009  0.1443977E+03  0.7561462E-02  0.1102745E+00
         22   -1    0    0    0    0  0.00000000000E+00  0.00000000000E+00  0.19832486023E+04  0.19832486023E+04  0.00000000000E+00 0.  1.
         22   -1    0    0    0    0 -0.00000000000E+00 -0.00000000000E+00 -0.17908111113E+03  0.17908111113E+03  0.00000000000E+00 0. -1.
         24    2    1    2    0    0  0.71626567577E+02  0.17567293219E+01 -0.13356088109E+03  0.17135623443E+03  0.79943722954E+02 0.  0.
         25    2    1    2    0    0 -0.77368403145E+02 -0.94481323514E+01  0.18545260411E+03  0.23688529719E+03  0.12508732408E+03 0.  0.
        -24    2    1    2    0    0  0.57418355683E+01  0.76914030294E+01  0.17522757681E+04  0.17540881818E+04  0.79138205717E+02 0.  0.
        -13    1    3    3    0    0  0.25702961128E+02  0.39332256296E+02 -0.70926482844E+02  0.85077814762E+02  0.00000000000E+00 0.  1.
         14    1    3    3    0    0  0.45923606449E+02 -0.37575526974E+02 -0.62634398243E+02  0.86278419665E+02  0.00000000000E+00 0. -1.
         11    1    5    5    0    0 -0.17301495180E+02  0.48211859293E+01  0.96955521980E+02  0.98605064838E+02  0.00000000000E+00 0. -1.
        -12    1    5    5    0    0  0.23043330748E+02  0.28702171002E+01  0.16553202462E+04  0.16554831170E+04  0.00000000000E+00 0.  1.
          5    1    4    4  501    0 -0.52449970366E+01  0.38967004149E+02  0.95780700268E+01  0.40683525311E+02  0.41800000000E+01 0. -1.
         -5    1    4    4    0  501 -0.72123406108E+02 -0.48415136501E+02  0.17587453408E+03  0.19620177188E+03  0.41800000000E+01 0. -1.
</event>
<event>
11    1  0.6763327E-009  0.1735474E+03  0.7561462E-02  0.1074985E+00
         22   -1    0    0    0    0  0.00000000000E+00  0.00000000000E+00  0.24896673520E+03  0.24896673520E+03  0.00000000000E+00 0. -1.
         22   -1    0    0    0    0 -0.00000000000E+00 -0.00000000000E+00 -0.47002972722E+03  0.47002972722E+03  0.00000000000E+00 0. -1.
        -24    2    1    2    0    0 -0.39001496156E+02 -0.26601618224E+02 -0.25086848631E+03  0.27270460847E+03  0.95937705115E+02 0.  0.
         25    2    1    2    0    0  0.85145808154E+02  0.13193962832E+03 -0.12522459486E+03  0.23661438845E+03  0.12508915019E+03 0.  0.
         24    2    1    2    0    0 -0.46144311998E+02 -0.10533801010E+03  0.15503008914E+03  0.20967746550E+03  0.81883558176E+02 0.  0.
        -11    1    5    5    0    0  0.89604471189E+01 -0.10775382750E+02 -0.57773926986E+01  0.15158388845E+02  0.00000000000E+00 0.  1.
         12    1    5    5    0    0 -0.55104759117E+02 -0.94562627348E+02  0.16080748184E+03  0.19451907666E+03  0.00000000000E+00 0. -1.
         13    1    3    3    0    0  0.11735862820E+02 -0.48399242557E+02 -0.14475357727E+03  0.15308107424E+03  0.00000000000E+00 0. -1.
        -14    1    3    3    0    0 -0.50737358977E+02  0.21797624333E+02 -0.10611490904E+03  0.11962353423E+03  0.00000000000E+00 0.  1.
          5    1    4    4  501    0  0.75182545347E+02  0.15112479091E+03 -0.13116855180E+03  0.21380780840E+03  0.41800000000E+01 0.  1.
         -5    1    4    4    0  501  0.99632628073E+01 -0.19185162589E+02  0.59439569372E+01  0.22806580047E+02  0.41800000000E+01 0.  1.
</event>
<event>
11    1  0.6763327E-009  0.1611019E+03  0.7561462E-02  0.1086045E+00
         22   -1    0    0    0    0  0.00000000000E+00  0.00000000000E+00  0.42862898803E+03  0.42862898803E+03  0.00000000000E+00 0.  1.
         22   -1    0    0    0    0 -0.00000000000E+00 -0.00000000000E+00 -0.11351766727E+04  0.11351766727E+04  0.00000000000E+00 0. -1.
        -24    2    1    2    0    0 -0.42023571635E+02 -0.32468806850E+02 -0.99665222411E+03  0.10013166459E+04  0.80617402707E+02 0.  0.
         25    2    1    2    0    0  0.11762508172E+03 -0.33864317367E+02 -0.63367146450E+02  0.18612931403E+03  0.12508506886E+03 0.  0.
         24    2    1    2    0    0 -0.75601510080E+02  0.66333124217E+02  0.35347168585E+03  0.37635970080E+03  0.81170930742E+02 0.  0.
        -13    1    5    5    0    0 -0.88417971118E+02  0.72196957531E+02  0.29769432244E+03  0.31882918296E+03  0.00000000000E+00 0.  1.
         14    1    5    5    0    0  0.12816461038E+02 -0.58638333135E+01  0.55777363410E+02  0.57530517846E+02  0.00000000000E+00 0. -1.
         11    1    3    3    0    0 -0.37315264185E+02 -0.47076685278E+02 -0.40173636774E+03  0.40620284638E+03  0.00000000000E+00 0. -1.
        -12    1    3    3    0    0 -0.47083074500E+01  0.14607878427E+02 -0.59491585637E+03  0.59511379956E+03  0.00000000000E+00 0.  1.
          5    1    4    4  501    0 -0.29137485514E+01  0.28853403262E+02 -0.37761463632E+02  0.47795495039E+02  0.41800000000E+01 0.  1.
         -5    1    4    4    0  501  0.12053883027E+03 -0.62717720629E+02 -0.25605682818E+02  0.13833381899E+03  0.41800000000E+01 0.  1.
</event>
<event>
11    1  0.6763327E-009  0.1447606E+03  0.7561462E-02  0.1102356E+00
         22   -1    0    0    0    0  0.00000000000E+00  0.00000000000E+00  0.14387702364E+04  0.14387702364E+04  0.00000000000E+00 0. -1.
         22   -1    0    0    0    0 -0.00000000000E+00 -0.00000000000E+00 -0.11179796175E+03  0.11179796175E+03  0.00000000000E+00 0. -1.
         24    2    1    2    0    0  0.63680896352E+02 -0.38232669487E+02 -0.70767038022E+02  0.12990005890E+03  0.79680976749E+02 0.  0.
         25    2    1    2    0    0 -0.99308837806E+01  0.64311101192E+02  0.62619213434E+03  0.64187135142E+03  0.12509077695E+03 0.  0.
        -24    2    1    2    0    0 -0.53750012572E+02 -0.26078431705E+02  0.77154717836E+03  0.77879678785E+03  0.87579905702E+02 0.  0.
        -11    1    3    3    0    0  0.13361965472E+02 -0.31323281701E+02 -0.71399692477E+02  0.79105032607E+02  0.00000000000E+00 0.  1.
         12    1    3    3    0    0  0.50318930881E+02 -0.69093877856E+01  0.63265445494E+00  0.50795026294E+02  0.00000000000E+00 0. -1.
         11    1    5    5    0    0 -0.46013111051E+02 -0.37193258296E+02  0.75543857286E+03  0.75775192657E+03  0.00000000000E+00 0. -1.
        -12    1    5    5    0    0 -0.77369015211E+01  0.11114826591E+02  0.16108605492E+02  0.21044861278E+02  0.00000000000E+00 0.  1.
          5    1    4    4  501    0  0.51637585190E+02  0.88207024614E+01  0.33450508136E+03  0.33860798404E+03  0.41800000000E+01 0. -1.
         -5    1    4    4    0  501 -0.61568468970E+02  0.55490398731E+02  0.29168705298E+03  0.30326336739E+03  0.41800000000E+01 0. -1.
</event>
<event>
11    1  0.6763327E-009  0.1384367E+03  0.7561462E-02  0.1109317E+00
         22   -1    0    0    0    0  0.00000000000E+00  0.00000000000E+00  0.39897922883E+03  0.39897922883E+03  0.00000000000E+00 0. -1.
         22   -1    0    0    0    0 -0.00000000000E+00 -0.00000000000E+00 -0.10786228394E+04  0.10786228394E+04  0.00000000000E+00 0. -1.
         24    2    1    2    0    0 -0.33316869130E+02  0.49640376169E+02 -0.88142613122E+03  0.88703380251E+03  0.79641454606E+02 0.  0.
         25    2    1    2    0    0 -0.67841864055E+01 -0.68568201039E+02 -0.16153875223E+03  0.21561554591E+03  0.12509065427E+03 0.  0.
        -24    2    1    2    0    0  0.40101055535E+02  0.18927824870E+02  0.36332127289E+03  0.37495271981E+03  0.81368529237E+02 0.  0.
        -11    1    3    3    0    0  0.29366312207E+01 -0.10601773632E+02 -0.20707729725E+02  0.23448485611E+02  0.00000000000E+00 0.  1.
         12    1    3    3    0    0 -0.36253500350E+02  0.60242149801E+02 -0.86071840149E+03  0.86358531690E+03  0.00000000000E+00 0. -1.
         13    1    5    5    0    0  0.39676861365E+02  0.40551107351E+02  0.33247040182E+03  0.33727616833E+03  0.00000000000E+00 0. -1.
        -14    1    5    5    0    0  0.42419417021E+00 -0.21623282480E+02  0.30850871067E+02  0.37676551481E+02  0.00000000000E+00 0.  1.
          5    1    4    4  501    0  0.44048248264E+01 -0.10056963535E+03 -0.85066746230E+02  0.13186158557E+03  0.41800000000E+01 0. -1.
         -5    1    4    4    0  501 -0.11189011232E+02  0.32001434308E+02 -0.76472006004E+02  0.83753960339E+02  0.41800000000E+01 0. -1.
</event>
<event>
11    1  0.6763327E-009  0.1413466E+03  0.7561462E-02  0.1106064E+00
         22   -1    0    0    0    0  0.00000000000E+00  0.00000000000E+00  0.38322090942E+03  0.38322090942E+03  0.00000000000E+00 0.  1.
         22   -1    0    0    0    0 -0.00000000000E+00 -0.00000000000E+00 -0.24831571836E+03  0.24831571836E+03  0.00000000000E+00 0.  1.
         24    2    1    2    0    0  0.24628017193E+02 -0.36383060172E+02 -0.14613903356E+03  0.17241192977E+03  0.80243318107E+02 0.  0.
         25    2    1    2    0    0  0.42514910540E+02  0.20770036121E+02 -0.24515276655E+02  0.13596720832E+03  0.12508865228E+03 0.  0.
        -24    2    1    2    0    0 -0.67142927734E+02  0.15613024051E+02  0.30555950127E+03  0.32315748969E+03  0.79449449717E+02 0.  0.
        -11    1    3    3    0    0  0.50585323026E+02 -0.17694695023E+02 -0.11882667185E+03  0.13035242645E+03  0.00000000000E+00 0.  1.
         12    1    3    3    0    0 -0.25957305833E+02 -0.18688365149E+02 -0.27312361705E+02  0.42059503325E+02  0.00000000000E+00 0. -1.
         11    1    5    5    0    0 -0.62608106251E+01 -0.19606878651E+02  0.18725360761E+02  0.27825646008E+02  0.00000000000E+00 0. -1.
        -12    1    5    5    0    0 -0.60882117109E+02  0.35219902702E+02  0.28683414051E+03  0.29533184368E+03  0.00000000000E+00 0.  1.
          5    1    4    4  501    0 -0.21264337234E+01  0.68253817149E+02 -0.11461812645E+02  0.69368226336E+02  0.41800000000E+01 0. -1.
         -5    1    4    4    0  501  0.44641344264E+02 -0.47483781028E+02 -0.13053464009E+02  0.66598981982E+02  0.41800000000E+01 0. -1.
</event>
<event>
11    1  0.6763327E-009  0.1539759E+03  0.7561462E-02  0.1092884E+00
         22   -1    0    0    0    0  0.00000000000E+00  0.00000000000E+00  0.22511604876E+03  0.22511604876E+03  0.00000000000E+00 0. -1.
         22   -1    0    0    0    0 -0.00000000000E+00 -0.00000000000E+00 -0.10845116392E+04  0.10845116392E+04  0.00000000000E+00 0.  1.
        -24    2    1    2    0    0 -0.47769146719E+01  0.19325469141E+02 -0.99724171224E+03  0.10012773315E+04  0.87572650811E+02 0.  0.
         25    2    1    2    0    0 -0.17384256504E+02 -0.98724876544E+02  0.80086722011E+02  0.17919256020E+03  0.12508907613E+03 0.  0.
         24    2    1    2    0    0  0.22161171176E+02  0.79399407402E+02  0.57759399810E+02  0.12915779629E+03  0.80933334740E+02 0.  0.
        -13    1    5    5    0    0  0.30954256907E+02  0.16322782338E+01 -0.14346235082E+01  0.31030444687E+02  0.00000000000E+00 0.  1.
         14    1    5    5    0    0 -0.87930857310E+01  0.77767129169E+02  0.59194023318E+02  0.98127351602E+02  0.00000000000E+00 0. -1.
         11    1    3    3    0    0 -0.19341461477E+02  0.34287463838E+02 -0.20415590393E+03  0.20791670308E+03  0.00000000000E+00 0. -1.
        -12    1    3    3    0    0  0.14564546805E+02 -0.14961994697E+02 -0.79308580831E+03  0.79336062838E+03  0.00000000000E+00 0.  1.
          5    1    4    4  501    0 -0.47724000311E+02 -0.53580929459E+02 -0.11304325538E+02  0.72758204920E+02  0.41800000000E+01 0. -1.
         -5    1    4    4    0  501  0.30339743807E+02 -0.45143947085E+02  0.91391047549E+02  0.10643435528E+03  0.41800000000E+01 0. -1.
</event>
<event>
11    1  0.6763327E-009  0.1522835E+03  0.7561462E-02  0.1094568E+00
         22   -1    0    0    0    0  0.00000000000E+00  0.00000000000E+00  0.43612681339E+02  0.43612681339E+02  0.00000000000E+00 0.  1.
         22   -1    0    0    0    0 -0.00000000000E+00 -0.00000000000E+00 -0.23915922743E+04  0.23915922743E+04  0.00000000000E+00 0. -1.
        -24    2    1    2    0    0 -0.19765622445E+02 -0.55283916403E+02 -0.15365874826E+04  0.15398354093E+04  0.80901203000E+02 0.  0.
         25    2    1    2    0    0 -0.64675240457E+02  0.77061837528E+02 -0.73974008839E+03  0.75695758582E+03  0.12509186552E+03 0.  0.
         24    2    1    2    0    0  0.84440862902E+02 -0.21777921125E+02 -0.71652021929E+02  0.13841196053E+03  0.80120667723E+02 0.  0.
        -11    1    5    5    0    0  0.33853474001E+02 -0.48331851682E+02 -0.22867809263E+02  0.63284771387E+02  0.00000000000E+00 0.  1.
         12    1    5    5    0    0  0.50587388901E+02  0.26553930557E+02 -0.48784212667E+02  0.75127189148E+02  0.00000000000E+00 0. -1.
         11    1    3    3    0    0 -0.17577862193E+02 -0.45383627126E+02 -0.15169892916E+04  0.15177698000E+04  0.00000000000E+00 0. -1.
        -12    1    3    3    0    0 -0.21877602524E+01 -0.99002892769E+01 -0.19598191009E+02  0.22065609294E+02  0.00000000000E+00 0.  1.
          5    1    4    4  501    0 -0.59961029355E+02  0.11082901245E+03 -0.57014331844E+03  0.58391717820E+03  0.41800000000E+01 0.  1.
         -5    1    4    4    0  501 -0.47142111021E+01 -0.33767174918E+02 -0.16959676996E+03  0.17304040762E+03  0.41800000000E+01 0.  1.
</event>
<event>
11    1  0.6763327E-009  0.3503923E+03  0.7561462E-02  0.9808654E-01
         22   -1    0    0    0    0  0.00000000000E+00  0.00000000000E+00  0.95304521898E+03  0.95304521898E+03  0.00000000000E+00 0. -1.
         22   -1    0    0    0    0 -0.00000000000E+00 -0.00000000000E+00 -0.11474016057E+04  0.11474016057E+04  0.00000000000E+00 0. -1.
        -24    2    1    2    0    0 -0.44612317914E+01  0.23812616373E+02 -0.98721538051E+03  0.99068278079E+03  0.79191043319E+02 0.  0.
         25    2    1    2    0    0  0.32908653330E+03  0.13712211564E+02  0.15154132049E+03  0.38353148232E+03  0.12508259259E+03 0.  0.
         24    2    1    2    0    0 -0.32462530150E+03 -0.37524827938E+02  0.64131767331E+03  0.72623256155E+03  0.96621303395E+02 0.  0.
        -13    1    5    5    0    0 -0.40678417311E+02  0.11132371554E+02  0.15835405625E+03  0.16387394687E+03  0.00000000000E+00 0.  1.
         14    1    5    5    0    0 -0.28394688419E+03 -0.48657199492E+02  0.48296361706E+03  0.56235861469E+03  0.00000000000E+00 0. -1.
         13    1    3    3    0    0  0.13793818606E+02  0.28074726928E+02 -0.92894000605E+03  0.92946651073E+03  0.00000000000E+00 0. -1.
        -14    1    3    3    0    0 -0.18255050397E+02 -0.42621105543E+01 -0.58275374460E+02  0.61216270058E+02  0.00000000000E+00 0.  1.
          5    1    4    4  501    0  0.30960037109E+03  0.24886277583E+02  0.98649300759E+02  0.32591543924E+03  0.41800000000E+01 0.  1.
         -5    1    4    4    0  501  0.19486162201E+02 -0.11174066019E+02  0.52892019733E+02  0.57616043080E+02  0.41800000000E+01 0.  1.
</event>
<event>
11    1  0.6763327E-009  0.1292331E+03  0.7561462E-02  0.1120215E+00
         22   -1    0    0    0    0  0.00000000000E+00  0.00000000000E+00  0.15703017989E+04  0.15703017989E+04  0.00000000000E+00 0.  1.
         22   -1    0    0    0    0 -0.00000000000E+00 -0.00000000000E+00 -0.48491943816E+03  0.48491943816E+03  0.00000000000E+00 0.  1.
        -24    2    1    2    0    0  0.11996258140E+02 -0.19657595223E+02 -0.39927874523E+03  0.40827271234E+03  0.82053397219E+02 0.  0.
         25    2    1    2    0    0  0.15128604969E+02  0.12464935251E+01 -0.30255448438E+02  0.12958737116E+03  0.12508823354E+03 0.  0.
         24    2    1    2    0    0 -0.27124863109E+02  0.18411101698E+02  0.15149165544E+04  0.15173611535E+04  0.79611410068E+02 0.  0.
        -11    1    5    5    0    0 -0.20133068202E+02 -0.27082701547E+00  0.14296739951E+04  0.14298157735E+04  0.00000000000E+00 0.  1.
         12    1    5    5    0    0 -0.69917949071E+01  0.18681928713E+02  0.85242559275E+02  0.87545380051E+02  0.00000000000E+00 0. -1.
         11    1    3    3    0    0  0.24392353533E+02 -0.12914452297E+02 -0.39333482840E+02  0.48050940275E+02  0.00000000000E+00 0. -1.
        -12    1    3    3    0    0 -0.12396095393E+02 -0.67431429261E+01 -0.35994526239E+03  0.36022177207E+03  0.00000000000E+00 0.  1.
          5    1    4    4  501    0 -0.36747393829E+02 -0.54219177396E+01 -0.58936319591E+02  0.69790617651E+02  0.41800000000E+01 0.  1.
         -5    1    4    4    0  501  0.51875998798E+02  0.66684112647E+01  0.28680871153E+02  0.59796753509E+02  0.41800000000E+01 0.  1.
</event>
<event>
11    1  0.6763327E-009  0.2435833E+03  0.7561462E-02  0.1027374E+00
         22   -1    0    0    0    0  0.00000000000E+00  0.00000000000E+00  0.11273771937E+04  0.11273771937E+04  0.00000000000E+00 0. -1.
         22   -1    0    0    0    0 -0.00000000000E+00 -0.00000000000E+00 -0.57990008805E+03  0.57990008805E+03  0.00000000000E+00 0.  1.
         24    2    1    2    0    0 -0.21198280602E+02 -0.67074888773E+02 -0.41884905568E+03  0.43237515774E+03  0.81026771975E+02 0.  0.
         25    2    1    2    0    0 -0.10708419655E+02  0.26865608785E+03  0.12272764450E+02  0.29679768512E+03  0.12508989309E+03 0.  0.
        -24    2    1    2    0    0  0.31906700257E+02 -0.20158119908E+03  0.95405339690E+03  0.97810443891E+03  0.69407434203E+02 0.  0.
        -11    1    3    3    0    0 -0.27089319425E+02 -0.45925733608E+02 -0.39970703381E+03  0.40324771185E+03  0.00000000000E+00 0.  1.
         12    1    3    3    0    0  0.58910388223E+01 -0.21149155165E+02 -0.19142021876E+02  0.29127445891E+02  0.00000000000E+00 0. -1.
         13    1    5    5    0    0 -0.16588054019E+02 -0.11044962103E+03  0.53361383324E+03  0.54517704037E+03  0.00000000000E+00 0. -1.
        -14    1    5    5    0    0  0.48494754276E+02 -0.91131578050E+02  0.42043956366E+03  0.43292739854E+03  0.00000000000E+00 0.  1.
          5    1    4    4  501    0 -0.28938547862E+02  0.20170516702E+03  0.60017248050E+02  0.21246636538E+03  0.41800000000E+01 0. -1.
         -5    1    4    4    0  501  0.18230128208E+02  0.66950920835E+02 -0.47744483600E+02  0.84331319741E+02  0.41800000000E+01 0. -1.
</event>
<event>
11    1  0.6763327E-009  0.1342678E+03  0.7561462E-02  0.1114134E+00
         22   -1    0    0    0    0  0.00000000000E+00  0.00000000000E+00  0.98343920066E+03  0.98343920066E+03  0.00000000000E+00 0.  1.
         22   -1    0    0    0    0 -0.00000000000E+00 -0.00000000000E+00 -0.35306632515E+03  0.35306632515E+03  0.00000000000E+00 0. -1.
         24    2    1    2    0    0  0.15043492602E+02  0.47018165206E+02 -0.31076819832E+03  0.32445530556E+03  0.79103461921E+02 0.  0.
         25    2    1    2    0    0 -0.44019182159E+02 -0.50963586746E+01  0.10196551009E+03  0.16737639511E+03  0.12511686985E+03 0.  0.
        -24    2    1    2    0    0  0.28975689557E+02 -0.41921806531E+02  0.83917556375E+03  0.84467382514E+03  0.81616270671E+02 0.  0.
        -11    1    3    3    0    0  0.38480603791E+02  0.17740442944E+00 -0.16887367531E+03  0.17320250158E+03  0.00000000000E+00 0.  1.
         12    1    3    3    0    0 -0.23437111189E+02  0.46840760776E+02 -0.14189452301E+03  0.15125280398E+03  0.00000000000E+00 0. -1.
         13    1    5    5    0    0  0.42956043177E+02 -0.91758385498E+01  0.21274818711E+03  0.21723537644E+03  0.00000000000E+00 0. -1.
        -14    1    5    5    0    0 -0.13980353620E+02 -0.32745967982E+02  0.62642737664E+03  0.62743844871E+03  0.00000000000E+00 0.  1.
          5    1    4    4  501    0 -0.80468946983E+02  0.33328188748E+00  0.29202929536E+02  0.85706744186E+02  0.41800000000E+01 0.  1.
         -5    1    4    4    0  501  0.36449764825E+02 -0.54296405621E+01  0.72762580554E+02  0.81669650920E+02  0.41800000000E+01 0.  1.
</event>
<event>
11    1  0.6763327E-009  0.1298220E+03  0.7561462E-02  0.1119488E+00
         22   -1    0    0    0    0  0.00000000000E+00  0.00000000000E+00  0.29870402845E+03  0.29870402845E+03  0.00000000000E+00 0. -1.
         22   -1    0    0    0    0 -0.00000000000E+00 -0.00000000000E+00 -0.24361030242E+04  0.24361030242E+04  0.00000000000E+00 0. -1.
        -24    2    1    2    0    0  0.76679236024E+00 -0.33557113890E+02 -0.20728264083E+04  0.20746244954E+04  0.79566389791E+02 0.  0.
         25    2    1    2    0    0  0.19557902298E+02  0.51943966086E+02 -0.34297231687E+03  0.36926645127E+03  0.12508802797E+03 0.  0.
         24    2    1    2    0    0 -0.20324694659E+02 -0.18386852196E+02  0.27839972937E+03  0.29091610595E+03  0.79841103719E+02 0.  0.
        -11    1    5    5    0    0 -0.43758692269E+02 -0.13642446039E+00  0.88717109466E+02  0.98922026227E+02  0.00000000000E+00 0.  1.
         12    1    5    5    0    0  0.23433997611E+02 -0.18250427736E+02  0.18968261990E+03  0.19199407972E+03  0.00000000000E+00 0. -1.
         11    1    3    3    0    0 -0.36802273496E+01 -0.58596396589E+02 -0.16409335770E+04  0.16419835827E+04  0.00000000000E+00 0. -1.
        -12    1    3    3    0    0  0.44470197098E+01  0.25039282699E+02 -0.43189283130E+03  0.43264091276E+03  0.00000000000E+00 0.  1.
          5    1    4    4  501    0  0.69402129998E+01 -0.25643655463E+02 -0.23003993272E+03  0.23160657735E+03  0.41800000000E+01 0. -1.
         -5    1    4    4    0  501  0.12617689298E+02  0.77587621550E+02 -0.11293238414E+03  0.13765987393E+03  0.41800000000E+01 0. -1.
</event>
<event>
11    1  0.6763327E-009  0.2309280E+03  0.7561462E-02  0.1034580E+00
         22   -1    0    0    0    0  0.00000000000E+00  0.00000000000E+00  0.17570037629E+04  0.17570037629E+04  0.00000000000E+00 0. -1.
         22   -1    0    0    0    0 -0.00000000000E+00 -0.00000000000E+00 -0.24758459372E+03  0.24758459372E+03  0.00000000000E+00 0. -1.
        -24    2    1    2    0    0  0.66349113548E+02 -0.21758815398E+02 -0.20170045609E+03  0.22863779695E+03  0.81954361010E+02 0.  0.
         25    2    1    2    0    0 -0.18503086531E+03  0.15094760532E+03  0.78061568381E+03  0.82585121641E+03  0.12509110750E+03 0.  0.
         24    2    1    2    0    0  0.11868175176E+03 -0.12918878992E+03  0.93050394149E+03  0.95009934329E+03  0.77949184414E+02 0.  0.
        -11    1    5    5    0    0 -0.50287985061E+01 -0.10335680070E+02  0.16339690315E+02  0.19977501759E+02  0.00000000000E+00 0.  1.
         12    1    5    5    0    0  0.12371055027E+03 -0.11885310985E+03  0.91416425117E+03  0.93012184153E+03  0.00000000000E+00 0. -1.
         11    1    3    3    0    0  0.53484976952E+02  0.10962423150E+02 -0.17812938106E+03  0.18630859850E+03  0.00000000000E+00 0. -1.
        -12    1    3    3    0    0  0.12864136596E+02 -0.32721238548E+02 -0.23571075036E+02  0.42329198443E+02  0.00000000000E+00 0.  1.
          5    1    4    4  501    0 -0.97374385774E+02  0.65247570262E+02  0.57153734899E+03  0.58344788124E+03  0.41800000000E+01 0. -1.
         -5    1    4    4    0  501 -0.87656479539E+02  0.85700035059E+02  0.20907833481E+03  0.24240333517E+03  0.41800000000E+01 0. -1.
</event>
<event>
11    1  0.6763327E-009  0.2046306E+03  0.7561462E-02  0.1051297E+00
         22   -1    0    0    0    0  0.00000000000E+00  0.00000000000E+00  0.31098404452E+04  0.31098404452E+04  0.00000000000E+00 0.  1.
         22   -1    0    0    0    0 -0.00000000000E+00 -0.00000000000E+00 -0.36090803887E+03  0.36090803887E+03  0.00000000000E+00 0.  1.
        -24    2    1    2    0    0 -0.36874817500E+02  0.80448404042E+02 -0.25089188661E+03  0.27889445296E+03  0.83687987473E+02 0.  0.
         25    2    1    2    0    0 -0.83983165204E+02 -0.18697586147E+03  0.62167605238E+02  0.24804264497E+03  0.12508875958E+03 0.  0.
         24    2    1    2    0    0  0.12085798270E+03  0.10652745742E+03  0.29376566877E+04  0.29438113861E+04  0.10121220862E+03 0.  0.
        -13    1    5    5    0    0  0.11458045575E+03  0.52644114370E+02  0.15603332555E+04  0.15654200561E+04  0.00000000000E+00 0.  1.
         14    1    5    5    0    0  0.62775269495E+01  0.53883343054E+02  0.13773234321E+04  0.13783913300E+04  0.00000000000E+00 0. -1.
         11    1    3    3    0    0  0.12128364103E+02 -0.10526221710E+02 -0.56585649592E+02  0.58820356162E+02  0.00000000000E+00 0. -1.
        -12    1    3    3    0    0 -0.49003181603E+02  0.90974625751E+02 -0.19430623702E+03  0.22007409680E+03  0.00000000000E+00 0.  1.
          5    1    4    4  501    0  0.24787075807E+02 -0.40743698946E+02  0.43686976408E+02  0.64811051824E+02  0.41800000000E+01 0.  1.
         -5    1    4    4    0  501 -0.10877024101E+03 -0.14623216252E+03  0.18480628830E+02  0.18323159315E+03  0.41800000000E+01 0.  1.
</event>
<event>
11    1  0.6763327E-009  0.1506312E+03  0.7561462E-02  0.1096236E+00
         22   -1    0    0    0    0  0.00000000000E+00  0.00000000000E+00  0.82439995843E+03  0.82439995843E+03  0.00000000000E+00 0.  1.
         22   -1    0    0    0    0 -0.00000000000E+00 -0.00000000000E+00 -0.25342815034E+03  0.25342815034E+03  0.00000000000E+00 0. -1.
         24    2    1    2    0    0  0.54593543723E+02  0.25391811620E+02 -0.17639484930E+03  0.20234594329E+03  0.78762546879E+02 0.  0.
         25    2    1    2    0    0  0.66303495613E+01 -0.84927379679E+02  0.37131299235E+02  0.15582649873E+03  0.12508614219E+03 0.  0.
        -24    2    1    2    0    0 -0.61223893285E+02  0.59535568060E+02  0.71023535816E+03  0.71965566676E+03  0.78594947342E+02 0.  0.
        -13    1    3    3    0    0  0.19070888846E+02  0.32235724173E+02 -0.21299027690E+02  0.43086996819E+02  0.00000000000E+00 0.  1.
         14    1    3    3    0    0  0.35522654877E+02 -0.68439125535E+01 -0.15509582161E+03  0.15925894647E+03  0.00000000000E+00 0. -1.
         11    1    5    5    0    0  0.44189844121E+01  0.94351118013E+01  0.95886227642E+01  0.14159464836E+02  0.00000000000E+00 0. -1.
        -12    1    5    5    0    0 -0.65642877697E+02  0.50100456258E+02  0.70064673539E+03  0.70549620192E+03  0.00000000000E+00 0.  1.
          5    1    4    4  501    0  0.57247204130E+01 -0.93750317029E+02 -0.21447161855E+02  0.96433124591E+02  0.41800000000E+01 0.  1.
         -5    1    4    4    0  501  0.90562914833E+00  0.88229373493E+01  0.58578461090E+02  0.59393374136E+02  0.41800000000E+01 0.  1.
</event>
<event>
11    1  0.6763327E-009  0.1662567E+03  0.7561462E-02  0.1081336E+00
         22   -1    0    0    0    0  0.00000000000E+00  0.00000000000E+00  0.97663865086E+03  0.97663865086E+03  0.00000000000E+00 0.  1.
         22   -1    0    0    0    0 -0.00000000000E+00 -0.00000000000E+00 -0.37831906406E+03  0.37831906406E+03  0.00000000000E+00 0. -1.
        -24    2    1    2    0    0 -0.51262476633E+02 -0.96897728149E+02 -0.32788161255E+03  0.35498621879E+03  0.80572032681E+02 0.  0.
         25    2    1    2    0    0  0.56424424191E+02  0.92257095857E+02  0.16246727463E+03  0.23181581613E+03  0.12509144615E+03 0.  0.
         24    2    1    2    0    0 -0.51619475583E+01  0.46406322916E+01  0.76373392472E+03  0.76815568000E+03  0.82008900654E+02 0.  0.
        -13    1    5    5    0    0  0.28925748127E+02  0.22993992838E+02  0.52540527480E+03  0.52670307138E+03  0.00000000000E+00 0.  1.
         14    1    5    5    0    0 -0.34087695686E+02 -0.18353360547E+02  0.23832864991E+03  0.24145260862E+03  0.00000000000E+00 0. -1.
         11    1    3    3    0    0 -0.33534000738E+02 -0.10283720378E+03 -0.31277045008E+03  0.33094618011E+03  0.00000000000E+00 0. -1.
        -12    1    3    3    0    0 -0.17728475895E+02  0.59394756358E+01 -0.15111162472E+02  0.24040038678E+02  0.00000000000E+00 0.  1.
          5    1    4    4  501    0  0.58299380091E+01  0.36121331258E+01 -0.20636392090E+02  0.22144271526E+02  0.41800000000E+01 0. -1.
         -5    1    4    4    0  501  0.50594486182E+02  0.88644962732E+02  0.18310366672E+03  0.20967154460E+03  0.41800000000E+01 0. -1.
</event>
<event>
11    1  0.6763327E-009  0.1324680E+03  0.7561462E-02  0.1116273E+00
         22   -1    0    0    0    0  0.00000000000E+00  0.00000000000E+00  0.41538686685E+02  0.41538686685E+02  0.00000000000E+00 0. -1.
         22   -1    0    0    0    0 -0.00000000000E+00 -0.00000000000E+00 -0.21432246635E+04  0.21432246635E+04  0.00000000000E+00 0.  1.
         24    2    1    2    0    0 -0.14362702215E+02 -0.26600260648E+02 -0.92084644683E+03  0.92490656961E+03  0.81117956022E+02 0.  0.
         25    2    1    2    0    0  0.50148655196E+02  0.49176709264E+02 -0.11567673340E+04  0.11656290751E+04  0.12508892603E+03 0.  0.
        -24    2    1    2    0    0 -0.35785952980E+02 -0.22576448616E+02 -0.24072195979E+02  0.94227705442E+02  0.80678741877E+02 0.  0.
        -11    1    3    3    0    0 -0.46940179507E+02 -0.57956853309E+01 -0.56091621987E+03  0.56290672064E+03  0.00000000000E+00 0.  1.
         12    1    3    3    0    0  0.32577477291E+02 -0.20804575317E+02 -0.35993022695E+03  0.36199984897E+03  0.00000000000E+00 0. -1.
         11    1    5    5    0    0  0.42346206851E+01  0.29296420661E+01  0.25256928007E+02  0.25776485938E+02  0.00000000000E+00 0. -1.
        -12    1    5    5    0    0 -0.40020573665E+02 -0.25506090682E+02 -0.49329123985E+02  0.68451219504E+02  0.00000000000E+00 0.  1.
          5    1    4    4  501    0  0.45909495807E+02  0.83735678505E+02 -0.10188181123E+04  0.10232923160E+04  0.41800000000E+01 0. -1.
         -5    1    4    4    0  501  0.42391593888E+01 -0.34558969241E+02 -0.13794922173E+03  0.14233675914E+03  0.41800000000E+01 0. -1.
</event>
<event>
11    1  0.6763327E-009  0.1361124E+03  0.7561462E-02  0.1111979E+00
         22   -1    0    0    0    0  0.00000000000E+00  0.00000000000E+00  0.11396563181E+04  0.11396563181E+04  0.00000000000E+00 0. -1.
         22   -1    0    0    0    0 -0.00000000000E+00 -0.00000000000E+00 -0.31480427252E+02  0.31480427252E+02  0.00000000000E+00 0. -1.
         24    2    1    2    0    0 -0.72486889923E+01 -0.31927113907E+02  0.95512052865E+02  0.12926183750E+03  0.80710509211E+02 0.  0.
         25    2    1    2    0    0 -0.42591678235E+02 -0.14124425376E+02  0.68765388653E+03  0.70037794424E+03  0.12509135328E+03 0.  0.
        -24    2    1    2    0    0  0.49840367227E+02  0.46051539283E+02  0.32500995147E+03  0.34149696364E+03  0.79899318770E+02 0.  0.
        -13    1    3    3    0    0  0.78346847720E+01 -0.29789734866E+02  0.10624920742E+03  0.11062415950E+03  0.00000000000E+00 0.  1.
         14    1    3    3    0    0 -0.15083373764E+02 -0.21373790410E+01 -0.10737154552E+02  0.18637677998E+02  0.00000000000E+00 0. -1.
         11    1    5    5    0    0  0.41868098116E+02  0.68867367105E+02  0.24494363360E+03  0.25786243529E+03  0.00000000000E+00 0. -1.
        -12    1    5    5    0    0  0.79722691112E+01 -0.22815827822E+02  0.80066317872E+02  0.83634528346E+02  0.00000000000E+00 0.  1.
          5    1    4    4  501    0 -0.24931024944E+02 -0.29764319148E+02  0.56006836997E+02  0.68276708250E+02  0.41800000000E+01 0.  1.
         -5    1    4    4    0  501 -0.17660653291E+02  0.15639893771E+02  0.63164704954E+03  0.63210123599E+03  0.41800000000E+01 0.  1.
</event>
<event>
11    1  0.6763327E-009  0.1274243E+03  0.7561462E-02  0.1122475E+00
         22   -1    0    0    0    0  0.00000000000E+00  0.00000000000E+00  0.13892733270E+03  0.13892733270E+03  0.00000000000E+00 0. -1.
         22   -1    0    0    0    0 -0.00000000000E+00 -0.00000000000E+00 -0.17166065560E+04  0.17166065560E+04  0.00000000000E+00 0.  1.
         24    2    1    2    0    0 -0.11203632954E+02  0.22561196825E+02 -0.15785882779E+04  0.15812277736E+04  0.87782639833E+02 0.  0.
         25    2    1    2    0    0  0.63556274426E+01  0.10691713734E+01 -0.85263284559E+02  0.15151877914E+03  0.12508627268E+03 0.  0.
        -24    2    1    2    0    0  0.48480055117E+01 -0.23630368198E+02  0.86172339156E+02  0.12278733596E+03  0.84078299094E+02 0.  0.
        -13    1    3    3    0    0 -0.39192228675E+02 -0.16135528444E+02 -0.87011992324E+03  0.87115157515E+03  0.00000000000E+00 0.  1.
         14    1    3    3    0    0  0.27988595721E+02  0.38696725269E+02 -0.70846835466E+03  0.71007619844E+03  0.00000000000E+00 0. -1.
         11    1    5    5    0    0  0.14555220083E+02  0.11958731056E+02  0.83723856114E+02  0.85816954984E+02  0.00000000000E+00 0. -1.
        -12    1    5    5    0    0 -0.97072145709E+01 -0.35589099254E+02  0.24484830419E+01  0.36970380978E+02  0.00000000000E+00 0.  1.
          5    1    4    4  501    0 -0.73321615721E+01 -0.46942904379E+01 -0.11638369462E+03  0.11678370490E+03  0.41800000000E+01 0. -1.
         -5    1    4    4    0  501  0.13687789015E+02  0.57634618113E+01  0.31120410065E+02  0.34735074244E+02  0.41800000000E+01 0. -1.
</event>
<event>
11    1  0.6763327E-009  0.1624034E+03  0.7561462E-02  0.1084838E+00
         22   -1    0    0    0    0  0.00000000000E+00  0.00000000000E+00  0.47620628589E+03  0.47620628589E+03  0.00000000000E+00 0.  1.
         22   -1    0    0    0    0 -0.00000000000E+00 -0.00000000000E+00 -0.32145698913E+03  0.32145698913E+03  0.00000000000E+00 0.  1.
         24    2    1    2    0    0 -0.84050494257E+02  0.59371726624E+02 -0.23987786739E+03  0.27300326473E+03  0.79999398655E+02 0.  0.
         25    2    1    2    0    0  0.37413290015E+02 -0.13231141355E+03  0.11151930025E+03  0.21677119529E+03  0.12508849809E+03 0.  0.
        -24    2    1    2    0    0  0.46637204242E+02  0.72939686929E+02  0.28310786389E+03  0.30788881500E+03  0.84559050691E+02 0.  0.
        -11    1    3    3    0    0 -0.33809495966E+02 -0.81197761900E+00 -0.14987602291E+03  0.15364427607E+03  0.00000000000E+00 0.  1.
         12    1    3    3    0    0 -0.50240998291E+02  0.60183704243E+02 -0.90001844476E+02  0.11935898866E+03  0.00000000000E+00 0. -1.
         11    1    5    5    0    0 -0.91107623484E+01  0.18825743496E+01 -0.13834716282E+01  0.94055340357E+01  0.00000000000E+00 0. -1.
        -12    1    5    5    0    0  0.55747966590E+02  0.71057112580E+02  0.28449133552E+03  0.29848328096E+03  0.00000000000E+00 0.  1.
          5    1    4    4  501    0 -0.34091432225E+02 -0.58611180563E+00  0.10293992857E+02  0.35860953238E+02  0.41800000000E+01 0. -1.
         -5    1    4    4    0  501  0.71504722240E+02 -0.13172530175E+03  0.10122530740E+03  0.18091024206E+03  0.41800000000E+01 0. -1.
</event>
<event>
11    1  0.6763327E-009  0.1787098E+03  0.7561462E-02  0.1070691E+00
         22   -1    0    0    0    0  0.00000000000E+00  0.00000000000E+00  0.17216475139E+03  0.17216475139E+03  0.00000000000E+00 0. -1.
         22   -1    0    0    0    0 -0.00000000000E+00 -0.00000000000E+00 -0.13031567578E+04  0.13031567578E+04  0.00000000000E+00 0.  1.
        -24    2    1    2    0    0 -0.85889422944E+02  0.10353532205E+03 -0.10924840073E+04  0.11036928266E+04  0.80746475954E+02 0.  0.
         25    2    1    2    0    0  0.77860611907E+02 -0.48835286693E+02 -0.15408232035E+03  0.21872363237E+03  0.12510597828E+03 0.  0.
         24    2    1    2    0    0  0.80288110368E+01 -0.54700035362E+02  0.11557432121E+03  0.15290505025E+03  0.83462416645E+02 0.  0.
        -13    1    5    5    0    0 -0.82214138990E+01  0.16750058579E+02  0.34719364269E+01  0.18979211033E+02  0.00000000000E+00 0.  1.
         14    1    5    5    0    0  0.16250224936E+02 -0.71450093940E+02  0.11210238478E+03  0.13392583921E+03  0.00000000000E+00 0. -1.
         13    1    3    3    0    0 -0.57103794616E+02  0.16054475197E+02 -0.29468228384E+03  0.30059314354E+03  0.00000000000E+00 0. -1.
        -14    1    3    3    0    0 -0.28785628328E+02  0.87480846858E+02 -0.79780172347E+03  0.80309968306E+03  0.00000000000E+00 0.  1.
          5    1    4    4  501    0  0.58586926467E+02  0.34222710019E+02 -0.51603782155E+02  0.85346614266E+02  0.41800000000E+01 0.  1.
         -5    1    4    4    0  501  0.19273685440E+02 -0.83057996712E+02 -0.10247853820E+03  0.13337701811E+03  0.41800000000E+01 0.  1.
</event>
<event>
11    1  0.1429381E-008  0.2322555E+03  0.7561462E-02  0.1033801E+00
         22   -1    0    0    0    0  0.00000000000E+00  0.00000000000E+00  0.57878845473E+03  0.57878845473E+03  0.00000000000E+00 0. -1.
         22   -1    0    0    0    0 -0.00000000000E+00 -0.00000000000E+00 -0.10666810655E+04  0.10666810655E+04  0.00000000000E+00 0.  1.
         24    2    1    2    0    0 -0.50935025276E+02 -0.47182556083E+02 -0.79720335038E+03  0.80436750581E+03  0.81567960352E+02 0.  0.
         25    2    1    2    0    0  0.32614125811E+02 -0.15187077485E+03 -0.20333378771E+03  0.28481565404E+03  0.12508762570E+03 0.  0.
        -24    2    1    2    0    0  0.18320899465E+02  0.19905333093E+03  0.51264452728E+03  0.55628636043E+03  0.81805987146E+02 0.  0.
        -11    1    3    3    0    0 -0.54341780130E+02 -0.46679724479E+02 -0.79768055317E+03  0.80089093555E+03  0.00000000000E+00 0.  1.
         12    1    3    3    0    0  0.34067548548E+01 -0.50283160334E+00  0.47720279311E+00  0.34765702593E+01  0.00000000000E+00 0. -1.
         11    1    5    5    0    0 -0.18022114183E+01  0.19366174045E+03  0.47954408359E+03  0.51717564307E+03  0.00000000000E+00 0. -1.
        -12    1    5    5    0    0  0.20123110883E+02  0.53915904861E+01  0.33100443690E+02  0.39110717356E+02  0.00000000000E+00 0.  1.
          5    1    4    4  501    0  0.78068003020E+02 -0.12128480760E+03 -0.15277502033E+03  0.21014827358E+03  0.41800000000E+01 0. -1.
         -5    1    4    4    0  501 -0.45453877209E+02 -0.30585967253E+02 -0.50558767382E+02  0.74667380464E+02  0.41800000000E+01 0. -1.
</event>
<event>
11    1  0.6763327E-009  0.3071953E+03  0.7561462E-02  0.9971912E-01
         22   -1    0    0    0    0  0.00000000000E+00  0.00000000000E+00  0.81925242053E+03  0.81925242053E+03  0.00000000000E+00 0.  1.
         22   -1    0    0    0    0 -0.00000000000E+00 -0.00000000000E+00 -0.43663490612E+03  0.43663490612E+03  0.00000000000E+00 0. -1.
         24    2    1    2    0    0 -0.20565214863E+03  0.17557874232E+03 -0.21934417938E+03  0.35777029289E+03  0.82261852959E+02 0.  0.
         25    2    1    2    0    0  0.18992666453E+03 -0.25216284064E+03  0.60149669605E+02  0.34485508301E+03  0.12509520144E+03 0.  0.
        -24    2    1    2    0    0  0.15725484097E+02  0.76584098324E+02  0.54181202419E+03  0.55326195075E+03  0.80162969168E+02 0.  0.
        -11    1    3    3    0    0 -0.55899788050E+02  0.21192112013E+02 -0.16247317058E+02  0.61950522413E+02  0.00000000000E+00 0.  1.
         12    1    3    3    0    0 -0.14975236058E+03  0.15438663031E+03 -0.20309686233E+03  0.29581977047E+03  0.00000000000E+00 0. -1.
         11    1    5    5    0    0  0.35040508654E+02  0.32906196487E+02  0.12844237951E+03  0.13714262601E+03  0.00000000000E+00 0. -1.
        -12    1    5    5    0    0 -0.19315024556E+02  0.43677901837E+02  0.41336964468E+03  0.41611932474E+03  0.00000000000E+00 0.  1.
          5    1    4    4  501    0  0.16160878087E+03 -0.23759221723E+03  0.12827802255E+02  0.28766210153E+03  0.41800000000E+01 0.  1.
         -5    1    4    4    0  501  0.28317883663E+02 -0.14570623408E+02  0.47321867350E+02  0.57192981485E+02  0.41800000000E+01 0.  1.
</event>
<event>
11    1  0.6763327E-009  0.1398489E+03  0.7561462E-02  0.1107727E+00
         22   -1    0    0    0    0  0.00000000000E+00  0.00000000000E+00  0.50387339129E+03  0.50387339129E+03  0.00000000000E+00 0.  1.
         22   -1    0    0    0    0 -0.00000000000E+00 -0.00000000000E+00 -0.67521962357E+03  0.67521962357E+03  0.00000000000E+00 0.  1.
        -24    2    1    2    0    0  0.56693073028E+02 -0.53283451673E+01 -0.54838818862E+03  0.55732115637E+03  0.81454098249E+02 0.  0.
         25    2    1    2    0    0 -0.17404810399E+02 -0.45998467877E+02 -0.76579626505E+02  0.15468766607E+03  0.12508016776E+03 0.  0.
         24    2    1    2    0    0 -0.39288262629E+02  0.51326813044E+02  0.45362158285E+03  0.46708419242E+03  0.90648182920E+02 0.  0.
        -11    1    5    5    0    0 -0.26288780030E+02  0.74714854785E+02  0.39171295628E+03  0.39964040036E+03  0.00000000000E+00 0.  1.
         12    1    5    5    0    0 -0.12999482599E+02 -0.23388041740E+02  0.61908626568E+02  0.67443792063E+02  0.00000000000E+00 0. -1.
         13    1    3    3    0    0  0.20690236400E+02  0.32587938926E+02 -0.12800094622E+03  0.13369480872E+03  0.00000000000E+00 0. -1.
        -14    1    3    3    0    0  0.36002836628E+02 -0.37916284093E+02 -0.42038724241E+03  0.42362634765E+03  0.00000000000E+00 0.  1.
          5    1    4    4  501    0  0.46458088829E+02 -0.50254270796E+02 -0.27297560021E+02  0.73800236679E+02  0.41800000000E+01 0. -1.
         -5    1    4    4    0  501 -0.63862899228E+02  0.42558029189E+01 -0.49282066485E+02  0.80887429390E+02  0.41800000000E+01 0. -1.
</event>
<event>
11    1  0.6763327E-009  0.1781479E+03  0.7561462E-02  0.1071151E+00
         22   -1    0    0    0    0  0.00000000000E+00  0.00000000000E+00  0.63201339886E+03  0.63201339886E+03  0.00000000000E+00 0. -1.
         22   -1    0    0    0    0 -0.00000000000E+00 -0.00000000000E+00 -0.55735253590E+03  0.55735253590E+03  0.00000000000E+00 0.  1.
         24    2    1    2    0    0  0.24064665866E+02  0.12250975408E+03 -0.49464931839E+03  0.51833608580E+03  0.91687521885E+02 0.  0.
         25    2    1    2    0    0 -0.26496257209E+02 -0.16493235797E+03  0.19360276295E+03  0.28466759561E+03  0.12509546682E+03 0.  0.
        -24    2    1    2    0    0  0.24315913433E+01  0.42422603886E+02  0.37570741840E+03  0.38636225336E+03  0.79461541783E+02 0.  0.
        -11    1    3    3    0    0 -0.21244271388E+02  0.48875425001E+02 -0.30874731635E+03  0.31331299301E+03  0.00000000000E+00 0.  1.
         12    1    3    3    0    0  0.45308937254E+02  0.73634329079E+02 -0.18590200204E+03  0.20502309279E+03  0.00000000000E+00 0. -1.
         13    1    5    5    0    0 -0.26548716151E+02 -0.10271620977E+02  0.15585116641E+03  0.15842956352E+03  0.00000000000E+00 0. -1.
        -14    1    5    5    0    0  0.28980307495E+02  0.52694224864E+02  0.21985625199E+03  0.22793268984E+03  0.00000000000E+00 0.  1.
          5    1    4    4  501    0 -0.55407503198E+02 -0.16481054283E+03  0.13862743354E+03  0.22241300360E+03  0.41800000000E+01 0. -1.
         -5    1    4    4    0  501  0.28911245989E+02 -0.12181513663E+00  0.54975329403E+02  0.62254592012E+02  0.41800000000E+01 0. -1.
</event>
<event>
11    1  0.6763327E-009  0.1861666E+03  0.7561462E-02  0.1064761E+00
         22   -1    0    0    0    0  0.00000000000E+00  0.00000000000E+00  0.27788320721E+03  0.27788320721E+03  0.00000000000E+00 0.  1.
         22   -1    0    0    0    0 -0.00000000000E+00 -0.00000000000E+00 -0.21002619185E+03  0.21002619185E+03  0.00000000000E+00 0. -1.
         24    2    1    2    0    0 -0.11767555758E+03  0.22237230698E+02 -0.12513006668E+01  0.14480366933E+03  0.81391065951E+02 0.  0.
         25    2    1    2    0    0  0.16988211182E+03  0.40515914181E+02  0.12527250854E+02  0.21518953702E+03  0.12509250021E+03 0.  0.
        -24    2    1    2    0    0 -0.52206554241E+02 -0.62753144879E+02  0.56581065178E+02  0.12791619271E+03  0.80608026414E+02 0.  0.
        -13    1    3    3    0    0 -0.18549348854E+02  0.89315630533E+01  0.33162517321E+02  0.39033366708E+02  0.00000000000E+00 0.  1.
         14    1    3    3    0    0 -0.99126208729E+02  0.13305667644E+02 -0.34413817988E+02  0.10577030262E+03  0.00000000000E+00 0. -1.
         11    1    5    5    0    0  0.29720736661E+01  0.11227838189E+02  0.29544217044E+02  0.31745209608E+02  0.00000000000E+00 0. -1.
        -12    1    5    5    0    0 -0.55178627908E+02 -0.73980983068E+02  0.27036848134E+02  0.96170983100E+02  0.00000000000E+00 0.  1.
          5    1    4    4  501    0  0.18826277981E+03  0.40139746286E+02 -0.24682563014E-01  0.19253972708E+03  0.41800000000E+01 0.  1.
         -5    1    4    4    0  501 -0.18380667987E+02  0.37616789502E+00  0.12551933417E+02  0.22649809943E+02  0.41800000000E+01 0.  1.
</event>
<event>
11    1  0.6763327E-009  0.1350897E+03  0.7561462E-02  0.1113169E+00
         22   -1    0    0    0    0  0.00000000000E+00  0.00000000000E+00  0.10852503136E+03  0.10852503136E+03  0.00000000000E+00 0.  1.
         22   -1    0    0    0    0 -0.00000000000E+00 -0.00000000000E+00 -0.74420636400E+03  0.74420636400E+03  0.00000000000E+00 0. -1.
        -24    2    1    2    0    0  0.38431465199E+02  0.30396075943E+02 -0.57575452136E+03  0.58341873452E+03  0.80518643624E+02 0.  0.
         25    2    1    2    0    0 -0.77729942201E+02 -0.16709744671E+02 -0.93867203912E+02  0.17544170694E+03  0.12509029173E+03 0.  0.
         24    2    1    2    0    0  0.39298477002E+02 -0.13686331272E+02  0.33940392627E+02  0.93870953892E+02  0.76994284038E+02 0.  0.
        -11    1    5    5    0    0  0.36920054127E+02 -0.15600894750E+02  0.57512948842E+02  0.70101480713E+02  0.00000000000E+00 0.  1.
         12    1    5    5    0    0  0.23784228746E+01  0.19145634780E+01 -0.23572556215E+02  0.23769473178E+02  0.00000000000E+00 0. -1.
         13    1    3    3    0    0  0.83036590531E+01 -0.27641124670E+02 -0.17409706411E+03  0.17647314317E+03  0.00000000000E+00 0. -1.
        -14    1    3    3    0    0  0.30127806146E+02  0.58037200613E+02 -0.40165745725E+03  0.40694559136E+03  0.00000000000E+00 0.  1.
          5    1    4    4  501    0 -0.48092052403E+02 -0.53694102429E+02 -0.22872430708E+01  0.72239919857E+02  0.41800000000E+01 0.  1.
         -5    1    4    4    0  501 -0.29637889798E+02  0.36984357758E+02 -0.91579960842E+02  0.10320178709E+03  0.41800000000E+01 0.  1.
</event>
<event>
11    1  0.6763327E-009  0.1257264E+03  0.7561462E-02  0.1124634E+00
         22   -1    0    0    0    0  0.00000000000E+00  0.00000000000E+00  0.24914316756E+04  0.24914316756E+04  0.00000000000E+00 0.  1.
         22   -1    0    0    0    0 -0.00000000000E+00 -0.00000000000E+00 -0.30965613283E+03  0.30965613283E+03  0.00000000000E+00 0. -1.
         24    2    1    2    0    0 -0.12167248242E+02 -0.97201511449E+01 -0.14080405143E+03  0.16385623592E+03  0.82344167265E+02 0.  0.
         25    2    1    2    0    0 -0.74037071983E+01  0.14138742453E+02 -0.13132046137E+03  0.18206330565E+03  0.12508902738E+03 0.  0.
        -24    2    1    2    0    0  0.19570955440E+02 -0.44185913078E+01  0.24539000556E+04  0.24551682669E+04  0.76309826972E+02 0.  0.
        -11    1    3    3    0    0  0.27741043121E+01 -0.45395473368E+01  0.10477282329E+02  0.11750599549E+02  0.00000000000E+00 0.  1.
         12    1    3    3    0    0 -0.14941352554E+02 -0.51806038081E+01 -0.15128133376E+03  0.15210563637E+03  0.00000000000E+00 0. -1.
         11    1    5    5    0    0  0.35172909181E+02  0.24428810624E+02  0.10288150228E+04  0.10297059054E+04  0.00000000000E+00 0. -1.
        -12    1    5    5    0    0 -0.15601953740E+02 -0.28847401932E+02  0.14250850327E+04  0.14254623615E+04  0.00000000000E+00 0.  1.
          5    1    4    4  501    0 -0.64241514849E+01  0.69289887354E+02 -0.61321212791E+02  0.92844610775E+02  0.41800000000E+01 0. -1.
         -5    1    4    4    0  501 -0.97955571336E+00 -0.55151144902E+02 -0.69999248575E+02  0.89218694871E+02  0.41800000000E+01 0. -1.
</event>
<event>
11    1  0.6763327E-009  0.1516550E+03  0.7561462E-02  0.1095200E+00
         22   -1    0    0    0    0  0.00000000000E+00  0.00000000000E+00  0.19974377424E+03  0.19974377424E+03  0.00000000000E+00 0.  1.
         22   -1    0    0    0    0 -0.00000000000E+00 -0.00000000000E+00 -0.45387745958E+03  0.45387745958E+03  0.00000000000E+00 0. -1.
        -24    2    1    2    0    0 -0.23533333731E+01  0.51045459248E+02 -0.20678924579E+03  0.22778051710E+03  0.80690734955E+02 0.  0.
         25    2    1    2    0    0  0.29896186493E+02 -0.12755030746E+03 -0.17707800784E+03  0.25331338586E+03  0.12509271640E+03 0.  0.
         24    2    1    2    0    0 -0.27542853120E+02  0.76504848215E+02  0.12973356829E+03  0.17252733085E+03  0.79519058027E+02 0.  0.
        -11    1    5    5    0    0 -0.31190519392E+02  0.35123697604E+02  0.12138247293E+03  0.13015462868E+03  0.00000000000E+00 0.  1.
         12    1    5    5    0    0  0.36476662727E+01  0.41381150611E+02  0.83510953648E+01  0.42372702167E+02  0.00000000000E+00 0. -1.
         11    1    3    3    0    0  0.17803298717E+02  0.46854980645E+02 -0.19987328362E+03  0.20606231135E+03  0.00000000000E+00 0. -1.
        -12    1    3    3    0    0 -0.20156632090E+02  0.41904786029E+01 -0.69159621773E+01  0.21718205749E+02  0.00000000000E+00 0.  1.
          5    1    4    4  501    0  0.29887572489E+02 -0.30269978356E+02 -0.14441982089E+03  0.15061240203E+03  0.41800000000E+01 0. -1.
         -5    1    4    4    0  501  0.86140036037E-02 -0.97280329106E+02 -0.32658186944E+02  0.10270098383E+03  0.41800000000E+01 0. -1.
</event>
<event>
11    1  0.6763327E-009  0.1302429E+03  0.7561462E-02  0.1118971E+00
         22   -1    0    0    0    0  0.00000000000E+00  0.00000000000E+00  0.43245098702E+03  0.43245098702E+03  0.00000000000E+00 0. -1.
         22   -1    0    0    0    0 -0.00000000000E+00 -0.00000000000E+00 -0.11583435389E+04  0.11583435389E+04  0.00000000000E+00 0. -1.
        -24    2    1    2    0    0 -0.27917882057E+01  0.32548779976E+02 -0.10708376401E+04  0.10742659002E+04  0.79289064366E+02 0.  0.
         25    2    1    2    0    0 -0.60435107692E+01  0.45876790600E+01 -0.32141873570E+02  0.12937456040E+03  0.12508839283E+03 0.  0.
         24    2    1    2    0    0  0.88352989749E+01 -0.37136459036E+02  0.37708696180E+03  0.38715406531E+03  0.78971605204E+02 0.  0.
        -11    1    5    5    0    0  0.47387938467E+01 -0.52488431246E+02  0.14090758467E+03  0.15044081560E+03  0.00000000000E+00 0.  1.
         12    1    5    5    0    0  0.40965051282E+01  0.15351972211E+02  0.23617937713E+03  0.23671324971E+03  0.00000000000E+00 0. -1.
         11    1    3    3    0    0  0.31797323974E+02 -0.59147853072E+01 -0.51993752864E+03  0.52094249988E+03  0.00000000000E+00 0. -1.
        -12    1    3    3    0    0 -0.34589112180E+02  0.38463565283E+02 -0.55090011147E+03  0.55332340033E+03  0.00000000000E+00 0.  1.
          5    1    4    4  501    0  0.56549197252E+02  0.72153564666E+01  0.33347381135E+01  0.57257889912E+02  0.41800000000E+01 0.  1.
         -5    1    4    4    0  501 -0.62592708022E+02 -0.26276774065E+01 -0.35476611684E+02  0.72116670490E+02  0.41800000000E+01 0.  1.
</event>
<event>
11    1  0.6763327E-009  0.1962618E+03  0.7561462E-02  0.1057199E+00
         22   -1    0    0    0    0  0.00000000000E+00  0.00000000000E+00  0.23665737910E+04  0.23665737910E+04  0.00000000000E+00 0.  1.
         22   -1    0    0    0    0 -0.00000000000E+00 -0.00000000000E+00 -0.79357733569E+03  0.79357733569E+03  0.00000000000E+00 0.  1.
        -24    2    1    2    0    0  0.91191555239E+02  0.29553293017E+02 -0.76320028811E+03  0.77319847346E+03  0.78561458207E+02 0.  0.
         25    2    1    2    0    0 -0.21363966693E+03 -0.83295879123E+02  0.80241063558E+03  0.84385452066E+03  0.12509002030E+03 0.  0.
         24    2    1    2    0    0  0.12244811169E+03  0.53742586106E+02  0.15337861079E+04  0.15430981326E+04  0.10377965368E+03 0.  0.
        -13    1    5    5    0    0  0.19232435570E+02  0.10461488999E+02  0.84455193212E+03  0.84483566176E+03  0.00000000000E+00 0.  1.
         14    1    5    5    0    0  0.10321567612E+03  0.43281097108E+02  0.68923417573E+03  0.69826247082E+03  0.00000000000E+00 0. -1.
         13    1    3    3    0    0  0.51592300430E+02 -0.81055699124E+01 -0.17942626099E+03  0.18687227954E+03  0.00000000000E+00 0. -1.
        -14    1    3    3    0    0  0.39599254809E+02  0.37658862930E+02 -0.58377402712E+03  0.58632619392E+03  0.00000000000E+00 0.  1.
          5    1    4    4  501    0 -0.72319770425E+02 -0.83714635615E+02  0.24600020072E+03  0.26976260038E+03  0.41800000000E+01 0. -1.
         -5    1    4    4    0  501 -0.14131989650E+03  0.41875649161E+00  0.55641043486E+03  0.57409192028E+03  0.41800000000E+01 0. -1.
</event>
<event>
11    1  0.6763327E-009  0.1753461E+03  0.7561462E-02  0.1073471E+00
         22   -1    0    0    0    0  0.00000000000E+00  0.00000000000E+00  0.23695227389E+03  0.23695227389E+03  0.00000000000E+00 0.  1.
         22   -1    0    0    0    0 -0.00000000000E+00 -0.00000000000E+00 -0.93013625230E+03  0.93013625230E+03  0.00000000000E+00 0.  1.
        -24    2    1    2    0    0  0.56711548862E+02 -0.11096471368E+03 -0.76618162476E+03  0.77981157426E+03  0.74447577396E+02 0.  0.
         25    2    1    2    0    0 -0.52517811877E+02  0.97625852233E+02 -0.10083246049E+03  0.19520119537E+03  0.12508954392E+03 0.  0.
         24    2    1    2    0    0 -0.41937369849E+01  0.13338861444E+02  0.17383010684E+03  0.19207575656E+03  0.80502655599E+02 0.  0.
        -13    1    5    5    0    0  0.37166599523E+02  0.14202568945E+02  0.74113702613E+02  0.84118428419E+02  0.00000000000E+00 0.  1.
         14    1    5    5    0    0 -0.41360336508E+02 -0.86370750031E+00  0.99716404228E+02  0.10795732814E+03  0.00000000000E+00 0. -1.
         13    1    3    3    0    0 -0.43356975075E+01  0.23129372831E+01 -0.27906964378E+01  0.56511891103E+01  0.00000000000E+00 0. -1.
        -14    1    3    3    0    0  0.61047246369E+02 -0.11327765096E+03 -0.76339092832E+03  0.77416038515E+03  0.00000000000E+00 0.  1.
          5    1    4    4  501    0 -0.80307582935E+02  0.87039639332E+02 -0.36158989103E+02  0.12389572868E+03  0.41800000000E+01 0. -1.
         -5    1    4    4    0  501  0.27789771058E+02  0.10586212902E+02 -0.64673471386E+02  0.71305466692E+02  0.41800000000E+01 0. -1.
</event>
<event>
11    1  0.6763327E-009  0.1547335E+03  0.7561462E-02  0.1092138E+00
         22   -1    0    0    0    0  0.00000000000E+00  0.00000000000E+00  0.24230180530E+03  0.24230180530E+03  0.00000000000E+00 0.  1.
         22   -1    0    0    0    0 -0.00000000000E+00 -0.00000000000E+00 -0.10251072072E+04  0.10251072072E+04  0.00000000000E+00 0.  1.
         24    2    1    2    0    0  0.23831306763E+01 -0.60588667761E+02 -0.77337453729E+03  0.77985978063E+03  0.79977725241E+02 0.  0.
         25    2    1    2    0    0  0.85645459043E+02  0.32309836744E+02 -0.20487233104E+03  0.25690365966E+03  0.12509095937E+03 0.  0.
        -24    2    1    2    0    0 -0.88028589719E+02  0.28278831017E+02  0.19544146645E+03  0.23064557220E+03  0.80319912080E+02 0.  0.
        -13    1    3    3    0    0 -0.62867473558E+01 -0.67691692748E+02 -0.75682443647E+03  0.75987164449E+03  0.00000000000E+00 0.  1.
         14    1    3    3    0    0  0.86698780321E+01  0.71030249871E+01 -0.16550100821E+02  0.19988136138E+02  0.00000000000E+00 0. -1.
         11    1    5    5    0    0 -0.37309418678E+02 -0.25853736923E+02  0.99551795653E+02  0.10941192098E+03  0.00000000000E+00 0. -1.
        -12    1    5    5    0    0 -0.50719171041E+02  0.54132567940E+02  0.95889670795E+02  0.12123365122E+03  0.00000000000E+00 0.  1.
          5    1    4    4  501    0 -0.22228965547E+02 -0.32692975225E+01 -0.98878141054E+02  0.10148484810E+03  0.41800000000E+01 0.  1.
         -5    1    4    4    0  501  0.10787442459E+03  0.35579134267E+02 -0.10599418999E+03  0.15541881156E+03  0.41800000000E+01 0.  1.
</event>
<event>
11    1  0.6763327E-009  0.2122622E+03  0.7561462E-02  0.1046176E+00
         22   -1    0    0    0    0  0.00000000000E+00  0.00000000000E+00  0.11566425036E+04  0.11566425036E+04  0.00000000000E+00 0.  1.
         22   -1    0    0    0    0 -0.00000000000E+00 -0.00000000000E+00 -0.15508448124E+04  0.15508448124E+04  0.00000000000E+00 0. -1.
        -24    2    1    2    0    0 -0.17229372332E+03  0.23774030051E+02 -0.12030731213E+04  0.12182844286E+04  0.81127567818E+02 0.  0.
         25    2    1    2    0    0  0.16318654496E+03  0.46445839857E+01 -0.30727134158E+03  0.36975243067E+03  0.12509900885E+03 0.  0.
         24    2    1    2    0    0  0.91071783547E+01 -0.28418614036E+02  0.11161421541E+04  0.11194504567E+04  0.80656421751E+02 0.  0.
        -11    1    5    5    0    0  0.35238283802E+02 -0.38697829082E+02  0.89557981941E+03  0.89710783720E+03  0.00000000000E+00 0.  1.
         12    1    5    5    0    0 -0.26131105448E+02  0.10279215046E+02  0.22056233473E+03  0.22234261947E+03  0.00000000000E+00 0. -1.
         11    1    3    3    0    0 -0.89846186371E+02  0.16905919721E+01 -0.86290284028E+03  0.86756930966E+03  0.00000000000E+00 0. -1.
        -12    1    3    3    0    0 -0.82447536947E+02  0.22083438079E+02 -0.34017028102E+03  0.35071511898E+03  0.00000000000E+00 0.  1.
          5    1    4    4  501    0  0.12787514161E+03  0.15080598234E+02 -0.30673474956E+03  0.33269078027E+03  0.41800000000E+01 0. -1.
         -5    1    4    4    0  501  0.35311403348E+02 -0.10436014249E+02 -0.53659201961E+00  0.37061650406E+02  0.41800000000E+01 0. -1.
</event>
<event>
11    1  0.6763327E-009  0.1363055E+03  0.7561462E-02  0.1111756E+00
         22   -1    0    0    0    0  0.00000000000E+00  0.00000000000E+00  0.45555015302E+03  0.45555015302E+03  0.00000000000E+00 0.  1.
         22   -1    0    0    0    0 -0.00000000000E+00 -0.00000000000E+00 -0.39589284302E+03  0.39589284302E+03  0.00000000000E+00 0. -1.
        -24    2    1    2    0    0 -0.13974763287E+01 -0.54685557228E+02 -0.35855559851E+03  0.37144832557E+03  0.80120398378E+02 0.  0.
         25    2    1    2    0    0  0.27743045079E+02  0.37071111404E+02  0.16247570757E+03  0.21021381569E+03  0.12509016311E+03 0.  0.
         24    2    1    2    0    0 -0.26345568750E+02  0.17614445825E+02  0.25573720094E+03  0.26978085477E+03  0.79848831955E+02 0.  0.
        -11    1    5    5    0    0  0.24320829867E+02  0.18783720639E+02  0.14162785809E+03  0.14492336289E+03  0.00000000000E+00 0.  1.
         12    1    5    5    0    0 -0.50666398618E+02 -0.11692748143E+01  0.11410934285E+03  0.12485749188E+03  0.00000000000E+00 0. -1.
         11    1    3    3    0    0  0.12912023257E+02 -0.56167371875E+02 -0.34999413935E+03  0.35470747326E+03  0.00000000000E+00 0. -1.
        -12    1    3    3    0    0 -0.14309499586E+02  0.14818146470E+01 -0.85614591578E+01  0.16740852307E+02  0.00000000000E+00 0.  1.
          5    1    4    4  501    0  0.58914928105E+02 -0.76633312542E+01  0.13799748405E+03  0.15030127545E+03  0.41800000000E+01 0. -1.
         -5    1    4    4    0  501 -0.31171883026E+02  0.44734442658E+02  0.24478223523E+02  0.59912540241E+02  0.41800000000E+01 0. -1.
</event>
<event>
11    1  0.6763327E-009  0.1362122E+03  0.7561462E-02  0.1111863E+00
         22   -1    0    0    0    0  0.00000000000E+00  0.00000000000E+00  0.59323657140E+02  0.59323657140E+02  0.00000000000E+00 0.  1.
         22   -1    0    0    0    0 -0.00000000000E+00 -0.00000000000E+00 -0.14082817283E+04  0.14082817283E+04  0.00000000000E+00 0. -1.
        -24    2    1    2    0    0  0.25218174714E+02  0.12917222856E+02 -0.79348580686E+03  0.79810729109E+03  0.80948819784E+02 0.  0.
         25    2    1    2    0    0  0.23362664950E+02 -0.39008403286E+02 -0.55637654099E+03  0.57207533991E+03  0.12509144463E+03 0.  0.
         24    2    1    2    0    0 -0.48580839664E+02  0.26091180431E+02  0.90427664779E+00  0.97422754487E+02  0.80308951536E+02 0.  0.
        -11    1    5    5    0    0 -0.36799760843E+02  0.92290042621E+01  0.38823722611E+02  0.54283315624E+02  0.00000000000E+00 0.  1.
         12    1    5    5    0    0 -0.11781078822E+02  0.16862176169E+02 -0.37919445963E+02  0.43139438864E+02  0.00000000000E+00 0. -1.
         11    1    3    3    0    0 -0.83761840945E+01  0.36251089824E+02 -0.21652159723E+03  0.21969502507E+03  0.00000000000E+00 0. -1.
        -12    1    3    3    0    0  0.33594358808E+02 -0.23333866968E+02 -0.57696420963E+03  0.57841226602E+03  0.00000000000E+00 0.  1.
          5    1    4    4  501    0  0.26937299198E+02 -0.83159336907E+02 -0.33274002947E+03  0.34405594460E+03  0.41800000000E+01 0.  1.
         -5    1    4    4    0  501 -0.35746342471E+01  0.44150933620E+02 -0.22363651153E+03  0.22801939531E+03  0.41800000000E+01 0.  1.
</event>
<event>
11    1  0.6763327E-009  0.1453212E+03  0.7561462E-02  0.1101758E+00
         22   -1    0    0    0    0  0.00000000000E+00  0.00000000000E+00  0.96431787858E+03  0.96431787858E+03  0.00000000000E+00 0. -1.
         22   -1    0    0    0    0 -0.00000000000E+00 -0.00000000000E+00 -0.34032085325E+03  0.34032085325E+03  0.00000000000E+00 0. -1.
         24    2    1    2    0    0  0.69596367633E+02 -0.24671862448E+02 -0.31685814111E+03  0.33489822403E+03  0.79406446124E+02 0.  0.
         25    2    1    2    0    0 -0.76984733343E+02  0.25412410197E+02  0.50799320002E+03  0.52941214795E+03  0.12509073254E+03 0.  0.
        -24    2    1    2    0    0  0.73883657097E+01 -0.74054774864E+00  0.43286196642E+03  0.44032835986E+03  0.80401779592E+02 0.  0.
        -13    1    3    3    0    0  0.63229999876E+02 -0.50438965375E+02 -0.21737816745E+03  0.23193833188E+03  0.00000000000E+00 0.  1.
         14    1    3    3    0    0  0.63663677571E+01  0.25767102926E+02 -0.99479973656E+02  0.10295989214E+03  0.00000000000E+00 0. -1.
         11    1    5    5    0    0  0.42607220100E+02  0.73854834744E+01  0.19509668137E+03  0.19983151816E+03  0.00000000000E+00 0. -1.
        -12    1    5    5    0    0 -0.35218854390E+02 -0.81260312231E+01  0.23776528506E+03  0.24049684170E+03  0.00000000000E+00 0.  1.
          5    1    4    4  501    0 -0.34488434942E+02  0.67811897780E+02  0.38524271275E+03  0.39270513844E+03  0.41800000000E+01 0. -1.
         -5    1    4    4    0  501 -0.42496298400E+02 -0.42399487583E+02  0.12275048727E+03  0.13670700951E+03  0.41800000000E+01 0. -1.
</event>
<event>
11    1  0.6763327E-009  0.2486278E+03  0.7561462E-02  0.1024633E+00
         22   -1    0    0    0    0  0.00000000000E+00  0.00000000000E+00  0.20748940767E+03  0.20748940767E+03  0.00000000000E+00 0. -1.
         22   -1    0    0    0    0 -0.00000000000E+00 -0.00000000000E+00 -0.11432792099E+04  0.11432792099E+04  0.00000000000E+00 0. -1.
        -24    2    1    2    0    0  0.60961992092E+01 -0.21862376289E+03 -0.99082678253E+03  0.10178455153E+04  0.80238810363E+02 0.  0.
         25    2    1    2    0    0  0.55181457193E+01  0.18509106891E+03 -0.12944934839E+02  0.22383910582E+03  0.12508884936E+03 0.  0.
         24    2    1    2    0    0 -0.11614344929E+02  0.33532693973E+02  0.67981915122E+02  0.10908399647E+03  0.77578624171E+02 0.  0.
        -13    1    5    5    0    0  0.39729560338E+01  0.33895415560E+02 -0.49674116870E+01  0.34487080980E+02  0.00000000000E+00 0.  1.
         14    1    5    5    0    0 -0.15587300962E+02 -0.36272158713E+00  0.72949326809E+02  0.74596915487E+02  0.00000000000E+00 0. -1.
         11    1    3    3    0    0 -0.26348737124E+02 -0.79163539270E+02 -0.48583083186E+03  0.49294291666E+03  0.00000000000E+00 0. -1.
        -12    1    3    3    0    0  0.32444936333E+02 -0.13946022362E+03 -0.50499595067E+03  0.52490259864E+03  0.00000000000E+00 0.  1.
          5    1    4    4  501    0 -0.70576399024E+01  0.25951207362E+02  0.46139344598E+02  0.53568525875E+02  0.41800000000E+01 0.  1.
         -5    1    4    4    0  501  0.12575785622E+02  0.15913986155E+03 -0.59084279437E+02  0.17027057995E+03  0.41800000000E+01 0.  1.
</event>
<event>
11    1  0.6763327E-009  0.1687365E+03  0.7561462E-02  0.1079136E+00
         22   -1    0    0    0    0  0.00000000000E+00  0.00000000000E+00  0.24922892400E+03  0.24922892400E+03  0.00000000000E+00 0.  1.
         22   -1    0    0    0    0 -0.00000000000E+00 -0.00000000000E+00 -0.43668950847E+04  0.43668950847E+04  0.00000000000E+00 0.  1.
         24    2    1    2    0    0  0.55210979104E+02  0.10055820329E+03 -0.42704577975E+04  0.42727473132E+04  0.79997488981E+02 0.  0.
         25    2    1    2    0    0  0.37561358232E+02 -0.48856454901E+02 -0.20579426957E+01  0.13946018077E+03  0.12508836106E+03 0.  0.
        -24    2    1    2    0    0 -0.92772337336E+02 -0.51701748387E+02  0.15484957948E+03  0.20391651470E+03  0.79522168868E+02 0.  0.
        -11    1    3    3    0    0  0.47271765300E+02  0.98185099301E+02 -0.26159122159E+04  0.26181809820E+04  0.00000000000E+00 0.  1.
         12    1    3    3    0    0  0.79392138036E+01  0.23731039862E+01 -0.16545455816E+04  0.16545663312E+04  0.00000000000E+00 0. -1.
         11    1    5    5    0    0 -0.75148505036E+02  0.30665264447E+00  0.69089861772E+02  0.10208232386E+03  0.00000000000E+00 0. -1.
        -12    1    5    5    0    0 -0.17623832299E+02 -0.52008401031E+02  0.85759717706E+02  0.10183419084E+03  0.00000000000E+00 0.  1.
          5    1    4    4  501    0 -0.17693927996E+02 -0.55010922674E+01  0.48983540243E+02  0.52537574352E+02  0.41800000000E+01 0.  1.
         -5    1    4    4    0  501  0.55255286228E+02 -0.43355362634E+02 -0.51041482939E+02  0.86922606414E+02  0.41800000000E+01 0.  1.
</event>
<event>
11    1  0.6763327E-009  0.1281558E+03  0.7561462E-02  0.1121556E+00
         22   -1    0    0    0    0  0.00000000000E+00  0.00000000000E+00  0.80982281508E+03  0.80982281508E+03  0.00000000000E+00 0.  1.
         22   -1    0    0    0    0 -0.00000000000E+00 -0.00000000000E+00 -0.31483352553E+03  0.31483352553E+03  0.00000000000E+00 0. -1.
        -24    2    1    2    0    0 -0.15988915538E+02 -0.21438814995E+02 -0.27312180791E+03  0.28653278522E+03  0.82402954105E+02 0.  0.
         25    2    1    2    0    0  0.21195550264E+02  0.48408345558E+02  0.11092335063E+03  0.17534117859E+03  0.12509164610E+03 0.  0.
         24    2    1    2    0    0 -0.52066347256E+01 -0.26969530563E+02  0.65718774682E+03  0.66278237680E+03  0.81426530042E+02 0.  0.
        -11    1    5    5    0    0 -0.29052197748E+02 -0.45962907528E+02  0.46897775450E+03  0.47211942692E+03  0.00000000000E+00 0.  1.
         12    1    5    5    0    0  0.23845563022E+02  0.18993376966E+02  0.18820999233E+03  0.19066294988E+03  0.00000000000E+00 0. -1.
         13    1    3    3    0    0 -0.26997434268E+01  0.80540346392E+01 -0.24029672731E+03  0.24044682000E+03  0.00000000000E+00 0. -1.
        -14    1    3    3    0    0 -0.13289172112E+02 -0.29492849634E+02 -0.32825080591E+02  0.46085965225E+02  0.00000000000E+00 0.  1.
          5    1    4    4  501    0 -0.74607289090E+01 -0.89621665770E+01  0.11038063070E+03  0.11107357444E+03  0.41800000000E+01 0. -1.
         -5    1    4    4    0  501  0.28656279173E+02  0.57370512135E+02  0.54271993276E+00  0.64267604153E+02  0.41800000000E+01 0. -1.
</event>
<event>
11    1  0.7079396E-009  0.1922091E+03  0.7561462E-02  0.1060174E+00
         22   -1    0    0    0    0  0.00000000000E+00  0.00000000000E+00  0.10752885184E+04  0.10752885184E+04  0.00000000000E+00 0.  1.
         22   -1    0    0    0    0 -0.00000000000E+00 -0.00000000000E+00 -0.86866005494E+03  0.86866005494E+03  0.00000000000E+00 0. -1.
        -24    2    1    2    0    0  0.91308512486E+02  0.38470696955E+02 -0.69883846381E+03  0.71029742655E+03  0.79561276306E+02 0.  0.
         25    2    1    2    0    0 -0.22950138964E+03 -0.70192482125E+02 -0.40576847734E+02  0.27366303683E+03  0.12508838779E+03 0.  0.
         24    2    1    2    0    0  0.13819287716E+03  0.31721785171E+02  0.94604377497E+03  0.95998810992E+03  0.80466167311E+02 0.  0.
        -11    1    5    5    0    0  0.14709492294E+03  0.33704733459E+02  0.83158652994E+03  0.84516807926E+03  0.00000000000E+00 0.  1.
         12    1    5    5    0    0 -0.89020457799E+01 -0.19829482882E+01  0.11445724503E+03  0.11482003067E+03  0.00000000000E+00 0. -1.
         13    1    3    3    0    0  0.82124715053E+02  0.54940079019E+02 -0.65722503366E+03  0.66461088313E+03  0.00000000000E+00 0. -1.
        -14    1    3    3    0    0  0.91837974327E+01 -0.16469382065E+02 -0.41613430149E+02  0.45686543420E+02  0.00000000000E+00 0.  1.
          5    1    4    4  501    0 -0.14931723560E+03 -0.10223203192E+03 -0.77008832766E+01  0.18117340093E+03  0.41800000000E+01 0.  1.
         -5    1    4    4    0  501 -0.80184154041E+02  0.32039549799E+02 -0.32875964458E+02  0.92489635904E+02  0.41800000000E+01 0.  1.
</event>
<event>
11    1  0.6763327E-009  0.1592510E+03  0.7561462E-02  0.1087784E+00
         22   -1    0    0    0    0  0.00000000000E+00  0.00000000000E+00  0.14298637793E+04  0.14298637793E+04  0.00000000000E+00 0. -1.
         22   -1    0    0    0    0 -0.00000000000E+00 -0.00000000000E+00 -0.80965684147E+02  0.80965684147E+02  0.00000000000E+00 0.  1.
        -24    2    1    2    0    0  0.33738898094E+01 -0.49030683899E+02 -0.25941354192E+02  0.10075489191E+03  0.84042865792E+02 0.  0.
         25    2    1    2    0    0 -0.10085116516E+03  0.41991893905E+02  0.52088384070E+03  0.54671793550E+03  0.12508496646E+03 0.  0.
         24    2    1    2    0    0  0.97477275350E+02  0.70387899933E+01  0.85395560867E+03  0.86335663606E+03  0.81198126002E+02 0.  0.
        -11    1    5    5    0    0 -0.93650472280E+00  0.85478992684E+01  0.81636156799E+01  0.11856991354E+02  0.00000000000E+00 0.  1.
         12    1    5    5    0    0  0.98413780073E+02 -0.15091092751E+01  0.84579199299E+03  0.85149964470E+03  0.00000000000E+00 0. -1.
         13    1    3    3    0    0  0.19959048285E+02 -0.23718844672E+02  0.26120675151E+02  0.40536858183E+02  0.00000000000E+00 0. -1.
        -14    1    3    3    0    0 -0.16585158476E+02 -0.25311839227E+02 -0.52062029343E+02  0.60218033727E+02  0.00000000000E+00 0.  1.
          5    1    4    4  501    0 -0.21416847743E+02 -0.43887520342E+02  0.15523124740E+03  0.16278516019E+03  0.41800000000E+01 0.  1.
         -5    1    4    4    0  501 -0.79434317416E+02  0.85879414248E+02  0.36565259329E+03  0.38393277531E+03  0.41800000000E+01 0.  1.
</event>
<event>
11    1  0.6763327E-009  0.1327804E+03  0.7561462E-02  0.1115899E+00
         22   -1    0    0    0    0  0.00000000000E+00  0.00000000000E+00  0.15858754245E+03  0.15858754245E+03  0.00000000000E+00 0. -1.
         22   -1    0    0    0    0 -0.00000000000E+00 -0.00000000000E+00 -0.91090876379E+03  0.91090876379E+03  0.00000000000E+00 0. -1.
         24    2    1    2    0    0  0.81568439752E+01 -0.98814104734E-01 -0.72461812909E+03  0.72925940345E+03  0.81739223376E+02 0.  0.
         25    2    1    2    0    0  0.12446308651E+02  0.39914696193E+02 -0.14131797550E+03  0.19331029680E+03  0.12509998833E+03 0.  0.
        -24    2    1    2    0    0 -0.20603152626E+02 -0.39815882089E+02  0.11361488325E+03  0.14692660600E+03  0.81665730200E+02 0.  0.
        -11    1    3    3    0    0  0.19799623270E+02  0.34279244230E+02 -0.51524540741E+03  0.51676389340E+03  0.00000000000E+00 0.  1.
         12    1    3    3    0    0 -0.11642779295E+02 -0.34378058334E+02 -0.20937272168E+03  0.21249551004E+03  0.00000000000E+00 0. -1.
         13    1    5    5    0    0 -0.50511635776E+02 -0.33969758264E+02  0.88623755392E+02  0.10751530052E+03  0.00000000000E+00 0. -1.
        -14    1    5    5    0    0  0.29908483149E+02 -0.58461238242E+01  0.24991127860E+02  0.39411305482E+02  0.00000000000E+00 0.  1.
          5    1    4    4  501    0 -0.33373083093E+02 -0.86639095794E+01  0.23652217386E+01  0.34812248968E+02  0.41800000000E+01 0. -1.
         -5    1    4    4    0  501  0.45819391745E+02  0.48578605773E+02 -0.14368319724E+03  0.15849804783E+03  0.41800000000E+01 0. -1.
</event>
<event>
11    1  0.6763327E-009  0.1487706E+03  0.7561462E-02  0.1098142E+00
         22   -1    0    0    0    0  0.00000000000E+00  0.00000000000E+00  0.16876479012E+04  0.16876479012E+04  0.00000000000E+00 0. -1.
         22   -1    0    0    0    0 -0.00000000000E+00 -0.00000000000E+00 -0.47618309341E+03  0.47618309341E+03  0.00000000000E+00 0. -1.
        -24    2    1    2    0    0  0.75889656334E+02 -0.18501284114E+02 -0.39943516073E+03  0.41507134895E+03  0.81450841848E+02 0.  0.
         25    2    1    2    0    0 -0.10373507865E+03  0.55222951807E+02  0.41267827056E+02  0.17652501350E+03  0.12508999118E+03 0.  0.
         24    2    1    2    0    0  0.27845422312E+02 -0.36721667694E+02  0.15696321414E+04  0.15722346321E+04  0.77799939986E+02 0.  0.
        -11    1    5    5    0    0  0.21580214625E+02 -0.43030527414E+02  0.45005342582E+03  0.45262061160E+03  0.00000000000E+00 0.  1.
         12    1    5    5    0    0  0.62652076872E+01  0.63088597208E+01  0.11195787156E+04  0.11196140205E+04  0.00000000000E+00 0. -1.
         13    1    3    3    0    0  0.91129135719E+02 -0.21206333559E+02 -0.37185125121E+03  0.38344175696E+03  0.00000000000E+00 0. -1.
        -14    1    3    3    0    0 -0.15239479386E+02  0.27050494452E+01 -0.27583909522E+02  0.31629591982E+02  0.00000000000E+00 0.  1.
          5    1    4    4  501    0  0.14598376281E+02  0.39498140400E+02 -0.14458541759E+02  0.44718424781E+02  0.41800000000E+01 0. -1.
         -5    1    4    4    0  501 -0.11833345493E+03  0.15724811407E+02  0.55726368815E+02  0.13180658872E+03  0.41800000000E+01 0. -1.
</event>
<event>
11    1  0.6763327E-009  0.2757654E+03  0.7561462E-02  0.1011004E+00
         22   -1    0    0    0    0  0.00000000000E+00  0.00000000000E+00  0.79465695519E+03  0.79465695519E+03  0.00000000000E+00 0.  1.
         22   -1    0    0    0    0 -0.00000000000E+00 -0.00000000000E+00 -0.16274811579E+03  0.16274811579E+03  0.00000000000E+00 0. -1.
        -24    2    1    2    0    0 -0.17255130151E+02 -0.26703424371E+02 -0.21437144846E+02  0.89264885969E+02  0.80609281713E+02 0.  0.
         25    2    1    2    0    0 -0.21783660377E+03  0.11085815760E+03  0.48155086239E+03  0.55432899669E+03  0.12508831464E+03 0.  0.
         24    2    1    2    0    0  0.23509173392E+03 -0.84154733228E+02  0.17179512186E+03  0.31381118831E+03  0.81324999452E+02 0.  0.
        -13    1    5    5    0    0  0.15108038503E+03 -0.39973215042E+02  0.60613409410E+02  0.16762197368E+03  0.00000000000E+00 0.  1.
         14    1    5    5    0    0  0.84011348887E+02 -0.44181518186E+02  0.11118171245E+03  0.14618921463E+03  0.00000000000E+00 0. -1.
         11    1    3    3    0    0 -0.59149240522E+01 -0.54343455951E+02 -0.23095254313E+02  0.59342971808E+02  0.00000000000E+00 0. -1.
        -12    1    3    3    0    0 -0.11340206098E+02  0.27640031579E+02  0.16581094675E+01  0.29921914161E+02  0.00000000000E+00 0.  1.
          5    1    4    4  501    0 -0.89872156588E+02 -0.17639334683E+02  0.18982837352E+03  0.21080899993E+03  0.41800000000E+01 0. -1.
         -5    1    4    4    0  501 -0.12796444718E+03  0.12849749228E+03  0.29172248887E+03  0.34351999677E+03  0.41800000000E+01 0. -1.
</event>
<event>
11    1  0.6763327E-009  0.1547837E+03  0.7561462E-02  0.1092089E+00
         22   -1    0    0    0    0  0.00000000000E+00  0.00000000000E+00  0.83482973763E+02  0.83482973763E+02  0.00000000000E+00 0. -1.
         22   -1    0    0    0    0 -0.00000000000E+00 -0.00000000000E+00 -0.17702646347E+04  0.17702646347E+04  0.00000000000E+00 0.  1.
         24    2    1    2    0    0 -0.15511502715E+02 -0.89264092298E+02 -0.15580537984E+04  0.15627493450E+04  0.80281952451E+02 0.  0.
         25    2    1    2    0    0  0.26790700138E+02  0.97931107675E+02 -0.13418437771E+03  0.20964535082E+03  0.12504991976E+03 0.  0.
        -24    2    1    2    0    0 -0.11279197423E+02 -0.86670153776E+01  0.54565151190E+01  0.81352912645E+02  0.79913612035E+02 0.  0.
        -13    1    3    3    0    0 -0.18374872787E+02 -0.10056175930E+02 -0.85255312142E+03  0.85281040535E+03  0.00000000000E+00 0.  1.
         14    1    3    3    0    0  0.28633700723E+01 -0.79207916367E+02 -0.70550067696E+03  0.70993893969E+03  0.00000000000E+00 0. -1.
         13    1    5    5    0    0  0.12575692614E+02 -0.39894780962E+02  0.14882689055E+01  0.41856379885E+02  0.00000000000E+00 0. -1.
        -14    1    5    5    0    0 -0.23854890037E+02  0.31227765584E+02  0.39682462135E+01  0.39496532760E+02  0.00000000000E+00 0.  1.
          5    1    4    4  501    0  0.72546807032E+02  0.30528242948E+02 -0.75597779778E+02  0.10921313811E+03  0.41800000000E+01 0.  1.
         -5    1    4    4    0  501 -0.45756106894E+02  0.67402864727E+02 -0.58586597937E+02  0.10043221271E+03  0.41800000000E+01 0.  1.
</event>
<event>
11    1  0.6763327E-009  0.1710574E+03  0.7561462E-02  0.1077115E+00
         22   -1    0    0    0    0  0.00000000000E+00  0.00000000000E+00  0.18649158865E+03  0.18649158865E+03  0.00000000000E+00 0. -1.
         22   -1    0    0    0    0 -0.00000000000E+00 -0.00000000000E+00 -0.28110472265E+04  0.28110472265E+04  0.00000000000E+00 0. -1.
        -24    2    1    2    0    0 -0.28945977724E+02  0.11192377216E+03 -0.23998520451E+04  0.24040818351E+04  0.83395628534E+02 0.  0.
         25    2    1    2    0    0 -0.14028108412E+02 -0.13446190977E+03 -0.37405628896E+03  0.41694385448E+03  0.12508907814E+03 0.  0.
         24    2    1    2    0    0  0.42974086136E+02  0.22538137611E+02  0.14935269627E+03  0.17651312557E+03  0.80597244923E+02 0.  0.
        -11    1    5    5    0    0 -0.10753283986E+02  0.32308533024E+02  0.88104182364E+02  0.94455393561E+02  0.00000000000E+00 0.  1.
         12    1    5    5    0    0  0.53727370122E+02 -0.97703954121E+01  0.61248513901E+02  0.82057732006E+02  0.00000000000E+00 0. -1.
         13    1    3    3    0    0 -0.24398626002E+02  0.59750149840E+02 -0.19691553040E+04  0.19702126750E+04  0.00000000000E+00 0. -1.
        -14    1    3    3    0    0 -0.45473517215E+01  0.52173622316E+02 -0.43069674113E+03  0.43386916011E+03  0.00000000000E+00 0.  1.
          5    1    4    4  501    0 -0.69187537566E+02 -0.79346167873E+02 -0.19615540375E+03  0.22265925656E+03  0.41800000000E+01 0.  1.
         -5    1    4    4    0  501  0.55159429154E+02 -0.55115741894E+02 -0.17790088521E+03  0.19428459792E+03  0.41800000000E+01 0.  1.
</event>
<event>
11    1  0.6763327E-009  0.2079905E+03  0.7561462E-02  0.1049013E+00
         22   -1    0    0    0    0  0.00000000000E+00  0.00000000000E+00  0.82880257087E+03  0.82880257087E+03  0.00000000000E+00 0.  1.
         22   -1    0    0    0    0 -0.00000000000E+00 -0.00000000000E+00 -0.41800322833E+03  0.41800322833E+03  0.00000000000E+00 0.  1.
        -24    2    1    2    0    0 -0.32954320937E+02 -0.16313302487E+03 -0.30932101567E+03  0.36050757923E+03  0.81165589253E+02 0.  0.
         25    2    1    2    0    0  0.80735723916E+02  0.15074829346E+03  0.60965175053E+02  0.22045690477E+03  0.12506474000E+03 0.  0.
         24    2    1    2    0    0 -0.47781402978E+02  0.12384731405E+02  0.65915518316E+03  0.66584131520E+03  0.80141484223E+02 0.  0.
        -13    1    5    5    0    0 -0.50022441243E+01  0.34244542311E+02  0.13060781237E+03  0.13511517966E+03  0.00000000000E+00 0.  1.
         14    1    5    5    0    0 -0.42779158854E+02 -0.21859810906E+02  0.52854737080E+03  0.53072613554E+03  0.00000000000E+00 0. -1.
         13    1    3    3    0    0  0.17402140759E+02 -0.49143489914E+01 -0.43267141267E+02  0.46893825206E+02  0.00000000000E+00 0. -1.
        -14    1    3    3    0    0 -0.50356461696E+02 -0.15821867588E+03 -0.26605387440E+03  0.31361375403E+03  0.00000000000E+00 0.  1.
          5    1    4    4  501    0 -0.33542795200E+02  0.40970907158E+02  0.19748976091E+02  0.56667705087E+02  0.41800000000E+01 0. -1.
         -5    1    4    4    0  501  0.11427851912E+03  0.10977738630E+03  0.41216198961E+02  0.16378919968E+03  0.41800000000E+01 0. -1.
</event>
<event>
11    1  0.6763327E-009  0.1494384E+03  0.7561462E-02  0.1097454E+00
         22   -1    0    0    0    0  0.00000000000E+00  0.00000000000E+00  0.69144115851E+03  0.69144115851E+03  0.00000000000E+00 0.  1.
         22   -1    0    0    0    0 -0.00000000000E+00 -0.00000000000E+00 -0.16803758199E+03  0.16803758199E+03  0.00000000000E+00 0.  1.
        -24    2    1    2    0    0  0.31260412535E+02 -0.35026618391E+02 -0.10630282653E+03  0.14148769624E+03  0.80711832288E+02 0.  0.
         25    2    1    2    0    0  0.53222290228E+02  0.12960222458E+02  0.85668232682E+02  0.16120524482E+03  0.12508998890E+03 0.  0.
         24    2    1    2    0    0 -0.84482702763E+02  0.22066395933E+02  0.54403817037E+03  0.55678579944E+03  0.80053998911E+02 0.  0.
        -11    1    5    5    0    0 -0.83494001697E+02  0.54545457373E+01  0.52445201268E+03  0.53108465803E+03  0.00000000000E+00 0.  1.
         12    1    5    5    0    0 -0.98870106554E+00  0.16611850196E+02  0.19586157686E+02  0.25701141407E+02  0.00000000000E+00 0. -1.
         13    1    3    3    0    0  0.30066201775E+02 -0.55985647301E+01  0.61326020464E+00  0.30589156646E+02  0.00000000000E+00 0. -1.
        -14    1    3    3    0    0  0.11942107596E+01 -0.29428053661E+02 -0.10691608673E+03  0.11089853959E+03  0.00000000000E+00 0.  1.
          5    1    4    4  501    0  0.59391560084E+02 -0.44929167487E+02  0.66049245543E+02  0.99629125948E+02  0.41800000000E+01 0. -1.
         -5    1    4    4    0  501 -0.61692698560E+01  0.57889389946E+02  0.19618987138E+02  0.61576118871E+02  0.41800000000E+01 0. -1.
</event>
<event>
11    1  0.6763327E-009  0.2059658E+03  0.7561462E-02  0.1050383E+00
         22   -1    0    0    0    0  0.00000000000E+00  0.00000000000E+00  0.12922323289E+04  0.12922323289E+04  0.00000000000E+00 0.  1.
         22   -1    0    0    0    0 -0.00000000000E+00 -0.00000000000E+00 -0.26294202333E+04  0.26294202333E+04  0.00000000000E+00 0.  1.
         24    2    1    2    0    0  0.12171980205E+03 -0.11020518982E+03 -0.25518663150E+04  0.25584324621E+04  0.81203935909E+02 0.  0.
         25    2    1    2    0    0 -0.10790419045E+03  0.91849418977E+02  0.50220583503E+02  0.19558925930E+03  0.12511363340E+03 0.  0.
        -24    2    1    2    0    0 -0.13815611599E+02  0.18355770839E+02  0.11644578271E+04  0.11676308408E+04  0.82897189242E+02 0.  0.
        -13    1    3    3    0    0  0.10543045966E+03 -0.11820098096E+03 -0.24369987518E+04  0.24421404485E+04  0.00000000000E+00 0.  1.
         14    1    3    3    0    0  0.16289342394E+02  0.79957911384E+01 -0.11486756320E+03  0.11629201360E+03  0.00000000000E+00 0. -1.
         11    1    5    5    0    0  0.28642156460E+02  0.29934437772E+02  0.63275274958E+03  0.63410762950E+03  0.00000000000E+00 0. -1.
        -12    1    5    5    0    0 -0.42457768059E+02 -0.11578666933E+02  0.53170507747E+03  0.53352321131E+03  0.00000000000E+00 0.  1.
          5    1    4    4  501    0  0.13533952604E+02 -0.45387828874E+01  0.37060510280E+02  0.39933973574E+02  0.41800000000E+01 0.  1.
         -5    1    4    4    0  501 -0.12143814305E+03  0.96388201865E+02  0.13160073222E+02  0.15565528573E+03  0.41800000000E+01 0.  1.
</event>
<event>
11    1  0.6763327E-009  0.1584748E+03  0.7561462E-02  0.1088521E+00
         22   -1    0    0    0    0  0.00000000000E+00  0.00000000000E+00  0.11463805962E+04  0.11463805962E+04  0.00000000000E+00 0. -1.
         22   -1    0    0    0    0 -0.00000000000E+00 -0.00000000000E+00 -0.27475665764E+03  0.27475665764E+03  0.00000000000E+00 0.  1.
        -24    2    1    2    0    0 -0.58218127919E+02 -0.14391903690E+02 -0.23036153308E+03  0.25118439163E+03  0.80191554200E+02 0.  0.
         25    2    1    2    0    0  0.13319987226E+03 -0.38959394182E+02  0.26575426641E+03  0.32485581258E+03  0.12508368593E+03 0.  0.
         24    2    1    2    0    0 -0.74981744345E+02  0.53351297872E+02  0.83623120523E+03  0.84509704964E+03  0.80235726054E+02 0.  0.
        -13    1    5    5    0    0  0.13037792123E+01 -0.25610372143E+01 -0.60172551451E+00  0.29361242211E+01  0.00000000000E+00 0.  1.
         14    1    5    5    0    0 -0.76285523558E+02  0.55912335086E+02  0.83683293075E+03  0.84216092542E+03  0.00000000000E+00 0. -1.
         11    1    3    3    0    0 -0.17863477412E+02  0.13602597914E+02 -0.85908448439E+01  0.24040322593E+02  0.00000000000E+00 0. -1.
        -12    1    3    3    0    0 -0.40354650507E+02 -0.27994501604E+02 -0.22177068824E+03  0.22714406904E+03  0.00000000000E+00 0.  1.
          5    1    4    4  501    0  0.71740976904E+02 -0.60700689240E+02  0.66590207708E+02  0.11525220000E+03  0.41800000000E+01 0.  1.
         -5    1    4    4    0  501  0.61458895360E+02  0.21741295058E+02  0.19916405870E+03  0.20960361259E+03  0.41800000000E+01 0.  1.
</event>
<event>
11    1  0.6763327E-009  0.1432268E+03  0.7561462E-02  0.1104008E+00
         22   -1    0    0    0    0  0.00000000000E+00  0.00000000000E+00  0.25805279290E+03  0.25805279290E+03  0.00000000000E+00 0.  1.
         22   -1    0    0    0    0 -0.00000000000E+00 -0.00000000000E+00 -0.53130710691E+03  0.53130710691E+03  0.00000000000E+00 0.  1.
         24    2    1    2    0    0 -0.31543552525E+02  0.33704199599E+02 -0.38322770169E+03  0.39454062654E+03  0.81657001372E+02 0.  0.
         25    2    1    2    0    0  0.54228188520E+02 -0.95380803983E+02 -0.75191799223E+02  0.18258412023E+03  0.12507981488E+03 0.  0.
        -24    2    1    2    0    0 -0.22684635995E+02  0.61676604384E+02  0.18516518691E+03  0.21223515304E+03  0.80243488858E+02 0.  0.
        -13    1    3    3    0    0 -0.45207176715E+02  0.48152831194E+02 -0.34684713413E+03  0.35307976214E+03  0.00000000000E+00 0.  1.
         14    1    3    3    0    0  0.13663624190E+02 -0.14448631595E+02 -0.36380567558E+02  0.41460864400E+02  0.00000000000E+00 0. -1.
         11    1    5    5    0    0  0.28262059640E+01 -0.18586463244E+02  0.44125373761E+02  0.47963451352E+02  0.00000000000E+00 0. -1.
        -12    1    5    5    0    0 -0.25510841959E+02  0.80263067628E+02  0.14103981315E+03  0.16427170169E+03  0.00000000000E+00 0.  1.
          5    1    4    4  501    0  0.44724213886E+02 -0.11229771163E+03 -0.95560339575E+02  0.15414370647E+03  0.41800000000E+01 0. -1.
         -5    1    4    4    0  501  0.95039746343E+01  0.16916907652E+02  0.20368540352E+02  0.28440413752E+02  0.41800000000E+01 0. -1.
</event>
<event>
11    1  0.6763327E-009  0.1710855E+03  0.7561462E-02  0.1077091E+00
         22   -1    0    0    0    0  0.00000000000E+00  0.00000000000E+00  0.25391719839E+03  0.25391719839E+03  0.00000000000E+00 0. -1.
         22   -1    0    0    0    0 -0.00000000000E+00 -0.00000000000E+00 -0.73891786516E+03  0.73891786516E+03  0.00000000000E+00 0. -1.
         24    2    1    2    0    0  0.41173464015E+01 -0.11424534717E+03 -0.62197150451E+03  0.63646454430E+03  0.71900012813E+02 0.  0.
         25    2    1    2    0    0 -0.54621367433E+02  0.15315996135E+03  0.28051959668E+02  0.20706413598E+03  0.12508867426E+03 0.  0.
        -24    2    1    2    0    0  0.50504021031E+02 -0.38914614181E+02  0.10891887807E+03  0.14930638327E+03  0.79775126123E+02 0.  0.
        -13    1    3    3    0    0  0.23242404748E+02 -0.32572651574E+02 -0.98544214135E+02  0.10635858756E+03  0.00000000000E+00 0.  1.
         14    1    3    3    0    0 -0.19125058346E+02 -0.81672695593E+02 -0.52342729037E+03  0.53010595674E+03  0.00000000000E+00 0. -1.
         13    1    5    5    0    0  0.66348250229E+02 -0.49747168426E+02  0.88862926813E+02  0.12154624978E+03  0.00000000000E+00 0. -1.
        -14    1    5    5    0    0 -0.15844229198E+02  0.10832554244E+02  0.20055951261E+02  0.27760133489E+02  0.00000000000E+00 0.  1.
          5    1    4    4  501    0 -0.45437075701E+02  0.16928499231E+03  0.45626483191E+02  0.18116618017E+03  0.41800000000E+01 0. -1.
         -5    1    4    4    0  501 -0.91842917322E+01 -0.16125030961E+02 -0.17574523523E+02  0.25897955811E+02  0.41800000000E+01 0.  1.
</event>
<event>
11    1  0.6763327E-009  0.1641286E+03  0.7561462E-02  0.1083257E+00
         22   -1    0    0    0    0  0.00000000000E+00  0.00000000000E+00  0.17307051529E+04  0.17307051529E+04  0.00000000000E+00 0.  1.
         22   -1    0    0    0    0 -0.00000000000E+00 -0.00000000000E+00 -0.10773499650E+04  0.10773499650E+04  0.00000000000E+00 0. -1.
         24    2    1    2    0    0  0.55332311967E+02 -0.25465494931E+02 -0.10415570066E+04  0.10463823448E+04  0.79780056424E+02 0.  0.
         25    2    1    2    0    0 -0.11739181028E+01 -0.70851214288E+02  0.13901730219E+03  0.19998322750E+03  0.12508480453E+03 0.  0.
        -24    2    1    2    0    0 -0.54158393864E+02  0.96316709219E+02  0.15558948923E+04  0.15616895455E+04  0.76519806012E+02 0.  0.
        -13    1    3    3    0    0  0.15373443150E+02 -0.28085806481E+02 -0.12784996627E+03  0.13179821378E+03  0.00000000000E+00 0.  1.
         14    1    3    3    0    0  0.39958868817E+02  0.26203115505E+01 -0.91370704032E+03  0.91458413105E+03  0.00000000000E+00 0. -1.
         11    1    5    5    0    0 -0.33962039026E+02  0.35692004749E+02  0.28787093723E+03  0.29205652843E+03  0.00000000000E+00 0. -1.
        -12    1    5    5    0    0 -0.20196354838E+02  0.60624704470E+02  0.12680239550E+04  0.12696330171E+04  0.00000000000E+00 0.  1.
          5    1    4    4  501    0 -0.56821507547E+02 -0.42612752520E+02  0.11007981294E+03  0.13107085113E+03  0.41800000000E+01 0. -1.
         -5    1    4    4    0  501  0.55647589444E+02 -0.28238461768E+02  0.28937489247E+02  0.68912376377E+02  0.41800000000E+01 0. -1.
</event>
<event>
11    1  0.6763327E-009  0.1368914E+03  0.7561462E-02  0.1111080E+00
         22   -1    0    0    0    0  0.00000000000E+00  0.00000000000E+00  0.29441555641E+03  0.29441555641E+03  0.00000000000E+00 0. -1.
         22   -1    0    0    0    0 -0.00000000000E+00 -0.00000000000E+00 -0.11324597266E+04  0.11324597266E+04  0.00000000000E+00 0. -1.
        -24    2    1    2    0    0  0.53263272830E+02 -0.15050275101E+02 -0.95535949763E+03  0.96034482374E+03  0.80541441224E+02 0.  0.
         25    2    1    2    0    0 -0.65152817857E+02 -0.17784783644E+02 -0.13733598208E+03  0.19766079362E+03  0.12508968445E+03 0.  0.
         24    2    1    2    0    0  0.11889545027E+02  0.32835058745E+02  0.25465130954E+03  0.26886966564E+03  0.78892998961E+02 0.  0.
        -13    1    5    5    0    0 -0.31509355194E+02  0.18657118304E+02  0.74362518607E+02  0.82889756314E+02  0.00000000000E+00 0.  1.
         14    1    5    5    0    0  0.43398900221E+02  0.14177940441E+02  0.18028879094E+03  0.18597990933E+03  0.00000000000E+00 0. -1.
         11    1    3    3    0    0  0.29313050208E+02  0.83158226042E+01 -0.83112269856E+03  0.83168103735E+03  0.00000000000E+00 0. -1.
        -12    1    3    3    0    0  0.23950222622E+02 -0.23366097705E+02 -0.12423679907E+03  0.12866378639E+03  0.00000000000E+00 0.  1.
          5    1    4    4  501    0 -0.77677015553E+02 -0.58934817830E+02 -0.10722679365E+03  0.14498996232E+03  0.41800000000E+01 0. -1.
         -5    1    4    4    0  501  0.12524197696E+02  0.41150034186E+02 -0.30109188433E+02  0.52670831297E+02  0.41800000000E+01 0. -1.
</event>
<event>
11    1  0.6763327E-009  0.2172543E+03  0.7561462E-02  0.1042951E+00
         22   -1    0    0    0    0  0.00000000000E+00  0.00000000000E+00  0.14225470752E+04  0.14225470752E+04  0.00000000000E+00 0.  1.
         22   -1    0    0    0    0 -0.00000000000E+00 -0.00000000000E+00 -0.23566239631E+03  0.23566239631E+03  0.00000000000E+00 0. -1.
         24    2    1    2    0    0 -0.11080404978E+03  0.14523389069E+03 -0.12892602761E+03  0.23765179343E+03  0.80535916657E+02 0.  0.
         25    2    1    2    0    0  0.15280755716E+03 -0.76529324804E+02  0.17693285784E+03  0.27597005198E+03  0.12508935338E+03 0.  0.
        -24    2    1    2    0    0 -0.42003507378E+02 -0.68704565887E+02  0.11388778487E+04  0.11445876261E+04  0.80953490565E+02 0.  0.
        -13    1    3    3    0    0  0.91787968922E+01 -0.10481886217E+01 -0.10554987339E+01  0.92985530784E+01  0.00000000000E+00 0.  1.
         14    1    3    3    0    0 -0.11998284667E+03  0.14628207931E+03 -0.12787052887E+03  0.22835324035E+03  0.00000000000E+00 0. -1.
         11    1    5    5    0    0 -0.51436351009E+02 -0.86506688079E+01  0.44313985777E+03  0.44619890836E+03  0.00000000000E+00 0. -1.
        -12    1    5    5    0    0  0.94328436304E+01 -0.60053897080E+02  0.69573799093E+03  0.69838871778E+03  0.00000000000E+00 0.  1.
          5    1    4    4  501    0  0.14373131883E+03 -0.94604970050E+02  0.10612109153E+03  0.20220769233E+03  0.41800000000E+01 0. -1.
         -5    1    4    4    0  501  0.90762383282E+01  0.18075645246E+02  0.70811766310E+02  0.73762359650E+02  0.41800000000E+01 0. -1.
</event>
<event>
11    1  0.6763327E-009  0.1334899E+03  0.7561462E-02  0.1115054E+00
         22   -1    0    0    0    0  0.00000000000E+00  0.00000000000E+00  0.48259886684E+03  0.48259886684E+03  0.00000000000E+00 0. -1.
         22   -1    0    0    0    0 -0.00000000000E+00 -0.00000000000E+00 -0.35394836334E+03  0.35394836334E+03  0.00000000000E+00 0.  1.
        -24    2    1    2    0    0 -0.42200581759E+01 -0.13384230728E+02 -0.30852392617E+03  0.32015564745E+03  0.84354484467E+02 0.  0.
         25    2    1    2    0    0 -0.29665290839E+02 -0.21418656683E+02  0.93967081435E+02  0.16067382870E+03  0.12508988169E+03 0.  0.
         24    2    1    2    0    0  0.33885349015E+02  0.34802887411E+02  0.34320734824E+03  0.35571775404E+03  0.79902307887E+02 0.  0.
        -11    1    5    5    0    0  0.68061488202E+01  0.29975227954E+02  0.36238955926E+02  0.47519468424E+02  0.00000000000E+00 0.  1.
         12    1    5    5    0    0  0.27079200195E+02  0.48276594567E+01  0.30696839231E+03  0.30819828562E+03  0.00000000000E+00 0. -1.
         11    1    3    3    0    0 -0.48643997202E+01  0.16539568265E+02 -0.95915556460E+01  0.19728599614E+02  0.00000000000E+00 0. -1.
        -12    1    3    3    0    0  0.64434154426E+00 -0.29923798993E+02 -0.29893237053E+03  0.30042704784E+03  0.00000000000E+00 0.  1.
          5    1    4    4  501    0  0.20191640240E+01 -0.21267866219E+02 -0.27499759435E+02  0.35072900163E+02  0.41800000000E+01 0.  1.
         -5    1    4    4    0  501 -0.31684454863E+02 -0.15079046461E+00  0.12146684087E+03  0.12560092853E+03  0.41800000000E+01 0.  1.
</event>
<event>
11    1  0.6763327E-009  0.1464845E+03  0.7561462E-02  0.1100526E+00
         22   -1    0    0    0    0  0.00000000000E+00  0.00000000000E+00  0.73430856469E+03  0.73430856469E+03  0.00000000000E+00 0.  1.
         22   -1    0    0    0    0 -0.00000000000E+00 -0.00000000000E+00 -0.35571104429E+03  0.35571104429E+03  0.00000000000E+00 0. -1.
        -24    2    1    2    0    0  0.51326819905E+00 -0.43703371558E+02 -0.32266998970E+03  0.33532389884E+03  0.80099605183E+02 0.  0.
         25    2    1    2    0    0  0.47813975057E+02 -0.26773860529E+02  0.21657829216E+03  0.25604094723E+03  0.12509114360E+03 0.  0.
         24    2    1    2    0    0 -0.48327243256E+02  0.70477232087E+02  0.48468921793E+03  0.49865476291E+03  0.80189599763E+02 0.  0.
        -13    1    5    5    0    0  0.28083203345E+01  0.56701188016E+02  0.33720612577E+03  0.34195157938E+03  0.00000000000E+00 0.  1.
         14    1    5    5    0    0 -0.51135563591E+02  0.13776044072E+02  0.14748309216E+03  0.15670318353E+03  0.00000000000E+00 0. -1.
         13    1    3    3    0    0  0.21860416654E+02 -0.43860599402E+02 -0.30078599251E+03  0.30475210137E+03  0.00000000000E+00 0. -1.
        -14    1    3    3    0    0 -0.21347148455E+02  0.15722784414E+00 -0.21883997185E+02  0.30571797470E+02  0.00000000000E+00 0.  1.
          5    1    4    4  501    0  0.20264187253E+02  0.24873299506E+02  0.18800709542E+03  0.19077069650E+03  0.41800000000E+01 0.  1.
         -5    1    4    4    0  501  0.27549787804E+02 -0.51647160035E+02  0.28571196733E+02  0.65270250732E+02  0.41800000000E+01 0.  1.
</event>
<event>
11    1  0.6763327E-009  0.1534942E+03  0.7561462E-02  0.1093361E+00
         22   -1    0    0    0    0  0.00000000000E+00  0.00000000000E+00  0.20219781706E+04  0.20219781706E+04  0.00000000000E+00 0. -1.
         22   -1    0    0    0    0 -0.00000000000E+00 -0.00000000000E+00 -0.12797543934E+04  0.12797543934E+04  0.00000000000E+00 0. -1.
        -24    2    1    2    0    0 -0.33491248337E+02  0.44801754701E+02 -0.12593173774E+04  0.12624218320E+04  0.68554823387E+02 0.  0.
         25    2    1    2    0    0  0.55184130899E+02  0.45584273804E+02  0.29425090184E+03  0.32764956974E+03  0.12508969980E+03 0.  0.
         24    2    1    2    0    0 -0.21692882562E+02 -0.90386028506E+02  0.17072902527E+04  0.17116611623E+04  0.79395919057E+02 0.  0.
        -13    1    5    5    0    0  0.24513943027E+01 -0.69702996752E+02  0.62076299320E+03  0.62466888094E+03  0.00000000000E+00 0.  1.
         14    1    5    5    0    0 -0.24144276865E+02 -0.20683031753E+02  0.10865272595E+04  0.10869922813E+04  0.00000000000E+00 0. -1.
         13    1    3    3    0    0 -0.14183898812E+02  0.52072943886E+02 -0.11440757118E+04  0.11453479859E+04  0.00000000000E+00 0. -1.
        -14    1    3    3    0    0 -0.19307349525E+02 -0.72711891849E+01 -0.11524166560E+03  0.11707384605E+03  0.00000000000E+00 0.  1.
          5    1    4    4  501    0  0.32872777479E+02  0.61749758381E+02  0.61505859379E+02  0.93242132629E+02  0.41800000000E+01 0. -1.
         -5    1    4    4    0  501  0.22311353421E+02 -0.16165484577E+02  0.23274504246E+03  0.23440743711E+03  0.41800000000E+01 0. -1.
</event>
<event>
11    1  0.6763327E-009  0.1260266E+03  0.7561462E-02  0.1124250E+00
         22   -1    0    0    0    0  0.00000000000E+00  0.00000000000E+00  0.34065898612E+03  0.34065898612E+03  0.00000000000E+00 0. -1.
         22   -1    0    0    0    0 -0.00000000000E+00 -0.00000000000E+00 -0.25805858561E+03  0.25805858561E+03  0.00000000000E+00 0.  1.
         24    2    1    2    0    0  0.94454254753E+01 -0.45289920797E+01 -0.97152826764E+02  0.12630363469E+03  0.80026299147E+02 0.  0.
         25    2    1    2    0    0 -0.39129088977E+01  0.18973981615E+02 -0.11231917069E+03  0.16921343942E+03  0.12506905749E+03 0.  0.
        -24    2    1    2    0    0 -0.55325165776E+01 -0.14444989535E+02  0.29207239796E+03  0.30320049762E+03  0.79906130202E+02 0.  0.
        -11    1    3    3    0    0  0.27744608672E+02 -0.48719976359E+00 -0.10299999587E+03  0.10667239485E+03  0.00000000000E+00 0.  1.
         12    1    3    3    0    0 -0.18299183196E+02 -0.40417923161E+01  0.58471691095E+01  0.19631239833E+02  0.00000000000E+00 0. -1.
         11    1    5    5    0    0 -0.19283144236E+01 -0.19076474275E+02  0.29568701046E+03  0.29630801275E+03  0.00000000000E+00 0. -1.
        -12    1    5    5    0    0 -0.36042021541E+01  0.46314847398E+01 -0.36146125015E+01  0.68924848638E+01  0.00000000000E+00 0.  1.
          5    1    4    4  501    0  0.98403926674E+01  0.50861397195E+02 -0.41965188515E+00  0.51974643435E+02  0.41800000000E+01 0. -1.
         -5    1    4    4    0  501 -0.13753301565E+02 -0.31887415580E+02 -0.11189951880E+03  0.11723879599E+03  0.41800000000E+01 0. -1.
</event>
<event>
11    1  0.6763327E-009  0.1362877E+03  0.7561462E-02  0.1111776E+00
         22   -1    0    0    0    0  0.00000000000E+00  0.00000000000E+00  0.17062803850E+04  0.17062803850E+04  0.00000000000E+00 0. -1.
         22   -1    0    0    0    0 -0.00000000000E+00 -0.00000000000E+00 -0.30232400072E+03  0.30232400072E+03  0.00000000000E+00 0.  1.
         24    2    1    2    0    0  0.33407269757E+02  0.51660147139E+02 -0.27975043960E+03  0.29739124484E+03  0.79977669215E+02 0.  0.
         25    2    1    2    0    0  0.51390903595E+01 -0.86225307265E+02  0.48566594808E+03  0.50890129847E+03  0.12509158483E+03 0.  0.
        -24    2    1    2    0    0 -0.38546360116E+02  0.34565160127E+02  0.11980408758E+04  0.12023118424E+04  0.87012953807E+02 0.  0.
        -13    1    3    3    0    0 -0.22025009374E+02  0.13385541816E+02 -0.13878195158E+03  0.14115489312E+03  0.00000000000E+00 0.  1.
         14    1    3    3    0    0  0.55432279131E+02  0.38274605323E+02 -0.14096848802E+03  0.15623635171E+03  0.00000000000E+00 0. -1.
         11    1    5    5    0    0  0.16489104307E+02  0.19611459343E+02  0.77743555600E+03  0.77785766284E+03  0.00000000000E+00 0. -1.
        -12    1    5    5    0    0 -0.55035464423E+02  0.14953700783E+02  0.42060531979E+03  0.42445417957E+03  0.00000000000E+00 0.  1.
          5    1    4    4  501    0 -0.16621472310E+02  0.40068456423E+01  0.30714408969E+03  0.30764800079E+03  0.41800000000E+01 0.  1.
         -5    1    4    4    0  501  0.21760562670E+02 -0.90232152907E+02  0.17852185839E+03  0.20125329769E+03  0.41800000000E+01 0.  1.
</event>
<event>
11    1  0.6763327E-009  0.1495183E+03  0.7561462E-02  0.1097372E+00
         22   -1    0    0    0    0  0.00000000000E+00  0.00000000000E+00  0.45135195992E+03  0.45135195992E+03  0.00000000000E+00 0. -1.
         22   -1    0    0    0    0 -0.00000000000E+00 -0.00000000000E+00 -0.29633219889E+03  0.29633219889E+03  0.00000000000E+00 0. -1.
         24    2    1    2    0    0 -0.67258226555E+02  0.46449140709E+02 -0.22272115683E+03  0.24999555810E+03  0.78815440485E+02 0.  0.
         25    2    1    2    0    0  0.46413315390E+02 -0.77652410747E+02  0.56517126532E+02  0.16439402358E+03  0.12508843535E+03 0.  0.
        -24    2    1    2    0    0  0.20844911165E+02  0.31203270039E+02  0.32122379133E+03  0.33329457713E+03  0.80575409702E+02 0.  0.
        -11    1    3    3    0    0 -0.13314561277E+02  0.19470150326E+02 -0.50488700293E+01  0.24121678720E+02  0.00000000000E+00 0.  1.
         12    1    3    3    0    0 -0.53943665277E+02  0.26978990383E+02 -0.21767228680E+03  0.22587387938E+03  0.00000000000E+00 0. -1.
         13    1    5    5    0    0  0.26408202538E+02 -0.18916298493E+01  0.27446665593E+03  0.27574066919E+03  0.00000000000E+00 0. -1.
        -14    1    5    5    0    0 -0.55632913735E+01  0.33094899888E+02  0.46757135395E+02  0.57553907946E+02  0.00000000000E+00 0.  1.
          5    1    4    4  501    0 -0.13349204850E+02  0.27733871029E+02  0.10419171130E+01  0.31079363951E+02  0.41800000000E+01 0. -1.
         -5    1    4    4    0  501  0.59762520240E+02 -0.10538628178E+03  0.55475209419E+02  0.13331465963E+03  0.41800000000E+01 0. -1.
</event>
<event>
11    1  0.6763327E-009  0.1728526E+03  0.7561462E-02  0.1075576E+00
         22   -1    0    0    0    0  0.00000000000E+00  0.00000000000E+00  0.71164977276E+03  0.71164977276E+03  0.00000000000E+00 0.  1.
         22   -1    0    0    0    0 -0.00000000000E+00 -0.00000000000E+00 -0.27835288538E+03  0.27835288538E+03  0.00000000000E+00 0. -1.
         24    2    1    2    0    0  0.11712115715E+03  0.64961272220E+01 -0.21550227845E+03  0.25796546233E+03  0.79657909954E+02 0.  0.
         25    2    1    2    0    0 -0.14052440868E+03 -0.49615645345E+02  0.22278184330E+03  0.29578353919E+03  0.12508929072E+03 0.  0.
        -24    2    1    2    0    0  0.23403251532E+02  0.43119518123E+02  0.42601732253E+03  0.43625365662E+03  0.80121712404E+02 0.  0.
        -13    1    3    3    0    0  0.47206771944E+02 -0.32825432766E+02 -0.12131019470E+03  0.13424660775E+03  0.00000000000E+00 0.  1.
         14    1    3    3    0    0  0.69914385203E+02  0.39321559988E+02 -0.94192083747E+02  0.12371885458E+03  0.00000000000E+00 0. -1.
         11    1    5    5    0    0  0.16702596428E+02  0.22686017226E+02  0.36326995671E+02  0.45970454855E+02  0.00000000000E+00 0. -1.
        -12    1    5    5    0    0  0.67006551041E+01  0.20433500896E+02  0.38969032686E+03  0.39028320177E+03  0.00000000000E+00 0.  1.
          5    1    4    4  501    0 -0.21126567079E+01 -0.33894878940E+02  0.14718584295E+01  0.34248575210E+02  0.41800000000E+01 0.  1.
         -5    1    4    4    0  501 -0.13841175197E+03 -0.15720766405E+02  0.22130998487E+03  0.26153496398E+03  0.41800000000E+01 0.  1.
</event>
<event>
11    1  0.6763327E-009  0.1511760E+03  0.7561462E-02  0.1095683E+00
         22   -1    0    0    0    0  0.00000000000E+00  0.00000000000E+00  0.27021659444E+03  0.27021659444E+03  0.00000000000E+00 0. -1.
         22   -1    0    0    0    0 -0.00000000000E+00 -0.00000000000E+00 -0.16437709571E+03  0.16437709571E+03  0.00000000000E+00 0.  1.
        -24    2    1    2    0    0  0.61653013110E+02 -0.15152629488E+02 -0.19097169968E+02  0.10506407447E+03  0.81504979218E+02 0.  0.
         25    2    1    2    0    0 -0.14169867570E+03  0.10164241247E+02  0.33029720189E+02  0.19214566013E+03  0.12508863176E+03 0.  0.
         24    2    1    2    0    0  0.80045662593E+02  0.49883882413E+01  0.91906948508E+02  0.13738395555E+03  0.63208163575E+02 0.  0.
        -13    1    5    5    0    0  0.38904572852E+02 -0.28526174165E+02  0.52418003732E+02  0.71238722031E+02  0.00000000000E+00 0.  1.
         14    1    5    5    0    0  0.41141089740E+02  0.33514562407E+02  0.39488944776E+02  0.66145233523E+02  0.00000000000E+00 0. -1.
         11    1    3    3    0    0  0.17893833650E+02 -0.20051506283E+02  0.29215317386E+02  0.39696183152E+02  0.00000000000E+00 0. -1.
        -12    1    3    3    0    0  0.43759179459E+02  0.48988767948E+01 -0.48312487354E+02  0.65367891316E+02  0.00000000000E+00 0.  1.
          5    1    4    4  501    0 -0.93789707770E+02  0.66611959664E+02  0.21310585306E+02  0.11706953447E+03  0.41800000000E+01 0.  1.
         -5    1    4    4    0  501 -0.47908967933E+02 -0.56447718418E+02  0.11719134883E+02  0.75076125668E+02  0.41800000000E+01 0.  1.
</event>
<event>
11    1  0.6763327E-009  0.1401990E+03  0.7561462E-02  0.1107336E+00
         22   -1    0    0    0    0  0.00000000000E+00  0.00000000000E+00  0.19065394847E+03  0.19065394847E+03  0.00000000000E+00 0. -1.
         22   -1    0    0    0    0 -0.00000000000E+00 -0.00000000000E+00 -0.20693588984E+04  0.20693588984E+04  0.00000000000E+00 0.  1.
         24    2    1    2    0    0  0.12486158364E+00 -0.62726201259E+02 -0.19105507670E+04  0.19132788214E+04  0.80604116171E+02 0.  0.
         25    2    1    2    0    0  0.66128345311E+01  0.79352676760E+02 -0.10864194842E+03  0.18382448513E+03  0.12509113273E+03 0.  0.
        -24    2    1    2    0    0 -0.67376961148E+01 -0.16626475501E+02  0.14048776541E+03  0.16290954033E+03  0.80503849985E+02 0.  0.
        -11    1    3    3    0    0  0.44158557113E+00 -0.55126433585E+02 -0.56006702997E+03  0.56277366386E+03  0.00000000000E+00 0.  1.
         12    1    3    3    0    0 -0.31672398749E+00 -0.75997676741E+01 -0.13504837370E+04  0.13505051576E+04  0.00000000000E+00 0. -1.
         13    1    5    5    0    0 -0.17051399788E+02 -0.19458924117E+01  0.14366721374E+03  0.14468864861E+03  0.00000000000E+00 0. -1.
        -14    1    5    5    0    0  0.10313703674E+02 -0.14680583090E+02 -0.31794483290E+01  0.18220891718E+02  0.00000000000E+00 0.  1.
          5    1    4    4  501    0 -0.34891493280E+02  0.77053221879E+01 -0.92650720292E+02  0.99390224187E+02  0.41800000000E+01 0. -1.
         -5    1    4    4    0  501  0.41504327811E+02  0.71647354573E+02 -0.15991228129E+02  0.84434260945E+02  0.41800000000E+01 0. -1.
</event>
<event>
11    1  0.6763327E-009  0.1983166E+03  0.7561462E-02  0.1055720E+00
         22   -1    0    0    0    0  0.00000000000E+00  0.00000000000E+00  0.24112330771E+04  0.24112330771E+04  0.00000000000E+00 0. -1.
         22   -1    0    0    0    0 -0.00000000000E+00 -0.00000000000E+00 -0.38500136896E+03  0.38500136896E+03  0.00000000000E+00 0.  1.
        -24    2    1    2    0    0 -0.15923354102E+03 -0.56653883785E+01 -0.32200329797E+03  0.36786761987E+03  0.79076195145E+02 0.  0.
         25    2    1    2    0    0  0.10246373638E+03  0.68708008056E+02  0.16211171697E+03  0.23905591160E+03  0.12509161622E+03 0.  0.
         24    2    1    2    0    0  0.56769804639E+02 -0.63042619677E+02  0.21861232891E+04  0.21893109146E+04  0.82158765822E+02 0.  0.
        -13    1    5    5    0    0  0.10784447428E+02 -0.44514718110E+02  0.41966756107E+03  0.42215959808E+03  0.00000000000E+00 0.  1.
         14    1    5    5    0    0  0.45985357211E+02 -0.18527901567E+02  0.17664557280E+04  0.17671513165E+04  0.00000000000E+00 0. -1.
         13    1    3    3    0    0 -0.25542093140E+02  0.29125118550E+02 -0.87642059724E+02  0.95821718233E+02  0.00000000000E+00 0. -1.
        -14    1    3    3    0    0 -0.13369144788E+03 -0.34790506928E+02 -0.23436123824E+03  0.27204590164E+03  0.00000000000E+00 0.  1.
          5    1    4    4  501    0  0.53926804094E+02  0.71410175156E+02  0.24237825384E+02  0.92803329115E+02  0.41800000000E+01 0. -1.
         -5    1    4    4    0  501  0.48536932283E+02 -0.27021670999E+01  0.13787389159E+03  0.14625258249E+03  0.41800000000E+01 0. -1.
</event>
<event>
11    1  0.6763327E-009  0.1605396E+03  0.7561462E-02  0.1086571E+00
         22   -1    0    0    0    0  0.00000000000E+00  0.00000000000E+00  0.87486596588E+03  0.87486596588E+03  0.00000000000E+00 0. -1.
         22   -1    0    0    0    0 -0.00000000000E+00 -0.00000000000E+00 -0.78403466723E+03  0.78403466723E+03  0.00000000000E+00 0.  1.
        -24    2    1    2    0    0  0.40966506934E+02 -0.53006814836E+02 -0.72263808485E+03  0.73028552776E+03  0.81382880690E+02 0.  0.
         25    2    1    2    0    0 -0.11948995993E+03 -0.97398628202E+01  0.92654055301E+02  0.19648280777E+03  0.12509198350E+03 0.  0.
         24    2    1    2    0    0  0.78523452993E+02  0.62746677656E+02  0.72081532820E+03  0.73213229758E+03  0.79623398321E+02 0.  0.
        -11    1    5    5    0    0  0.18618229752E+02 -0.14351721545E+02  0.65651143381E+02  0.69732940693E+02  0.00000000000E+00 0.  1.
         12    1    5    5    0    0  0.59905223241E+02  0.77098399202E+02  0.65516418482E+03  0.66239935688E+03  0.00000000000E+00 0. -1.
         13    1    3    3    0    0  0.57951261226E+02 -0.62729526952E+02 -0.61199353236E+03  0.61792347898E+03  0.00000000000E+00 0. -1.
        -14    1    3    3    0    0 -0.16984754292E+02  0.97227121154E+01 -0.11064455249E+03  0.11236204877E+03  0.00000000000E+00 0.  1.
          5    1    4    4  501    0 -0.61571429118E+02  0.57448041221E+02  0.41086591270E+02  0.93791783787E+02  0.41800000000E+01 0. -1.
         -5    1    4    4    0  501 -0.57918530809E+02 -0.67187904041E+02  0.51567464031E+02  0.10269102399E+03  0.41800000000E+01 0. -1.
</event>
<event>
11    1  0.6763327E-009  0.1353159E+03  0.7561462E-02  0.1112905E+00
         22   -1    0    0    0    0  0.00000000000E+00  0.00000000000E+00  0.59559429597E+03  0.59559429597E+03  0.00000000000E+00 0.  1.
         22   -1    0    0    0    0 -0.00000000000E+00 -0.00000000000E+00 -0.72448087906E+03  0.72448087906E+03  0.00000000000E+00 0. -1.
         24    2    1    2    0    0 -0.39085434125E+02 -0.32383603579E+02 -0.67461634724E+03  0.68142736545E+03  0.81606797992E+02 0.  0.
         25    2    1    2    0    0  0.69325282982E+02  0.50714947792E+02  0.93955493381E+02  0.17847212301E+03  0.12508662264E+03 0.  0.
        -24    2    1    2    0    0 -0.30239848857E+02 -0.18331344213E+02  0.45177427077E+03  0.46017568656E+03  0.80069870339E+02 0.  0.
        -13    1    3    3    0    0 -0.25258902064E+02  0.24977504059E+02 -0.19663548441E+03  0.19981842151E+03  0.00000000000E+00 0.  1.
         14    1    3    3    0    0 -0.13826532061E+02 -0.57361107638E+02 -0.47798086283E+03  0.48160894394E+03  0.00000000000E+00 0. -1.
         13    1    5    5    0    0 -0.11593570383E+01 -0.34293643672E+02  0.81640192183E+02  0.88557998423E+02  0.00000000000E+00 0. -1.
        -14    1    5    5    0    0 -0.29080491819E+02  0.15962299459E+02  0.37013407859E+03  0.37161768814E+03  0.00000000000E+00 0.  1.
          5    1    4    4  501    0  0.10564346622E+03  0.44123268007E+02  0.72402200808E+02  0.13552474245E+03  0.41800000000E+01 0.  1.
         -5    1    4    4    0  501 -0.36318183237E+02  0.65916797846E+01  0.21553292572E+02  0.42947380557E+02  0.41800000000E+01 0.  1.
</event>
<event>
11    1  0.6763327E-009  0.1626788E+03  0.7561462E-02  0.1084584E+00
         22   -1    0    0    0    0  0.00000000000E+00  0.00000000000E+00  0.96119894022E+03  0.96119894022E+03  0.00000000000E+00 0.  1.
         22   -1    0    0    0    0 -0.00000000000E+00 -0.00000000000E+00 -0.94734780055E+03  0.94734780055E+03  0.00000000000E+00 0. -1.
        -24    2    1    2    0    0 -0.10544966470E+03  0.33320193065E+01 -0.72743071206E+03  0.73947726802E+03  0.80873079144E+02 0.  0.
         25    2    1    2    0    0  0.96725847614E+02  0.21342490189E+02 -0.18232894999E+03  0.24229120779E+03  0.12509912822E+03 0.  0.
         24    2    1    2    0    0  0.87238170830E+01 -0.24674509496E+02  0.92361080172E+03  0.92677826497E+03  0.71945138564E+02 0.  0.
        -13    1    5    5    0    0 -0.26194357890E+02 -0.76700927109E+01  0.63242810028E+03  0.63301680605E+03  0.00000000000E+00 0.  1.
         14    1    5    5    0    0  0.34918174972E+02 -0.17004416785E+02  0.29118270144E+03  0.29376145893E+03  0.00000000000E+00 0. -1.
         13    1    3    3    0    0 -0.46965142689E+02 -0.26416054056E+02 -0.49619586947E+03  0.49911308681E+03  0.00000000000E+00 0. -1.
        -14    1    3    3    0    0 -0.58484522008E+02  0.29748073362E+02 -0.23123484259E+03  0.24036418121E+03  0.00000000000E+00 0.  1.
          5    1    4    4  501    0 -0.38587950471E+01 -0.14262824517E+02  0.12710567879E+02  0.19933624815E+02  0.41800000000E+01 0.  1.
         -5    1    4    4    0  501  0.10058464266E+03  0.35605314707E+02 -0.19503951787E+03  0.22235758297E+03  0.41800000000E+01 0.  1.
</event>
<event>
11    1  0.6763327E-009  0.1796415E+03  0.7561462E-02  0.1069933E+00
         22   -1    0    0    0    0  0.00000000000E+00  0.00000000000E+00  0.15576017047E+04  0.15576017047E+04  0.00000000000E+00 0. -1.
         22   -1    0    0    0    0 -0.00000000000E+00 -0.00000000000E+00 -0.19220365610E+03  0.19220365610E+03  0.00000000000E+00 0.  1.
         24    2    1    2    0    0 -0.20950374460E+02  0.45607259205E+02 -0.14315542696E+03  0.16947386505E+03  0.75557755288E+02 0.  0.
         25    2    1    2    0    0 -0.12069417322E+02  0.86272328535E+02  0.15764984188E+03  0.21926834679E+03  0.12504619049E+03 0.  0.
        -24    2    1    2    0    0  0.33019791781E+02 -0.13187958774E+03  0.13509036337E+04  0.13610631490E+04  0.95235159790E+02 0.  0.
        -11    1    3    3    0    0 -0.16027178212E+02  0.49518835736E+02 -0.15082683383E+03  0.15955475342E+03  0.00000000000E+00 0.  1.
         12    1    3    3    0    0 -0.49231962477E+01 -0.39115765303E+01  0.76714068696E+01  0.99191116339E+01  0.00000000000E+00 0. -1.
         13    1    5    5    0    0  0.51735890870E+02 -0.11446695785E+03  0.12704700360E+04  0.12766649518E+04  0.00000000000E+00 0. -1.
        -14    1    5    5    0    0 -0.18716099089E+02 -0.17412629891E+02  0.80433597759E+02  0.84398197215E+02  0.00000000000E+00 0.  1.
          5    1    4    4  501    0 -0.31342135037E+02  0.95023071501E+02  0.16780967000E+03  0.19542075450E+03  0.41800000000E+01 0.  1.
         -5    1    4    4    0  501  0.19272717715E+02 -0.87507429659E+01 -0.10159828120E+02  0.23847592290E+02  0.41800000000E+01 0.  1.
</event>
<event>
11    1  0.6763327E-009  0.2061937E+03  0.7561462E-02  0.1050228E+00
         22   -1    0    0    0    0  0.00000000000E+00  0.00000000000E+00  0.78433443416E+03  0.78433443416E+03  0.00000000000E+00 0. -1.
         22   -1    0    0    0    0 -0.00000000000E+00 -0.00000000000E+00 -0.21714145914E+04  0.21714145914E+04  0.00000000000E+00 0.  1.
         24    2    1    2    0    0 -0.15993606699E+03 -0.30473846792E+02 -0.20087072998E+04  0.20168645699E+04  0.79558005557E+02 0.  0.
         25    2    1    2    0    0  0.17746419421E+03  0.66613736037E+02 -0.73108996378E+02  0.23856447036E+03  0.12504859500E+03 0.  0.
        -24    2    1    2    0    0 -0.17528127220E+02 -0.36139889245E+02  0.69473613895E+03  0.70031998528E+03  0.78590407690E+02 0.  0.
        -11    1    3    3    0    0 -0.11519394141E+03 -0.35670498425E+02 -0.17588925549E+04  0.17630215678E+04  0.00000000000E+00 0.  1.
         12    1    3    3    0    0 -0.44742125575E+02  0.51966516334E+01 -0.24981474488E+03  0.25384300216E+03  0.00000000000E+00 0. -1.
         13    1    5    5    0    0  0.47105567313E+01 -0.52418984091E+02  0.57726167551E+03  0.57965591626E+03  0.00000000000E+00 0. -1.
        -14    1    5    5    0    0 -0.22238683951E+02  0.16279094847E+02  0.11747446344E+03  0.12066406902E+03  0.00000000000E+00 0.  1.
          5    1    4    4  501    0  0.15097847084E+03 -0.38496220474E+01 -0.40481991875E+02  0.15641477652E+03  0.41800000000E+01 0.  1.
         -5    1    4    4    0  501  0.26485723361E+02  0.70463358084E+02 -0.32627004503E+02  0.82149693836E+02  0.41800000000E+01 0.  1.
</event>
<event>
11    1  0.6763327E-009  0.1683738E+03  0.7561462E-02  0.1079456E+00
         22   -1    0    0    0    0  0.00000000000E+00  0.00000000000E+00  0.85229036147E+03  0.85229036147E+03  0.00000000000E+00 0. -1.
         22   -1    0    0    0    0 -0.00000000000E+00 -0.00000000000E+00 -0.31106188491E+04  0.31106188491E+04  0.00000000000E+00 0. -1.
        -24    2    1    2    0    0 -0.59150412674E+02 -0.87281551044E+02 -0.23705418429E+04  0.23742457587E+04  0.80358279763E+02 0.  0.
         25    2    1    2    0    0  0.15064635609E+03  0.11624235622E+03 -0.71578962468E+03  0.75113597069E+03  0.12507537599E+03 0.  0.
         24    2    1    2    0    0 -0.91495943416E+02 -0.28960805174E+02  0.82800297999E+03  0.83752748118E+03  0.81566604439E+02 0.  0.
        -13    1    5    5    0    0 -0.38549830797E+02  0.28365962393E+02  0.30315992474E+03  0.30691473938E+03  0.00000000000E+00 0.  1.
         14    1    5    5    0    0 -0.52946112619E+02 -0.57326767567E+02  0.52484305525E+03  0.53061274180E+03  0.00000000000E+00 0. -1.
         13    1    3    3    0    0 -0.58092289832E+02 -0.99260533977E+02 -0.18539245939E+04  0.18574885646E+04  0.00000000000E+00 0. -1.
        -14    1    3    3    0    0 -0.10581228424E+01  0.11978982933E+02 -0.51661724902E+03  0.51675719409E+03  0.00000000000E+00 0.  1.
          5    1    4    4  501    0  0.16238870092E+03  0.12998384446E+03 -0.63375884016E+03  0.66703345485E+03  0.41800000000E+01 0.  1.
         -5    1    4    4    0  501 -0.11742344831E+02 -0.13741488242E+02 -0.82030784528E+02  0.84102515845E+02  0.41800000000E+01 0.  1.
</event>
<event>
11    1  0.6763327E-009  0.2120334E+03  0.7561462E-02  0.1046326E+00
         22   -1    0    0    0    0  0.00000000000E+00  0.00000000000E+00  0.24501359638E+03  0.24501359638E+03  0.00000000000E+00 0.  1.
         22   -1    0    0    0    0 -0.00000000000E+00 -0.00000000000E+00 -0.16149618823E+04  0.16149618823E+04  0.00000000000E+00 0. -1.
         24    2    1    2    0    0 -0.30304684977E+02  0.72166751768E+02 -0.13549257926E+04  0.13595747372E+04  0.80580076037E+02 0.  0.
         25    2    1    2    0    0  0.17913555836E+03 -0.13171870694E+03 -0.12998546806E+03  0.28632630534E+03  0.12508862937E+03 0.  0.
        -24    2    1    2    0    0 -0.14883087338E+03  0.59551955175E+02  0.11496297471E+03  0.21407443614E+03  0.83152356662E+02 0.  0.
        -11    1    3    3    0    0 -0.43920970707E+02  0.55470767060E+01 -0.55791723038E+03  0.55967084763E+03  0.00000000000E+00 0.  1.
         12    1    3    3    0    0  0.13616285729E+02  0.66619675062E+02 -0.79700856219E+03  0.79990388956E+03  0.00000000000E+00 0. -1.
         13    1    5    5    0    0 -0.50909017108E+02  0.59470157779E+02  0.28089953882E+02  0.83171348422E+02  0.00000000000E+00 0. -1.
        -14    1    5    5    0    0 -0.97921856273E+02  0.81797396174E-01  0.86873020828E+02  0.13090308772E+03  0.00000000000E+00 0.  1.
          5    1    4    4  501    0  0.57866867319E+01 -0.59289658230E+02 -0.63052442258E+02  0.86843722808E+02  0.41800000000E+01 0.  1.
         -5    1    4    4    0  501  0.17334887163E+03 -0.72429048713E+02 -0.66933025806E+02  0.19948258254E+03  0.41800000000E+01 0.  1.
</event>
<event>
11    1  0.6763327E-009  0.1478771E+03  0.7561462E-02  0.1099068E+00
         22   -1    0    0    0    0  0.00000000000E+00  0.00000000000E+00  0.11819586127E+03  0.11819586127E+03  0.00000000000E+00 0. -1.
         22   -1    0    0    0    0 -0.00000000000E+00 -0.00000000000E+00 -0.27591265087E+04  0.27591265087E+04  0.00000000000E+00 0. -1.
         24    2    1    2    0    0  0.50913573092E+02 -0.43913844007E+01 -0.18887334720E+04  0.18911746524E+04  0.81338561582E+02 0.  0.
         25    2    1    2    0    0  0.24226921387E+01  0.63844179325E+02 -0.83433132433E+03  0.84607308487E+03  0.12509579335E+03 0.  0.
        -24    2    1    2    0    0 -0.53336265231E+02 -0.59452794925E+02  0.82134148900E+02  0.14007463266E+03  0.80594616972E+02 0.  0.
        -11    1    3    3    0    0  0.42801753852E+02  0.21386122611E+02 -0.16822504887E+04  0.16829307957E+04  0.00000000000E+00 0.  1.
         12    1    3    3    0    0  0.81118192404E+01 -0.25777507012E+02 -0.20648298326E+03  0.20824385671E+03  0.00000000000E+00 0. -1.
         13    1    5    5    0    0 -0.53507422456E+02 -0.62283970178E+02  0.95767296494E+02  0.12614956313E+03  0.00000000000E+00 0. -1.
        -14    1    5    5    0    0  0.17115722496E+00  0.28311752533E+01 -0.13633147594E+02  0.13925069530E+02  0.00000000000E+00 0.  1.
          5    1    4    4  501    0  0.16400572624E+02 -0.35507092343E+02 -0.19828481920E+03  0.20214864411E+03  0.41800000000E+01 0.  1.
         -5    1    4    4    0  501 -0.13977880486E+02  0.99351271669E+02 -0.63604650513E+03  0.64392444076E+03  0.41800000000E+01 0.  1.
</event>
<event>
11    1  0.6763327E-009  0.1450622E+03  0.7561462E-02  0.1102034E+00
         22   -1    0    0    0    0  0.00000000000E+00  0.00000000000E+00  0.17726799141E+04  0.17726799141E+04  0.00000000000E+00 0. -1.
         22   -1    0    0    0    0 -0.00000000000E+00 -0.00000000000E+00 -0.12128344997E+04  0.12128344997E+04  0.00000000000E+00 0.  1.
        -24    2    1    2    0    0 -0.60340746889E+02  0.39509176816E+02 -0.11306818617E+04  0.11358343402E+04  0.80474811314E+02 0.  0.
         25    2    1    2    0    0  0.10876272533E+03 -0.62754211401E+02  0.22430739174E+02  0.17865589073E+03  0.12508943906E+03 0.  0.
         24    2    1    2    0    0 -0.48421978441E+02  0.23245034585E+02  0.16680965369E+04  0.16710241828E+04  0.83010502533E+02 0.  0.
        -11    1    5    5    0    0 -0.77972300873E+01  0.46858994675E+02  0.59227239654E+03  0.59417434637E+03  0.00000000000E+00 0.  1.
         12    1    5    5    0    0 -0.40624748354E+02 -0.23613960090E+02  0.10758241404E+04  0.10768498365E+04  0.00000000000E+00 0. -1.
         11    1    3    3    0    0 -0.72853930182E+02  0.43764285068E+02 -0.72936196452E+03  0.73429686305E+03  0.00000000000E+00 0. -1.
        -12    1    3    3    0    0  0.12513183293E+02 -0.42551082515E+01 -0.40131989714E+03  0.40153747714E+03  0.00000000000E+00 0.  1.
          5    1    4    4  501    0  0.23521164105E+02 -0.24226261757E+02  0.66854859279E+02  0.75014675423E+02  0.41800000000E+01 0.  1.
         -5    1    4    4    0  501  0.85241561225E+02 -0.38527949644E+02 -0.44424120106E+02  0.10364121531E+03  0.41800000000E+01 0.  1.
</event>
<event>
11    1  0.6763327E-009  0.1600874E+03  0.7561462E-02  0.1086995E+00
         22   -1    0    0    0    0  0.00000000000E+00  0.00000000000E+00  0.34731871863E+03  0.34731871863E+03  0.00000000000E+00 0.  1.
         22   -1    0    0    0    0 -0.00000000000E+00 -0.00000000000E+00 -0.14173701210E+04  0.14173701210E+04  0.00000000000E+00 0. -1.
         24    2    1    2    0    0  0.91727994624E+02 -0.39447511833E+02 -0.12582868309E+04  0.12647789456E+04  0.80061858057E+02 0.  0.
         25    2    1    2    0    0 -0.74761454940E+02  0.79310042568E+02 -0.10271735026E+03  0.19513545910E+03  0.12509050866E+03 0.  0.
        -24    2    1    2    0    0 -0.16966539684E+02 -0.39862530735E+02  0.29095277883E+03  0.30477443493E+03  0.79731122235E+02 0.  0.
        -11    1    3    3    0    0  0.14479338468E+02  0.21123513274E+02 -0.41674434221E+03  0.41753047891E+03  0.00000000000E+00 0.  1.
         12    1    3    3    0    0  0.77248656156E+02 -0.60571025107E+02 -0.84154248872E+03  0.84724846667E+03  0.00000000000E+00 0. -1.
         11    1    5    5    0    0 -0.46742681541E+02 -0.36003255632E+02  0.16311010786E+03  0.17345322130E+03  0.00000000000E+00 0. -1.
        -12    1    5    5    0    0  0.29776141857E+02 -0.38592751024E+01  0.12784267098E+03  0.13132121364E+03  0.00000000000E+00 0.  1.
          5    1    4    4  501    0  0.33718222465E+02  0.28307165068E+02 -0.15606702565E+02  0.46896222506E+02  0.41800000000E+01 0.  1.
         -5    1    4    4    0  501 -0.10847967741E+03  0.51002877500E+02 -0.87110647696E+02  0.14823923659E+03  0.41800000000E+01 0.  1.
</event>
<event>
11    1  0.6763327E-009  0.1430875E+03  0.7561462E-02  0.1104159E+00
         22   -1    0    0    0    0  0.00000000000E+00  0.00000000000E+00  0.15110708452E+04  0.15110708452E+04  0.00000000000E+00 0.  1.
         22   -1    0    0    0    0 -0.00000000000E+00 -0.00000000000E+00 -0.24037647912E+03  0.24037647912E+03  0.00000000000E+00 0. -1.
         24    2    1    2    0    0 -0.44911498590E+01  0.14635283028E+02 -0.14180444924E+03  0.15692536940E+03  0.65442400627E+02 0.  0.
         25    2    1    2    0    0  0.56387240143E+02  0.31741588428E+02 -0.33468522039E+02  0.14476077819E+03  0.12509393130E+03 0.  0.
        -24    2    1    2    0    0 -0.51896090284E+02 -0.46376871456E+02  0.14459673373E+04  0.14497611767E+04  0.78370341820E+02 0.  0.
        -11    1    3    3    0    0 -0.11534519846E+02  0.32172512916E+00  0.24460790317E+01  0.11795421050E+02  0.00000000000E+00 0.  1.
         12    1    3    3    0    0  0.70433699866E+01  0.14313557899E+02 -0.14425052827E+03  0.14512994835E+03  0.00000000000E+00 0. -1.
         11    1    5    5    0    0 -0.40417629131E+02  0.58201810391E+01  0.33031469762E+03  0.33282917348E+03  0.00000000000E+00 0. -1.
        -12    1    5    5    0    0 -0.11478461154E+02 -0.52197052495E+02  0.11156526397E+04  0.11169320032E+04  0.00000000000E+00 0.  1.
          5    1    4    4  501    0  0.67146503996E+02  0.72143990927E+02 -0.26752873490E+02  0.10220859585E+03  0.41800000000E+01 0. -1.
         -5    1    4    4    0  501 -0.10759263853E+02 -0.40402402500E+02 -0.67156485483E+01  0.42552182339E+02  0.41800000000E+01 0. -1.
</event>
<event>
11    1  0.6763327E-009  0.3696858E+03  0.7561462E-02  0.9743695E-01
         22   -1    0    0    0    0  0.00000000000E+00  0.00000000000E+00  0.21731570858E+04  0.21731570858E+04  0.00000000000E+00 0.  1.
         22   -1    0    0    0    0 -0.00000000000E+00 -0.00000000000E+00 -0.26424465509E+03  0.26424465509E+03  0.00000000000E+00 0.  1.
         24    2    1    2    0    0  0.37062492700E+03  0.42031654531E+02 -0.70823396996E+02  0.38810024153E+03  0.80475756711E+02 0.  0.
         25    2    1    2    0    0 -0.23832073054E+03  0.85293118869E+02  0.71535656459E+03  0.76906059232E+03  0.12508994140E+03 0.  0.
        -24    2    1    2    0    0 -0.13230419646E+03 -0.12732477340E+03  0.12643792631E+04  0.12802409070E+04  0.81522148569E+02 0.  0.
        -13    1    3    3    0    0  0.32798274493E+03  0.52338784465E+02 -0.83437302701E+02  0.34245264317E+03  0.00000000000E+00 0.  1.
         14    1    3    3    0    0  0.42642182073E+02 -0.10307129934E+02  0.12613905705E+02  0.45647598365E+02  0.00000000000E+00 0. -1.
         11    1    5    5    0    0 -0.92696942060E+02 -0.10093858476E+03  0.66495850605E+03  0.67893382280E+03  0.00000000000E+00 0. -1.
        -12    1    5    5    0    0 -0.39607254402E+02 -0.26386188636E+02  0.59942075706E+03  0.60130708423E+03  0.00000000000E+00 0.  1.
          5    1    4    4  501    0 -0.10980766682E+03  0.64470416523E+02  0.51161707677E+03  0.52724156128E+03  0.41800000000E+01 0.  1.
         -5    1    4    4    0  501 -0.12851306372E+03  0.20822702346E+02  0.20373948782E+03  0.24181903104E+03  0.41800000000E+01 0.  1.
</event>
<event>
11    1  0.6763327E-009  0.1329422E+03  0.7561462E-02  0.1115706E+00
         22   -1    0    0    0    0  0.00000000000E+00  0.00000000000E+00  0.47263695938E+03  0.47263695938E+03  0.00000000000E+00 0.  1.
         22   -1    0    0    0    0 -0.00000000000E+00 -0.00000000000E+00 -0.23711194714E+04  0.23711194714E+04  0.00000000000E+00 0. -1.
        -24    2    1    2    0    0  0.12318103634E+02  0.43197777621E+02 -0.23228117581E+04  0.23246912874E+04  0.81959346190E+02 0.  0.
         25    2    1    2    0    0  0.34084891873E+01 -0.62495044081E+02  0.74362382045E+02  0.15840634043E+03  0.12508219894E+03 0.  0.
         24    2    1    2    0    0 -0.15726592821E+02  0.19297266460E+02  0.34996686411E+03  0.36065880289E+03  0.83535955778E+02 0.  0.
        -11    1    5    5    0    0  0.77671171993E+01  0.38921566246E+01  0.31792953676E+03  0.31804821543E+03  0.00000000000E+00 0.  1.
         12    1    5    5    0    0 -0.23493710020E+02  0.15405109835E+02  0.32037327352E+02  0.42610587457E+02  0.00000000000E+00 0. -1.
         13    1    3    3    0    0 -0.16971929348E+02  0.20379245266E+01 -0.16103707480E+04  0.16104614697E+04  0.00000000000E+00 0. -1.
        -14    1    3    3    0    0  0.29290032982E+02  0.41159853094E+02 -0.71244101016E+03  0.71422981770E+03  0.00000000000E+00 0.  1.
          5    1    4    4  501    0  0.24374878929E+02 -0.30788553878E+02  0.10320848469E+03  0.11050580747E+03  0.41800000000E+01 0.  1.
         -5    1    4    4    0  501 -0.20966389742E+02 -0.31706490202E+02 -0.28846102648E+02  0.47900532958E+02  0.41800000000E+01 0.  1.
</event>
<event>
11    1  0.6763327E-009  0.1382908E+03  0.7561462E-02  0.1109482E+00
         22   -1    0    0    0    0  0.00000000000E+00  0.00000000000E+00  0.96521201001E+03  0.96521201001E+03  0.00000000000E+00 0.  1.
         22   -1    0    0    0    0 -0.00000000000E+00 -0.00000000000E+00 -0.12007615911E+03  0.12007615911E+03  0.00000000000E+00 0.  1.
         24    2    1    2    0    0 -0.11926047178E+02 -0.57581133106E+02 -0.81373439769E+02  0.12770953539E+03  0.78932067235E+02 0.  0.
         25    2    1    2    0    0  0.22633858762E+02  0.58211398788E+02  0.38456880342E+03  0.40919689300E+03  0.12509226260E+03 0.  0.
        -24    2    1    2    0    0 -0.10707811583E+02 -0.63026568220E+00  0.54194048725E+03  0.54838174074E+03  0.83114303192E+02 0.  0.
        -11    1    3    3    0    0  0.28225329585E+02 -0.44167643162E+00 -0.18583022942E+02  0.33796346695E+02  0.00000000000E+00 0.  1.
         12    1    3    3    0    0 -0.40151376764E+02 -0.57139456674E+02 -0.62790416827E+02  0.93913188692E+02  0.00000000000E+00 0. -1.
         13    1    5    5    0    0 -0.20623793260E+02  0.13649638094E+02  0.46772038828E+02  0.52908194872E+02  0.00000000000E+00 0. -1.
        -14    1    5    5    0    0  0.99159816760E+01 -0.14279903776E+02  0.49516844842E+03  0.49547354587E+03  0.00000000000E+00 0.  1.
          5    1    4    4  501    0 -0.49256043500E+01  0.69459768601E+02  0.93894402371E+02  0.11697244218E+03  0.41800000000E+01 0.  1.
         -5    1    4    4    0  501  0.27559463112E+02 -0.11248369813E+02  0.29067440105E+03  0.29222445082E+03  0.41800000000E+01 0.  1.
</event>
<event>
11    1  0.6763327E-009  0.1418431E+03  0.7561462E-02  0.1105518E+00
         22   -1    0    0    0    0  0.00000000000E+00  0.00000000000E+00  0.23391323069E+03  0.23391323069E+03  0.00000000000E+00 0.  1.
         22   -1    0    0    0    0 -0.00000000000E+00 -0.00000000000E+00 -0.28664082111E+03  0.28664082111E+03  0.00000000000E+00 0. -1.
         24    2    1    2    0    0 -0.21422614468E+02  0.32319824157E+02 -0.20568088899E+03  0.22439413731E+03  0.80898710244E+02 0.  0.
         25    2    1    2    0    0  0.41312385726E+02 -0.84577291304E+02  0.69313607818E+02  0.17120743930E+03  0.12509028589E+03 0.  0.
        -24    2    1    2    0    0 -0.19889771258E+02  0.52257467147E+02  0.83639690754E+02  0.12495247519E+03  0.74101803716E+02 0.  0.
        -11    1    3    3    0    0  0.26479512668E+01 -0.26244948068E+02 -0.62344030065E+02  0.67694807997E+02  0.00000000000E+00 0.  1.
         12    1    3    3    0    0 -0.24070565734E+02  0.58564772226E+02 -0.14333685893E+03  0.15669932931E+03  0.00000000000E+00 0. -1.
         11    1    5    5    0    0  0.14955338173E+02 -0.20308898584E+01  0.49941371775E+02  0.52172092810E+02  0.00000000000E+00 0. -1.
        -12    1    5    5    0    0 -0.34845109431E+02  0.54288357005E+02  0.33698318979E+02  0.72780382382E+02  0.00000000000E+00 0.  1.
          5    1    4    4  501    0  0.81913218298E+02 -0.79134340123E+02  0.60743720377E+02  0.12914832978E+03  0.41800000000E+01 0.  1.
         -5    1    4    4    0  501 -0.40600832572E+02 -0.54429511814E+01  0.85698874418E+01  0.42059109523E+02  0.41800000000E+01 0.  1.
</event>
<event>
11    1  0.6763327E-009  0.1642372E+03  0.7561462E-02  0.1083158E+00
         22   -1    0    0    0    0  0.00000000000E+00  0.00000000000E+00  0.37394636118E+03  0.37394636118E+03  0.00000000000E+00 0. -1.
         22   -1    0    0    0    0 -0.00000000000E+00 -0.00000000000E+00 -0.10186010543E+04  0.10186010543E+04  0.00000000000E+00 0. -1.
        -24    2    1    2    0    0 -0.89561908010E+02  0.53625451486E+02 -0.83714189325E+03  0.84739508025E+03  0.79842646389E+02 0.  0.
         25    2    1    2    0    0  0.68246416651E+02 -0.13274236082E+03 -0.10859133048E+03  0.22297447640E+03  0.12508969713E+03 0.  0.
         24    2    1    2    0    0  0.21315491358E+02  0.79116909332E+02  0.30107853059E+03  0.32217785885E+03  0.80227524174E+02 0.  0.
        -13    1    5    5    0    0  0.76108880653E+01 -0.11162812517E+02  0.91910835899E+01  0.16340441181E+02  0.00000000000E+00 0.  1.
         14    1    5    5    0    0  0.13704603293E+02  0.90279721849E+02  0.29188744700E+03  0.30583741767E+03  0.00000000000E+00 0. -1.
         13    1    3    3    0    0 -0.37939040849E+02  0.63629975444E+02 -0.37312131906E+03  0.38040460478E+03  0.00000000000E+00 0. -1.
        -14    1    3    3    0    0 -0.51622867160E+02 -0.10004523958E+02 -0.46402057419E+03  0.46699047547E+03  0.00000000000E+00 0.  1.
          5    1    4    4  501    0 -0.21933843818E+02 -0.53898789909E+02  0.40649766862E+01  0.58482215192E+02  0.41800000000E+01 0.  1.
         -5    1    4    4    0  501  0.90180260470E+02 -0.78843570908E+02 -0.11265630716E+03  0.16449226120E+03  0.41800000000E+01 0.  1.
</event>
<event>
11    1  0.6763327E-009  0.1841868E+03  0.7561462E-02  0.1066306E+00
         22   -1    0    0    0    0  0.00000000000E+00  0.00000000000E+00  0.51037884710E+03  0.51037884710E+03  0.00000000000E+00 0.  1.
         22   -1    0    0    0    0 -0.00000000000E+00 -0.00000000000E+00 -0.33123675787E+03  0.33123675787E+03  0.00000000000E+00 0. -1.
         24    2    1    2    0    0 -0.35066588117E+02  0.42312435072E+02 -0.38883933190E+02  0.10397330791E+03  0.79236864733E+02 0.  0.
         25    2    1    2    0    0  0.10379991386E+03 -0.15550032864E+03 -0.19525901847E+03  0.29787266875E+03  0.12508904096E+03 0.  0.
        -24    2    1    2    0    0 -0.68733325741E+02  0.11318789357E+03  0.41328504089E+03  0.43976962831E+03  0.71112809277E+02 0.  0.
        -13    1    3    3    0    0 -0.18297435149E+01  0.40907892164E+02  0.12452811819E+02  0.42800422017E+02  0.00000000000E+00 0.  1.
         14    1    3    3    0    0 -0.33236844602E+02  0.14045429082E+01 -0.51336745009E+02  0.61172885889E+02  0.00000000000E+00 0. -1.
         13    1    5    5    0    0  0.85104865630E+01  0.13818261396E+00  0.69569010299E+01  0.10992995402E+02  0.00000000000E+00 0. -1.
        -14    1    5    5    0    0 -0.77243812304E+02  0.11304971095E+03  0.40632813986E+03  0.42877663291E+03  0.00000000000E+00 0.  1.
          5    1    4    4  501    0  0.83944258037E+02 -0.15194834134E+03 -0.99934877362E+02  0.20034816946E+03  0.41800000000E+01 0. -1.
         -5    1    4    4    0  501  0.19855655821E+02 -0.35519872939E+01 -0.95324141110E+02  0.97524499282E+02  0.41800000000E+01 0. -1.
</event>
<event>
11    1  0.6763327E-009  0.1527960E+03  0.7561462E-02  0.1094056E+00
         22   -1    0    0    0    0  0.00000000000E+00  0.00000000000E+00  0.21885790047E+03  0.21885790047E+03  0.00000000000E+00 0. -1.
         22   -1    0    0    0    0 -0.00000000000E+00 -0.00000000000E+00 -0.62607992943E+03  0.62607992943E+03  0.00000000000E+00 0.  1.
         24    2    1    2    0    0  0.75528439983E+02  0.53567922406E+02 -0.55343381017E+03  0.56814819046E+03  0.89046709741E+02 0.  0.
         25    2    1    2    0    0 -0.13583869689E+02 -0.21758460064E+02  0.55166034756E+02  0.13909902886E+03  0.12508915357E+03 0.  0.
        -24    2    1    2    0    0 -0.61944570294E+02 -0.31809462342E+02  0.91045746455E+02  0.13769061058E+03  0.76291576274E+02 0.  0.
        -11    1    3    3    0    0  0.37133143518E+02  0.50708910826E+02 -0.48948439985E+03  0.49350303107E+03  0.00000000000E+00 0.  1.
         12    1    3    3    0    0  0.38395296466E+02  0.28590115803E+01 -0.63949410327E+02  0.74645159381E+02  0.00000000000E+00 0. -1.
         11    1    5    5    0    0 -0.94409705431E+01  0.22570110026E+02  0.38558916240E+02  0.45665433459E+02  0.00000000000E+00 0. -1.
        -12    1    5    5    0    0 -0.52503599751E+02 -0.54379572369E+02  0.52486830215E+02  0.92025177119E+02  0.00000000000E+00 0.  1.
          5    1    4    4  501    0  0.52887998317E+02 -0.27970902354E+02  0.18217455916E+02  0.62680617774E+02  0.41800000000E+01 0.  1.
         -5    1    4    4    0  501 -0.66471868006E+02  0.62124422897E+01  0.36948578840E+02  0.76418411091E+02  0.41800000000E+01 0.  1.
</event>
<event>
11    1  0.6763327E-009  0.1443771E+03  0.7561462E-02  0.1102767E+00
         22   -1    0    0    0    0  0.00000000000E+00  0.00000000000E+00  0.10872553834E+04  0.10872553834E+04  0.00000000000E+00 0.  1.
         22   -1    0    0    0    0 -0.00000000000E+00 -0.00000000000E+00 -0.15582780809E+04  0.15582780809E+04  0.00000000000E+00 0.  1.
         24    2    1    2    0    0  0.44214926056E+02  0.56921417614E+02 -0.14674513872E+04  0.14714070049E+04  0.80187237166E+02 0.  0.
         25    2    1    2    0    0 -0.47608112154E+02 -0.53845963388E+02 -0.27572070060E+02  0.14689264899E+03  0.12510520039E+03 0.  0.
        -24    2    1    2    0    0  0.33931860981E+01 -0.30754542269E+01  0.10240007598E+04  0.10272338104E+04  0.81306660957E+02 0.  0.
        -13    1    3    3    0    0  0.16533232068E+02 -0.62175031276E+01 -0.83893899271E+03  0.83912492431E+03  0.00000000000E+00 0.  1.
         14    1    3    3    0    0  0.27681693987E+02  0.63138920742E+02 -0.62851239447E+03  0.63228208064E+03  0.00000000000E+00 0. -1.
         13    1    5    5    0    0  0.29389769147E+02 -0.25988116058E+02  0.32247002364E+03  0.32484774411E+03  0.00000000000E+00 0. -1.
        -14    1    5    5    0    0 -0.25996583049E+02  0.22912661831E+02  0.70153073612E+03  0.70238606630E+03  0.00000000000E+00 0.  1.
          5    1    4    4  501    0 -0.55244962527E+02 -0.49627042043E+02 -0.70743985294E+02  0.10265005135E+03  0.41800000000E+01 0. -1.
         -5    1    4    4    0  501  0.76368503734E+01 -0.42189213450E+01  0.43171915235E+02  0.44242597640E+02  0.41800000000E+01 0. -1.
</event>
<event>
11    1  0.6763327E-009  0.1554845E+03  0.7561462E-02  0.1091403E+00
         22   -1    0    0    0    0  0.00000000000E+00  0.00000000000E+00  0.21525938781E+04  0.21525938781E+04  0.00000000000E+00 0.  1.
         22   -1    0    0    0    0 -0.00000000000E+00 -0.00000000000E+00 -0.14836005370E+03  0.14836005370E+03  0.00000000000E+00 0.  1.
        -24    2    1    2    0    0  0.86627547806E+02 -0.33492916075E+02 -0.11094719369E+03  0.16622396090E+03  0.81823089185E+02 0.  0.
         25    2    1    2    0    0 -0.75359852432E+02  0.24840325779E+02  0.63773141814E+03  0.65471394055E+03  0.12511128297E+03 0.  0.
         24    2    1    2    0    0 -0.11267695374E+02  0.86525902952E+01  0.14774496000E+04  0.14800160304E+04  0.85955228955E+02 0.  0.
        -13    1    5    5    0    0 -0.22669889915E+02  0.42209018866E+02  0.10529819370E+04  0.10540713850E+04  0.00000000000E+00 0.  1.
         14    1    5    5    0    0  0.11402194541E+02 -0.33556428570E+02  0.42446766304E+03  0.42594464535E+03  0.00000000000E+00 0. -1.
         11    1    3    3    0    0  0.64663429188E+01 -0.30991142738E+02 -0.30787731368E+01  0.31807913527E+02  0.00000000000E+00 0. -1.
        -12    1    3    3    0    0  0.80161204887E+02 -0.25017733371E+01 -0.10786842056E+03  0.13441604738E+03  0.00000000000E+00 0.  1.
          5    1    4    4  501    0 -0.29888188613E+02  0.58838097660E+02  0.15336685435E+03  0.16701523873E+03  0.41800000000E+01 0.  1.
         -5    1    4    4    0  501 -0.45471663819E+02 -0.33997771881E+02  0.48436456379E+03  0.48769870182E+03  0.41800000000E+01 0.  1.
</event>
<event>
11    1  0.6763327E-009  0.1402218E+03  0.7561462E-02  0.1107311E+00
         22   -1    0    0    0    0  0.00000000000E+00  0.00000000000E+00  0.13714161979E+03  0.13714161979E+03  0.00000000000E+00 0. -1.
         22   -1    0    0    0    0 -0.00000000000E+00 -0.00000000000E+00 -0.81309094661E+03  0.81309094661E+03  0.00000000000E+00 0.  1.
        -24    2    1    2    0    0  0.31700313607E+02 -0.53343632962E+02 -0.67896900895E+03  0.68657106022E+03  0.80811215532E+02 0.  0.
         25    2    1    2    0    0  0.13080042918E+00  0.10527878862E+03  0.10387431609E+01  0.16350420642E+03  0.12509558780E+03 0.  0.
         24    2    1    2    0    0 -0.31831114036E+02 -0.51935155656E+02  0.19809389647E+01  0.10015729976E+03  0.79480062673E+02 0.  0.
        -11    1    5    5    0    0 -0.22594763557E+02  0.12794734698E+02 -0.18221965637E+02  0.31721737151E+02  0.00000000000E+00 0.  1.
         12    1    5    5    0    0 -0.92363504794E+01 -0.64729890355E+02  0.20202904601E+02  0.68435562611E+02  0.00000000000E+00 0. -1.
         11    1    3    3    0    0 -0.25996475908E+02 -0.49222090158E+01 -0.19053316729E+03  0.19236146376E+03  0.00000000000E+00 0. -1.
        -12    1    3    3    0    0  0.57696789515E+02 -0.48421423946E+02 -0.48843584166E+03  0.49420959646E+03  0.00000000000E+00 0.  1.
          5    1    4    4  501    0  0.43642776816E+02  0.11068532215E+03  0.58568524329E+01  0.11919608898E+03  0.41800000000E+01 0. -1.
         -5    1    4    4    0  501 -0.43511976387E+02 -0.54065335339E+01 -0.48181092719E+01  0.44308117438E+02  0.41800000000E+01 0. -1.
</event>
<event>
11    1  0.6763327E-009  0.1424348E+03  0.7561462E-02  0.1104870E+00
         22   -1    0    0    0    0  0.00000000000E+00  0.00000000000E+00  0.16465557139E+04  0.16465557139E+04  0.00000000000E+00 0. -1.
         22   -1    0    0    0    0 -0.00000000000E+00 -0.00000000000E+00 -0.11833564004E+03  0.11833564004E+03  0.00000000000E+00 0. -1.
         24    2    1    2    0    0 -0.37396857712E+02 -0.53408650937E+02 -0.68649768175E+02  0.12416889877E+03  0.80337511726E+02 0.  0.
         25    2    1    2    0    0  0.38651406698E+02  0.98550303386E+02  0.31329571364E+03  0.35356346512E+03  0.12508727411E+03 0.  0.
        -24    2    1    2    0    0 -0.12545489861E+01 -0.45141652449E+02  0.12835741284E+04  0.12871589900E+04  0.84713516606E+02 0.  0.
        -11    1    3    3    0    0 -0.29761565792E+02 -0.23116693758E+02  0.10464247039E+02  0.39110520257E+02  0.00000000000E+00 0.  1.
         12    1    3    3    0    0 -0.76352919191E+01 -0.30291957179E+02 -0.79114015214E+02  0.85058378515E+02  0.00000000000E+00 0. -1.
         13    1    5    5    0    0 -0.88979260679E+01 -0.49426058813E+01  0.10485431581E+04  0.10485925600E+04  0.00000000000E+00 0. -1.
        -14    1    5    5    0    0  0.76433770817E+01 -0.40199046568E+02  0.23503097023E+03  0.23856643001E+03  0.00000000000E+00 0.  1.
          5    1    4    4  501    0  0.36225070127E+02  0.10071583483E+03  0.32420234094E+03  0.34143896287E+03  0.41800000000E+01 0. -1.
         -5    1    4    4    0  501  0.24263365706E+01 -0.21655314432E+01 -0.10906627306E+02  0.12124502248E+02  0.41800000000E+01 0. -1.
</event>
<event>
11    1  0.6763327E-009  0.1417015E+03  0.7561462E-02  0.1105673E+00
         22   -1    0    0    0    0  0.00000000000E+00  0.00000000000E+00  0.71197280724E+03  0.71197280724E+03  0.00000000000E+00 0.  1.
         22   -1    0    0    0    0 -0.00000000000E+00 -0.00000000000E+00 -0.97771131780E+03  0.97771131780E+03  0.00000000000E+00 0. -1.
        -24    2    1    2    0    0 -0.66074506170E+02 -0.12550078712E+02 -0.46355335154E+03  0.47524166688E+03  0.80309323082E+02 0.  0.
         25    2    1    2    0    0  0.11623659792E+03  0.55474176531E+02 -0.48755594935E+03  0.51956449501E+03  0.12509248486E+03 0.  0.
         24    2    1    2    0    0 -0.50162091749E+02 -0.42924097819E+02  0.68537079033E+03  0.69487796316E+03  0.93613833534E+02 0.  0.
        -13    1    5    5    0    0 -0.70914821329E+02 -0.54770942925E+02  0.49894373330E+03  0.50692565241E+03  0.00000000000E+00 0.  1.
         14    1    5    5    0    0  0.20752729579E+02  0.11846845105E+02  0.18642705703E+03  0.18795231075E+03  0.00000000000E+00 0. -1.
         11    1    3    3    0    0 -0.55830542299E+02 -0.42250339362E+02 -0.36964109535E+03  0.37621360953E+03  0.00000000000E+00 0. -1.
        -12    1    3    3    0    0 -0.10243963872E+02  0.29700260650E+02 -0.93912256189E+02  0.99028057343E+02  0.00000000000E+00 0.  1.
          5    1    4    4  501    0  0.57544437246E+02  0.13957279154E+02 -0.40784164162E+03  0.41213886608E+03  0.41800000000E+01 0. -1.
         -5    1    4    4    0  501  0.58692160673E+02  0.41516897377E+02 -0.79714307733E+02  0.10742562892E+03  0.41800000000E+01 0. -1.
</event>
<event>
11    1  0.6763327E-009  0.1337276E+03  0.7561462E-02  0.1114772E+00
         22   -1    0    0    0    0  0.00000000000E+00  0.00000000000E+00  0.11311629491E+03  0.11311629491E+03  0.00000000000E+00 0. -1.
         22   -1    0    0    0    0 -0.00000000000E+00 -0.00000000000E+00 -0.13459163323E+04  0.13459163323E+04  0.00000000000E+00 0. -1.
        -24    2    1    2    0    0 -0.12897059598E+02  0.39754470042E+02 -0.12100161879E+04  0.12134559342E+04  0.81174979988E+02 0.  0.
         25    2    1    2    0    0  0.19450525602E+02  0.16549298893E+02 -0.59608055734E+02  0.14089995748E+03  0.12508986957E+03 0.  0.
         24    2    1    2    0    0 -0.65534660039E+01 -0.56303768935E+02  0.36824206242E+02  0.10467673547E+03  0.79925806035E+02 0.  0.
        -11    1    5    5    0    0  0.19907038077E+02 -0.43646810749E+01 -0.16078458283E+02  0.25958763966E+02  0.00000000000E+00 0.  1.
         12    1    5    5    0    0 -0.26460504081E+02 -0.51939087860E+02  0.52902664525E+02  0.78717971504E+02  0.00000000000E+00 0. -1.
         13    1    3    3    0    0  0.24725405343E+02 -0.10354557469E+01 -0.69857017497E+03  0.69900837420E+03  0.00000000000E+00 0. -1.
        -14    1    3    3    0    0 -0.37622464941E+02  0.40789925789E+02 -0.51144601291E+03  0.51444756004E+03  0.00000000000E+00 0.  1.
          5    1    4    4  501    0 -0.22144474188E+02  0.59345314918E+00 -0.86030480717E+02  0.88935065841E+02  0.41800000000E+01 0. -1.
         -5    1    4    4    0  501  0.41594999790E+02  0.15955845744E+02  0.26422424983E+02  0.51964891638E+02  0.41800000000E+01 0. -1.
</event>
<event>
11    1  0.6763327E-009  0.1374115E+03  0.7561462E-02  0.1110484E+00
         22   -1    0    0    0    0  0.00000000000E+00  0.00000000000E+00  0.56849890750E+02  0.56849890750E+02  0.00000000000E+00 0. -1.
         22   -1    0    0    0    0 -0.00000000000E+00 -0.00000000000E+00 -0.26431801355E+04  0.26431801355E+04  0.00000000000E+00 0. -1.
        -24    2    1    2    0    0  0.52757822889E+02 -0.15875183660E+02 -0.23832182974E+04  0.23853685617E+04  0.84960654018E+02 0.  0.
         25    2    1    2    0    0 -0.29266429312E+02 -0.47676320325E+02 -0.11844761610E+03  0.18112567832E+03  0.12508844144E+03 0.  0.
         24    2    1    2    0    0 -0.23491393578E+02  0.63551503985E+02 -0.84664331247E+02  0.13353578623E+03  0.77930212291E+02 0.  0.
        -11    1    5    5    0    0 -0.44207771586E+02  0.62317996585E+02 -0.82850753969E+02  0.11270362550E+03  0.00000000000E+00 0.  1.
         12    1    5    5    0    0  0.20716378008E+02  0.12335073999E+01 -0.18135772776E+01  0.20832160733E+02  0.00000000000E+00 0. -1.
         11    1    3    3    0    0 -0.13299831650E+02 -0.28433013377E+02 -0.10332563629E+04  0.10337330570E+04  0.00000000000E+00 0. -1.
        -12    1    3    3    0    0  0.66057654539E+02  0.12557829717E+02 -0.13499619346E+04  0.13516355047E+04  0.00000000000E+00 0.  1.
          5    1    4    4  501    0 -0.14127850626E+02  0.41141724713E+02 -0.21478044246E+02  0.48693084317E+02  0.41800000000E+01 0.  1.
         -5    1    4    4    0  501 -0.15138578686E+02 -0.88818045038E+02 -0.96969571854E+02  0.13243259400E+03  0.41800000000E+01 0.  1.
</event>
<event>
11    1  0.6763327E-009  0.1414111E+03  0.7561462E-02  0.1105993E+00
         22   -1    0    0    0    0  0.00000000000E+00  0.00000000000E+00  0.66600373119E+03  0.66600373119E+03  0.00000000000E+00 0.  1.
         22   -1    0    0    0    0 -0.00000000000E+00 -0.00000000000E+00 -0.85459200281E+03  0.85459200281E+03  0.00000000000E+00 0. -1.
         24    2    1    2    0    0  0.66412449445E+02  0.12754290385E+02 -0.81302212472E+03  0.81986747800E+03  0.81267587826E+02 0.  0.
         25    2    1    2    0    0 -0.39635425173E+00 -0.31472208953E+02  0.91539094306E+02  0.15815110597E+03  0.12506682014E+03 0.  0.
        -24    2    1    2    0    0 -0.66016095193E+02  0.18717918568E+02  0.53289475880E+03  0.54257715003E+03  0.75529163080E+02 0.  0.
        -11    1    3    3    0    0 -0.15661151296E+02  0.16450806852E+02 -0.22281037945E+03  0.22396509973E+03  0.00000000000E+00 0.  1.
         12    1    3    3    0    0  0.82073600741E+02 -0.36965164677E+01 -0.59021174527E+03  0.59590237827E+03  0.00000000000E+00 0. -1.
         11    1    5    5    0    0  0.88420148825E+01  0.10433625947E+02  0.20288921224E+02  0.24467981159E+02  0.00000000000E+00 0. -1.
        -12    1    5    5    0    0 -0.74858110075E+02  0.82842926211E+01  0.51260583758E+03  0.51810916887E+03  0.00000000000E+00 0.  1.
          5    1    4    4  501    0 -0.51984989567E+02 -0.51087049229E+02  0.59623137791E+02  0.94258775184E+02  0.41800000000E+01 0.  1.
         -5    1    4    4    0  501  0.51588635315E+02  0.19614840277E+02  0.31915956515E+02  0.63892330784E+02  0.41800000000E+01 0.  1.
</event>
<event>
11    1  0.6763327E-009  0.9607402E+03  0.7561462E-02  0.8717279E-01
         22   -1    0    0    0    0  0.00000000000E+00  0.00000000000E+00  0.18201152717E+04  0.18201152717E+04  0.00000000000E+00 0.  1.
         22   -1    0    0    0    0 -0.00000000000E+00 -0.00000000000E+00 -0.60020378069E+03  0.60020378069E+03  0.00000000000E+00 0.  1.
         24    2    1    2    0    0 -0.32127501227E+03  0.47997111752E+03 -0.22195141395E+03  0.62410559663E+03  0.81580993020E+02 0.  0.
         25    2    1    2    0    0  0.14239279777E+03  0.21726678312E+03  0.17589307622E+03  0.33773799005E+03  0.12509201315E+03 0.  0.
        -24    2    1    2    0    0  0.17888221450E+03 -0.69723790064E+03  0.12659698288E+04  0.14584754657E+04  0.79570974892E+02 0.  0.
        -11    1    3    3    0    0 -0.14792813122E+03  0.23826148486E+03 -0.65374359739E+02  0.28796714063E+03  0.00000000000E+00 0.  1.
         12    1    3    3    0    0 -0.17334688105E+03  0.24170963266E+03 -0.15657705422E+03  0.33613845600E+03  0.00000000000E+00 0. -1.
         13    1    5    5    0    0 -0.51953236811E+01 -0.44816221017E+02  0.60459958417E+02  0.75437998557E+02  0.00000000000E+00 0. -1.
        -14    1    5    5    0    0  0.18407753818E+03 -0.65242167963E+03  0.12055098704E+04  0.13830374672E+04  0.00000000000E+00 0.  1.
          5    1    4    4  501    0 -0.13612899107E+02  0.82532174714E+01  0.40774599450E+02  0.43971206272E+02  0.41800000000E+01 0.  1.
         -5    1    4    4    0  501  0.15600569688E+03  0.20901356565E+03  0.13511847677E+03  0.29376678378E+03  0.41800000000E+01 0.  1.
</event>
<event>
11    1  0.6763327E-009  0.1432355E+03  0.7561462E-02  0.1103998E+00
         22   -1    0    0    0    0  0.00000000000E+00  0.00000000000E+00  0.78130413936E+03  0.78130413936E+03  0.00000000000E+00 0.  1.
         22   -1    0    0    0    0 -0.00000000000E+00 -0.00000000000E+00 -0.47872795965E+03  0.47872795965E+03  0.00000000000E+00 0. -1.
        -24    2    1    2    0    0  0.68443906039E+02 -0.12292050722E+02 -0.44595329027E+03  0.45841853218E+03  0.80234348988E+02 0.  0.
         25    2    1    2    0    0 -0.80312084612E+02 -0.15902968645E+01  0.21102616438E+03  0.25813158392E+03  0.12508921850E+03 0.  0.
         24    2    1    2    0    0  0.11868178573E+02  0.13882347586E+02  0.53750330560E+03  0.54348198290E+03  0.78289775624E+02 0.  0.
        -13    1    5    5    0    0 -0.30356414961E+02  0.56861791371E+01  0.12570411265E+03  0.12944252971E+03  0.00000000000E+00 0.  1.
         14    1    5    5    0    0  0.42224593534E+02  0.81961684491E+01  0.41179919296E+03  0.41403945319E+03  0.00000000000E+00 0. -1.
         13    1    3    3    0    0  0.69051558883E+02 -0.12872745764E+02 -0.44940744837E+03  0.45486358396E+03  0.00000000000E+00 0. -1.
        -14    1    3    3    0    0 -0.60765284391E+00  0.58069504210E+00  0.34541580933E+01  0.35549482196E+01  0.00000000000E+00 0.  1.
          5    1    4    4  501    0 -0.17588580103E+02 -0.47075361873E+02  0.15341369289E+03  0.16148895136E+03  0.41800000000E+01 0.  1.
         -5    1    4    4    0  501 -0.62723504509E+02  0.45485065009E+02  0.57612471494E+02  0.96642632561E+02  0.41800000000E+01 0.  1.
</event>
<event>
11    1  0.6763327E-009  0.1644767E+03  0.7561462E-02  0.1082941E+00
         22   -1    0    0    0    0  0.00000000000E+00  0.00000000000E+00  0.29721885543E+03  0.29721885543E+03  0.00000000000E+00 0. -1.
         22   -1    0    0    0    0 -0.00000000000E+00 -0.00000000000E+00 -0.28074168881E+03  0.28074168881E+03  0.00000000000E+00 0. -1.
        -24    2    1    2    0    0  0.31541865155E+02 -0.17294598337E+03 -0.85228212812E+02  0.21161840551E+03  0.81322191738E+02 0.  0.
         25    2    1    2    0    0  0.12433687738E+02  0.58080161489E+02 -0.57420935392E+02  0.14990868069E+03  0.12509015539E+03 0.  0.
         24    2    1    2    0    0 -0.43975552894E+02  0.11486582188E+03  0.15912631482E+03  0.21643345804E+03  0.79964063181E+02 0.  0.
        -11    1    5    5    0    0 -0.29468845798E+02 -0.79707063321E+00  0.40768709567E+02  0.50310395288E+02  0.00000000000E+00 0.  1.
         12    1    5    5    0    0 -0.14506707096E+02  0.11566289251E+03  0.11835760525E+03  0.16612306275E+03  0.00000000000E+00 0. -1.
         13    1    3    3    0    0  0.20148044299E+02 -0.15576946007E+03 -0.40250128076E+02  0.16214234854E+03  0.00000000000E+00 0. -1.
        -14    1    3    3    0    0  0.11393820856E+02 -0.17176523296E+02 -0.44978084736E+02  0.49476056965E+02  0.00000000000E+00 0.  1.
          5    1    4    4  501    0  0.39477212131E+02 -0.61460711943E+01  0.20657035916E+02  0.45170897728E+02  0.41800000000E+01 0. -1.
         -5    1    4    4    0  501 -0.27043524392E+02  0.64226232684E+02 -0.78077971308E+02  0.10473778296E+03  0.41800000000E+01 0. -1.
</event>
<event>
11    1  0.6763327E-009  0.1707297E+03  0.7561462E-02  0.1077398E+00
         22   -1    0    0    0    0  0.00000000000E+00  0.00000000000E+00  0.34344586421E+04  0.34344586421E+04  0.00000000000E+00 0. -1.
         22   -1    0    0    0    0 -0.00000000000E+00 -0.00000000000E+00 -0.15908533984E+03  0.15908533984E+03  0.00000000000E+00 0.  1.
         24    2    1    2    0    0  0.34901701974E+02  0.10914126591E+03 -0.10977969339E+03  0.17770053291E+03  0.79974705952E+02 0.  0.
         25    2    1    2    0    0 -0.51457185972E+02 -0.13672683944E+03  0.61699005208E+03  0.64627283897E+03  0.12509911035E+03 0.  0.
        -24    2    1    2    0    0  0.16555483998E+02  0.27585573527E+02  0.27681629435E+04  0.27695706100E+04  0.82220642716E+02 0.  0.
        -11    1    3    3    0    0 -0.16830656569E+02  0.26349086152E+02 -0.61046366511E+02  0.68587201473E+02  0.00000000000E+00 0.  1.
         12    1    3    3    0    0  0.51732358544E+02  0.82792179760E+02 -0.48733326875E+02  0.10911333144E+03  0.00000000000E+00 0. -1.
         13    1    5    5    0    0  0.36968788409E+02  0.14245532025E+01  0.22710881671E+04  0.22713894829E+04  0.00000000000E+00 0. -1.
        -14    1    5    5    0    0 -0.20413304412E+02  0.26161020325E+02  0.49707477646E+03  0.49818112708E+03  0.00000000000E+00 0.  1.
          5    1    4    4  501    0 -0.63564475606E+02 -0.15620255472E+03  0.52889444471E+03  0.55514546445E+03  0.41800000000E+01 0. -1.
         -5    1    4    4    0  501  0.12107289634E+02  0.19475715278E+02  0.88095607373E+02  0.91127374517E+02  0.41800000000E+01 0. -1.
</event>
<event>
11    1  0.6763327E-009  0.1311733E+03  0.7561462E-02  0.1117836E+00
         22   -1    0    0    0    0  0.00000000000E+00  0.00000000000E+00  0.42833309739E+03  0.42833309739E+03  0.00000000000E+00 0. -1.
         22   -1    0    0    0    0 -0.00000000000E+00 -0.00000000000E+00 -0.10157693445E+04  0.10157693445E+04  0.00000000000E+00 0. -1.
        -24    2    1    2    0    0 -0.20264262869E+01  0.19846175572E+02 -0.97320963750E+03  0.97673765466E+03  0.80507579877E+02 0.  0.
         25    2    1    2    0    0 -0.12560507134E+02  0.20341417301E+02  0.85792984364E+02  0.15355623857E+03  0.12509013806E+03 0.  0.
         24    2    1    2    0    0  0.14586933421E+02 -0.40187592873E+02  0.29998040602E+03  0.31380854866E+03  0.81607229910E+02 0.  0.
        -11    1    5    5    0    0  0.20170110441E+02 -0.11904919896E+01  0.12755548759E+02  0.23894657363E+02  0.00000000000E+00 0.  1.
         12    1    5    5    0    0 -0.55831770192E+01 -0.38997100883E+02  0.28722485726E+03  0.28991389130E+03  0.00000000000E+00 0. -1.
         11    1    3    3    0    0  0.23146208758E+01 -0.19660523492E+02 -0.73261107956E+03  0.73287849440E+03  0.00000000000E+00 0. -1.
        -12    1    3    3    0    0 -0.43410471627E+01  0.39506699065E+02 -0.24059855793E+03  0.24385916026E+03  0.00000000000E+00 0.  1.
          5    1    4    4  501    0 -0.39459610157E+02  0.12883551980E+02 -0.18408061526E+02  0.45600174062E+02  0.41800000000E+01 0. -1.
         -5    1    4    4    0  501  0.26899103022E+02  0.74578653203E+01  0.10420104589E+03  0.10795606450E+03  0.41800000000E+01 0. -1.
</event>
<event>
11    1  0.6763327E-009  0.1424554E+03  0.7561462E-02  0.1104847E+00
         22   -1    0    0    0    0  0.00000000000E+00  0.00000000000E+00  0.21881222820E+04  0.21881222820E+04  0.00000000000E+00 0. -1.
         22   -1    0    0    0    0 -0.00000000000E+00 -0.00000000000E+00 -0.29225159131E+03  0.29225159131E+03  0.00000000000E+00 0. -1.
         24    2    1    2    0    0  0.20950457462E+02  0.10965207404E+02 -0.27079237344E+03  0.28340613207E+03  0.80195815001E+02 0.  0.
         25    2    1    2    0    0 -0.55181993557E+02  0.47783958389E+02  0.37464937332E+03  0.40166953066E+03  0.12509156583E+03 0.  0.
        -24    2    1    2    0    0  0.34231536095E+02 -0.58749165793E+02  0.17920136908E+04  0.17952982106E+04  0.84612849661E+02 0.  0.
        -11    1    3    3    0    0  0.27697916690E+02  0.42492017789E+02 -0.18224408613E+03  0.18917096261E+03  0.00000000000E+00 0.  1.
         12    1    3    3    0    0 -0.67474592283E+01 -0.31526810385E+02 -0.88548287308E+02  0.94235169466E+02  0.00000000000E+00 0. -1.
         11    1    5    5    0    0  0.12410067623E+02 -0.78191116638E+02  0.12655653939E+04  0.12680392844E+04  0.00000000000E+00 0. -1.
        -12    1    5    5    0    0  0.21821468472E+02  0.19441950846E+02  0.52644829689E+03  0.52725892618E+03  0.00000000000E+00 0.  1.
          5    1    4    4  501    0 -0.18985047694E+02  0.69286964245E+02  0.96806457155E+02  0.12062370413E+03  0.41800000000E+01 0. -1.
         -5    1    4    4    0  501 -0.36196945863E+02 -0.21503005856E+02  0.27784291616E+03  0.28104582654E+03  0.41800000000E+01 0. -1.
</event>
<event>
11    1  0.6763327E-009  0.1359318E+03  0.7561462E-02  0.1112188E+00
         22   -1    0    0    0    0  0.00000000000E+00  0.00000000000E+00  0.42840968022E+03  0.42840968022E+03  0.00000000000E+00 0.  1.
         22   -1    0    0    0    0 -0.00000000000E+00 -0.00000000000E+00 -0.84876531395E+02  0.84876531395E+02  0.00000000000E+00 0.  1.
         24    2    1    2    0    0 -0.58270112479E+02 -0.68670201142E+01 -0.58900196023E+01  0.95782590078E+02  0.75478806677E+02 0.  0.
         25    2    1    2    0    0  0.35241337666E+02 -0.20633572473E+02  0.13233371754E+03  0.18661655096E+03  0.12508328466E+03 0.  0.
        -24    2    1    2    0    0  0.23028774813E+02  0.27500592587E+02  0.21708945089E+03  0.23088707058E+03  0.69960007222E+02 0.  0.
        -11    1    3    3    0    0 -0.55110569365E+02 -0.49677014098E+01 -0.35631308559E+02  0.65813699657E+02  0.00000000000E+00 0.  1.
         12    1    3    3    0    0 -0.31595431146E+01 -0.18993187044E+01  0.29741288956E+02  0.29968890420E+02  0.00000000000E+00 0. -1.
         11    1    5    5    0    0  0.23978757542E+01  0.28661898410E+02  0.26274157873E+02  0.38956201054E+02  0.00000000000E+00 0. -1.
        -12    1    5    5    0    0  0.20630899059E+02 -0.11613058233E+01  0.19081529302E+03  0.19193086953E+03  0.00000000000E+00 0.  1.
          5    1    4    4  501    0 -0.11681766851E+02  0.47010647950E+02  0.57309065955E+02  0.75154947529E+02  0.41800000000E+01 0. -1.
         -5    1    4    4    0  501  0.46923104517E+02 -0.67644220423E+02  0.75024651583E+02  0.11146160343E+03  0.41800000000E+01 0. -1.
</event>
<event>
11    1  0.6763327E-009  0.1342434E+03  0.7561462E-02  0.1114162E+00
         22   -1    0    0    0    0  0.00000000000E+00  0.00000000000E+00  0.14671394122E+04  0.14671394122E+04  0.00000000000E+00 0. -1.
         22   -1    0    0    0    0 -0.00000000000E+00 -0.00000000000E+00 -0.72316281886E+03  0.72316281886E+03  0.00000000000E+00 0.  1.
         24    2    1    2    0    0  0.51645546728E+02 -0.29979043048E+02 -0.69375739637E+03  0.70090422380E+03  0.80008752020E+02 0.  0.
         25    2    1    2    0    0 -0.78788319842E+02  0.64133265588E+02  0.25285389302E+03  0.29984257605E+03  0.12509917704E+03 0.  0.
        -24    2    1    2    0    0  0.27142773114E+02 -0.34154222540E+02  0.11848800966E+04  0.11895554312E+04  0.95906409355E+02 0.  0.
        -13    1    3    3    0    0  0.59628798280E+02 -0.47773461716E+02 -0.45683404575E+03  0.46317949284E+03  0.00000000000E+00 0.  1.
         14    1    3    3    0    0 -0.79832515518E+01  0.17794418667E+02 -0.23692335062E+03  0.23772473096E+03  0.00000000000E+00 0. -1.
         11    1    5    5    0    0  0.49960163869E+02 -0.39364545892E+02  0.10891554705E+04  0.10910111018E+04  0.00000000000E+00 0. -1.
        -12    1    5    5    0    0 -0.22817390756E+02  0.52103233524E+01  0.95724626164E+02  0.98544329338E+02  0.00000000000E+00 0.  1.
          5    1    4    4  501    0 -0.99339348922E+02  0.58158937135E+02  0.12435418675E+03  0.16950576502E+03  0.41800000000E+01 0. -1.
         -5    1    4    4    0  501  0.20551029080E+02  0.59743284534E+01  0.12849970627E+03  0.13033681103E+03  0.41800000000E+01 0. -1.
</event>
<event>
11    1  0.6763327E-009  0.1490386E+03  0.7561462E-02  0.1097865E+00
         22   -1    0    0    0    0  0.00000000000E+00  0.00000000000E+00  0.17813726754E+04  0.17813726754E+04  0.00000000000E+00 0.  1.
         22   -1    0    0    0    0 -0.00000000000E+00 -0.00000000000E+00 -0.30334922545E+03  0.30334922545E+03  0.00000000000E+00 0.  1.
        -24    2    1    2    0    0  0.61037061614E+00  0.98042387645E+01 -0.26367343180E+03  0.27661715114E+03  0.83047420291E+02 0.  0.
         25    2    1    2    0    0 -0.75997057429E+02  0.20398408927E+02  0.14404839215E+03  0.20637134029E+03  0.12509013944E+03 0.  0.
         24    2    1    2    0    0  0.75386686813E+02 -0.30202647691E+02  0.15976484896E+04  0.16017334094E+04  0.80460338723E+02 0.  0.
        -11    1    5    5    0    0  0.86157562375E+02 -0.20386889483E+02  0.15287016307E+04  0.15312633433E+04  0.00000000000E+00 0.  1.
         12    1    5    5    0    0 -0.10770875563E+02 -0.98157582084E+01  0.68946858877E+02  0.70470066117E+02  0.00000000000E+00 0. -1.
         11    1    3    3    0    0  0.17770539683E+02 -0.97779846604E+01 -0.11931150740E+02  0.23531965974E+02  0.00000000000E+00 0. -1.
        -12    1    3    3    0    0 -0.17160169066E+02  0.19582223425E+02 -0.25174228106E+03  0.25308518516E+03  0.00000000000E+00 0.  1.
          5    1    4    4  501    0  0.14082457891E+02  0.88048749548E+00 -0.15934160455E+02  0.21690107143E+02  0.41800000000E+01 0. -1.
         -5    1    4    4    0  501 -0.90079515320E+02  0.19517921431E+02  0.15998255261E+03  0.18468123315E+03  0.41800000000E+01 0. -1.
</event>
<event>
11    1  0.6763327E-009  0.1747826E+03  0.7561462E-02  0.1073943E+00
         22   -1    0    0    0    0  0.00000000000E+00  0.00000000000E+00  0.11200654165E+03  0.11200654165E+03  0.00000000000E+00 0.  1.
         22   -1    0    0    0    0 -0.00000000000E+00 -0.00000000000E+00 -0.91105237643E+03  0.91105237643E+03  0.00000000000E+00 0. -1.
        -24    2    1    2    0    0  0.11751766451E+03  0.36704844467E+02 -0.70689442170E+03  0.72199419779E+03  0.80113988393E+02 0.  0.
         25    2    1    2    0    0 -0.10495263058E+03 -0.52412600315E+02 -0.12430187617E+03  0.21180308834E+03  0.12508979364E+03 0.  0.
         24    2    1    2    0    0 -0.12565033922E+02  0.15707755848E+02  0.32150463091E+02  0.89261631945E+02  0.80804535698E+02 0.  0.
        -13    1    5    5    0    0  0.25920519337E+02 -0.16182584947E+02  0.23473998165E+02  0.38532816768E+02  0.00000000000E+00 0.  1.
         14    1    5    5    0    0 -0.38485553259E+02  0.31890340795E+02  0.86764649263E+01  0.50728815177E+02  0.00000000000E+00 0. -1.
         13    1    3    3    0    0  0.89672363538E+02  0.15456008607E+01 -0.59024289553E+03  0.59701775299E+03  0.00000000000E+00 0. -1.
        -14    1    3    3    0    0  0.27845300968E+02  0.35159243606E+02 -0.11665152617E+03  0.12497644480E+03  0.00000000000E+00 0.  1.
          5    1    4    4  501    0 -0.73290666025E+02 -0.86864723381E+02 -0.50773839500E+02  0.12454901474E+03  0.41800000000E+01 0. -1.
         -5    1    4    4    0  501 -0.31661964560E+02  0.34452123066E+02 -0.73528036670E+02  0.87254073601E+02  0.41800000000E+01 0. -1.
</event>
<event>
11    1  0.6763327E-009  0.1589244E+03  0.7561462E-02  0.1088093E+00
         22   -1    0    0    0    0  0.00000000000E+00  0.00000000000E+00  0.30816066583E+04  0.30816066583E+04  0.00000000000E+00 0. -1.
         22   -1    0    0    0    0 -0.00000000000E+00 -0.00000000000E+00 -0.18617361142E+03  0.18617361142E+03  0.00000000000E+00 0. -1.
        -24    2    1    2    0    0 -0.52392193768E+02 -0.22152380731E+02 -0.12076297197E+03  0.15621833226E+03  0.81146792880E+02 0.  0.
         25    2    1    2    0    0 -0.47088396727E+02  0.18323519000E+02  0.51937253611E+02  0.14456230986E+03  0.12509082566E+03 0.  0.
         24    2    1    2    0    0  0.99480590495E+02  0.38288617311E+01  0.29642587653E+04  0.29669996276E+04  0.79659994938E+02 0.  0.
        -13    1    5    5    0    0 -0.64610136120E+01 -0.18013586164E+02  0.39006779604E+03  0.39053696302E+03  0.00000000000E+00 0.  1.
         14    1    5    5    0    0  0.10594160411E+03  0.21842447895E+02  0.25741909692E+04  0.25764626646E+04  0.00000000000E+00 0. -1.
         13    1    3    3    0    0 -0.20507067635E+02 -0.36981173940E+02 -0.11237392316E+03  0.12006683829E+03  0.00000000000E+00 0. -1.
        -14    1    3    3    0    0 -0.31885126133E+02  0.14828793209E+02 -0.83890488079E+01  0.36151493973E+02  0.00000000000E+00 0.  1.
          5    1    4    4  501    0 -0.15517238921E+01 -0.20212401473E+02  0.76991804359E+02  0.79725525140E+02  0.41800000000E+01 0. -1.
         -5    1    4    4    0  501 -0.45536672835E+02  0.38535920473E+02 -0.25054550748E+02  0.64836784719E+02  0.41800000000E+01 0. -1.
</event>
<event>
11    1  0.6763327E-009  0.1784462E+03  0.7561462E-02  0.1070907E+00
         22   -1    0    0    0    0  0.00000000000E+00  0.00000000000E+00  0.13374452112E+04  0.13374452112E+04  0.00000000000E+00 0.  1.
         22   -1    0    0    0    0 -0.00000000000E+00 -0.00000000000E+00 -0.22622770530E+03  0.22622770530E+03  0.00000000000E+00 0.  1.
        -24    2    1    2    0    0  0.12706035886E+03  0.29687774833E+02 -0.16997707468E+03  0.22863392009E+03  0.79721795825E+02 0.  0.
         25    2    1    2    0    0 -0.10491080329E+03  0.69588728625E+02  0.32718559671E+03  0.37221809745E+03  0.12508808727E+03 0.  0.
         24    2    1    2    0    0 -0.22149555570E+02 -0.99276503458E+02  0.95400898389E+03  0.96282089898E+03  0.80898178041E+02 0.  0.
        -11    1    5    5    0    0 -0.52829294934E+02 -0.64629145840E+02  0.63970068432E+03  0.64512388455E+03  0.00000000000E+00 0.  1.
         12    1    5    5    0    0  0.30679739364E+02 -0.34647357618E+02  0.31430829957E+03  0.31769701442E+03  0.00000000000E+00 0. -1.
         11    1    3    3    0    0  0.40509724995E+01 -0.13135895883E+02  0.89964692825E+00  0.13775757817E+02  0.00000000000E+00 0. -1.
        -12    1    3    3    0    0  0.12300938636E+03  0.42823670716E+02 -0.17087672161E+03  0.21485816227E+03  0.00000000000E+00 0.  1.
          5    1    4    4  501    0 -0.92506958677E+02  0.75841201263E+02  0.33499994896E+03  0.35574128719E+03  0.41800000000E+01 0. -1.
         -5    1    4    4    0  501 -0.12403844615E+02 -0.62524726380E+01 -0.78143522455E+01  0.16476810260E+02  0.41800000000E+01 0. -1.
</event>
<event>
11    1  0.6763327E-009  0.1810792E+03  0.7561462E-02  0.1068773E+00
         22   -1    0    0    0    0  0.00000000000E+00  0.00000000000E+00  0.30982599595E+03  0.30982599595E+03  0.00000000000E+00 0.  1.
         22   -1    0    0    0    0 -0.00000000000E+00 -0.00000000000E+00 -0.36152441990E+03  0.36152441990E+03  0.00000000000E+00 0. -1.
         24    2    1    2    0    0 -0.87138364404E+01 -0.29076030128E+02 -0.23807364519E+03  0.25385062783E+03  0.82702685824E+02 0.  0.
         25    2    1    2    0    0 -0.89075244876E+02 -0.67745084564E+02 -0.48035374019E+01  0.16791145766E+03  0.12508951959E+03 0.  0.
        -24    2    1    2    0    0  0.97789081317E+02  0.96821114691E+02  0.19117875863E+03  0.24958833036E+03  0.82510509776E+02 0.  0.
        -13    1    3    3    0    0 -0.87900645523E+01 -0.32965880336E+02 -0.29104129708E+02  0.44844897895E+02  0.00000000000E+00 0.  1.
         14    1    3    3    0    0  0.76228111942E-01  0.38898502082E+01 -0.20896951548E+03  0.20900572993E+03  0.00000000000E+00 0. -1.
         11    1    5    5    0    0  0.72601442269E+02  0.16786577162E+02  0.10982827202E+03  0.13272154282E+03  0.00000000000E+00 0. -1.
        -12    1    5    5    0    0  0.25187639047E+02  0.80034537529E+02  0.81350486613E+02  0.11686678754E+03  0.00000000000E+00 0.  1.
          5    1    4    4  501    0 -0.62853745982E+02  0.20702510393E+02 -0.29114745947E+02  0.72417733686E+02  0.41800000000E+01 0.  1.
         -5    1    4    4    0  501 -0.26221498894E+02 -0.88447594957E+02  0.24311208545E+02  0.95493723976E+02  0.41800000000E+01 0.  1.
</event>
<event>
11    1  0.6763327E-009  0.1355644E+03  0.7561462E-02  0.1112615E+00
         22   -1    0    0    0    0  0.00000000000E+00  0.00000000000E+00  0.34527418219E+03  0.34527418219E+03  0.00000000000E+00 0.  1.
         22   -1    0    0    0    0 -0.00000000000E+00 -0.00000000000E+00 -0.71733198854E+03  0.71733198854E+03  0.00000000000E+00 0. -1.
        -24    2    1    2    0    0 -0.22908235328E+02 -0.47585700508E+02 -0.64108510540E+03  0.64824782000E+03  0.80286596871E+02 0.  0.
         25    2    1    2    0    0  0.37322120412E+02  0.28276392536E+02 -0.19990329690E+01  0.13358232520E+03  0.12509095262E+03 0.  0.
         24    2    1    2    0    0 -0.14413885084E+02  0.19309307972E+02  0.27102633202E+03  0.28077602552E+03  0.69276939911E+02 0.  0.
        -11    1    5    5    0    0  0.79820348087E+01 -0.14433057184E+01  0.22729954384E+03  0.22744423193E+03  0.00000000000E+00 0.  1.
         12    1    5    5    0    0 -0.22395919893E+02  0.20752613690E+02  0.43726788181E+02  0.53331793589E+02  0.00000000000E+00 0. -1.
         13    1    3    3    0    0  0.23162136539E+02 -0.41823175647E+02 -0.38853560788E+03  0.39146593873E+03  0.00000000000E+00 0. -1.
        -14    1    3    3    0    0 -0.46070371867E+02 -0.57625248611E+01 -0.25254949751E+03  0.25678188127E+03  0.00000000000E+00 0.  1.
          5    1    4    4  501    0  0.82832344706E+02  0.97314614944E+01  0.55313219271E+01  0.83689704232E+02  0.41800000000E+01 0.  1.
         -5    1    4    4    0  501 -0.45510224293E+02  0.18544931042E+02 -0.75303548961E+01  0.49892620972E+02  0.41800000000E+01 0.  1.
</event>
<event>
11    1  0.6763327E-009  0.1575053E+03  0.7561462E-02  0.1089447E+00
         22   -1    0    0    0    0  0.00000000000E+00  0.00000000000E+00  0.12121241111E+04  0.12121241111E+04  0.00000000000E+00 0.  1.
         22   -1    0    0    0    0 -0.00000000000E+00 -0.00000000000E+00 -0.81486344847E+03  0.81486344847E+03  0.00000000000E+00 0. -1.
         24    2    1    2    0    0  0.89395460815E+01 -0.56349920330E+02 -0.77430336719E+03  0.78060430293E+03  0.80883523063E+02 0.  0.
         25    2    1    2    0    0  0.19370533588E+02 -0.41199332464E+02  0.98587056615E+02  0.16564970883E+03  0.12509122965E+03 0.  0.
        -24    2    1    2    0    0 -0.28310079670E+02  0.97549252793E+02  0.10729769732E+04  0.10807335478E+04  0.79925584123E+02 0.  0.
        -11    1    3    3    0    0 -0.16806911023E+02  0.13190448930E+01 -0.37691046530E+02  0.41289552263E+02  0.00000000000E+00 0.  1.
         12    1    3    3    0    0  0.25746457104E+02 -0.57668965223E+02 -0.73661232066E+03  0.73931475067E+03  0.00000000000E+00 0. -1.
         13    1    5    5    0    0 -0.18124679539E+02  0.17893302920E+02  0.69007272848E+02  0.73557311015E+02  0.00000000000E+00 0. -1.
        -14    1    5    5    0    0 -0.10185400131E+02  0.79655949874E+02  0.10039697004E+04  0.10071762368E+04  0.00000000000E+00 0.  1.
          5    1    4    4  501    0  0.45782404132E+02 -0.59852978585E+02  0.16400831330E+02  0.77232552994E+02  0.41800000000E+01 0. -1.
         -5    1    4    4    0  501 -0.26411870544E+02  0.18653646122E+02  0.82186225285E+02  0.88417155835E+02  0.41800000000E+01 0. -1.
</event>
<event>
11    1  0.6763327E-009  0.1734041E+03  0.7561462E-02  0.1075107E+00
         22   -1    0    0    0    0  0.00000000000E+00  0.00000000000E+00  0.57052308738E+03  0.57052308738E+03  0.00000000000E+00 0. -1.
         22   -1    0    0    0    0 -0.00000000000E+00 -0.00000000000E+00 -0.99971063491E+03  0.99971063491E+03  0.00000000000E+00 0. -1.
        -24    2    1    2    0    0 -0.29514637455E+02  0.39777864620E+02 -0.85558550979E+03  0.86096826054E+03  0.82379540848E+02 0.  0.
         25    2    1    2    0    0 -0.84998935433E+02 -0.79246710424E+02 -0.75620049470E+02  0.18673686944E+03  0.12508959344E+03 0.  0.
         24    2    1    2    0    0  0.11451357289E+03  0.39468845804E+02  0.50201801172E+03  0.52252859231E+03  0.79642309875E+02 0.  0.
        -13    1    5    5    0    0  0.22989345092E+02 -0.24010134912E+02  0.10101405806E+03  0.10634301336E+03  0.00000000000E+00 0.  1.
         14    1    5    5    0    0  0.91524227797E+02  0.63478980716E+02  0.40100395367E+03  0.41618557895E+03  0.00000000000E+00 0. -1.
         13    1    3    3    0    0 -0.58139268323E+02  0.20922456546E+02 -0.56444893078E+03  0.56782085129E+03  0.00000000000E+00 0. -1.
        -14    1    3    3    0    0  0.28624630868E+02  0.18855408074E+02 -0.29113657901E+03  0.29314740924E+03  0.00000000000E+00 0.  1.
          5    1    4    4  501    0  0.22945729499E+02 -0.52645578260E+02 -0.12846778832E+02  0.58996402763E+02  0.41800000000E+01 0.  1.
         -5    1    4    4    0  501 -0.10794466493E+03 -0.26601132163E+02 -0.62773270638E+02  0.12774046668E+03  0.41800000000E+01 0.  1.
</event>
<event>
11    1  0.6763327E-009  0.1613605E+03  0.7561462E-02  0.1085805E+00
         22   -1    0    0    0    0  0.00000000000E+00  0.00000000000E+00  0.50330545043E+03  0.50330545043E+03  0.00000000000E+00 0.  1.
         22   -1    0    0    0    0 -0.00000000000E+00 -0.00000000000E+00 -0.24636023724E+03  0.24636023724E+03  0.00000000000E+00 0.  1.
         24    2    1    2    0    0 -0.79218611637E+02 -0.60243793036E+02 -0.14676990381E+03  0.19439872156E+03  0.79652716518E+02 0.  0.
         25    2    1    2    0    0  0.75310148475E+02  0.85455196957E+02  0.30012870679E+02  0.17181919536E+03  0.12508738681E+03 0.  0.
        -24    2    1    2    0    0  0.39084631623E+01 -0.25211403921E+02  0.37370224632E+03  0.38344777074E+03  0.82023978263E+02 0.  0.
        -11    1    3    3    0    0 -0.91238367556E+02 -0.61239672914E+02 -0.14541158584E+03  0.18226153338E+03  0.00000000000E+00 0.  1.
         12    1    3    3    0    0  0.12019755919E+02  0.99587987750E+00 -0.13583179680E+01  0.12137188175E+02  0.00000000000E+00 0. -1.
         13    1    5    5    0    0  0.36234960261E+02  0.10221624725E+02  0.18004803201E+03  0.18394224035E+03  0.00000000000E+00 0. -1.
        -14    1    5    5    0    0 -0.32326497099E+02 -0.35433028646E+02  0.19365421431E+03  0.19950553039E+03  0.00000000000E+00 0.  1.
          5    1    4    4  501    0 -0.32251773300E+02  0.24088340600E+02 -0.98600720246E+01  0.41654753081E+02  0.41800000000E+01 0. -1.
         -5    1    4    4    0  501  0.10756192178E+03  0.61366856357E+02  0.39872942704E+02  0.13016444228E+03  0.41800000000E+01 0. -1.
</event>
<event>
11    1  0.6763327E-009  0.1931179E+03  0.7561462E-02  0.1059500E+00
         22   -1    0    0    0    0  0.00000000000E+00  0.00000000000E+00  0.11172115650E+03  0.11172115650E+03  0.00000000000E+00 0.  1.
         22   -1    0    0    0    0 -0.00000000000E+00 -0.00000000000E+00 -0.85506012128E+03  0.85506012128E+03  0.00000000000E+00 0.  1.
        -24    2    1    2    0    0 -0.77159199522E+02 -0.12313736004E+03 -0.62498245839E+03  0.64682352156E+03  0.81616439755E+02 0.  0.
         25    2    1    2    0    0  0.74796925430E+02  0.13756589667E+03 -0.12727878696E+03  0.23740983896E+03  0.12507831965E+03 0.  0.
         24    2    1    2    0    0  0.23622740921E+01 -0.14428536632E+02  0.89222805629E+01  0.82547917264E+02  0.80751399653E+02 0.  0.
        -11    1    5    5    0    0 -0.31359983815E+02  0.15801531415E+01  0.26685791622E+02  0.41207729169E+02  0.00000000000E+00 0.  1.
         12    1    5    5    0    0  0.33722257907E+02 -0.16008689774E+02 -0.17763511059E+02  0.41340188095E+02  0.00000000000E+00 0. -1.
         13    1    3    3    0    0 -0.35349065289E+02  0.14246495998E+00 -0.10485684734E+03  0.11065502767E+03  0.00000000000E+00 0. -1.
        -14    1    3    3    0    0 -0.41810134233E+02 -0.12327982500E+03 -0.52012561104E+03  0.53616849389E+03  0.00000000000E+00 0.  1.
          5    1    4    4  501    0  0.28030483477E+02  0.10884943104E+03 -0.14131139449E+03  0.18061087801E+03  0.41800000000E+01 0. -1.
         -5    1    4    4    0  501  0.46766441953E+02  0.28716465628E+02  0.14032607534E+02  0.56798960953E+02  0.41800000000E+01 0. -1.
</event>
<event>
11    1  0.6763327E-009  0.1581612E+03  0.7561462E-02  0.1088820E+00
         22   -1    0    0    0    0  0.00000000000E+00  0.00000000000E+00  0.11735384742E+04  0.11735384742E+04  0.00000000000E+00 0. -1.
         22   -1    0    0    0    0 -0.00000000000E+00 -0.00000000000E+00 -0.18858574148E+03  0.18858574148E+03  0.00000000000E+00 0. -1.
         24    2    1    2    0    0 -0.67523560628E+02  0.70194532242E+02 -0.15032830433E+03  0.19607243703E+03  0.79743952020E+02 0.  0.
         25    2    1    2    0    0  0.87089158257E+02 -0.29183601418E+02  0.55198691736E+03  0.57338691153E+03  0.12508712686E+03 0.  0.
        -24    2    1    2    0    0 -0.19565597629E+02 -0.41010930824E+02  0.58329411974E+03  0.59266486717E+03  0.94630362948E+02 0.  0.
        -13    1    3    3    0    0  0.10334479124E+02  0.10795433572E+02  0.19003568158E+01  0.15064999197E+02  0.00000000000E+00 0.  1.
         14    1    3    3    0    0 -0.77858039752E+02  0.59399098671E+02 -0.15222866114E+03  0.18100743783E+03  0.00000000000E+00 0. -1.
         13    1    5    5    0    0  0.23923435249E+02 -0.27359664779E+02  0.45617901561E+03  0.45762449267E+03  0.00000000000E+00 0. -1.
        -14    1    5    5    0    0 -0.43489032879E+02 -0.13651266045E+02  0.12711510414E+03  0.13504037450E+03  0.00000000000E+00 0.  1.
          5    1    4    4  501    0  0.65915238673E+02 -0.76794254023E+01  0.53375647780E+03  0.53788218251E+03  0.41800000000E+01 0. -1.
         -5    1    4    4    0  501  0.21173919584E+02 -0.21504176016E+02  0.18230439553E+02  0.35504729023E+02  0.41800000000E+01 0. -1.
</event>
<event>
11    1  0.6763327E-009  0.3779829E+03  0.7561462E-02  0.9717051E-01
         22   -1    0    0    0    0  0.00000000000E+00  0.00000000000E+00  0.15326839079E+04  0.15326839079E+04  0.00000000000E+00 0.  1.
         22   -1    0    0    0    0 -0.00000000000E+00 -0.00000000000E+00 -0.51504009231E+03  0.51504009231E+03  0.00000000000E+00 0. -1.
        -24    2    1    2    0    0  0.14095954160E+03  0.35559467871E+03 -0.20032498240E+03  0.43909855443E+03  0.79751326174E+02 0.  0.
         25    2    1    2    0    0 -0.33569570290E+03 -0.16568924766E+03  0.39779789959E+02  0.39670443446E+03  0.12508974738E+03 0.  0.
         24    2    1    2    0    0  0.19473616130E+03 -0.18990543105E+03  0.11781890080E+04  0.12119210113E+04  0.81467501276E+02 0.  0.
        -11    1    5    5    0    0  0.16930254118E+03 -0.13640719342E+03  0.10221353164E+04  0.10450028124E+04  0.00000000000E+00 0.  1.
         12    1    5    5    0    0  0.25433620117E+02 -0.53498237632E+02  0.15605369165E+03  0.16691819895E+03  0.00000000000E+00 0. -1.
         11    1    3    3    0    0  0.71930387374E+02  0.14433783205E+03 -0.43315916097E+02  0.16698400815E+03  0.00000000000E+00 0. -1.
        -12    1    3    3    0    0  0.69029154226E+02  0.21125684666E+03 -0.15700906631E+03  0.27211454628E+03  0.00000000000E+00 0.  1.
          5    1    4    4  501    0 -0.20726045604E+03 -0.56995811193E+02  0.69174540964E+02  0.22584952656E+03  0.41800000000E+01 0. -1.
         -5    1    4    4    0  501 -0.12843524686E+03 -0.10869343647E+03 -0.29394751005E+02  0.17085490790E+03  0.41800000000E+01 0. -1.
</event>
<event>
11    1  0.6763327E-009  0.1523638E+03  0.7561462E-02  0.1094488E+00
         22   -1    0    0    0    0  0.00000000000E+00  0.00000000000E+00  0.21212630166E+03  0.21212630166E+03  0.00000000000E+00 0.  1.
         22   -1    0    0    0    0 -0.00000000000E+00 -0.00000000000E+00 -0.36803649098E+04  0.36803649098E+04  0.00000000000E+00 0.  1.
        -24    2    1    2    0    0 -0.23206403984E+02 -0.85058939138E+02 -0.35400484792E+04  0.35420593778E+04  0.80422883278E+02 0.  0.
         25    2    1    2    0    0  0.61524417303E+01  0.46609767754E+02 -0.93196085187E+02  0.16291460544E+03  0.12508131508E+03 0.  0.
         24    2    1    2    0    0  0.17053962253E+02  0.38449171384E+02  0.16500595623E+03  0.18751722828E+03  0.78527504104E+02 0.  0.
        -11    1    5    5    0    0  0.43582793421E+02  0.34921159492E+02  0.14064641272E+03  0.15132865120E+03  0.00000000000E+00 0.  1.
         12    1    5    5    0    0 -0.26528831168E+02  0.35280118911E+01  0.24359543514E+02  0.36188577083E+02  0.00000000000E+00 0. -1.
         11    1    3    3    0    0  0.23381495377E+02 -0.24872249157E+02 -0.56025394370E+03  0.56129297567E+03  0.00000000000E+00 0. -1.
        -12    1    3    3    0    0 -0.46587899361E+02 -0.60186689981E+02 -0.29797945355E+04  0.29807664021E+04  0.00000000000E+00 0.  1.
          5    1    4    4  501    0 -0.16548118161E+02  0.68762908183E+02 -0.10678850294E+03  0.12815394851E+03  0.41800000000E+01 0. -1.
         -5    1    4    4    0  501  0.22700559891E+02 -0.22153140429E+02  0.13592417757E+02  0.34760656937E+02  0.41800000000E+01 0. -1.
</event>
<event>
11    1  0.6763327E-009  0.2113175E+03  0.7561462E-02  0.1046797E+00
         22   -1    0    0    0    0  0.00000000000E+00  0.00000000000E+00  0.25580665143E+04  0.25580665143E+04  0.00000000000E+00 0. -1.
         22   -1    0    0    0    0 -0.00000000000E+00 -0.00000000000E+00 -0.44322294688E+03  0.44322294688E+03  0.00000000000E+00 0.  1.
        -24    2    1    2    0    0 -0.92223331341E+02 -0.15576877155E+03 -0.38220668801E+03  0.43055599383E+03  0.80792687993E+02 0.  0.
         25    2    1    2    0    0  0.11459420584E+03  0.17084215328E+02  0.18008637559E+03  0.24799881461E+03  0.12509439217E+03 0.  0.
         24    2    1    2    0    0 -0.22370874494E+02  0.13868455622E+03  0.23169638798E+04  0.23227346527E+04  0.83909381960E+02 0.  0.
        -11    1    5    5    0    0 -0.25102948970E+02  0.13038968287E+03  0.15378731727E+04  0.15435949996E+04  0.00000000000E+00 0.  1.
         12    1    5    5    0    0  0.27320744756E+01  0.82948733483E+01  0.77909070716E+03  0.77913965317E+03  0.00000000000E+00 0. -1.
         11    1    3    3    0    0 -0.72405098793E+02 -0.62766320597E+02 -0.13382481436E+03  0.16459401651E+03  0.00000000000E+00 0. -1.
        -12    1    3    3    0    0 -0.19818232549E+02 -0.93002450950E+02 -0.24838187364E+03  0.26596197732E+03  0.00000000000E+00 0.  1.
          5    1    4    4  501    0  0.38336776989E+02  0.21548395057E+01  0.16406380859E+03  0.16854897654E+03  0.41800000000E+01 0. -1.
         -5    1    4    4    0  501  0.76257428847E+02  0.14929375822E+02  0.16022567001E+02  0.79449838074E+02  0.41800000000E+01 0. -1.
</event>
<event>
11    1  0.6763327E-009  0.1567090E+03  0.7561462E-02  0.1090214E+00
         22   -1    0    0    0    0  0.00000000000E+00  0.00000000000E+00  0.13370094057E+03  0.13370094057E+03  0.00000000000E+00 0. -1.
         22   -1    0    0    0    0 -0.00000000000E+00 -0.00000000000E+00 -0.75597778115E+03  0.75597778115E+03  0.00000000000E+00 0. -1.
        -24    2    1    2    0    0  0.36625833906E+02 -0.18438821422E+02 -0.18172973649E+03  0.20277266472E+03  0.80060068605E+02 0.  0.
         25    2    1    2    0    0 -0.45645304576E+02  0.11101742365E+03 -0.51471009106E+03  0.54312278692E+03  0.12509005416E+03 0.  0.
         24    2    1    2    0    0  0.90194706693E+01 -0.92578602232E+02  0.74162986980E+02  0.14378327008E+03  0.80754762556E+02 0.  0.
        -13    1    5    5    0    0  0.18353441919E+02 -0.18583467295E+02  0.63220356489E+02  0.68403271571E+02  0.00000000000E+00 0.  1.
         14    1    5    5    0    0 -0.93339712498E+01 -0.73995134936E+02  0.10942630491E+02  0.75379998512E+02  0.00000000000E+00 0. -1.
         11    1    3    3    0    0  0.57915677808E+02 -0.24691474393E+02 -0.15898416699E+03  0.17099666663E+03  0.00000000000E+00 0. -1.
        -12    1    3    3    0    0 -0.21289843902E+02  0.62526529707E+01 -0.22745569502E+02  0.31775998088E+02  0.00000000000E+00 0.  1.
          5    1    4    4  501    0 -0.73045973000E+02  0.85022279600E+02 -0.47537827278E+03  0.48843267380E+03  0.41800000000E+01 0. -1.
         -5    1    4    4    0  501  0.27400668424E+02  0.25995144053E+02 -0.39331818279E+02  0.54690113125E+02  0.41800000000E+01 0. -1.
</event>
<event>
11    1  0.6763327E-009  0.1477549E+03  0.7561462E-02  0.1099195E+00
         22   -1    0    0    0    0  0.00000000000E+00  0.00000000000E+00  0.20456994677E+04  0.20456994677E+04  0.00000000000E+00 0.  1.
         22   -1    0    0    0    0 -0.00000000000E+00 -0.00000000000E+00 -0.16632212782E+02  0.16632212782E+02  0.00000000000E+00 0.  1.
        -24    2    1    2    0    0  0.70486629368E+02 -0.10813428730E+02  0.39405846054E+03  0.40849746243E+03  0.80640010749E+02 0.  0.
         25    2    1    2    0    0 -0.89765057423E+02  0.29790226439E+02  0.81940947852E+03  0.83427998875E+03  0.12508390389E+03 0.  0.
         24    2    1    2    0    0  0.19278428055E+02 -0.18976797709E+02  0.81559931585E+03  0.81955422929E+03  0.75730536039E+02 0.  0.
        -13    1    5    5    0    0  0.41530991256E+02 -0.33907473570E+02  0.54801562827E+03  0.55063206302E+03  0.00000000000E+00 0.  1.
         14    1    5    5    0    0 -0.22252563201E+02  0.14930675861E+02  0.26758368759E+03  0.26892216627E+03  0.00000000000E+00 0. -1.
         11    1    3    3    0    0  0.11869359786E+02  0.15962693970E+02  0.24869982568E+03  0.24949407326E+03  0.00000000000E+00 0. -1.
        -12    1    3    3    0    0  0.58617269582E+02 -0.26776122700E+02  0.14535863486E+03  0.15900338917E+03  0.00000000000E+00 0.  1.
          5    1    4    4  501    0 -0.96764007204E+02 -0.93255403886E+01  0.35308391045E+03  0.36624576313E+03  0.41800000000E+01 0. -1.
         -5    1    4    4    0  501  0.69989497805E+01  0.39115766828E+02  0.46632556807E+03  0.46803422562E+03  0.41800000000E+01 0. -1.
</event>
<event>
11    1  0.6763327E-009  0.1427307E+03  0.7561462E-02  0.1104547E+00
         22   -1    0    0    0    0  0.00000000000E+00  0.00000000000E+00  0.36691878310E+03  0.36691878310E+03  0.00000000000E+00 0. -1.
         22   -1    0    0    0    0 -0.00000000000E+00 -0.00000000000E+00 -0.20253294811E+03  0.20253294811E+03  0.00000000000E+00 0. -1.
        -24    2    1    2    0    0 -0.63182098549E+02 -0.40673222440E+02 -0.64392264331E+02  0.12702433846E+03  0.79640004105E+02 0.  0.
         25    2    1    2    0    0  0.33841660188E+02  0.52251907077E+02 -0.49719141405E+02  0.14831556212E+03  0.12509993281E+03 0.  0.
         24    2    1    2    0    0  0.29340438361E+02 -0.11578684638E+02  0.27849724072E+03  0.29411183063E+03  0.89141059956E+02 0.  0.
        -13    1    5    5    0    0  0.33742044098E+02 -0.28214192711E+02  0.57243472166E+02  0.72189897602E+02  0.00000000000E+00 0.  1.
         14    1    5    5    0    0 -0.44016057371E+01  0.16635508073E+02  0.22125376855E+03  0.22192193303E+03  0.00000000000E+00 0. -1.
         13    1    3    3    0    0 -0.53488170394E+02 -0.55545569122E+02 -0.73968637036E+02  0.10685342244E+03  0.00000000000E+00 0. -1.
        -14    1    3    3    0    0 -0.96939281545E+01  0.14872346682E+02  0.95763727052E+01  0.20170916020E+02  0.00000000000E+00 0.  1.
          5    1    4    4  501    0  0.49801998611E+02 -0.27478532542E+02 -0.30425418559E+02  0.64641219905E+02  0.41800000000E+01 0. -1.
         -5    1    4    4    0  501 -0.15960338423E+02  0.79730439619E+02 -0.19293722845E+02  0.83674342218E+02  0.41800000000E+01 0. -1.
</event>
<event>
11    1  0.6763327E-009  0.1314489E+03  0.7561462E-02  0.1117501E+00
         22   -1    0    0    0    0  0.00000000000E+00  0.00000000000E+00  0.70984624730E+02  0.70984624730E+02  0.00000000000E+00 0. -1.
         22   -1    0    0    0    0 -0.00000000000E+00 -0.00000000000E+00 -0.16061374258E+04  0.16061374258E+04  0.00000000000E+00 0. -1.
        -24    2    1    2    0    0  0.12546572720E+02 -0.64540074741E+01 -0.13559274297E+04  0.13583567529E+04  0.79967510944E+02 0.  0.
         25    2    1    2    0    0 -0.50332372255E+02  0.11649312483E+02 -0.18535824351E+03  0.22951206522E+03  0.12509618486E+03 0.  0.
         24    2    1    2    0    0  0.37785799535E+02 -0.51953050085E+01  0.61328721374E+01  0.89253232423E+02  0.80459738606E+02 0.  0.
        -11    1    5    5    0    0 -0.15225417308E+02 -0.83096296729E+01 -0.22903623191E+02  0.28730458277E+02  0.00000000000E+00 0.  1.
         12    1    5    5    0    0  0.53011216843E+02  0.31143246644E+01  0.29036495329E+02  0.60522774146E+02  0.00000000000E+00 0. -1.
         13    1    3    3    0    0  0.39338188911E+02 -0.32241063643E+01 -0.11489231035E+04  0.11496008811E+04  0.00000000000E+00 0. -1.
        -14    1    3    3    0    0 -0.26791616191E+02 -0.32299011098E+01 -0.20700432623E+03  0.20875587186E+03  0.00000000000E+00 0.  1.
          5    1    4    4  501    0  0.33321427609E+02 -0.19895594804E+02 -0.26510374338E+02  0.47185003741E+02  0.41800000000E+01 0.  1.
         -5    1    4    4    0  501 -0.83653799864E+02  0.31544907286E+02 -0.15884786917E+03  0.18232706148E+03  0.41800000000E+01 0.  1.
</event>
<event>
11    1  0.6763327E-009  0.1618146E+03  0.7561462E-02  0.1085383E+00
         22   -1    0    0    0    0  0.00000000000E+00  0.00000000000E+00  0.10214376138E+03  0.10214376138E+03  0.00000000000E+00 0.  1.
         22   -1    0    0    0    0 -0.00000000000E+00 -0.00000000000E+00 -0.14175416510E+04  0.14175416510E+04  0.00000000000E+00 0.  1.
         24    2    1    2    0    0  0.88592927947E+02 -0.62828803682E+02 -0.11413067663E+04  0.11494236294E+04  0.82446222395E+02 0.  0.
         25    2    1    2    0    0 -0.81517719810E+02  0.25267667464E+00 -0.21439172465E+03  0.26125890540E+03  0.12508877472E+03 0.  0.
        -24    2    1    2    0    0 -0.70752081371E+01  0.62576127007E+02  0.40300601284E+02  0.10900287762E+03  0.79319976200E+02 0.  0.
        -11    1    3    3    0    0  0.10393018569E+03 -0.48666111654E+02 -0.10043060782E+04  0.10108415170E+04  0.00000000000E+00 0.  1.
         12    1    3    3    0    0 -0.15337257746E+02 -0.14162692028E+02 -0.13700068811E+03  0.13858211235E+03  0.00000000000E+00 0. -1.
         11    1    5    5    0    0  0.20149607332E+02  0.44984419477E+02 -0.88966206494E+01  0.50087468795E+02  0.00000000000E+00 0. -1.
        -12    1    5    5    0    0 -0.27224815469E+02  0.17591707531E+02  0.49197221933E+02  0.58915408826E+02  0.00000000000E+00 0.  1.
          5    1    4    4  501    0 -0.75516408900E+02  0.55036809608E+02 -0.14489119309E+03  0.17246074527E+03  0.41800000000E+01 0.  1.
         -5    1    4    4    0  501 -0.60013109104E+01 -0.54784132933E+02 -0.69500531563E+02  0.88798160125E+02  0.41800000000E+01 0.  1.
</event>
<event>
11    1  0.6763327E-009  0.1411336E+03  0.7561462E-02  0.1106299E+00
         22   -1    0    0    0    0  0.00000000000E+00  0.00000000000E+00  0.91011102450E+03  0.91011102450E+03  0.00000000000E+00 0.  1.
         22   -1    0    0    0    0 -0.00000000000E+00 -0.00000000000E+00 -0.47606344675E+03  0.47606344675E+03  0.00000000000E+00 0. -1.
        -24    2    1    2    0    0  0.34402680428E+02  0.36343734795E+02 -0.45411829307E+03  0.46270199864E+03  0.73248235253E+02 0.  0.
         25    2    1    2    0    0 -0.54788966634E+02 -0.79625615625E+02  0.54440693748E+03  0.56689418637E+03  0.12509210784E+03 0.  0.
         24    2    1    2    0    0  0.20386286206E+02  0.43281880830E+02  0.34375893334E+03  0.35657828623E+03  0.81785989564E+02 0.  0.
        -11    1    5    5    0    0 -0.12555689290E+02  0.19523359048E+02  0.28013816753E+03  0.28109820310E+03  0.00000000000E+00 0.  1.
         12    1    5    5    0    0  0.32941975496E+02  0.23758521782E+02  0.63620765810E+02  0.75480083128E+02  0.00000000000E+00 0. -1.
         13    1    3    3    0    0 -0.26046345474E+00  0.47654691475E+02 -0.32712335274E+03  0.33057635331E+03  0.00000000000E+00 0. -1.
        -14    1    3    3    0    0  0.34663143883E+02 -0.11310956680E+02 -0.12699494033E+03  0.13212564533E+03  0.00000000000E+00 0.  1.
          5    1    4    4  501    0 -0.14198254524E+02 -0.67406449214E+02  0.10640256790E+03  0.12682349421E+03  0.41800000000E+01 0. -1.
         -5    1    4    4    0  501 -0.40590712110E+02 -0.12219166411E+02  0.43800436958E+03  0.44007069217E+03  0.41800000000E+01 0. -1.
</event>
<event>
11    1  0.6763327E-009  0.1330113E+03  0.7561462E-02  0.1115623E+00
         22   -1    0    0    0    0  0.00000000000E+00  0.00000000000E+00  0.35720784971E+03  0.35720784971E+03  0.00000000000E+00 0. -1.
         22   -1    0    0    0    0 -0.00000000000E+00 -0.00000000000E+00 -0.18163101180E+04  0.18163101180E+04  0.00000000000E+00 0. -1.
         24    2    1    2    0    0  0.30393975869E+02 -0.89204721237E+01 -0.17567884106E+04  0.17589270386E+04  0.80718269962E+02 0.  0.
         25    2    1    2    0    0 -0.39381988797E+02 -0.35568795158E+02  0.40420470212E+02  0.14176375842E+03  0.12508824309E+03 0.  0.
        -24    2    1    2    0    0  0.89880129282E+01  0.44489267282E+02  0.25726567205E+03  0.27282717068E+03  0.78669941925E+02 0.  0.
        -13    1    3    3    0    0  0.23618371729E+02 -0.33738886760E+02 -0.44880822817E+03  0.45069387131E+03  0.00000000000E+00 0.  1.
         14    1    3    3    0    0  0.67756041401E+01  0.24818414636E+02 -0.13079801824E+04  0.13082331673E+04  0.00000000000E+00 0. -1.
         13    1    5    5    0    0  0.11471803151E+02  0.59394827061E+02  0.24761543315E+03  0.25489752938E+03  0.00000000000E+00 0. -1.
        -14    1    5    5    0    0 -0.24837902227E+01 -0.14905559779E+02  0.96502389051E+01  0.17929641300E+02  0.00000000000E+00 0.  1.
          5    1    4    4  501    0 -0.82171824206E+02 -0.13124601644E+02  0.41860847339E+02  0.93243052297E+02  0.41800000000E+01 0. -1.
         -5    1    4    4    0  501  0.42789835409E+02 -0.22444193514E+02 -0.14403771273E+01  0.48520706127E+02  0.41800000000E+01 0. -1.
</event>
<event>
11    1  0.6763327E-009  0.1445827E+03  0.7561462E-02  0.1102546E+00
         22   -1    0    0    0    0  0.00000000000E+00  0.00000000000E+00  0.16901723961E+04  0.16901723961E+04  0.00000000000E+00 0. -1.
         22   -1    0    0    0    0 -0.00000000000E+00 -0.00000000000E+00 -0.26437346986E+04  0.26437346986E+04  0.00000000000E+00 0. -1.
         24    2    1    2    0    0 -0.27572712852E+02 -0.37527578889E+02 -0.21584109451E+04  0.21604083701E+04  0.80361331714E+02 0.  0.
         25    2    1    2    0    0  0.43803568454E+02 -0.33242901471E+02 -0.47309651835E+03  0.49243336284E+03  0.12508580277E+03 0.  0.
        -24    2    1    2    0    0 -0.16230855602E+02  0.70770480360E+02  0.16779451610E+04  0.16810653619E+04  0.72172612990E+02 0.  0.
        -13    1    3    3    0    0  0.29375691809E+01 -0.10969177435E+02 -0.39206437507E+02  0.40817850363E+02  0.00000000000E+00 0.  1.
         14    1    3    3    0    0 -0.30510282033E+02 -0.26558401454E+02 -0.21192045076E+04  0.21195905197E+04  0.00000000000E+00 0. -1.
         13    1    5    5    0    0  0.90855716423E+01  0.27665705054E+02  0.12291235566E+04  0.12294684445E+04  0.00000000000E+00 0. -1.
        -14    1    5    5    0    0 -0.25316427244E+02  0.43104775306E+02  0.44882160443E+03  0.45159691733E+03  0.00000000000E+00 0.  1.
          5    1    4    4  501    0  0.34577769591E+02  0.23165279943E+02 -0.38544866840E+03  0.38771174952E+03  0.41800000000E+01 0. -1.
         -5    1    4    4    0  501  0.92257988632E+01 -0.56408181415E+02 -0.87647849954E+02  0.10472161332E+03  0.41800000000E+01 0. -1.
</event>
<event>
11    1  0.6763327E-009  0.1321890E+03  0.7561462E-02  0.1116608E+00
         22   -1    0    0    0    0  0.00000000000E+00  0.00000000000E+00  0.17393044581E+03  0.17393044581E+03  0.00000000000E+00 0.  1.
         22   -1    0    0    0    0 -0.00000000000E+00 -0.00000000000E+00 -0.86662851597E+03  0.86662851597E+03  0.00000000000E+00 0.  1.
        -24    2    1    2    0    0 -0.89283709811E+01  0.16917411765E+02 -0.78626830876E+03  0.79062218067E+03  0.80620497212E+02 0.  0.
         25    2    1    2    0    0  0.66926736773E+01 -0.54961901684E+02  0.26542044900E+02  0.13934016905E+03  0.12508237304E+03 0.  0.
         24    2    1    2    0    0  0.22356973038E+01  0.38044489919E+02  0.67028193705E+02  0.11059661206E+03  0.79287138249E+02 0.  0.
        -11    1    5    5    0    0  0.29698200960E+02  0.39452231575E+02  0.66833448268E+02  0.83097361715E+02  0.00000000000E+00 0.  1.
         12    1    5    5    0    0 -0.27462503657E+02 -0.14077416564E+01  0.19474543685E+00  0.27499250343E+02  0.00000000000E+00 0. -1.
         13    1    3    3    0    0 -0.25316797071E+02  0.35471966282E+02 -0.24907595559E+03  0.25285970865E+03  0.00000000000E+00 0. -1.
        -14    1    3    3    0    0  0.16388426090E+02 -0.18554554518E+02 -0.53719235317E+03  0.53776247202E+03  0.00000000000E+00 0.  1.
          5    1    4    4  501    0  0.35970303257E+02  0.38268676222E+01 -0.34073317307E+02  0.49869539646E+02  0.41800000000E+01 0. -1.
         -5    1    4    4    0  501 -0.29277629580E+02 -0.58788769306E+02  0.60615362208E+02  0.89470629403E+02  0.41800000000E+01 0. -1.
</event>
<event>
11    1  0.6763327E-009  0.1364717E+03  0.7561462E-02  0.1111564E+00
         22   -1    0    0    0    0  0.00000000000E+00  0.00000000000E+00  0.66306742258E+03  0.66306742258E+03  0.00000000000E+00 0. -1.
         22   -1    0    0    0    0 -0.00000000000E+00 -0.00000000000E+00 -0.31750455180E+04  0.31750455180E+04  0.00000000000E+00 0. -1.
        -24    2    1    2    0    0  0.17957290721E+02  0.54091027437E+02 -0.21748924886E+04  0.21770806080E+04  0.79210689211E+02 0.  0.
         25    2    1    2    0    0  0.23932573131E+02 -0.51552230705E+02 -0.99112297834E+03  0.10006013709E+04  0.12509174488E+03 0.  0.
         24    2    1    2    0    0 -0.41889863852E+02 -0.25387967317E+01  0.65403737154E+03  0.66043096167E+03  0.81504389967E+02 0.  0.
        -13    1    5    5    0    0 -0.12693548781E+01 -0.32921412945E+02  0.40149774783E+03  0.40284720702E+03  0.00000000000E+00 0.  1.
         14    1    5    5    0    0 -0.40620508974E+02  0.30382616214E+02  0.25253962371E+03  0.25758375465E+03  0.00000000000E+00 0. -1.
         13    1    3    3    0    0  0.28957857105E+02  0.45510868460E+02 -0.21107189501E+04  0.21114081280E+04  0.00000000000E+00 0. -1.
        -14    1    3    3    0    0 -0.11000566383E+02  0.85801589766E+01 -0.64173538502E+02  0.65672480025E+02  0.00000000000E+00 0.  1.
          5    1    4    4  501    0  0.41218313094E+02 -0.63201651375E+02 -0.95964919856E+03  0.96262009888E+03  0.41800000000E+01 0.  1.
         -5    1    4    4    0  501 -0.17285739963E+02  0.11649420670E+02 -0.31473779783E+02  0.37981271988E+02  0.41800000000E+01 0.  1.
</event>
<event>
11    1  0.6763327E-009  0.1263303E+03  0.7561462E-02  0.1123862E+00
         22   -1    0    0    0    0  0.00000000000E+00  0.00000000000E+00  0.24089595994E+03  0.24089595994E+03  0.00000000000E+00 0.  1.
         22   -1    0    0    0    0 -0.00000000000E+00 -0.00000000000E+00 -0.39761516119E+03  0.39761516119E+03  0.00000000000E+00 0.  1.
         24    2    1    2    0    0 -0.49402175419E+01  0.12065290874E+02 -0.29470099296E+03  0.30620921146E+03  0.82130560323E+02 0.  0.
         25    2    1    2    0    0 -0.10744148427E+01  0.58379609635E+01 -0.43555117241E+02  0.13258733690E+03  0.12508843876E+03 0.  0.
        -24    2    1    2    0    0  0.60146323846E+01 -0.17903251837E+02  0.18153690895E+03  0.19971457277E+03  0.81077487837E+02 0.  0.
        -13    1    3    3    0    0  0.29976883975E+02 -0.15135686594E+02 -0.18305175760E+03  0.18610655158E+03  0.00000000000E+00 0.  1.
         14    1    3    3    0    0 -0.34917101517E+02  0.27200977467E+02 -0.11164923536E+03  0.12010265988E+03  0.00000000000E+00 0. -1.
         13    1    5    5    0    0  0.30511865492E+02  0.17221739154E+02  0.47641982174E+02  0.59138149284E+02  0.00000000000E+00 0. -1.
        -14    1    5    5    0    0 -0.24497233107E+02 -0.35124990991E+02  0.13389492678E+03  0.14057642348E+03  0.00000000000E+00 0.  1.
          5    1    4    4  501    0 -0.18152430289E+02  0.57165653016E+02 -0.49671464800E+02  0.77988136441E+02  0.41800000000E+01 0.  1.
         -5    1    4    4    0  501  0.17078015447E+02 -0.51327692052E+02  0.61163475586E+01  0.54599200456E+02  0.41800000000E+01 0.  1.
</event>
<event>
11    1  0.6763327E-009  0.2043895E+03  0.7561462E-02  0.1051462E+00
         22   -1    0    0    0    0  0.00000000000E+00  0.00000000000E+00  0.82858317011E+03  0.82858317011E+03  0.00000000000E+00 0.  1.
         22   -1    0    0    0    0 -0.00000000000E+00 -0.00000000000E+00 -0.59044998187E+03  0.59044998187E+03  0.00000000000E+00 0. -1.
        -24    2    1    2    0    0 -0.16300857073E+03  0.20676271919E+02 -0.51383492124E+03  0.54581188472E+03  0.82975808903E+02 0.  0.
         25    2    1    2    0    0  0.13833028626E+03  0.16903482544E+02  0.10079812257E+03  0.21266950512E+03  0.12508821318E+03 0.  0.
         24    2    1    2    0    0  0.24678284471E+02 -0.37579754463E+02  0.65116998692E+03  0.66055176214E+03  0.10141510212E+03 0.  0.
        -13    1    5    5    0    0 -0.63588580592E+01 -0.21376372224E+02  0.58723017200E+03  0.58765351975E+03  0.00000000000E+00 0.  1.
         14    1    5    5    0    0  0.31037142531E+02 -0.16203382239E+02  0.63939814916E+02  0.72898242393E+02  0.00000000000E+00 0. -1.
         11    1    3    3    0    0 -0.16724864157E+03  0.31739168371E+02 -0.49600279104E+03  0.52440275708E+03  0.00000000000E+00 0. -1.
        -12    1    3    3    0    0  0.42400708444E+01 -0.11062896451E+02 -0.17832130202E+02  0.21409127637E+02  0.00000000000E+00 0.  1.
          5    1    4    4  501    0  0.19197757137E+02 -0.24377131547E+02 -0.20692476291E+02  0.37529313831E+02  0.41800000000E+01 0.  1.
         -5    1    4    4    0  501  0.11913252912E+03  0.41280614091E+02  0.12149059886E+03  0.17514019129E+03  0.41800000000E+01 0.  1.
</event>
<event>
11    1  0.9461408E-009  0.1535317E+03  0.7561462E-02  0.1093324E+00
         22   -1    0    0    0    0  0.00000000000E+00  0.00000000000E+00  0.74258049425E+03  0.74258049425E+03  0.00000000000E+00 0. -1.
         22   -1    0    0    0    0 -0.00000000000E+00 -0.00000000000E+00 -0.27090532544E+03  0.27090532544E+03  0.00000000000E+00 0.  1.
         24    2    1    2    0    0 -0.23734315214E+02 -0.56816274844E+02 -0.15705484241E+03  0.18694629869E+03  0.80568531462E+02 0.  0.
         25    2    1    2    0    0  0.11078524350E+03  0.42820336752E+02 -0.13917785819E+02  0.17305571275E+03  0.12509046141E+03 0.  0.
        -24    2    1    2    0    0 -0.87050928291E+02  0.13995938091E+02  0.64264779704E+03  0.65348380826E+03  0.79190568950E+02 0.  0.
        -11    1    3    3    0    0 -0.45714506212E+01 -0.14061650977E+02 -0.13384614698E+03  0.13466038486E+03  0.00000000000E+00 0.  1.
         12    1    3    3    0    0 -0.19162864592E+02 -0.42754623866E+02 -0.23208695435E+02  0.52285913831E+02  0.00000000000E+00 0. -1.
         11    1    5    5    0    0 -0.34710037475E+02 -0.17819139949E+02  0.44140268408E+03  0.44312372760E+03  0.00000000000E+00 0. -1.
        -12    1    5    5    0    0 -0.52340890815E+02  0.31815078040E+02  0.20124511296E+03  0.21036008065E+03  0.00000000000E+00 0.  1.
          5    1    4    4  501    0  0.50025105788E+02  0.77544826680E+02 -0.36612746156E+02  0.99366377287E+02  0.41800000000E+01 0.  1.
         -5    1    4    4    0  501  0.60760137716E+02 -0.34724489928E+02  0.22694960337E+02  0.73689335461E+02  0.41800000000E+01 0.  1.
</event>
<event>
11    1  0.6763327E-009  0.1672266E+03  0.7561462E-02  0.1080471E+00
         22   -1    0    0    0    0  0.00000000000E+00  0.00000000000E+00  0.32891972441E+03  0.32891972441E+03  0.00000000000E+00 0. -1.
         22   -1    0    0    0    0 -0.00000000000E+00 -0.00000000000E+00 -0.56260057376E+03  0.56260057376E+03  0.00000000000E+00 0.  1.
         24    2    1    2    0    0 -0.83004350689E+01 -0.67038992228E+02 -0.15448264255E+03  0.18691559838E+03  0.80681040943E+02 0.  0.
         25    2    1    2    0    0 -0.38927312775E+02  0.16439326893E+03 -0.34316148532E+03  0.40242723714E+03  0.12508954248E+03 0.  0.
        -24    2    1    2    0    0  0.47227747844E+02 -0.97354276697E+02  0.26396327852E+03  0.30217746265E+03  0.99630774216E+02 0.  0.
        -13    1    3    3    0    0 -0.32109175034E+01 -0.16400463398E+02 -0.12885402782E+03  0.12993323546E+03  0.00000000000E+00 0.  1.
         14    1    3    3    0    0 -0.50895175655E+01 -0.50638528830E+02 -0.25628614723E+02  0.56982362918E+02  0.00000000000E+00 0. -1.
         11    1    5    5    0    0  0.81122308999E+01 -0.10614246873E+03  0.17971661122E+03  0.20887817575E+03  0.00000000000E+00 0. -1.
        -12    1    5    5    0    0  0.39115516944E+02  0.87881920292E+01  0.84246667298E+02  0.93299286899E+02  0.00000000000E+00 0.  1.
          5    1    4    4  501    0  0.32491587821E+02  0.32909241225E+02 -0.15603237975E+03  0.16279526212E+03  0.41800000000E+01 0. -1.
         -5    1    4    4    0  501 -0.71418900597E+02  0.13148402770E+03 -0.18712910557E+03  0.23963197502E+03  0.41800000000E+01 0. -1.
</event>
<event>
11    1  0.6763327E-009  0.1606853E+03  0.7561462E-02  0.1086435E+00
         22   -1    0    0    0    0  0.00000000000E+00  0.00000000000E+00  0.13836907735E+03  0.13836907735E+03  0.00000000000E+00 0.  1.
         22   -1    0    0    0    0 -0.00000000000E+00 -0.00000000000E+00 -0.55229036815E+03  0.55229036815E+03  0.00000000000E+00 0. -1.
        -24    2    1    2    0    0 -0.83205823663E+02 -0.39610448295E+02 -0.35684417443E+03  0.37831658843E+03  0.85401870896E+02 0.  0.
         25    2    1    2    0    0  0.10458977049E+03 -0.60997560065E+02 -0.42504553537E+02  0.17920144220E+03  0.12508715916E+03 0.  0.
         24    2    1    2    0    0 -0.21383946831E+02  0.10060800836E+03 -0.14572562843E+02  0.13314141487E+03  0.83276840949E+02 0.  0.
        -11    1    5    5    0    0 -0.72623467539E+00  0.13240398200E+02  0.30080144377E+02  0.32873251239E+02  0.00000000000E+00 0.  1.
         12    1    5    5    0    0 -0.20657712155E+02  0.87367610160E+02 -0.44652707220E+02  0.10026816363E+03  0.00000000000E+00 0. -1.
         13    1    3    3    0    0 -0.65554860969E+02  0.18083562081E+01 -0.11559260338E+03  0.13289981153E+03  0.00000000000E+00 0. -1.
        -14    1    3    3    0    0 -0.17650962695E+02 -0.41418804503E+02 -0.24125157105E+03  0.24541677690E+03  0.00000000000E+00 0.  1.
          5    1    4    4  501    0  0.10098779142E+03 -0.76921742775E+02  0.66985455778E+01  0.12719210447E+03  0.41800000000E+01 0. -1.
         -5    1    4    4    0  501  0.36019790779E+01  0.15924182710E+02 -0.49203099114E+02  0.52009337726E+02  0.41800000000E+01 0. -1.
</event>
<event>
11    1  0.6763327E-009  0.1840490E+03  0.7561462E-02  0.1066414E+00
         22   -1    0    0    0    0  0.00000000000E+00  0.00000000000E+00  0.36153904509E+03  0.36153904509E+03  0.00000000000E+00 0. -1.
         22   -1    0    0    0    0 -0.00000000000E+00 -0.00000000000E+00 -0.72941784711E+03  0.72941784711E+03  0.00000000000E+00 0.  1.
        -24    2    1    2    0    0 -0.94095815753E+02 -0.13710744438E+02 -0.33982155419E+03  0.36120091138E+03  0.77106437057E+02 0.  0.
         25    2    1    2    0    0  0.20616819694E+03 -0.54537066302E+02 -0.31698311759E+03  0.40200183073E+03  0.12509019963E+03 0.  0.
         24    2    1    2    0    0 -0.11207238119E+03  0.68247810739E+02  0.28892586976E+03  0.32775415009E+03  0.82016110534E+02 0.  0.
        -13    1    5    5    0    0 -0.21122872184E+00 -0.12277565233E+01 -0.52793654335E+01  0.54243619933E+01  0.00000000000E+00 0.  1.
         14    1    5    5    0    0 -0.11186115247E+03  0.69475567262E+02  0.29420523519E+03  0.32232978810E+03  0.00000000000E+00 0. -1.
         11    1    3    3    0    0 -0.84483782589E+01 -0.32863527329E+02 -0.11330864945E+03  0.11828033042E+03  0.00000000000E+00 0. -1.
        -12    1    3    3    0    0 -0.85647437494E+02  0.19152782891E+02 -0.22651290473E+03  0.24292058096E+03  0.00000000000E+00 0.  1.
          5    1    4    4  501    0  0.14428198150E+03 -0.91008748218E+02 -0.25612214039E+03  0.30775949317E+03  0.41800000000E+01 0. -1.
         -5    1    4    4    0  501  0.61886215441E+02  0.36471681916E+02 -0.60860977200E+02  0.94242337562E+02  0.41800000000E+01 0. -1.
</event>
<event>
11    1  0.6763327E-009  0.1352978E+03  0.7561462E-02  0.1112926E+00
         22   -1    0    0    0    0  0.00000000000E+00  0.00000000000E+00  0.25117129142E+03  0.25117129142E+03  0.00000000000E+00 0. -1.
         22   -1    0    0    0    0 -0.00000000000E+00 -0.00000000000E+00 -0.14939939961E+03  0.14939939961E+03  0.00000000000E+00 0.  1.
         24    2    1    2    0    0 -0.17881383451E+02 -0.46318048044E+02 -0.69152928347E+02  0.11627922201E+03  0.79206215188E+02 0.  0.
         25    2    1    2    0    0  0.34720623740E+01  0.63777269220E+02  0.80490048745E+02  0.16188165103E+03  0.12508967066E+03 0.  0.
        -24    2    1    2    0    0  0.14409321077E+02 -0.17459221176E+02  0.90434771419E+02  0.12240981799E+03  0.79330087107E+02 0.  0.
        -11    1    3    3    0    0 -0.19403580872E+02 -0.10106865309E+02 -0.76268310268E+02  0.79344204754E+02  0.00000000000E+00 0.  1.
         12    1    3    3    0    0  0.15221974203E+01 -0.36211182735E+02  0.71153819210E+01  0.36935017259E+02  0.00000000000E+00 0. -1.
         13    1    5    5    0    0 -0.22985383134E+01 -0.41895205846E+02  0.81201844084E+02  0.91401482668E+02  0.00000000000E+00 0. -1.
        -14    1    5    5    0    0  0.16707859391E+02  0.24435984670E+02  0.92329273343E+01  0.31008335321E+02  0.00000000000E+00 0.  1.
          5    1    4    4  501    0  0.13040850003E+02  0.88741426777E+01  0.10103003626E+03  0.10233940982E+03  0.41800000000E+01 0.  1.
         -5    1    4    4    0  501 -0.95687876291E+01  0.54903126542E+02 -0.20539987512E+02  0.59542241205E+02  0.41800000000E+01 0.  1.
</event>
<event>
11    1  0.6763327E-009  0.1529350E+03  0.7561462E-02  0.1093917E+00
         22   -1    0    0    0    0  0.00000000000E+00  0.00000000000E+00  0.18486221148E+03  0.18486221148E+03  0.00000000000E+00 0. -1.
         22   -1    0    0    0    0 -0.00000000000E+00 -0.00000000000E+00 -0.62274483268E+03  0.62274483268E+03  0.00000000000E+00 0. -1.
        -24    2    1    2    0    0 -0.60742959566E+02 -0.17015307792E+01 -0.44619306054E+03  0.45773937868E+03  0.82124838978E+02 0.  0.
         25    2    1    2    0    0  0.34398594044E+00 -0.69456443401E+02 -0.11263986365E+03  0.18209703412E+03  0.12508906865E+03 0.  0.
         24    2    1    2    0    0  0.60398973625E+02  0.71157974180E+02  0.12095030300E+03  0.16777063137E+03  0.69329039005E+02 0.  0.
        -11    1    5    5    0    0 -0.63491164879E+01  0.38387883645E+02  0.24483693824E+02  0.45971645110E+02  0.00000000000E+00 0.  1.
         12    1    5    5    0    0  0.66748090113E+02  0.32770090536E+02  0.96466609173E+02  0.12179898626E+03  0.00000000000E+00 0. -1.
         11    1    3    3    0    0 -0.51056399109E+02 -0.23381153792E+02 -0.41370454709E+03  0.41749836709E+03  0.00000000000E+00 0. -1.
        -12    1    3    3    0    0 -0.96865604564E+01  0.21679623013E+02 -0.32488513455E+02  0.40241011592E+02  0.00000000000E+00 0.  1.
          5    1    4    4  501    0  0.30392193119E+02 -0.97025739876E+02 -0.74627293102E+02  0.12619185741E+03  0.41800000000E+01 0. -1.
         -5    1    4    4    0  501 -0.30048207179E+02  0.27569296475E+02 -0.38012570553E+02  0.55905176709E+02  0.41800000000E+01 0. -1.
</event>
<event>
11    1  0.6763327E-009  0.1512760E+03  0.7561462E-02  0.1095582E+00
         22   -1    0    0    0    0  0.00000000000E+00  0.00000000000E+00  0.13086745799E+04  0.13086745799E+04  0.00000000000E+00 0. -1.
         22   -1    0    0    0    0 -0.00000000000E+00 -0.00000000000E+00 -0.17131268241E+03  0.17131268241E+03  0.00000000000E+00 0.  1.
         24    2    1    2    0    0 -0.69323840167E+02 -0.59370277231E+02 -0.12038814748E+03  0.16836888089E+03  0.74324621509E+02 0.  0.
         25    2    1    2    0    0  0.26062512855E+02  0.30050061222E+02  0.15238401978E+03  0.20112393168E+03  0.12509070970E+03 0.  0.
        -24    2    1    2    0    0  0.43261327312E+02  0.29320216010E+02  0.11053660252E+04  0.11104944497E+04  0.92912086178E+02 0.  0.
        -13    1    3    3    0    0 -0.18790150967E+02 -0.17037479437E+02 -0.93999207736E+02  0.97361165431E+02  0.00000000000E+00 0.  1.
         14    1    3    3    0    0 -0.50533689200E+02 -0.42332797794E+02 -0.26388939745E+02  0.71007715455E+02  0.00000000000E+00 0. -1.
         11    1    5    5    0    0  0.70037142046E+02  0.26678000777E+02  0.93695850490E+03  0.93995114602E+03  0.00000000000E+00 0. -1.
        -12    1    5    5    0    0 -0.26775814734E+02  0.26422152326E+01  0.16840752027E+03  0.17054330370E+03  0.00000000000E+00 0.  1.
          5    1    4    4  501    0  0.21358088420E+02  0.61111459720E+02  0.24454636881E+02  0.69327340314E+02  0.41800000000E+01 0. -1.
         -5    1    4    4    0  501  0.47044244353E+01 -0.31061398498E+02  0.12792938290E+03  0.13179659136E+03  0.41800000000E+01 0. -1.
</event>
<event>
11    1  0.7853728E-009  0.1695944E+03  0.7561462E-02  0.1078385E+00
         22   -1    0    0    0    0  0.00000000000E+00  0.00000000000E+00  0.40930674633E+03  0.40930674633E+03  0.00000000000E+00 0. -1.
         22   -1    0    0    0    0 -0.00000000000E+00 -0.00000000000E+00 -0.14732217467E+04  0.14732217467E+04  0.00000000000E+00 0.  1.
        -24    2    1    2    0    0  0.29919033138E+02 -0.47415716483E+02 -0.11500776637E+04  0.11536858159E+04  0.71895274702E+02 0.  0.
         25    2    1    2    0    0  0.85799202230E+02  0.46384270787E+02 -0.28814335607E+03  0.32891493869E+03  0.12508173155E+03 0.  0.
         24    2    1    2    0    0 -0.11571823537E+03  0.10314456965E+01  0.37430601937E+03  0.39992773848E+03  0.80283410475E+02 0.  0.
        -13    1    5    5    0    0 -0.35021195765E+02  0.31462767791E+02  0.75959041875E+02  0.89365350961E+02  0.00000000000E+00 0.  1.
         14    1    5    5    0    0 -0.80697039604E+02 -0.30431322094E+02  0.29834697749E+03  0.31056238752E+03  0.00000000000E+00 0. -1.
         13    1    3    3    0    0  0.25626547845E+02 -0.36851252129E+02 -0.28335290348E+03  0.28688604470E+03  0.00000000000E+00 0. -1.
        -14    1    3    3    0    0  0.42924852926E+01 -0.10564464354E+02 -0.86672476024E+03  0.86679977120E+03  0.00000000000E+00 0.  1.
          5    1    4    4  501    0  0.57157744651E+02  0.84626309111E+02 -0.14095961885E+03  0.17411406179E+03  0.41800000000E+01 0. -1.
         -5    1    4    4    0  501  0.28641457579E+02 -0.38242038324E+02 -0.14718373722E+03  0.15480087690E+03  0.41800000000E+01 0. -1.
</event>
<event>
11    1  0.6763327E-009  0.1566536E+03  0.7561462E-02  0.1090268E+00
         22   -1    0    0    0    0  0.00000000000E+00  0.00000000000E+00  0.97770560823E+03  0.97770560823E+03  0.00000000000E+00 0.  1.
         22   -1    0    0    0    0 -0.00000000000E+00 -0.00000000000E+00 -0.56606899454E+03  0.56606899454E+03  0.00000000000E+00 0. -1.
         24    2    1    2    0    0 -0.57665218433E+02 -0.13075131034E+02 -0.50116805886E+03  0.51136324208E+03  0.82623880704E+02 0.  0.
         25    2    1    2    0    0 -0.21743851532E+01  0.88394299903E+02  0.51178745502E+02  0.16151023584E+03  0.12509201446E+03 0.  0.
        -24    2    1    2    0    0  0.59839603586E+02 -0.75319168869E+02  0.86162592705E+03  0.87090112485E+03  0.82557711690E+02 0.  0.
        -11    1    3    3    0    0 -0.39763992757E+01  0.18384324942E+02 -0.25739841691E+02  0.31880003216E+02  0.00000000000E+00 0.  1.
         12    1    3    3    0    0 -0.53688819157E+02 -0.31459455977E+02 -0.47542821717E+03  0.47948323886E+03  0.00000000000E+00 0. -1.
         13    1    5    5    0    0 -0.61977764187E+01 -0.40373444042E+02  0.15339532163E+03  0.15874051819E+03  0.00000000000E+00 0. -1.
        -14    1    5    5    0    0  0.66037380005E+02 -0.34945724827E+02  0.70823060542E+03  0.71216060667E+03  0.00000000000E+00 0.  1.
          5    1    4    4  501    0 -0.51799567124E+02  0.58271019290E+02  0.65109948567E+02  0.10166358564E+03  0.41800000000E+01 0.  1.
         -5    1    4    4    0  501  0.49625181970E+02  0.30123280613E+02 -0.13931203065E+02  0.59846650193E+02  0.41800000000E+01 0.  1.
</event>
<event>
11    1  0.6763327E-009  0.1813618E+03  0.7561462E-02  0.1068547E+00
         22   -1    0    0    0    0  0.00000000000E+00  0.00000000000E+00  0.72548264766E+02  0.72548264766E+02  0.00000000000E+00 0. -1.
         22   -1    0    0    0    0 -0.00000000000E+00 -0.00000000000E+00 -0.76222521662E+03  0.76222521662E+03  0.00000000000E+00 0.  1.
         24    2    1    2    0    0 -0.13484972975E+03  0.64763070388E+02 -0.43860013234E+03  0.47031239181E+03  0.80280538703E+02 0.  0.
         25    2    1    2    0    0  0.66850189821E+02 -0.72115108119E+02 -0.15772179365E+03  0.22404054352E+03  0.12509382179E+03 0.  0.
        -24    2    1    2    0    0  0.67999539932E+02  0.73520377313E+01 -0.93355025866E+02  0.14042054606E+03  0.79528479254E+02 0.  0.
        -11    1    3    3    0    0 -0.81023278561E+02  0.69304195621E+02 -0.21122790153E+03  0.23661164296E+03  0.00000000000E+00 0.  1.
         12    1    3    3    0    0 -0.53826451192E+02 -0.45411252329E+01 -0.22737223081E+03  0.23370074885E+03  0.00000000000E+00 0. -1.
         11    1    5    5    0    0  0.48686776752E+02 -0.26599275700E+02 -0.23219923696E+02  0.60142236030E+02  0.00000000000E+00 0. -1.
        -12    1    5    5    0    0  0.19312763179E+02  0.33951313431E+02 -0.70135102171E+02  0.80278310033E+02  0.00000000000E+00 0.  1.
          5    1    4    4  501    0  0.36231653924E+02  0.12621773174E+02 -0.12038852858E+03  0.12642354258E+03  0.41800000000E+01 0.  1.
         -5    1    4    4    0  501  0.30618535897E+02 -0.84736881294E+02 -0.37333265063E+02  0.97617000938E+02  0.41800000000E+01 0.  1.
</event>
<event>
11    1  0.6763327E-009  0.1472666E+03  0.7561462E-02  0.1099705E+00
         22   -1    0    0    0    0  0.00000000000E+00  0.00000000000E+00  0.12426627696E+03  0.12426627696E+03  0.00000000000E+00 0. -1.
         22   -1    0    0    0    0 -0.00000000000E+00 -0.00000000000E+00 -0.53349624760E+03  0.53349624760E+03  0.00000000000E+00 0.  1.
         24    2    1    2    0    0  0.41898502975E+02 -0.45055605990E+02 -0.34813089808E+03  0.36224763216E+03  0.79010965195E+02 0.  0.
         25    2    1    2    0    0 -0.84420972086E+02 -0.23028977966E+02 -0.92175935507E+02  0.17831924981E+03  0.12507644627E+03 0.  0.
        -24    2    1    2    0    0  0.42522469111E+02  0.68084583957E+02  0.31076862950E+02  0.11719564258E+03  0.79532234209E+02 0.  0.
        -13    1    3    3    0    0  0.56668114622E+02 -0.69787974462E+01 -0.23898688040E+03  0.24571265298E+03  0.00000000000E+00 0.  1.
         14    1    3    3    0    0 -0.14769611647E+02 -0.38076808544E+02 -0.10914401768E+03  0.11653497918E+03  0.00000000000E+00 0. -1.
         13    1    5    5    0    0  0.12697561873E+02  0.97204339508E+01  0.47084642234E+02  0.49726033906E+02  0.00000000000E+00 0. -1.
        -14    1    5    5    0    0  0.29824907239E+02  0.58364150006E+02 -0.16007779284E+02  0.67469608679E+02  0.00000000000E+00 0.  1.
          5    1    4    4  501    0 -0.20938823695E+02  0.13183811389E+02 -0.10147064344E+03  0.10452756144E+03  0.41800000000E+01 0.  1.
         -5    1    4    4    0  501 -0.63482148391E+02 -0.36212789355E+02  0.92947079299E+01  0.73791688372E+02  0.41800000000E+01 0.  1.
</event>
<event>
11    1  0.6763327E-009  0.1395444E+03  0.7561462E-02  0.1108068E+00
         22   -1    0    0    0    0  0.00000000000E+00  0.00000000000E+00  0.10012500531E+03  0.10012500531E+03  0.00000000000E+00 0.  1.
         22   -1    0    0    0    0 -0.00000000000E+00 -0.00000000000E+00 -0.28871222703E+04  0.28871222703E+04  0.00000000000E+00 0. -1.
        -24    2    1    2    0    0 -0.57250271897E+02  0.23014586583E+02 -0.27545430242E+04  0.27563498569E+04  0.78421913401E+02 0.  0.
         25    2    1    2    0    0  0.60142013282E+02 -0.29712709405E+02 -0.63949893574E+02  0.15570005233E+03  0.12511199202E+03 0.  0.
         24    2    1    2    0    0 -0.28917413851E+01  0.66981228225E+01  0.31495652783E+02  0.75197366407E+02  0.67892862311E+02 0.  0.
        -11    1    5    5    0    0  0.17197757086E+01  0.15515010023E+02  0.50981674773E+02  0.53317955017E+02  0.00000000000E+00 0.  1.
         12    1    5    5    0    0 -0.46115170937E+01 -0.88168872002E+01 -0.19486021990E+02  0.21879411391E+02  0.00000000000E+00 0. -1.
         11    1    3    3    0    0 -0.61769858073E+02  0.44317191164E+02 -0.23407298394E+04  0.23419640710E+04  0.00000000000E+00 0. -1.
        -12    1    3    3    0    0  0.45195861754E+01 -0.21302604581E+02 -0.41381318477E+03  0.41438578585E+03  0.00000000000E+00 0.  1.
          5    1    4    4  501    0  0.88561519375E+02 -0.24268225190E+02 -0.76224954136E+01  0.92237000733E+02  0.41800000000E+01 0.  1.
         -5    1    4    4    0  501 -0.28419506093E+02 -0.54444842147E+01 -0.56327398160E+02  0.63463051600E+02  0.41800000000E+01 0.  1.
</event>
<event>
11    1  0.6763327E-009  0.3714020E+03  0.7561462E-02  0.9738122E-01
         22   -1    0    0    0    0  0.00000000000E+00  0.00000000000E+00  0.85912395979E+03  0.85912395979E+03  0.00000000000E+00 0. -1.
         22   -1    0    0    0    0 -0.00000000000E+00 -0.00000000000E+00 -0.14490239769E+04  0.14490239769E+04  0.00000000000E+00 0. -1.
         24    2    1    2    0    0 -0.31702380120E+03  0.20171759734E+02 -0.83213677771E+03  0.89444531666E+03  0.81668949202E+02 0.  0.
         25    2    1    2    0    0  0.45151390491E+03  0.61283221570E+02 -0.47802216413E+03  0.67214030975E+03  0.12508783719E+03 0.  0.
        -24    2    1    2    0    0 -0.13449010372E+03 -0.81454981303E+02  0.72025892470E+03  0.74156231031E+03  0.80120156579E+02 0.  0.
        -11    1    3    3    0    0 -0.42194671262E+01  0.14401580662E+02 -0.33104832513E+02  0.36347480850E+02  0.00000000000E+00 0.  1.
         12    1    3    3    0    0 -0.31280433407E+03  0.57701790720E+01 -0.79903194519E+03  0.85809783581E+03  0.00000000000E+00 0. -1.
         11    1    5    5    0    0 -0.13731623515E+03 -0.62113349228E+02  0.68361418992E+03  0.70003012595E+03  0.00000000000E+00 0. -1.
        -12    1    5    5    0    0  0.28261314360E+01 -0.19341632075E+02  0.36644734781E+02  0.41532184356E+02  0.00000000000E+00 0.  1.
          5    1    4    4  501    0  0.26977369704E+03 -0.13396655798E+02 -0.22373822193E+03  0.35076143225E+03  0.41800000000E+01 0. -1.
         -5    1    4    4    0  501  0.18174020787E+03  0.74679877368E+02 -0.25428394220E+03  0.32137887750E+03  0.41800000000E+01 0. -1.
</event>
<event>
11    1  0.6763327E-009  0.1953789E+03  0.7561462E-02  0.1057840E+00
         22   -1    0    0    0    0  0.00000000000E+00  0.00000000000E+00  0.95907127014E+03  0.95907127014E+03  0.00000000000E+00 0. -1.
         22   -1    0    0    0    0 -0.00000000000E+00 -0.00000000000E+00 -0.61926291928E+03  0.61926291928E+03  0.00000000000E+00 0.  1.
        -24    2    1    2    0    0  0.14472786322E+02 -0.21200393993E+02 -0.52958684511E+03  0.53627082061E+03  0.80406767601E+02 0.  0.
         25    2    1    2    0    0  0.73180000661E+02  0.14192164108E+03  0.54999088226E+02  0.21016616767E+03  0.12509138109E+03 0.  0.
         24    2    1    2    0    0 -0.87652786982E+02 -0.12072124709E+03  0.81439610774E+03  0.83189720115E+03  0.80964822093E+02 0.  0.
        -11    1    5    5    0    0  0.49556388750E-01 -0.18393300601E+02  0.28580547835E+03  0.28639673081E+03  0.00000000000E+00 0.  1.
         12    1    5    5    0    0 -0.87702343371E+02 -0.10232794649E+03  0.52859062939E+03  0.54550047034E+03  0.00000000000E+00 0. -1.
         13    1    3    3    0    0 -0.25786508106E+02  0.14172550461E+02 -0.14381422857E+03  0.14679352004E+03  0.00000000000E+00 0. -1.
        -14    1    3    3    0    0  0.40259294428E+02 -0.35372944454E+02 -0.38577261654E+03  0.38947730057E+03  0.00000000000E+00 0.  1.
          5    1    4    4  501    0  0.70139553980E+01  0.13033805633E+03  0.13957811779E+02  0.13133734201E+03  0.41800000000E+01 0. -1.
         -5    1    4    4    0  501  0.66166045263E+02  0.11583584754E+02  0.41041276447E+02  0.78828825653E+02  0.41800000000E+01 0. -1.
</event>
<event>
11    1  0.6763327E-009  0.1446051E+03  0.7561462E-02  0.1102522E+00
         22   -1    0    0    0    0  0.00000000000E+00  0.00000000000E+00  0.27408734225E+03  0.27408734225E+03  0.00000000000E+00 0. -1.
         22   -1    0    0    0    0 -0.00000000000E+00 -0.00000000000E+00 -0.19068514648E+04  0.19068514648E+04  0.00000000000E+00 0. -1.
         24    2    1    2    0    0  0.16954202950E+02  0.50786977751E+00 -0.15292521655E+04  0.15314613762E+04  0.80461533025E+02 0.  0.
         25    2    1    2    0    0 -0.49584045690E+02  0.64005054174E+02 -0.34837885926E+03  0.37890791223E+03  0.12509257303E+03 0.  0.
        -24    2    1    2    0    0  0.32629842740E+02 -0.64512923952E+02  0.24486690216E+03  0.27056951863E+03  0.89562495727E+02 0.  0.
        -11    1    3    3    0    0  0.33865949417E+02  0.77555419529E+01 -0.29015439824E+03  0.29222701069E+03  0.00000000000E+00 0.  1.
         12    1    3    3    0    0 -0.16911746467E+02 -0.72476721754E+01 -0.12390977672E+04  0.12392343655E+04  0.00000000000E+00 0. -1.
         13    1    5    5    0    0 -0.90820136312E+00 -0.68170963267E+02  0.21486513857E+03  0.22542212144E+03  0.00000000000E+00 0. -1.
        -14    1    5    5    0    0  0.33538044103E+02  0.36580393151E+01  0.30001763593E+02  0.45147397185E+02  0.00000000000E+00 0.  1.
          5    1    4    4  501    0 -0.64953177266E+02  0.19734339135E+01 -0.26974482460E+03  0.27749333772E+03  0.41800000000E+01 0.  1.
         -5    1    4    4    0  501  0.15369131576E+02  0.62031620261E+02 -0.78634034653E+02  0.10141457451E+03  0.41800000000E+01 0.  1.
</event>
<event>
11    1  0.6763327E-009  0.2338193E+03  0.7561462E-02  0.1032890E+00
         22   -1    0    0    0    0  0.00000000000E+00  0.00000000000E+00  0.38036183698E+03  0.38036183698E+03  0.00000000000E+00 0.  1.
         22   -1    0    0    0    0 -0.00000000000E+00 -0.00000000000E+00 -0.55689933970E+03  0.55689933970E+03  0.00000000000E+00 0. -1.
        -24    2    1    2    0    0 -0.70190751452E+02 -0.93199052402E+02 -0.34276661571E+03  0.37012999330E+03  0.76775348494E+02 0.  0.
         25    2    1    2    0    0  0.13066722717E+03  0.25540423371E+03 -0.82593429697E+00  0.31297526554E+03  0.12509031865E+03 0.  0.
         24    2    1    2    0    0 -0.60476475715E+02 -0.16220518131E+03  0.16705504729E+03  0.25415591784E+03  0.81975098599E+02 0.  0.
        -13    1    5    5    0    0 -0.59289541368E+02 -0.14390100099E+03  0.17497431048E+03  0.23417676471E+03  0.00000000000E+00 0.  1.
         14    1    5    5    0    0 -0.11869343473E+01 -0.18304180317E+02 -0.79192631933E+01  0.19979153129E+02  0.00000000000E+00 0. -1.
         13    1    3    3    0    0 -0.23683577093E+02 -0.27217868088E+02 -0.22171307922E+03  0.22462950311E+03  0.00000000000E+00 0. -1.
        -14    1    3    3    0    0 -0.46507174360E+02 -0.65981184314E+02 -0.12105353649E+03  0.14550049019E+03  0.00000000000E+00 0.  1.
          5    1    4    4  501    0  0.74939190119E+02  0.32317709817E+02 -0.12653430937E+02  0.82691585412E+02  0.41800000000E+01 0.  1.
         -5    1    4    4    0  501  0.55728037048E+02  0.22308652389E+03  0.11827496640E+02  0.23028368013E+03  0.41800000000E+01 0.  1.
</event>
<event>
11    1  0.6763327E-009  0.1386151E+03  0.7561462E-02  0.1109115E+00
         22   -1    0    0    0    0  0.00000000000E+00  0.00000000000E+00  0.92085620606E+03  0.92085620606E+03  0.00000000000E+00 0. -1.
         22   -1    0    0    0    0 -0.00000000000E+00 -0.00000000000E+00 -0.45783903117E+02  0.45783903117E+02  0.00000000000E+00 0. -1.
         24    2    1    2    0    0 -0.77336182624E+02  0.19905674981E+02  0.12744387727E+03  0.17018230270E+03  0.79642659811E+02 0.  0.
         25    2    1    2    0    0  0.25092103974E+02 -0.25402838025E+02  0.18574807140E+03  0.22676971177E+03  0.12508892151E+03 0.  0.
        -24    2    1    2    0    0  0.52244078650E+02  0.54971630442E+01  0.56188035428E+03  0.56968809471E+03  0.77944404347E+02 0.  0.
        -13    1    3    3    0    0 -0.63562526004E+02  0.15244974939E+02  0.13767410405E+03  0.15240329031E+03  0.00000000000E+00 0.  1.
         14    1    3    3    0    0 -0.13773656620E+02  0.46607000415E+01 -0.10230226782E+02  0.17779012390E+02  0.00000000000E+00 0. -1.
         13    1    5    5    0    0  0.45452429365E+02  0.19502839257E+02  0.54286895247E+03  0.54511740353E+03  0.00000000000E+00 0. -1.
        -14    1    5    5    0    0  0.67916492850E+01 -0.14005676212E+02  0.19011401811E+02  0.24570691179E+02  0.00000000000E+00 0.  1.
          5    1    4    4  501    0  0.11366632064E+02 -0.69862379543E+02  0.60902111293E+02  0.93469203270E+02  0.41800000000E+01 0. -1.
         -5    1    4    4    0  501  0.13725471910E+02  0.44459541519E+02  0.12484596010E+03  0.13330050850E+03  0.41800000000E+01 0. -1.
</event>
<event>
11    1  0.6763327E-009  0.1803137E+03  0.7561462E-02  0.1069389E+00
         22   -1    0    0    0    0  0.00000000000E+00  0.00000000000E+00  0.20222201142E+04  0.20222201142E+04  0.00000000000E+00 0. -1.
         22   -1    0    0    0    0 -0.00000000000E+00 -0.00000000000E+00 -0.99875467361E+02  0.99875467361E+02  0.00000000000E+00 0.  1.
         24    2    1    2    0    0  0.15056246698E+02 -0.85055836874E+02 -0.25231971978E+02  0.12105096208E+03  0.80966024110E+02 0.  0.
         25    2    1    2    0    0 -0.67152040579E+02 -0.45023703755E+02  0.21884795582E+03  0.26472322622E+03  0.12508968094E+03 0.  0.
        -24    2    1    2    0    0  0.52095793881E+02  0.13007954063E+03  0.17287286630E+04  0.17363213932E+04  0.81697807820E+02 0.  0.
        -11    1    3    3    0    0 -0.31142587806E+02 -0.38175988024E+02 -0.24966329642E+02  0.55232096218E+02  0.00000000000E+00 0.  1.
         12    1    3    3    0    0  0.46198834504E+02 -0.46879848851E+02 -0.26564233587E+00  0.65818865864E+02  0.00000000000E+00 0. -1.
         13    1    5    5    0    0  0.48629453865E+02  0.40787296976E+02  0.10214671480E+04  0.10234371313E+04  0.00000000000E+00 0. -1.
        -14    1    5    5    0    0  0.34663400166E+01  0.89292243653E+02  0.70726151497E+03  0.71288426189E+03  0.00000000000E+00 0.  1.
          5    1    4    4  501    0  0.43217754968E+00  0.18054297828E+02  0.14540031587E+03  0.14657717661E+03  0.41800000000E+01 0. -1.
         -5    1    4    4    0  501 -0.67584218129E+02 -0.63078001583E+02  0.73447639949E+02  0.11814604961E+03  0.41800000000E+01 0. -1.
</event>
<event>
11    1  0.6763327E-009  0.1986543E+03  0.7561462E-02  0.1055479E+00
         22   -1    0    0    0    0  0.00000000000E+00  0.00000000000E+00  0.14523633536E+04  0.14523633536E+04  0.00000000000E+00 0.  1.
         22   -1    0    0    0    0 -0.00000000000E+00 -0.00000000000E+00 -0.25781336236E+03  0.25781336236E+03  0.00000000000E+00 0.  1.
         24    2    1    2    0    0 -0.26822660005E+02 -0.70061155391E+02 -0.79993748396E+02  0.13626127322E+03  0.80870972619E+02 0.  0.
         25    2    1    2    0    0  0.12711645394E+03 -0.48936316354E+02 -0.85123074031E+02  0.20356673123E+03  0.12506046701E+03 0.  0.
        -24    2    1    2    0    0 -0.10029379394E+03  0.11899747175E+03  0.13596668137E+04  0.13703487115E+04  0.70302941432E+02 0.  0.
        -13    1    3    3    0    0 -0.18810067468E+02 -0.54846390135E+02 -0.96400358730E+02  0.11249433013E+03  0.00000000000E+00 0.  1.
         14    1    3    3    0    0 -0.80125925371E+01 -0.15214765256E+02  0.16406610334E+02  0.23766943085E+02  0.00000000000E+00 0. -1.
         13    1    5    5    0    0 -0.48977309196E+02  0.11441902767E+02  0.33046786822E+03  0.33427339990E+03  0.00000000000E+00 0. -1.
        -14    1    5    5    0    0 -0.51316484743E+02  0.10755556898E+03  0.10291989455E+04  0.10360753116E+04  0.00000000000E+00 0.  1.
          5    1    4    4  501    0  0.69354563949E+02 -0.27206867552E+02 -0.11324585613E+03  0.13561845565E+03  0.41800000000E+01 0.  1.
         -5    1    4    4    0  501  0.57761889995E+02 -0.21729448803E+02  0.28122782096E+02  0.67948275577E+02  0.41800000000E+01 0.  1.
</event>
<event>
11    1  0.6763327E-009  0.1543787E+03  0.7561462E-02  0.1092487E+00
         22   -1    0    0    0    0  0.00000000000E+00  0.00000000000E+00  0.86110169586E+03  0.86110169586E+03  0.00000000000E+00 0.  1.
         22   -1    0    0    0    0 -0.00000000000E+00 -0.00000000000E+00 -0.10337368980E+03  0.10337368980E+03  0.00000000000E+00 0.  1.
        -24    2    1    2    0    0  0.12348523871E+01 -0.42870070698E+02 -0.45338840680E+02  0.10119468023E+03  0.79657924967E+02 0.  0.
         25    2    1    2    0    0  0.48946203131E+02 -0.41796455622E+02  0.18528668093E+03  0.23262558122E+03  0.12506331358E+03 0.  0.
         24    2    1    2    0    0 -0.50181055519E+02  0.84666526321E+02  0.61778016582E+03  0.63065512421E+03  0.79918667474E+02 0.  0.
        -13    1    5    5    0    0 -0.23896679165E+02  0.69702453625E+02  0.56530886375E+03  0.57009086534E+03  0.00000000000E+00 0.  1.
         14    1    5    5    0    0 -0.26284376353E+02  0.14964072695E+02  0.52471302068E+02  0.60564258872E+02  0.00000000000E+00 0. -1.
         11    1    3    3    0    0  0.11726918296E+02  0.11931075237E+02  0.12458915897E+02  0.20858949023E+02  0.00000000000E+00 0. -1.
        -12    1    3    3    0    0 -0.10492065909E+02 -0.54801145935E+02 -0.57797756577E+02  0.80335731205E+02  0.00000000000E+00 0.  1.
          5    1    4    4  501    0 -0.61512501541E+00 -0.42391481177E+02  0.17717854674E+03  0.18222822471E+03  0.41800000000E+01 0. -1.
         -5    1    4    4    0  501  0.49561328147E+02  0.59502555452E+00  0.81081341904E+01  0.50397356509E+02  0.41800000000E+01 0. -1.
</event>
<event>
11    1  0.6763327E-009  0.1420523E+03  0.7561462E-02  0.1105288E+00
         22   -1    0    0    0    0  0.00000000000E+00  0.00000000000E+00  0.16527952943E+04  0.16527952943E+04  0.00000000000E+00 0.  1.
         22   -1    0    0    0    0 -0.00000000000E+00 -0.00000000000E+00 -0.29741006003E+03  0.29741006003E+03  0.00000000000E+00 0.  1.
        -24    2    1    2    0    0  0.21647812706E+02  0.17327226247E+02 -0.26044598921E+03  0.27430292591E+03  0.81493075209E+02 0.  0.
         25    2    1    2    0    0  0.40679655883E+02 -0.45041118039E+02  0.14559649527E+03  0.20131996936E+03  0.12509138224E+03 0.  0.
         24    2    1    2    0    0 -0.62327468589E+02  0.27713891792E+02  0.14702347282E+04  0.14745824590E+04  0.90280116272E+02 0.  0.
        -13    1    5    5    0    0 -0.61796754412E+02  0.40656142062E+02  0.14371501140E+04  0.14390525393E+04  0.00000000000E+00 0.  1.
         14    1    5    5    0    0 -0.53071417710E+00 -0.12942250270E+02  0.33084614215E+02  0.35529919748E+02  0.00000000000E+00 0. -1.
         11    1    3    3    0    0 -0.29783277927E+02  0.49230452081E+01 -0.13160013084E+03  0.13501805233E+03  0.00000000000E+00 0. -1.
        -12    1    3    3    0    0  0.51431090632E+02  0.12404181039E+02 -0.12884585837E+03  0.13928487358E+03  0.00000000000E+00 0.  1.
          5    1    4    4  501    0 -0.37841478294E+02 -0.14496875835E+02  0.93967537921E+02  0.10241829657E+03  0.41800000000E+01 0. -1.
         -5    1    4    4    0  501  0.78521134177E+02 -0.30544242204E+02  0.51628957352E+02  0.98901672794E+02  0.41800000000E+01 0. -1.
</event>
<event>
11    1  0.6763327E-009  0.1541020E+03  0.7561462E-02  0.1092759E+00
         22   -1    0    0    0    0  0.00000000000E+00  0.00000000000E+00  0.14355959047E+04  0.14355959047E+04  0.00000000000E+00 0.  1.
         22   -1    0    0    0    0 -0.00000000000E+00 -0.00000000000E+00 -0.32441572661E+03  0.32441572661E+03  0.00000000000E+00 0.  1.
        -24    2    1    2    0    0 -0.34752838640E+02 -0.92421067228E+01 -0.29978151822E+03  0.31299171839E+03  0.82472303134E+02 0.  0.
         25    2    1    2    0    0  0.33655770349E+02 -0.82436593346E+02  0.39566276099E+03  0.42441092379E+03  0.12508840471E+03 0.  0.
         24    2    1    2    0    0  0.10970682914E+01  0.91678700069E+02  0.10152989353E+04  0.10226089891E+04  0.80566922399E+02 0.  0.
        -13    1    5    5    0    0 -0.15888705707E+02  0.65395543486E+02  0.91661024594E+03  0.91907745650E+03  0.00000000000E+00 0.  1.
         14    1    5    5    0    0  0.16985773999E+02  0.26283156583E+02  0.98688689383E+02  0.10353153264E+03  0.00000000000E+00 0. -1.
         13    1    3    3    0    0  0.22922831524E+02  0.14601536886E+02 -0.78170233651E+02  0.82760174683E+02  0.00000000000E+00 0. -1.
        -14    1    3    3    0    0 -0.57675670164E+02 -0.23843643609E+02 -0.22161128457E+03  0.23023154371E+03  0.00000000000E+00 0.  1.
          5    1    4    4  501    0  0.43289678199E+02 -0.11307208814E+03  0.31419917752E+03  0.33674603028E+03  0.41800000000E+01 0. -1.
         -5    1    4    4    0  501 -0.96339078502E+01  0.30635494793E+02  0.81463583474E+02  0.87664893510E+02  0.41800000000E+01 0. -1.
</event>
<event>
11    1  0.6763327E-009  0.2163695E+03  0.7561462E-02  0.1043516E+00
         22   -1    0    0    0    0  0.00000000000E+00  0.00000000000E+00  0.45078405127E+03  0.45078405127E+03  0.00000000000E+00 0. -1.
         22   -1    0    0    0    0 -0.00000000000E+00 -0.00000000000E+00 -0.80326092560E+03  0.80326092560E+03  0.00000000000E+00 0.  1.
         24    2    1    2    0    0 -0.13819406990E+02  0.28626773621E+02 -0.61583563630E+03  0.62088705893E+03  0.72365328962E+02 0.  0.
         25    2    1    2    0    0  0.16558288000E+03  0.62234452156E+02 -0.85732591589E+02  0.23299914731E+03  0.12509079982E+03 0.  0.
        -24    2    1    2    0    0 -0.15176347301E+03 -0.90861225777E+02  0.34909135356E+03  0.40015877063E+03  0.83512600812E+02 0.  0.
        -11    1    3    3    0    0  0.10154908343E+02  0.16210505239E+01 -0.48638819059E+03  0.48649688788E+03  0.00000000000E+00 0.  1.
         12    1    3    3    0    0 -0.23974315333E+02  0.27005723097E+02 -0.12944744571E+03  0.13439017106E+03  0.00000000000E+00 0. -1.
         13    1    5    5    0    0 -0.11930679078E+03 -0.10554054055E+03  0.29757655497E+03  0.33752736495E+03  0.00000000000E+00 0. -1.
        -14    1    5    5    0    0 -0.32456682232E+02  0.14679314770E+02  0.51514798592E+02  0.62631405681E+02  0.00000000000E+00 0.  1.
          5    1    4    4  501    0  0.15302613892E+03  0.43742825495E+02 -0.16423514303E+02  0.16005510987E+03  0.41800000000E+01 0.  1.
         -5    1    4    4    0  501  0.12556741088E+02  0.18491626661E+02 -0.69309077286E+02  0.72944037437E+02  0.41800000000E+01 0.  1.
</event>
<event>
11    1  0.6763327E-009  0.1493597E+03  0.7561462E-02  0.1097535E+00
         22   -1    0    0    0    0  0.00000000000E+00  0.00000000000E+00  0.10334902356E+03  0.10334902356E+03  0.00000000000E+00 0.  1.
         22   -1    0    0    0    0 -0.00000000000E+00 -0.00000000000E+00 -0.15573298238E+04  0.15573298238E+04  0.00000000000E+00 0. -1.
        -24    2    1    2    0    0  0.64434687611E+02  0.52836448622E+00 -0.13733850516E+04  0.13772193199E+04  0.79965287284E+02 0.  0.
         25    2    1    2    0    0  0.90069481845E+00  0.74319339866E+02 -0.33075716215E+02  0.14921092596E+03  0.12508286010E+03 0.  0.
         24    2    1    2    0    0 -0.65335382430E+02 -0.74847704352E+02 -0.47520032471E+02  0.13424860150E+03  0.76770062355E+02 0.  0.
        -13    1    5    5    0    0 -0.44394700596E+02 -0.73139137359E+02 -0.36839696117E+01  0.85637576371E+02  0.00000000000E+00 0.  1.
         14    1    5    5    0    0 -0.20940681834E+02 -0.17085669931E+01 -0.43836062859E+02  0.48611025126E+02  0.00000000000E+00 0. -1.
         11    1    3    3    0    0  0.31466731519E+02  0.13001800028E+02 -0.11894533795E+04  0.11899405632E+04  0.00000000000E+00 0. -1.
        -12    1    3    3    0    0  0.32967956092E+02 -0.12473435541E+02 -0.18393167209E+03  0.18727875673E+03  0.00000000000E+00 0.  1.
          5    1    4    4  501    0  0.24782286409E+02 -0.10918122805E+02  0.29853028809E+02  0.40522127959E+02  0.41800000000E+01 0. -1.
         -5    1    4    4    0  501 -0.23881591591E+02  0.85237462671E+02 -0.62928745024E+02  0.10868879800E+03  0.41800000000E+01 0. -1.
</event>
<event>
11    1  0.6763327E-009  0.1636769E+03  0.7561462E-02  0.1083669E+00
         22   -1    0    0    0    0  0.00000000000E+00  0.00000000000E+00  0.11411432679E+04  0.11411432679E+04  0.00000000000E+00 0. -1.
         22   -1    0    0    0    0 -0.00000000000E+00 -0.00000000000E+00 -0.74852875527E+02  0.74852875527E+02  0.00000000000E+00 0.  1.
         24    2    1    2    0    0  0.10085692406E+03 -0.19941090456E+02  0.32705814770E+02  0.13664486296E+03  0.83859299039E+02 0.  0.
         25    2    1    2    0    0 -0.10246434904E+03  0.84413510800E+02  0.42762540688E+03  0.46490951383E+03  0.12511108589E+03 0.  0.
        -24    2    1    2    0    0  0.16074249783E+01 -0.64472420344E+02  0.60595917070E+03  0.61444176661E+03  0.78694924858E+02 0.  0.
        -11    1    3    3    0    0  0.60319965675E+02  0.56944865419E+01 -0.21478058169E+02  0.64282442539E+02  0.00000000000E+00 0.  1.
         12    1    3    3    0    0  0.40536958384E+02 -0.25635576998E+02  0.54183872939E+02  0.72362420425E+02  0.00000000000E+00 0. -1.
         13    1    5    5    0    0  0.30383637398E+02 -0.34445420034E+02  0.15756791193E+03  0.16412586405E+03  0.00000000000E+00 0. -1.
        -14    1    5    5    0    0 -0.28776212420E+02 -0.30027000309E+02  0.44839125877E+03  0.45031590255E+03  0.00000000000E+00 0.  1.
          5    1    4    4  501    0 -0.77086456372E+02  0.11566018925E+03  0.29284195304E+03  0.32418125022E+03  0.41800000000E+01 0.  1.
         -5    1    4    4    0  501 -0.25377892665E+02 -0.31246678451E+02  0.13478345384E+03  0.14072826361E+03  0.41800000000E+01 0.  1.
</event>
<event>
11    1  0.6763327E-009  0.1335966E+03  0.7561462E-02  0.1114927E+00
         22   -1    0    0    0    0  0.00000000000E+00  0.00000000000E+00  0.21575012098E+04  0.21575012098E+04  0.00000000000E+00 0. -1.
         22   -1    0    0    0    0 -0.00000000000E+00 -0.00000000000E+00 -0.59720750757E+02  0.59720750757E+02  0.00000000000E+00 0.  1.
        -24    2    1    2    0    0 -0.10571705160E+00  0.46587967292E+02 -0.99393379385E+01  0.94998256487E+02  0.82191413326E+02 0.  0.
         25    2    1    2    0    0 -0.33800561384E+02 -0.52634293575E+02  0.82378044713E+03  0.83556851426E+03  0.12509064765E+03 0.  0.
         24    2    1    2    0    0  0.33906278436E+02  0.60463262830E+01  0.12839393498E+04  0.12866551898E+04  0.76125748602E+02 0.  0.
        -13    1    5    5    0    0  0.27446148030E+02 -0.21295289454E+02  0.25764748672E+03  0.25997886031E+03  0.00000000000E+00 0.  1.
         14    1    5    5    0    0  0.64601304061E+01  0.27341615737E+02  0.10262918631E+04  0.10266763295E+04  0.00000000000E+00 0. -1.
         13    1    3    3    0    0  0.17371638006E+02  0.47616616387E+02  0.24550605169E+02  0.56319163500E+02  0.00000000000E+00 0. -1.
        -14    1    3    3    0    0 -0.17477355058E+02 -0.10286490952E+01 -0.34489943107E+02  0.38679092987E+02  0.00000000000E+00 0.  1.
          5    1    4    4  501    0  0.11148625809E+02 -0.83036210871E+02  0.55827718792E+03  0.56454423664E+03  0.41800000000E+01 0. -1.
         -5    1    4    4    0  501 -0.44949187193E+02  0.30401917296E+02  0.26550325921E+03  0.27102427762E+03  0.41800000000E+01 0. -1.
</event>
<event>
11    1  0.6763327E-009  0.2612122E+03  0.7561462E-02  0.1018090E+00
         22   -1    0    0    0    0  0.00000000000E+00  0.00000000000E+00  0.72271145888E+03  0.72271145888E+03  0.00000000000E+00 0. -1.
         22   -1    0    0    0    0 -0.00000000000E+00 -0.00000000000E+00 -0.59298885790E+03  0.59298885790E+03  0.00000000000E+00 0.  1.
         24    2    1    2    0    0  0.22664731635E+03  0.45898034595E+02 -0.46153425633E+03  0.52233431257E+03  0.79646900366E+02 0.  0.
         25    2    1    2    0    0 -0.21047442645E+03 -0.62843938268E+02  0.65982982792E+02  0.26124748240E+03  0.12509056030E+03 0.  0.
        -24    2    1    2    0    0 -0.16172889899E+02  0.16945903673E+02  0.52527387452E+03  0.53211852181E+03  0.81784790652E+02 0.  0.
        -13    1    3    3    0    0  0.21216785045E+03  0.59450558920E+02 -0.38827640120E+03  0.44643939057E+03  0.00000000000E+00 0.  1.
         14    1    3    3    0    0  0.14479465896E+02 -0.13552524324E+02 -0.73257855121E+02  0.75894921999E+02  0.00000000000E+00 0. -1.
         11    1    5    5    0    0 -0.22504589448E+02  0.61826517460E+00  0.50426770987E+03  0.50477000903E+03  0.00000000000E+00 0. -1.
        -12    1    5    5    0    0  0.63316995492E+01  0.16327638498E+02  0.21006164654E+02  0.27348512786E+02  0.00000000000E+00 0.  1.
          5    1    4    4  501    0 -0.67225346510E+01  0.65824839999E+01  0.43590961056E+02  0.44790242839E+02  0.41800000000E+01 0.  1.
         -5    1    4    4    0  501 -0.20375189180E+03 -0.69426422268E+02  0.22392021735E+02  0.21645723956E+03  0.41800000000E+01 0.  1.
</event>
<event>
11    1  0.6763327E-009  0.3894289E+03  0.7561462E-02  0.9681474E-01
         22   -1    0    0    0    0  0.00000000000E+00  0.00000000000E+00  0.11216835095E+04  0.11216835095E+04  0.00000000000E+00 0. -1.
         22   -1    0    0    0    0 -0.00000000000E+00 -0.00000000000E+00 -0.94806178359E+03  0.94806178359E+03  0.00000000000E+00 0.  1.
         24    2    1    2    0    0 -0.93728921919E+02 -0.38123748406E+03 -0.81839323275E+03  0.91124203516E+03  0.80420353053E+02 0.  0.
         25    2    1    2    0    0 -0.10256014768E+03  0.22899790633E+03  0.26514578605E+03  0.38588680298E+03  0.12509081445E+03 0.  0.
        -24    2    1    2    0    0  0.19628906960E+03  0.15223957773E+03  0.72686917263E+03  0.77261645497E+03  0.83012676752E+02 0.  0.
        -11    1    3    3    0    0 -0.10482048522E+03 -0.31259499555E+03 -0.70389293264E+03  0.77728259081E+03  0.00000000000E+00 0.  1.
         12    1    3    3    0    0  0.11091563302E+02 -0.68642488506E+02 -0.11450030011E+03  0.13395944435E+03  0.00000000000E+00 0. -1.
         13    1    5    5    0    0  0.94857159255E+01  0.38932202130E+02  0.16419044822E+03  0.16900946262E+03  0.00000000000E+00 0. -1.
        -14    1    5    5    0    0  0.18680335367E+03  0.11330737560E+03  0.56267872441E+03  0.60360699235E+03  0.00000000000E+00 0.  1.
          5    1    4    4  501    0 -0.11092051095E+03  0.18748500423E+03  0.26534295150E+03  0.34333415337E+03  0.41800000000E+01 0. -1.
         -5    1    4    4    0  501  0.83603632721E+01  0.41512902099E+02 -0.19716544579E+00  0.42552649611E+02  0.41800000000E+01 0. -1.
</event>
<event>
11    1  0.6763327E-009  0.1524529E+03  0.7561462E-02  0.1094398E+00
         22   -1    0    0    0    0  0.00000000000E+00  0.00000000000E+00  0.82779560301E+03  0.82779560301E+03  0.00000000000E+00 0.  1.
         22   -1    0    0    0    0 -0.00000000000E+00 -0.00000000000E+00 -0.22772797586E+03  0.22772797586E+03  0.00000000000E+00 0.  1.
         24    2    1    2    0    0  0.53671569093E+02  0.67010204180E+02 -0.19144155973E+03  0.22515389391E+03  0.81690882971E+02 0.  0.
         25    2    1    2    0    0 -0.90481328925E+02 -0.95037075737E+02  0.55701168654E+03  0.58577230682E+03  0.12509300479E+03 0.  0.
        -24    2    1    2    0    0  0.36809759833E+02  0.28026871557E+02  0.23449750033E+03  0.24459737814E+03  0.51945507826E+02 0.  0.
        -13    1    3    3    0    0  0.69920455837E+02  0.54076279321E+02 -0.18202298273E+03  0.20234989590E+03  0.00000000000E+00 0.  1.
         14    1    3    3    0    0 -0.16248886744E+02  0.12933924859E+02 -0.94185769984E+01  0.22803998012E+02  0.00000000000E+00 0. -1.
         13    1    5    5    0    0 -0.73319358264E+01  0.22810073547E+02  0.10447748896E+03  0.10718956310E+03  0.00000000000E+00 0. -1.
        -14    1    5    5    0    0  0.44141695659E+02  0.52167980104E+01  0.13002001137E+03  0.13740781504E+03  0.00000000000E+00 0.  1.
          5    1    4    4  501    0 -0.16192915212E+02 -0.34216009053E+02  0.39912723080E+03  0.40094010095E+03  0.41800000000E+01 0. -1.
         -5    1    4    4    0  501 -0.74288413714E+02 -0.60821066684E+02  0.15788445573E+03  0.18483220587E+03  0.41800000000E+01 0. -1.
</event>
<event>
11    1  0.6763327E-009  0.1385387E+03  0.7561462E-02  0.1109201E+00
         22   -1    0    0    0    0  0.00000000000E+00  0.00000000000E+00  0.75660385834E+03  0.75660385834E+03  0.00000000000E+00 0. -1.
         22   -1    0    0    0    0 -0.00000000000E+00 -0.00000000000E+00 -0.77365391465E+03  0.77365391465E+03  0.00000000000E+00 0. -1.
        -24    2    1    2    0    0 -0.31806879954E+01  0.59666007431E+02 -0.75160387751E+03  0.75821592375E+03  0.80080266679E+02 0.  0.
         25    2    1    2    0    0  0.25444141673E+02 -0.39260443964E+02  0.28950045520E+03  0.31882077019E+03  0.12508950052E+03 0.  0.
         24    2    1    2    0    0 -0.22263453677E+02 -0.20405563467E+02  0.44505336600E+03  0.45322107905E+03  0.80154847116E+02 0.  0.
        -13    1    5    5    0    0  0.22214476910E+02 -0.32758969115E+01  0.44524351130E+02  0.49866144111E+02  0.00000000000E+00 0.  1.
         14    1    5    5    0    0 -0.44477930588E+02 -0.17129666555E+02  0.40052901487E+03  0.40335493494E+03  0.00000000000E+00 0. -1.
         11    1    3    3    0    0  0.11390172959E+02  0.67457855148E+02 -0.37108998082E+03  0.37734344055E+03  0.00000000000E+00 0. -1.
        -12    1    3    3    0    0 -0.14570860954E+02 -0.77918477166E+01 -0.38051389669E+03  0.38087248320E+03  0.00000000000E+00 0.  1.
          5    1    4    4  501    0 -0.29902071662E+01  0.16159280847E+02  0.23598674085E+03  0.23659517737E+03  0.41800000000E+01 0.  1.
         -5    1    4    4    0  501  0.28434348839E+02 -0.55419724812E+02  0.53513714343E+02  0.82225592822E+02  0.41800000000E+01 0.  1.
</event>
<event>
11    1  0.6763327E-009  0.1384944E+03  0.7561462E-02  0.1109251E+00
         22   -1    0    0    0    0  0.00000000000E+00  0.00000000000E+00  0.32971720901E+03  0.32971720901E+03  0.00000000000E+00 0. -1.
         22   -1    0    0    0    0 -0.00000000000E+00 -0.00000000000E+00 -0.34237965590E+03  0.34237965590E+03  0.00000000000E+00 0.  1.
        -24    2    1    2    0    0  0.40800485564E+02 -0.47037021076E+02 -0.23359787922E+03  0.25403514336E+03  0.78030275637E+02 0.  0.
         25    2    1    2    0    0 -0.45207037707E+02  0.20890804196E+02 -0.44760491796E+02  0.14188373636E+03  0.12508953217E+03 0.  0.
         24    2    1    2    0    0  0.44065521439E+01  0.26146216879E+02  0.26569592412E+03  0.27617798519E+03  0.70547239844E+02 0.  0.
        -11    1    5    5    0    0  0.21915709129E+01 -0.57327753230E+01 -0.20965336518E+01  0.64856109445E+01  0.00000000000E+00 0.  1.
         12    1    5    5    0    0  0.22149812309E+01  0.31878992202E+02  0.26779245777E+03  0.26969237424E+03  0.00000000000E+00 0. -1.
         13    1    3    3    0    0  0.10773795685E+02 -0.63087985489E+01  0.23656825243E+01  0.12707165947E+02  0.00000000000E+00 0. -1.
        -14    1    3    3    0    0  0.30026689878E+02 -0.40728222527E+02 -0.23596356174E+03  0.24132797742E+03  0.00000000000E+00 0.  1.
          5    1    4    4  501    0  0.10960014396E+02  0.40177753829E+02 -0.66441174537E+02  0.78525638438E+02  0.41800000000E+01 0. -1.
         -5    1    4    4    0  501 -0.56167052103E+02 -0.19286949633E+02  0.21680682741E+02  0.63358097921E+02  0.41800000000E+01 0. -1.
</event>
<event>
11    1  0.6763327E-009  0.1274100E+03  0.7561462E-02  0.1122493E+00
         22   -1    0    0    0    0  0.00000000000E+00  0.00000000000E+00  0.18814202334E+04  0.18814202334E+04  0.00000000000E+00 0. -1.
         22   -1    0    0    0    0 -0.00000000000E+00 -0.00000000000E+00 -0.28908381101E+03  0.28908381101E+03  0.00000000000E+00 0. -1.
        -24    2    1    2    0    0 -0.60614881651E+01  0.14003962844E+02 -0.14575871586E+03  0.16775737894E+03  0.81633830756E+02 0.  0.
         25    2    1    2    0    0 -0.17950981042E+02 -0.17270592234E+02 -0.10042168698E+03  0.16233449481E+03  0.12508981538E+03 0.  0.
         24    2    1    2    0    0  0.24012469208E+02  0.32666293904E+01  0.18385168253E+04  0.18404121707E+04  0.79909772426E+02 0.  0.
        -13    1    5    5    0    0 -0.84828264255E+01  0.22290760368E+02  0.19348281879E+03  0.19494726854E+03  0.00000000000E+00 0.  1.
         14    1    5    5    0    0  0.32495295633E+02 -0.19024130977E+02  0.16450340065E+04  0.16454649021E+04  0.00000000000E+00 0. -1.
         11    1    3    3    0    0 -0.12036154891E+01 -0.28375237578E+02 -0.10494647440E+03  0.10872150333E+03  0.00000000000E+00 0. -1.
        -12    1    3    3    0    0 -0.48578726760E+01  0.42379200421E+02 -0.40812241463E+02  0.59035875606E+02  0.00000000000E+00 0.  1.
          5    1    4    4  501    0 -0.37154738265E+01  0.11949945561E+02 -0.12224934682E+03  0.12295926619E+03  0.41800000000E+01 0. -1.
         -5    1    4    4    0  501 -0.14235507216E+02 -0.29220537795E+02  0.21827659837E+02  0.39375228617E+02  0.41800000000E+01 0. -1.
</event>
<event>
11    1  0.6763327E-009  0.1426058E+03  0.7561462E-02  0.1104683E+00
         22   -1    0    0    0    0  0.00000000000E+00  0.00000000000E+00  0.20461373614E+02  0.20461373614E+02  0.00000000000E+00 0. -1.
         22   -1    0    0    0    0 -0.00000000000E+00 -0.00000000000E+00 -0.19914820663E+04  0.19914820663E+04  0.00000000000E+00 0. -1.
        -24    2    1    2    0    0  0.15461077671E+02  0.91977091589E+01 -0.80104424852E+03  0.80531665386E+03  0.80866446180E+02 0.  0.
         25    2    1    2    0    0 -0.80262753673E+02  0.36229476967E+01 -0.97092994747E+03  0.98224626709E+03  0.12509009131E+03 0.  0.
         24    2    1    2    0    0  0.64801676002E+02 -0.12820656856E+02 -0.19904649669E+03  0.22438051895E+03  0.79771442188E+02 0.  0.
        -11    1    5    5    0    0  0.30928479305E+02 -0.95622876323E+01 -0.18459050336E+03  0.18740774292E+03  0.00000000000E+00 0.  1.
         12    1    5    5    0    0  0.33873196697E+02 -0.32583692233E+01 -0.14455993326E+02  0.36972776032E+02  0.00000000000E+00 0. -1.
         11    1    3    3    0    0  0.40071864038E+02  0.28674479242E+02 -0.57440329430E+03  0.57651290060E+03  0.00000000000E+00 0. -1.
        -12    1    3    3    0    0 -0.24610786368E+02 -0.19476770083E+02 -0.22664095422E+03  0.22880375326E+03  0.00000000000E+00 0.  1.
          5    1    4    4  501    0 -0.86975193852E+02 -0.32959975916E+02 -0.42712085951E+03  0.43715071244E+03  0.41800000000E+01 0. -1.
         -5    1    4    4    0  501  0.67124401789E+01  0.36582923613E+02 -0.54380908796E+03  0.54509555465E+03  0.41800000000E+01 0. -1.
</event>
<event>
11    1  0.6763327E-009  0.1381066E+03  0.7561462E-02  0.1109691E+00
         22   -1    0    0    0    0  0.00000000000E+00  0.00000000000E+00  0.19035137448E+03  0.19035137448E+03  0.00000000000E+00 0. -1.
         22   -1    0    0    0    0 -0.00000000000E+00 -0.00000000000E+00 -0.26381615589E+03  0.26381615589E+03  0.00000000000E+00 0.  1.
         24    2    1    2    0    0 -0.72059757887E+01 -0.61498917083E+02 -0.16272787319E+03  0.19173264737E+03  0.80293240458E+02 0.  0.
         25    2    1    2    0    0  0.30908944583E+02  0.38823723479E+02 -0.43553015330E+01  0.13465119947E+03  0.12509729217E+03 0.  0.
        -24    2    1    2    0    0 -0.23702968794E+02  0.22675193604E+02  0.93618393312E+02  0.12778368353E+03  0.80549804931E+02 0.  0.
        -11    1    3    3    0    0 -0.35852955840E+02 -0.68339740396E+01 -0.84837537254E+02  0.92355537847E+02  0.00000000000E+00 0.  1.
         12    1    3    3    0    0  0.28646980051E+02 -0.54664943043E+02 -0.77890335936E+02  0.99377109518E+02  0.00000000000E+00 0. -1.
         11    1    5    5    0    0 -0.48134657686E+02  0.34698653683E+02  0.69734913282E+02  0.91563638899E+02  0.00000000000E+00 0. -1.
        -12    1    5    5    0    0  0.24431688892E+02 -0.12023460079E+02  0.23883480030E+02  0.36220044627E+02  0.00000000000E+00 0.  1.
          5    1    4    4  501    0 -0.29813380519E+02  0.48259901322E+02  0.29808797486E+02  0.64217540759E+02  0.41800000000E+01 0.  1.
         -5    1    4    4    0  501  0.60722325102E+02 -0.94361778429E+01 -0.34164099019E+02  0.70433658714E+02  0.41800000000E+01 0.  1.
</event>
<event>
11    1  0.6763327E-009  0.1921729E+03  0.7561462E-02  0.1060201E+00
         22   -1    0    0    0    0  0.00000000000E+00  0.00000000000E+00  0.52893331964E+03  0.52893331964E+03  0.00000000000E+00 0. -1.
         22   -1    0    0    0    0 -0.00000000000E+00 -0.00000000000E+00 -0.14061685063E+04  0.14061685063E+04  0.00000000000E+00 0. -1.
         24    2    1    2    0    0 -0.51994787250E+02  0.23002468581E+02 -0.10025622515E+04  0.10079727597E+04  0.87438233101E+02 0.  0.
         25    2    1    2    0    0  0.18205635046E+03 -0.84764744118E+02 -0.35136828766E+03  0.42360092483E+03  0.12509393812E+03 0.  0.
        -24    2    1    2    0    0 -0.13006156321E+03  0.61762275538E+02  0.47669535251E+03  0.50352814145E+03  0.74642757308E+02 0.  0.
        -13    1    3    3    0    0 -0.28169918955E+02  0.56225472014E+02 -0.55702372776E+03  0.56056246870E+03  0.00000000000E+00 0.  1.
         14    1    3    3    0    0 -0.23824868295E+02 -0.33223003433E+02 -0.44553852378E+03  0.44741029098E+03  0.00000000000E+00 0. -1.
         11    1    5    5    0    0 -0.10925223546E+03  0.62072881163E+02  0.29502168355E+03  0.32066631768E+03  0.00000000000E+00 0. -1.
        -12    1    5    5    0    0 -0.20809327743E+02 -0.31060562547E+00  0.18167366897E+03  0.18286182377E+03  0.00000000000E+00 0.  1.
          5    1    4    4  501    0  0.12708642710E+02  0.72159243287E+01  0.69580585483E+01  0.16717240867E+02  0.41800000000E+01 0.  1.
         -5    1    4    4    0  501  0.16934770775E+03 -0.91980668447E+02 -0.35832634621E+03  0.40688368396E+03  0.41800000000E+01 0.  1.
</event>
<event>
11    1  0.7787553E-009  0.1574037E+03  0.7561462E-02  0.1089545E+00
         22   -1    0    0    0    0  0.00000000000E+00  0.00000000000E+00  0.14591216283E+04  0.14591216283E+04  0.00000000000E+00 0.  1.
         22   -1    0    0    0    0 -0.00000000000E+00 -0.00000000000E+00 -0.30703190281E+03  0.30703190281E+03  0.00000000000E+00 0.  1.
        -24    2    1    2    0    0 -0.49377070686E+02  0.52630765979E+02 -0.20414071836E+03  0.23169358403E+03  0.82464485403E+02 0.  0.
         25    2    1    2    0    0  0.14322595000E+03 -0.46430436513E+02  0.24826184965E+02  0.19731373951E+03  0.12508762589E+03 0.  0.
         24    2    1    2    0    0 -0.93848879310E+02 -0.62003294659E+01  0.13314042589E+04  0.13371462076E+04  0.80477472518E+02 0.  0.
        -11    1    5    5    0    0 -0.96886248100E+02 -0.28606026382E+02  0.11125890956E+04  0.11171659436E+04  0.00000000000E+00 0.  1.
         12    1    5    5    0    0  0.30373687906E+01  0.22405696916E+02  0.21881516329E+03  0.21998026400E+03  0.00000000000E+00 0. -1.
         13    1    3    3    0    0 -0.18526109447E+02  0.40118762254E+02 -0.27731686448E+02  0.52170664643E+02  0.00000000000E+00 0. -1.
        -14    1    3    3    0    0 -0.30850961238E+02  0.12512003726E+02 -0.17640903191E+03  0.17952291939E+03  0.00000000000E+00 0.  1.
          5    1    4    4  501    0  0.12269997634E+03 -0.23911772580E+01 -0.27446830432E+02  0.12582449214E+03  0.41800000000E+01 0. -1.
         -5    1    4    4    0  501  0.20525973658E+02 -0.44039259255E+02  0.52273015397E+02  0.71489247367E+02  0.41800000000E+01 0. -1.
</event>
<event>
11    1  0.6763327E-009  0.1336148E+03  0.7561462E-02  0.1114906E+00
         22   -1    0    0    0    0  0.00000000000E+00  0.00000000000E+00  0.14625398845E+03  0.14625398845E+03  0.00000000000E+00 0.  1.
         22   -1    0    0    0    0 -0.00000000000E+00 -0.00000000000E+00 -0.78891637041E+03  0.78891637041E+03  0.00000000000E+00 0. -1.
        -24    2    1    2    0    0 -0.61103428805E+02 -0.25128977648E+02 -0.40603913917E+03  0.41960528032E+03  0.82678378128E+02 0.  0.
         25    2    1    2    0    0  0.12590681137E+02  0.10350119114E+02 -0.34690487603E+03  0.36912833882E+03  0.12508831797E+03 0.  0.
         24    2    1    2    0    0  0.48512747668E+02  0.14778858534E+02  0.11028163323E+03  0.14643673971E+03  0.81913239244E+02 0.  0.
        -11    1    5    5    0    0 -0.15456637002E+02  0.90308536128E+01  0.66098851409E+02  0.68480085441E+02  0.00000000000E+00 0.  1.
         12    1    5    5    0    0  0.63969384670E+02  0.57480049210E+01  0.44182781825E+02  0.77956654273E+02  0.00000000000E+00 0. -1.
         11    1    3    3    0    0 -0.22063021629E+02 -0.76282428952E+00 -0.32990702478E+03  0.33064483033E+03  0.00000000000E+00 0. -1.
        -12    1    3    3    0    0 -0.39040407175E+02 -0.24366153358E+02 -0.76132114384E+02  0.88960449991E+02  0.00000000000E+00 0.  1.
          5    1    4    4  501    0 -0.12029573223E+01 -0.53033820116E+02 -0.94128851013E+02  0.10812837821E+03  0.41800000000E+01 0. -1.
         -5    1    4    4    0  501  0.13793638459E+02  0.63383939230E+02 -0.25277602502E+03  0.26099996061E+03  0.41800000000E+01 0. -1.
</event>
<event>
11    1  0.6763327E-009  0.1696289E+03  0.7561462E-02  0.1078355E+00
         22   -1    0    0    0    0  0.00000000000E+00  0.00000000000E+00  0.43437092765E+03  0.43437092765E+03  0.00000000000E+00 0. -1.
         22   -1    0    0    0    0 -0.00000000000E+00 -0.00000000000E+00 -0.20996251225E+03  0.20996251225E+03  0.00000000000E+00 0. -1.
        -24    2    1    2    0    0  0.23315607577E+02 -0.70302465298E+02 -0.29202564630E+01  0.10941625424E+03  0.80481889948E+02 0.  0.
         25    2    1    2    0    0 -0.69191536827E+02  0.16717956080E+03 -0.50937830161E+02  0.22578419402E+03  0.12508942965E+03 0.  0.
         24    2    1    2    0    0  0.45875929251E+02 -0.96877095500E+02  0.27826650202E+03  0.30913299164E+03  0.81493483553E+02 0.  0.
        -13    1    5    5    0    0  0.38356075809E+01 -0.92269268543E+02  0.18908541474E+03  0.21043199346E+03  0.00000000000E+00 0.  1.
         14    1    5    5    0    0  0.42040321670E+02 -0.46078269566E+01  0.89181087276E+02  0.98700998187E+02  0.00000000000E+00 0. -1.
         13    1    3    3    0    0  0.28186643172E+02 -0.20705953321E+02 -0.35533378810E+02  0.49858242707E+02  0.00000000000E+00 0. -1.
        -14    1    3    3    0    0 -0.48710355952E+01 -0.49596511977E+02  0.32613122347E+02  0.59558011529E+02  0.00000000000E+00 0.  1.
          5    1    4    4  501    0  0.17649706926E+02  0.88754585944E+01  0.23019179869E+02  0.30620923593E+02  0.41800000000E+01 0.  1.
         -5    1    4    4    0  501 -0.86841243754E+02  0.15830410220E+03 -0.73957010031E+02  0.19516327043E+03  0.41800000000E+01 0.  1.
</event>
<event>
11    1  0.6763327E-009  0.1402784E+03  0.7561462E-02  0.1107248E+00
         22   -1    0    0    0    0  0.00000000000E+00  0.00000000000E+00  0.39303135019E+03  0.39303135019E+03  0.00000000000E+00 0. -1.
         22   -1    0    0    0    0 -0.00000000000E+00 -0.00000000000E+00 -0.14873325100E+04  0.14873325100E+04  0.00000000000E+00 0. -1.
         24    2    1    2    0    0 -0.55914914772E+01  0.15449421246E+02 -0.13856238275E+04  0.13879946380E+04  0.79408905396E+02 0.  0.
         25    2    1    2    0    0  0.12706130893E+02 -0.77287210445E+02 -0.33999632394E+02  0.15145377366E+03  0.12509001515E+03 0.  0.
        -24    2    1    2    0    0 -0.71146394156E+01  0.61837789199E+02  0.32532230007E+03  0.34091544859E+03  0.80710680215E+02 0.  0.
        -11    1    3    3    0    0 -0.27929964129E+02 -0.20440934496E+02 -0.41112736190E+03  0.41258165544E+03  0.00000000000E+00 0.  1.
         12    1    3    3    0    0  0.22338472651E+02  0.35890355743E+02 -0.97449646562E+03  0.97541298254E+03  0.00000000000E+00 0. -1.
         13    1    5    5    0    0 -0.32200917514E+00  0.14250089027E+02  0.25690063671E+03  0.25729575564E+03  0.00000000000E+00 0. -1.
        -14    1    5    5    0    0 -0.67926302405E+01  0.47587700172E+02  0.68421663357E+02  0.83619692954E+02  0.00000000000E+00 0.  1.
          5    1    4    4  501    0 -0.38701647809E+02 -0.10288235519E+01  0.20970930952E+02  0.44228139980E+02  0.41800000000E+01 0.  1.
         -5    1    4    4    0  501  0.51407778702E+02 -0.76258386893E+02 -0.54970563347E+02  0.10722563368E+03  0.41800000000E+01 0.  1.
</event>
<event>
11    1  0.6763327E-009  0.1346588E+03  0.7561462E-02  0.1113674E+00
         22   -1    0    0    0    0  0.00000000000E+00  0.00000000000E+00  0.39740712687E+02  0.39740712687E+02  0.00000000000E+00 0. -1.
         22   -1    0    0    0    0 -0.00000000000E+00 -0.00000000000E+00 -0.17164013854E+04  0.17164013854E+04  0.00000000000E+00 0.  1.
         24    2    1    2    0    0  0.51240380929E+02 -0.18978071841E+01 -0.13292248829E+04  0.13326292297E+04  0.80204090366E+02 0.  0.
         25    2    1    2    0    0 -0.16674099227E+02  0.47359874655E+02 -0.25263788091E+03  0.28634621577E+03  0.12508906068E+03 0.  0.
        -24    2    1    2    0    0 -0.34566281702E+02 -0.45462067471E+02 -0.94797908845E+02  0.13716665260E+03  0.81033447757E+02 0.  0.
        -13    1    3    3    0    0  0.73054238767E+02 -0.85114943971E+00 -0.10653405728E+04  0.10678427704E+04  0.00000000000E+00 0.  1.
         14    1    3    3    0    0 -0.21813857838E+02 -0.10466577444E+01 -0.26388431014E+03  0.26478645930E+03  0.00000000000E+00 0. -1.
         11    1    5    5    0    0 -0.42732609919E+02 -0.36956075490E+02 -0.17746130762E+02  0.59217840412E+02  0.00000000000E+00 0. -1.
        -12    1    5    5    0    0  0.81663282169E+01 -0.85059919813E+01 -0.77051778083E+02  0.77948812190E+02  0.00000000000E+00 0.  1.
          5    1    4    4  501    0  0.38951341233E+02  0.62590164419E+02 -0.17142035916E+03  0.18664712053E+03  0.41800000000E+01 0.  1.
         -5    1    4    4    0  501 -0.55625440460E+02 -0.15230289764E+02 -0.81217521749E+02  0.99699095241E+02  0.41800000000E+01 0.  1.
</event>
<event>
11    1  0.6763327E-009  0.2125731E+03  0.7561462E-02  0.1045972E+00
         22   -1    0    0    0    0  0.00000000000E+00  0.00000000000E+00  0.67313763333E+03  0.67313763333E+03  0.00000000000E+00 0. -1.
         22   -1    0    0    0    0 -0.00000000000E+00 -0.00000000000E+00 -0.12128649356E+04  0.12128649356E+04  0.00000000000E+00 0. -1.
        -24    2    1    2    0    0 -0.53138480539E+02  0.67854054132E+02 -0.11014172273E+04  0.11078313793E+04  0.82113248358E+02 0.  0.
         25    2    1    2    0    0  0.56944184258E+02 -0.22872568878E+03  0.10345023788E+03  0.28619487504E+03  0.12508986351E+03 0.  0.
         24    2    1    2    0    0 -0.38057037195E+01  0.16087163465E+03  0.45823968715E+03  0.49197631461E+03  0.78504248531E+02 0.  0.
        -13    1    5    5    0    0  0.16875082177E+01 -0.24987905044E+01  0.78387559971E+02  0.78445530122E+02  0.00000000000E+00 0.  1.
         14    1    5    5    0    0 -0.54932119372E+01  0.16337042516E+03  0.37985212718E+03  0.41353078448E+03  0.00000000000E+00 0. -1.
         11    1    3    3    0    0 -0.50513514267E+02  0.81102195597E+01 -0.71348562768E+03  0.71531750411E+03  0.00000000000E+00 0. -1.
        -12    1    3    3    0    0 -0.26249662711E+01  0.59743834572E+02 -0.38793159960E+03  0.39251387515E+03  0.00000000000E+00 0.  1.
          5    1    4    4  501    0  0.17676809747E+02 -0.34154470427E+02 -0.28289528237E+02  0.47924599747E+02  0.41800000000E+01 0. -1.
         -5    1    4    4    0  501  0.39267374511E+02 -0.19457121836E+03  0.13173976611E+03  0.23827027530E+03  0.41800000000E+01 0. -1.
</event>
<event>
11    1  0.6763327E-009  0.1454738E+03  0.7561462E-02  0.1101595E+00
         22   -1    0    0    0    0  0.00000000000E+00  0.00000000000E+00  0.13819442731E+04  0.13819442731E+04  0.00000000000E+00 0.  1.
         22   -1    0    0    0    0 -0.00000000000E+00 -0.00000000000E+00 -0.30348361429E+03  0.30348361429E+03  0.00000000000E+00 0. -1.
        -24    2    1    2    0    0 -0.55294910794E+02  0.47390682282E+02 -0.25134750306E+03  0.27484489745E+03  0.84028247844E+02 0.  0.
         25    2    1    2    0    0  0.51656006234E+02  0.29879860697E+02  0.89355013139E+02  0.16492426716E+03  0.12511813006E+03 0.  0.
         24    2    1    2    0    0  0.36389045606E+01 -0.77270542979E+02  0.12404531487E+04  0.12456587228E+04  0.83412595107E+02 0.  0.
        -13    1    5    5    0    0  0.32249303548E+02 -0.54264945912E+02  0.10370198280E+04  0.10389392790E+04  0.00000000000E+00 0.  1.
         14    1    5    5    0    0 -0.28610398987E+02 -0.23005597067E+02  0.20343332075E+03  0.20671944373E+03  0.00000000000E+00 0. -1.
         11    1    3    3    0    0 -0.18077468602E+02  0.40257251277E+02 -0.22350821388E+03  0.22782309545E+03  0.00000000000E+00 0. -1.
        -12    1    3    3    0    0 -0.37217442192E+02  0.71334310046E+01 -0.27839289181E+02  0.47021801999E+02  0.00000000000E+00 0.  1.
          5    1    4    4  501    0 -0.31780741910E+02  0.31971752812E+02  0.39656912587E+01  0.45446756115E+02  0.41800000000E+01 0. -1.
         -5    1    4    4    0  501  0.83436748144E+02 -0.20918921151E+01  0.85389321880E+02  0.11947751104E+03  0.41800000000E+01 0. -1.
</event>
<event>
11    1  0.6763327E-009  0.2663072E+03  0.7561462E-02  0.1015554E+00
         22   -1    0    0    0    0  0.00000000000E+00  0.00000000000E+00  0.16088624696E+03  0.16088624696E+03  0.00000000000E+00 0.  1.
         22   -1    0    0    0    0 -0.00000000000E+00 -0.00000000000E+00 -0.15451967369E+04  0.15451967369E+04  0.00000000000E+00 0.  1.
        -24    2    1    2    0    0  0.15165017879E+03 -0.17702132045E+03 -0.12599404520E+04  0.12838431486E+04  0.80429862943E+02 0.  0.
         25    2    1    2    0    0 -0.11642877268E+03  0.22799971970E+03 -0.14330448138E+03  0.31894113935E+03  0.12509094571E+03 0.  0.
         24    2    1    2    0    0 -0.35221406112E+02 -0.50978399250E+02  0.18934443494E+02  0.10329869591E+03  0.80453482130E+02 0.  0.
        -11    1    5    5    0    0 -0.34785773791E+02 -0.31289875684E+02  0.48747873924E+02  0.67568199551E+02  0.00000000000E+00 0.  1.
         12    1    5    5    0    0 -0.43563232174E+00 -0.19688523566E+02 -0.29813430430E+02  0.35730496354E+02  0.00000000000E+00 0. -1.
         11    1    3    3    0    0 -0.11804974045E+01 -0.21665436846E+02 -0.51097590840E+02  0.55513498516E+02  0.00000000000E+00 0. -1.
        -12    1    3    3    0    0  0.15283067619E+03 -0.15535588361E+03 -0.12088428612E+04  0.12283296501E+04  0.00000000000E+00 0.  1.
          5    1    4    4  501    0 -0.24118389332E+02  0.18487911801E+02 -0.73355658827E+02  0.79511160654E+02  0.41800000000E+01 0. -1.
         -5    1    4    4    0  501 -0.92310383344E+02  0.20951180790E+03 -0.69948822552E+02  0.23942997870E+03  0.41800000000E+01 0. -1.
</event>
<event>
11    1  0.6763327E-009  0.1271845E+03  0.7561462E-02  0.1122777E+00
         22   -1    0    0    0    0  0.00000000000E+00  0.00000000000E+00  0.10013671976E+04  0.10013671976E+04  0.00000000000E+00 0.  1.
         22   -1    0    0    0    0 -0.00000000000E+00 -0.00000000000E+00 -0.92828328958E+03  0.92828328958E+03  0.00000000000E+00 0. -1.
        -24    2    1    2    0    0 -0.12220428567E+02 -0.13847379443E+02 -0.83673593387E+03  0.84085703949E+03  0.81070642365E+02 0.  0.
         25    2    1    2    0    0 -0.60973485810E+01  0.27764111369E+02 -0.40665441179E+02  0.13457167572E+03  0.12509130369E+03 0.  0.
         24    2    1    2    0    0  0.18317777148E+02 -0.13916731926E+02  0.95048528304E+03  0.95422177195E+03  0.81164649971E+02 0.  0.
        -11    1    5    5    0    0  0.96304407640E+01  0.81327954600E+01  0.87527946881E+03  0.87537022812E+03  0.00000000000E+00 0.  1.
         12    1    5    5    0    0  0.86873363842E+01 -0.22049527386E+02  0.75205814231E+02  0.78851543838E+02  0.00000000000E+00 0. -1.
         11    1    3    3    0    0 -0.41896145145E+01 -0.25465768452E+02 -0.81171391555E+03  0.81212409085E+03  0.00000000000E+00 0. -1.
        -12    1    3    3    0    0 -0.80308140527E+01  0.11618389009E+02 -0.25022018313E+02  0.28732948647E+02  0.00000000000E+00 0.  1.
          5    1    4    4  501    0  0.45701889954E+02  0.13874793439E+02  0.21345207491E+02  0.52481072028E+02  0.41800000000E+01 0. -1.
         -5    1    4    4    0  501 -0.51799238535E+02  0.13889317930E+02 -0.62010648670E+02  0.82090603688E+02  0.41800000000E+01 0. -1.
</event>
<event>
11    1  0.6763327E-009  0.1797285E+03  0.7561462E-02  0.1069863E+00
         22   -1    0    0    0    0  0.00000000000E+00  0.00000000000E+00  0.11332327186E+04  0.11332327186E+04  0.00000000000E+00 0. -1.
         22   -1    0    0    0    0 -0.00000000000E+00 -0.00000000000E+00 -0.23730337999E+03  0.23730337999E+03  0.00000000000E+00 0. -1.
        -24    2    1    2    0    0  0.28182198401E+02 -0.59401977834E+01 -0.15501126501E+03  0.17676841071E+03  0.79931573792E+02 0.  0.
         25    2    1    2    0    0 -0.28167116612E+02  0.13450221493E+03  0.65807633293E+02  0.19713115300E+03  0.12508323071E+03 0.  0.
         24    2    1    2    0    0 -0.15081789595E-01 -0.12856201714E+03  0.98513297035E+03  0.99663653489E+03  0.79178412115E+02 0.  0.
        -13    1    5    5    0    0 -0.38268284803E+02 -0.45053724524E+02  0.37734114817E+03  0.38194324424E+03  0.00000000000E+00 0.  1.
         14    1    5    5    0    0  0.38253203014E+02 -0.83508292617E+02  0.60779182217E+03  0.61469329066E+03  0.00000000000E+00 0. -1.
         11    1    3    3    0    0  0.10031361695E+02 -0.40574074210E+02 -0.10684209715E+03  0.11472627179E+03  0.00000000000E+00 0. -1.
        -12    1    3    3    0    0  0.18150836707E+02  0.34633876427E+02 -0.48169167858E+02  0.62042138919E+02  0.00000000000E+00 0.  1.
          5    1    4    4  501    0 -0.67158839158E+02  0.11899220577E+03  0.72009510901E+02  0.15450662371E+03  0.41800000000E+01 0.  1.
         -5    1    4    4    0  501  0.38991722547E+02  0.15510009159E+02 -0.62018776074E+01  0.42624529289E+02  0.41800000000E+01 0.  1.
</event>
<event>
11    1  0.6763327E-009  0.1643216E+03  0.7561462E-02  0.1083082E+00
         22   -1    0    0    0    0  0.00000000000E+00  0.00000000000E+00  0.86434932433E+02  0.86434932433E+02  0.00000000000E+00 0.  1.
         22   -1    0    0    0    0 -0.00000000000E+00 -0.00000000000E+00 -0.99283608893E+03  0.99283608893E+03  0.00000000000E+00 0.  1.
         24    2    1    2    0    0 -0.10459447193E+03 -0.48607380173E+01 -0.71153384558E+03  0.72380627098E+03  0.81556570385E+02 0.  0.
         25    2    1    2    0    0  0.11630698274E+03 -0.19325429476E+02 -0.21080495775E+03  0.27200615274E+03  0.12509128851E+03 0.  0.
        -24    2    1    2    0    0 -0.11712510814E+02  0.24186167493E+02  0.15937646835E+02  0.83458597636E+02  0.77389762406E+02 0.  0.
        -11    1    3    3    0    0 -0.96218375668E+02  0.26116657567E+02 -0.49887887580E+03  0.50874373543E+03  0.00000000000E+00 0.  1.
         12    1    3    3    0    0 -0.83760962580E+01 -0.30977395584E+02 -0.21265496978E+03  0.21506253555E+03  0.00000000000E+00 0. -1.
         13    1    5    5    0    0  0.14348807297E+02 -0.12867242919E+02  0.30322234386E+02  0.35928987035E+02  0.00000000000E+00 0. -1.
        -14    1    5    5    0    0 -0.26061318111E+02  0.37053410413E+02 -0.14384587551E+02  0.47529610601E+02  0.00000000000E+00 0.  1.
          5    1    4    4  501    0  0.71128771411E+02 -0.68290781616E+02 -0.87990686331E+02  0.13222241208E+03  0.41800000000E+01 0.  1.
         -5    1    4    4    0  501  0.45178211328E+02  0.48965352140E+02 -0.12281427142E+03  0.13978374066E+03  0.41800000000E+01 0.  1.
</event>
<event>
11    1  0.6763327E-009  0.1499716E+03  0.7561462E-02  0.1096908E+00
         22   -1    0    0    0    0  0.00000000000E+00  0.00000000000E+00  0.11802763585E+03  0.11802763585E+03  0.00000000000E+00 0.  1.
         22   -1    0    0    0    0 -0.00000000000E+00 -0.00000000000E+00 -0.87963846899E+03  0.87963846899E+03  0.00000000000E+00 0. -1.
         24    2    1    2    0    0  0.83178914211E+02  0.22364748812E+02 -0.46860358143E+03  0.48314060422E+03  0.80103764927E+02 0.  0.
         25    2    1    2    0    0  0.44130880459E+00 -0.52800833918E+02 -0.35471032956E+03  0.37980832687E+03  0.12508726734E+03 0.  0.
        -24    2    1    2    0    0 -0.83620223015E+02  0.30436085106E+02  0.61703077854E+02  0.13471717375E+03  0.80142062065E+02 0.  0.
        -13    1    3    3    0    0 -0.92446534029E+01 -0.13050048678E+02 -0.10890714821E+03  0.11007513034E+03  0.00000000000E+00 0.  1.
         14    1    3    3    0    0  0.92423567614E+02  0.35414797490E+02 -0.35969643322E+03  0.37306547388E+03  0.00000000000E+00 0. -1.
         13    1    5    5    0    0  0.12382112707E+02  0.17225082075E+02  0.30217253023E+01  0.21427808833E+02  0.00000000000E+00 0. -1.
        -14    1    5    5    0    0 -0.96002335723E+02  0.13211003031E+02  0.58681352551E+02  0.11328936491E+03  0.00000000000E+00 0.  1.
          5    1    4    4  501    0  0.73344013331E+01  0.40366199128E+02 -0.13103421259E+03  0.13737052356E+03  0.41800000000E+01 0.  1.
         -5    1    4    4    0  501 -0.68930925285E+01 -0.93167033046E+02 -0.22367611697E+03  0.24243780331E+03  0.41800000000E+01 0.  1.
</event>
<event>
11    1  0.6763327E-009  0.1443024E+03  0.7561462E-02  0.1102847E+00
         22   -1    0    0    0    0  0.00000000000E+00  0.00000000000E+00  0.11372421583E+04  0.11372421583E+04  0.00000000000E+00 0. -1.
         22   -1    0    0    0    0 -0.00000000000E+00 -0.00000000000E+00 -0.46860941783E+02  0.46860941783E+02  0.00000000000E+00 0. -1.
        -24    2    1    2    0    0  0.15236506577E+02  0.15547373231E+02  0.36489632918E+02  0.98485330355E+02  0.88848157198E+02 0.  0.
         25    2    1    2    0    0 -0.54046503106E+02  0.46582083187E+02  0.46563808053E+03  0.48739640650E+03  0.12508205328E+03 0.  0.
         24    2    1    2    0    0  0.38809996529E+02 -0.62129456418E+02  0.58825350302E+03  0.59822136318E+03  0.80376180358E+02 0.  0.
        -13    1    5    5    0    0  0.54669434618E+01 -0.37099273736E+02  0.81023397366E+02  0.89280650217E+02  0.00000000000E+00 0.  1.
         14    1    5    5    0    0  0.33343053067E+02 -0.25030182682E+02  0.50723010565E+03  0.50894071297E+03  0.00000000000E+00 0. -1.
         13    1    3    3    0    0  0.56273499859E+01  0.50902580235E+02  0.74858650846E+01  0.51756911794E+02  0.00000000000E+00 0. -1.
        -14    1    3    3    0    0  0.96091565912E+01 -0.35355207003E+02  0.29003767833E+02  0.46728418560E+02  0.00000000000E+00 0.  1.
          5    1    4    4  501    0  0.38389569415E+02 -0.14149122499E+01  0.10057454948E+03  0.10774262583E+03  0.41800000000E+01 0.  1.
         -5    1    4    4    0  501 -0.92436072521E+02  0.47996995436E+02  0.36506353105E+03  0.37965378067E+03  0.41800000000E+01 0.  1.
</event>
<event>
11    1  0.6763327E-009  0.1730273E+03  0.7561462E-02  0.1075427E+00
         22   -1    0    0    0    0  0.00000000000E+00  0.00000000000E+00  0.47139885549E+03  0.47139885549E+03  0.00000000000E+00 0.  1.
         22   -1    0    0    0    0 -0.00000000000E+00 -0.00000000000E+00 -0.19553491307E+03  0.19553491307E+03  0.00000000000E+00 0.  1.
         24    2    1    2    0    0  0.22756653245E+02 -0.11842024225E+03 -0.10489829784E+03  0.17861674395E+03  0.79743772730E+02 0.  0.
         25    2    1    2    0    0 -0.42293470579E+02  0.10880496666E+03  0.10589786816E+03  0.20122072287E+03  0.12509261531E+03 0.  0.
        -24    2    1    2    0    0  0.19536817335E+02  0.96152755823E+01  0.27486437210E+03  0.28709630174E+03  0.79998266639E+02 0.  0.
        -13    1    3    3    0    0  0.30460626097E+02 -0.89198855704E+02 -0.11317399256E+03  0.14728420891E+03  0.00000000000E+00 0.  1.
         14    1    3    3    0    0 -0.77039728520E+01 -0.29221386543E+02  0.82756947209E+01  0.31332535044E+02  0.00000000000E+00 0. -1.
         11    1    5    5    0    0  0.89198012682E+01 -0.35336164075E+02  0.13295567141E+03  0.13786013893E+03  0.00000000000E+00 0. -1.
        -12    1    5    5    0    0  0.10617016066E+02  0.44951439657E+02  0.14190870069E+03  0.14923616281E+03  0.00000000000E+00 0.  1.
          5    1    4    4  501    0 -0.31373442014E+02  0.12179240606E+03  0.12357138843E+03  0.17636621977E+03  0.41800000000E+01 0.  1.
         -5    1    4    4    0  501 -0.10920028565E+02 -0.12987439391E+02 -0.17673520268E+02  0.24854503102E+02  0.41800000000E+01 0.  1.
</event>
<event>
11    1  0.6763327E-009  0.1310041E+03  0.7561462E-02  0.1118041E+00
         22   -1    0    0    0    0  0.00000000000E+00  0.00000000000E+00  0.86294250182E+02  0.86294250182E+02  0.00000000000E+00 0. -1.
         22   -1    0    0    0    0 -0.00000000000E+00 -0.00000000000E+00 -0.15645808871E+04  0.15645808871E+04  0.00000000000E+00 0.  1.
         24    2    1    2    0    0  0.54128470975E+01 -0.74651734013E+01 -0.14010806510E+04  0.14034833460E+04  0.81568892037E+02 0.  0.
         25    2    1    2    0    0 -0.27347846280E+02  0.37063985464E+02 -0.90553969432E+02  0.16115099667E+03  0.12509188077E+03 0.  0.
        -24    2    1    2    0    0  0.21934999182E+02 -0.29598812063E+02  0.13347983510E+02  0.86240794617E+02  0.76824944697E+02 0.  0.
        -11    1    3    3    0    0  0.34470886909E+01  0.16731042301E+02 -0.12734465625E+04  0.12735611323E+04  0.00000000000E+00 0.  1.
         12    1    3    3    0    0  0.19657584066E+01 -0.24196215702E+02 -0.12763408851E+03  0.12992221369E+03  0.00000000000E+00 0. -1.
         11    1    5    5    0    0 -0.21021269721E+02 -0.11410169373E+02  0.28487617430E+02  0.37197178557E+02  0.00000000000E+00 0. -1.
        -12    1    5    5    0    0  0.42956268903E+02 -0.18188642690E+02 -0.15139633920E+02  0.49043616060E+02  0.00000000000E+00 0.  1.
          5    1    4    4  501    0 -0.25279228994E+02 -0.90244507875E+01  0.24837523512E+02  0.36808356453E+02  0.41800000000E+01 0. -1.
         -5    1    4    4    0  501 -0.20686172856E+01  0.46088436251E+02 -0.11539149294E+03  0.12434264022E+03  0.41800000000E+01 0. -1.
</event>
<event>
11    1  0.6763327E-009  0.1686452E+03  0.7561462E-02  0.1079217E+00
         22   -1    0    0    0    0  0.00000000000E+00  0.00000000000E+00  0.22238497180E+04  0.22238497180E+04  0.00000000000E+00 0. -1.
         22   -1    0    0    0    0 -0.00000000000E+00 -0.00000000000E+00 -0.21613441008E+03  0.21613441008E+03  0.00000000000E+00 0.  1.
        -24    2    1    2    0    0 -0.83521182615E+02 -0.73441499640E+02 -0.17570849052E+03  0.22268077958E+03  0.79648064257E+02 0.  0.
         25    2    1    2    0    0  0.13701211040E+03  0.16094634172E+03  0.11821543224E+04  0.12073991495E+04  0.12509125052E+03 0.  0.
         24    2    1    2    0    0 -0.53490927782E+02 -0.87504842078E+02  0.10012694760E+04  0.10099041990E+04  0.82749928982E+02 0.  0.
        -13    1    5    5    0    0  0.44085289521E+01 -0.16800499812E+02  0.32644292859E+02  0.36977584801E+02  0.00000000000E+00 0.  1.
         14    1    5    5    0    0 -0.57899456734E+02 -0.70704342266E+02  0.96862518317E+03  0.97292661418E+03  0.00000000000E+00 0. -1.
         11    1    3    3    0    0 -0.31993898976E+02  0.97816690281E+00 -0.94430416180E+01  0.33372704673E+02  0.00000000000E+00 0. -1.
        -12    1    3    3    0    0 -0.51527283639E+02 -0.74419666543E+02 -0.16626544890E+03  0.18930807491E+03  0.00000000000E+00 0.  1.
          5    1    4    4  501    0  0.63972990881E+02  0.15596826801E+03  0.72143703355E+03  0.74088292595E+03  0.41800000000E+01 0.  1.
         -5    1    4    4    0  501  0.73039119516E+02  0.49780737116E+01  0.46071728889E+03  0.46651622360E+03  0.41800000000E+01 0.  1.
</event>
<event>
11    1  0.6763327E-009  0.1646931E+03  0.7561462E-02  0.1082744E+00
         22   -1    0    0    0    0  0.00000000000E+00  0.00000000000E+00  0.18051401160E+04  0.18051401160E+04  0.00000000000E+00 0.  1.
         22   -1    0    0    0    0 -0.00000000000E+00 -0.00000000000E+00 -0.37096134675E+02  0.37096134675E+02  0.00000000000E+00 0.  1.
         24    2    1    2    0    0 -0.84986993412E+02 -0.40307291473E+01  0.14814188558E+03  0.18835866134E+03  0.79334300357E+02 0.  0.
         25    2    1    2    0    0  0.13576651270E+03 -0.74555708090E+02  0.79003031462E+03  0.81473031322E+03  0.12508591319E+03 0.  0.
        -24    2    1    2    0    0 -0.50779519284E+02  0.78586437238E+02  0.82987178116E+03  0.83914727615E+03  0.82015792412E+02 0.  0.
        -11    1    3    3    0    0 -0.46973496278E+02  0.26758070925E+02  0.33201594792E+02  0.63441702444E+02  0.00000000000E+00 0.  1.
         12    1    3    3    0    0 -0.38013497134E+02 -0.30788800073E+02  0.11494029079E+03  0.12491695890E+03  0.00000000000E+00 0. -1.
         13    1    5    5    0    0 -0.12020356889E+02 -0.49641663378E+01  0.36541776319E+03  0.36564911265E+03  0.00000000000E+00 0. -1.
        -14    1    5    5    0    0 -0.38759162395E+02  0.83550603576E+02  0.46445401797E+03  0.47349816349E+03  0.00000000000E+00 0.  1.
          5    1    4    4  501    0  0.18257981565E+02 -0.64272641720E+02  0.15523946170E+03  0.16905942516E+03  0.41800000000E+01 0.  1.
         -5    1    4    4    0  501  0.11750853113E+03 -0.10283066371E+02  0.63479085292E+03  0.64567088806E+03  0.41800000000E+01 0.  1.
</event>
<event>
11    1  0.6763327E-009  0.1430510E+03  0.7561462E-02  0.1104199E+00
         22   -1    0    0    0    0  0.00000000000E+00  0.00000000000E+00  0.72610018245E+03  0.72610018245E+03  0.00000000000E+00 0. -1.
         22   -1    0    0    0    0 -0.00000000000E+00 -0.00000000000E+00 -0.86510234238E+03  0.86510234238E+03  0.00000000000E+00 0.  1.
        -24    2    1    2    0    0  0.65145174973E+02  0.12608177556E+01 -0.52071421425E+03  0.53000688531E+03  0.74286755644E+02 0.  0.
         25    2    1    2    0    0 -0.10413316875E+02 -0.44862799753E+02 -0.32254564690E+03  0.34900582341E+03  0.12509301527E+03 0.  0.
         24    2    1    2    0    0 -0.54731858098E+02  0.43601981997E+02  0.70425770123E+03  0.71218981612E+03  0.79616049400E+02 0.  0.
        -13    1    5    5    0    0 -0.51748182062E+02  0.58906201374E+02  0.40463862496E+03  0.41216529660E+03  0.00000000000E+00 0.  1.
         14    1    5    5    0    0 -0.29836760359E+01 -0.15304219377E+02  0.29961907626E+03  0.30002451952E+03  0.00000000000E+00 0. -1.
         11    1    3    3    0    0 -0.11755933295E+01 -0.12511416225E+02 -0.14111127931E+02  0.18895541461E+02  0.00000000000E+00 0. -1.
        -12    1    3    3    0    0  0.66320768302E+02  0.13772233980E+02 -0.50660308632E+03  0.51111134385E+03  0.00000000000E+00 0.  1.
          5    1    4    4  501    0 -0.69096554278E+01  0.32917171384E+02 -0.26956632008E+02  0.43306072545E+02  0.41800000000E+01 0. -1.
         -5    1    4    4    0  501 -0.35036614469E+01 -0.77779971136E+02 -0.29558901490E+03  0.30569975087E+03  0.41800000000E+01 0. -1.
</event>
<event>
11    1  0.6763327E-009  0.3314742E+03  0.7561462E-02  0.9876856E-01
         22   -1    0    0    0    0  0.00000000000E+00  0.00000000000E+00  0.15329339754E+04  0.15329339754E+04  0.00000000000E+00 0.  1.
         22   -1    0    0    0    0 -0.00000000000E+00 -0.00000000000E+00 -0.47078903755E+03  0.47078903755E+03  0.00000000000E+00 0. -1.
        -24    2    1    2    0    0  0.25544865018E+03 -0.11226999484E+03 -0.16143070063E+03  0.33221019138E+03  0.80281850564E+02 0.  0.
         25    2    1    2    0    0 -0.46291954457E+03  0.30428122620E+03  0.19288172888E+03  0.59977625698E+03  0.12508648104E+03 0.  0.
         24    2    1    2    0    0  0.20747089439E+03 -0.19201123136E+03  0.10306939096E+04  0.10717365646E+04  0.79855141438E+02 0.  0.
        -13    1    5    5    0    0  0.19722032299E+03 -0.16115548386E+03  0.82284284995E+03  0.86135782430E+03  0.00000000000E+00 0.  1.
         14    1    5    5    0    0  0.10250571403E+02 -0.30855747499E+02  0.20785105967E+03  0.21037874031E+03  0.00000000000E+00 0. -1.
         11    1    3    3    0    0  0.14079857626E+03 -0.35913724757E+02 -0.11975077704E+03  0.18829307822E+03  0.00000000000E+00 0. -1.
        -12    1    3    3    0    0  0.11465007392E+03 -0.76356270081E+02 -0.41679923592E+02  0.14391711316E+03  0.00000000000E+00 0.  1.
          5    1    4    4  501    0 -0.13396650141E+03  0.92566993450E+02  0.11879311029E+03  0.20160592062E+03  0.41800000000E+01 0. -1.
         -5    1    4    4    0  501 -0.32895304316E+03  0.21171423275E+03  0.74088618587E+02  0.39817033636E+03  0.41800000000E+01 0. -1.
</event>
<event>
11    1  0.6763327E-009  0.1534289E+03  0.7561462E-02  0.1093426E+00
         22   -1    0    0    0    0  0.00000000000E+00  0.00000000000E+00  0.11066202788E+04  0.11066202788E+04  0.00000000000E+00 0. -1.
         22   -1    0    0    0    0 -0.00000000000E+00 -0.00000000000E+00 -0.10229048298E+04  0.10229048298E+04  0.00000000000E+00 0.  1.
         24    2    1    2    0    0  0.81431241361E+02 -0.37767197941E+02 -0.99113340234E+03  0.99815737691E+03  0.76911114421E+02 0.  0.
         25    2    1    2    0    0 -0.80823859811E+01  0.67082487235E+02  0.17947029460E+03  0.22895572199E+03  0.12508297619E+03 0.  0.
        -24    2    1    2    0    0 -0.73348855380E+02 -0.29315289294E+02  0.89537855679E+03  0.90241200972E+03  0.80032709220E+02 0.  0.
        -11    1    3    3    0    0  0.52069893736E+02 -0.22003372466E+02 -0.88748046273E+03  0.88927891798E+03  0.00000000000E+00 0.  1.
         12    1    3    3    0    0  0.29361347625E+02 -0.15763825474E+02 -0.10365293961E+03  0.10887845892E+03  0.00000000000E+00 0. -1.
         13    1    5    5    0    0 -0.32935214224E+02 -0.44568524382E+02  0.70590120656E+03  0.70807315662E+03  0.00000000000E+00 0. -1.
        -14    1    5    5    0    0 -0.40413641156E+02  0.15253235088E+02  0.18947735023E+03  0.19433885309E+03  0.00000000000E+00 0.  1.
          5    1    4    4  501    0 -0.16724451414E+02 -0.33797288127E+02  0.71090392982E+02  0.80580893108E+02  0.41800000000E+01 0. -1.
         -5    1    4    4    0  501  0.86420654331E+01  0.10087977536E+03  0.10837990162E+03  0.14837482889E+03  0.41800000000E+01 0. -1.
</event>
<event>
11    1  0.6763327E-009  0.1296150E+03  0.7561462E-02  0.1119743E+00
         22   -1    0    0    0    0  0.00000000000E+00  0.00000000000E+00  0.56344955943E+03  0.56344955943E+03  0.00000000000E+00 0.  1.
         22   -1    0    0    0    0 -0.00000000000E+00 -0.00000000000E+00 -0.13491667063E+03  0.13491667063E+03  0.00000000000E+00 0.  1.
         24    2    1    2    0    0 -0.32527166933E+02 -0.80063915123E+00 -0.84637536949E+02  0.12128718106E+03  0.80550667386E+02 0.  0.
         25    2    1    2    0    0  0.45927385506E+02  0.13895780019E+02  0.13567635785E+03  0.19067822662E+03  0.12509074540E+03 0.  0.
        -24    2    1    2    0    0 -0.13400218573E+02 -0.13095140868E+02  0.37749406790E+03  0.38640082238E+03  0.80329170675E+02 0.  0.
        -11    1    3    3    0    0 -0.45833887088E+02  0.22289311286E+02 -0.79053535119E+02  0.94058598852E+02  0.00000000000E+00 0.  1.
         12    1    3    3    0    0  0.13306720155E+02 -0.23089950438E+02 -0.55840018302E+01  0.27228582206E+02  0.00000000000E+00 0. -1.
         11    1    5    5    0    0 -0.37310454843E+01  0.34040649750E+02  0.16746680682E+03  0.17093220270E+03  0.00000000000E+00 0. -1.
        -12    1    5    5    0    0 -0.96691730883E+01 -0.47135790618E+02  0.21002726109E+03  0.21546861967E+03  0.00000000000E+00 0.  1.
          5    1    4    4  501    0  0.81240164779E+02 -0.15684579607E+02  0.61169174800E+02  0.10298111845E+03  0.41800000000E+01 0.  1.
         -5    1    4    4    0  501 -0.35312779273E+02  0.29580359627E+02  0.74507183052E+02  0.87697108173E+02  0.41800000000E+01 0.  1.
</event>
<event>
11    1  0.6763327E-009  0.1859710E+03  0.7561462E-02  0.1064913E+00
         22   -1    0    0    0    0  0.00000000000E+00  0.00000000000E+00  0.23925403633E+04  0.23925403633E+04  0.00000000000E+00 0.  1.
         22   -1    0    0    0    0 -0.00000000000E+00 -0.00000000000E+00 -0.88453267783E+02  0.88453267783E+02  0.00000000000E+00 0.  1.
         24    2    1    2    0    0 -0.68517877642E+01  0.39122963323E+02 -0.34957154793E+02  0.96069532636E+02  0.80186028552E+02 0.  0.
         25    2    1    2    0    0  0.12911548409E+03 -0.94660531560E+02  0.50646648545E+03  0.54569818603E+03  0.12508710918E+03 0.  0.
        -24    2    1    2    0    0 -0.12226369633E+03  0.55537568237E+02  0.18325777648E+04  0.18392259124E+04  0.79861503388E+02 0.  0.
        -13    1    3    3    0    0 -0.10875966023E+02  0.58116646662E+02 -0.44913753765E+02  0.74250094501E+02  0.00000000000E+00 0.  1.
         14    1    3    3    0    0  0.40241782593E+01 -0.18993683339E+02  0.99565989719E+01  0.21819438135E+02  0.00000000000E+00 0. -1.
         13    1    5    5    0    0  0.29225720132E+01  0.27843560203E+02  0.31489980226E+03  0.31614188387E+03  0.00000000000E+00 0. -1.
        -14    1    5    5    0    0 -0.12518626834E+03  0.27694008034E+02  0.15176779626E+04  0.15230840285E+04  0.00000000000E+00 0.  1.
          5    1    4    4  501    0  0.35439655827E+02 -0.98515627456E+02  0.32384433360E+03  0.34037321114E+03  0.41800000000E+01 0.  1.
         -5    1    4    4    0  501  0.93675828268E+02  0.38550958963E+01  0.18262215185E+03  0.20532497489E+03  0.41800000000E+01 0.  1.
</event>
<event>
11    1  0.6763327E-009  0.1867436E+03  0.7561462E-02  0.1064315E+00
         22   -1    0    0    0    0  0.00000000000E+00  0.00000000000E+00  0.42154164741E+03  0.42154164741E+03  0.00000000000E+00 0. -1.
         22   -1    0    0    0    0 -0.00000000000E+00 -0.00000000000E+00 -0.74666801309E+03  0.74666801309E+03  0.00000000000E+00 0.  1.
        -24    2    1    2    0    0  0.59342953607E-01 -0.52505967822E+01 -0.54683292664E+03  0.55278110810E+03  0.80703974655E+02 0.  0.
         25    2    1    2    0    0  0.15900928794E+02  0.14253277677E+03 -0.12913673683E+03  0.22997828945E+03  0.12508111300E+03 0.  0.
         24    2    1    2    0    0 -0.15960271748E+02 -0.13728217999E+03  0.35084329779E+03  0.38545026296E+03  0.79873389770E+02 0.  0.
        -13    1    5    5    0    0  0.10967034742E+01 -0.19975814765E+02  0.61290934256E+01  0.20923711914E+02  0.00000000000E+00 0.  1.
         14    1    5    5    0    0 -0.17056975222E+02 -0.11730636523E+03  0.34471420436E+03  0.36452655104E+03  0.00000000000E+00 0. -1.
         11    1    3    3    0    0  0.39253067435E+02 -0.50651480577E+00 -0.20954257604E+03  0.21318806494E+03  0.00000000000E+00 0. -1.
        -12    1    3    3    0    0 -0.39193724481E+02 -0.47440819765E+01 -0.33729035060E+03  0.33959304315E+03  0.00000000000E+00 0.  1.
          5    1    4    4  501    0  0.54544770822E+02  0.14069182820E+03 -0.10876524300E+03  0.18605556436E+03  0.41800000000E+01 0.  1.
         -5    1    4    4    0  501 -0.38643842028E+02  0.18409485738E+01 -0.20371493833E+02  0.43922725090E+02  0.41800000000E+01 0.  1.
</event>
<event>
11    1  0.6763327E-009  0.1291126E+03  0.7561462E-02  0.1120364E+00
         22   -1    0    0    0    0  0.00000000000E+00  0.00000000000E+00  0.41952233746E+03  0.41952233746E+03  0.00000000000E+00 0.  1.
         22   -1    0    0    0    0 -0.00000000000E+00 -0.00000000000E+00 -0.16319753032E+04  0.16319753032E+04  0.00000000000E+00 0. -1.
         24    2    1    2    0    0 -0.16723804309E+02  0.27213275253E+02 -0.15719291232E+04  0.15743406010E+04  0.81036484353E+02 0.  0.
         25    2    1    2    0    0  0.27717268125E+02 -0.23549600568E+02  0.24464956677E+02  0.13254657588E+03  0.12508888852E+03 0.  0.
        -24    2    1    2    0    0 -0.10993463816E+02 -0.36636746854E+01  0.33501120077E+03  0.34461046375E+03  0.79934900538E+02 0.  0.
        -11    1    3    3    0    0 -0.35763289065E+02 -0.13273070783E+02 -0.48807211915E+03  0.48956059967E+03  0.00000000000E+00 0.  1.
         12    1    3    3    0    0  0.19039484756E+02  0.40486346037E+02 -0.10838570040E+04  0.10847800014E+04  0.00000000000E+00 0. -1.
         11    1    5    5    0    0 -0.31190529087E+02 -0.11045051138E+01  0.50460332803E+02  0.59332235950E+02  0.00000000000E+00 0. -1.
        -12    1    5    5    0    0  0.20197065270E+02 -0.25591695716E+01  0.28455086797E+03  0.28527822780E+03  0.00000000000E+00 0.  1.
          5    1    4    4  501    0  0.64639679224E+02  0.24069351010E+02  0.58845017219E+01  0.69352156050E+02  0.41800000000E+01 0. -1.
         -5    1    4    4    0  501 -0.36922411100E+02 -0.47618951578E+02  0.18580454955E+02  0.63194419826E+02  0.41800000000E+01 0. -1.
</event>
<event>
11    1  0.6763327E-009  0.1387526E+03  0.7561462E-02  0.1108959E+00
         22   -1    0    0    0    0  0.00000000000E+00  0.00000000000E+00  0.25037781459E+03  0.25037781459E+03  0.00000000000E+00 0. -1.
         22   -1    0    0    0    0 -0.00000000000E+00 -0.00000000000E+00 -0.40929598800E+03  0.40929598800E+03  0.00000000000E+00 0.  1.
         24    2    1    2    0    0  0.73775480846E+01  0.16343185270E+02 -0.16087760599E+03  0.18065912380E+03  0.80215877377E+02 0.  0.
         25    2    1    2    0    0  0.52856895106E+02 -0.20083906788E+02 -0.20613579178E+03  0.24766084936E+03  0.12508683776E+03 0.  0.
        -24    2    1    2    0    0 -0.60234443190E+02  0.37407215172E+01  0.20809522435E+03  0.23135382943E+03  0.81109745720E+02 0.  0.
        -13    1    3    3    0    0 -0.57791934693E+00  0.45882935635E+02 -0.61844665484E+02  0.77008703548E+02  0.00000000000E+00 0.  1.
         14    1    3    3    0    0  0.79554674315E+01 -0.29539750365E+02 -0.99032940505E+02  0.10365042025E+03  0.00000000000E+00 0. -1.
         13    1    5    5    0    0 -0.24403781487E+02  0.12676909725E+02  0.18661991560E+03  0.18863520745E+03  0.00000000000E+00 0. -1.
        -14    1    5    5    0    0 -0.35830661703E+02 -0.89361882080E+01  0.21475308744E+02  0.42718621975E+02  0.00000000000E+00 0.  1.
          5    1    4    4  501    0  0.35628458810E+02 -0.38253322681E+02 -0.21458970517E+03  0.22090477074E+03  0.41800000000E+01 0.  1.
         -5    1    4    4    0  501  0.17228436296E+02  0.18169415893E+02  0.84539133926E+01  0.26756078613E+02  0.41800000000E+01 0.  1.
</event>
<event>
11    1  0.6763327E-009  0.1809312E+03  0.7561462E-02  0.1068892E+00
         22   -1    0    0    0    0  0.00000000000E+00  0.00000000000E+00  0.13223467140E+04  0.13223467140E+04  0.00000000000E+00 0. -1.
         22   -1    0    0    0    0 -0.00000000000E+00 -0.00000000000E+00 -0.30389283398E+03  0.30389283398E+03  0.00000000000E+00 0. -1.
         24    2    1    2    0    0 -0.16843867100E+02  0.13270561927E+03 -0.21644374761E+03  0.26628897385E+03  0.78532951508E+02 0.  0.
         25    2    1    2    0    0  0.72162263065E+02 -0.10428825156E+03  0.71228161170E+02  0.19184607780E+03  0.12509210606E+03 0.  0.
        -24    2    1    2    0    0 -0.55318395965E+02 -0.28417367706E+02  0.11636694665E+04  0.11681044964E+04  0.80460024156E+02 0.  0.
        -13    1    3    3    0    0  0.94815574703E+01 -0.39158836251E+01 -0.41574921074E+02  0.42821818492E+02  0.00000000000E+00 0.  1.
         14    1    3    3    0    0 -0.26325424570E+02  0.13662150289E+03 -0.17486882653E+03  0.22346715536E+03  0.00000000000E+00 0. -1.
         11    1    5    5    0    0 -0.56088670762E+02 -0.39851540838E+02  0.11369633887E+04  0.11390433844E+04  0.00000000000E+00 0. -1.
        -12    1    5    5    0    0  0.77027479731E+00  0.11434173133E+02  0.26706077818E+02  0.29061112004E+02  0.00000000000E+00 0.  1.
          5    1    4    4  501    0  0.45204995285E+01 -0.84096687335E+02  0.85081176018E+02  0.11978717231E+03  0.41800000000E+01 0.  1.
         -5    1    4    4    0  501  0.67641763536E+02 -0.20191564227E+02 -0.13853014847E+02  0.72058905491E+02  0.41800000000E+01 0.  1.
</event>
<event>
11    1  0.6763327E-009  0.1564364E+03  0.7561462E-02  0.1090478E+00
         22   -1    0    0    0    0  0.00000000000E+00  0.00000000000E+00  0.26110274213E+03  0.26110274213E+03  0.00000000000E+00 0.  1.
         22   -1    0    0    0    0 -0.00000000000E+00 -0.00000000000E+00 -0.18702199507E+04  0.18702199507E+04  0.00000000000E+00 0. -1.
        -24    2    1    2    0    0  0.96782863789E+02  0.11192399950E+02 -0.16831515146E+04  0.16881050087E+04  0.84895859524E+02 0.  0.
         25    2    1    2    0    0 -0.54170017596E+02 -0.18409316448E+02 -0.14865946001E+03  0.20253580498E+03  0.12509126073E+03 0.  0.
         24    2    1    2    0    0 -0.42612846193E+02  0.72169164984E+01  0.22269376604E+03  0.24068187908E+03  0.80419617879E+02 0.  0.
        -11    1    5    5    0    0 -0.60100898258E+02  0.16612970139E+02  0.11169164085E+03  0.12791845599E+03  0.00000000000E+00 0.  1.
         12    1    5    5    0    0  0.17488052065E+02 -0.93960536409E+01  0.11100212520E+03  0.11276342309E+03  0.00000000000E+00 0. -1.
         11    1    3    3    0    0  0.72933456534E+02  0.29343771212E+02 -0.68381846300E+03  0.68832262518E+03  0.00000000000E+00 0. -1.
        -12    1    3    3    0    0  0.23849407255E+02 -0.18151371262E+02 -0.99933305158E+03  0.99978238356E+03  0.00000000000E+00 0.  1.
          5    1    4    4  501    0  0.23215298297E+02  0.34245500394E+02 -0.29654966050E+02  0.51074394599E+02  0.41800000000E+01 0.  1.
         -5    1    4    4    0  501 -0.77385315893E+02 -0.52654816842E+02 -0.11900449396E+03  0.15146141039E+03  0.41800000000E+01 0.  1.
</event>
<event>
11    1  0.6763327E-009  0.1321248E+03  0.7561462E-02  0.1116685E+00
         22   -1    0    0    0    0  0.00000000000E+00  0.00000000000E+00  0.79731225659E+02  0.79731225659E+02  0.00000000000E+00 0.  1.
         22   -1    0    0    0    0 -0.00000000000E+00 -0.00000000000E+00 -0.77990334712E+03  0.77990334712E+03  0.00000000000E+00 0.  1.
        -24    2    1    2    0    0 -0.20528985194E+02 -0.10042528477E+02 -0.55996287926E+03  0.56636891845E+03  0.81810965213E+02 0.  0.
         25    2    1    2    0    0 -0.25411570491E+02  0.14282250716E+02 -0.15178837564E+03  0.19885420219E+03  0.12511415647E+03 0.  0.
         24    2    1    2    0    0  0.45940555684E+02 -0.42397222391E+01  0.11579133434E+02  0.94411452138E+02  0.81553271316E+02 0.  0.
        -11    1    5    5    0    0 -0.10575163516E+02 -0.55806607091E+01  0.32112343269E+02  0.34266316516E+02  0.00000000000E+00 0.  1.
         12    1    5    5    0    0  0.56515719201E+02  0.13409384700E+01 -0.20533209835E+02  0.60145135621E+02  0.00000000000E+00 0. -1.
         11    1    3    3    0    0  0.30631546620E+02  0.37480514124E+01 -0.16420322761E+03  0.16707794437E+03  0.00000000000E+00 0. -1.
        -12    1    3    3    0    0 -0.51160531813E+02 -0.13790579889E+02 -0.39575965165E+03  0.39929097408E+03  0.00000000000E+00 0.  1.
          5    1    4    4  501    0 -0.36150565514E+02  0.50473968648E+02 -0.25968596276E+02  0.67426443556E+02  0.41800000000E+01 0. -1.
         -5    1    4    4    0  501  0.10738995023E+02 -0.36191717932E+02 -0.12581977937E+03  0.13142775864E+03  0.41800000000E+01 0. -1.
</event>
<event>
11    1  0.6763327E-009  0.1368301E+03  0.7561462E-02  0.1111151E+00
         22   -1    0    0    0    0  0.00000000000E+00  0.00000000000E+00  0.20293565256E+03  0.20293565256E+03  0.00000000000E+00 0.  1.
         22   -1    0    0    0    0 -0.00000000000E+00 -0.00000000000E+00 -0.19954348161E+03  0.19954348161E+03  0.00000000000E+00 0.  1.
        -24    2    1    2    0    0  0.31141515426E+02 -0.17660604360E+02 -0.86298895907E+02  0.11665444755E+03  0.69850338366E+02 0.  0.
         25    2    1    2    0    0  0.21180358034E+02  0.45008228459E+02 -0.20431101981E+02  0.13615782380E+03  0.12508866799E+03 0.  0.
         24    2    1    2    0    0 -0.52321873460E+02 -0.27347624099E+02  0.11012216884E+03  0.14966686281E+03  0.82388147010E+02 0.  0.
        -13    1    5    5    0    0 -0.57416932117E+02 -0.48725854377E+02  0.10072906706E+03  0.12576668052E+03  0.00000000000E+00 0.  1.
         14    1    5    5    0    0  0.50950586572E+01  0.21378230279E+02  0.93931017837E+01  0.23900182294E+02  0.00000000000E+00 0. -1.
         11    1    3    3    0    0 -0.18434134390E+02 -0.90519814672E+01 -0.51518118099E+01  0.21173021610E+02  0.00000000000E+00 0. -1.
        -12    1    3    3    0    0  0.49575649815E+02 -0.86086228932E+01 -0.81147084097E+02  0.95481425944E+02  0.00000000000E+00 0.  1.
          5    1    4    4  501    0  0.64698538923E+01 -0.43786945022E+02 -0.49316891781E+01  0.44731974268E+02  0.41800000000E+01 0. -1.
         -5    1    4    4    0  501  0.14710504142E+02  0.88795173481E+02 -0.15499412803E+02  0.91425849533E+02  0.41800000000E+01 0. -1.
</event>
<event>
11    1  0.6763327E-009  0.1480051E+03  0.7561462E-02  0.1098935E+00
         22   -1    0    0    0    0  0.00000000000E+00  0.00000000000E+00  0.78685242092E+03  0.78685242092E+03  0.00000000000E+00 0.  1.
         22   -1    0    0    0    0 -0.00000000000E+00 -0.00000000000E+00 -0.55284178122E+02  0.55284178122E+02  0.00000000000E+00 0.  1.
        -24    2    1    2    0    0  0.60978724711E+02 -0.69315820428E+02  0.10519544435E+03  0.16130559235E+03  0.80189305914E+02 0.  0.
         25    2    1    2    0    0 -0.73569592748E+02 -0.51305301307E+01  0.25444537113E+03  0.29296587904E+03  0.12509097521E+03 0.  0.
         24    2    1    2    0    0  0.12590868037E+02  0.74446350559E+02  0.37192742733E+03  0.38786512765E+03  0.80053463275E+02 0.  0.
        -13    1    5    5    0    0  0.19557354236E+02  0.69933690191E+02  0.15924190847E+03  0.17501770351E+03  0.00000000000E+00 0.  1.
         14    1    5    5    0    0 -0.69664861986E+01  0.45126603679E+01  0.21268551886E+03  0.21284742414E+03  0.00000000000E+00 0. -1.
         13    1    3    3    0    0 -0.13864207729E+02 -0.30482511911E+02  0.51206469449E+02  0.61184167084E+02  0.00000000000E+00 0. -1.
        -14    1    3    3    0    0  0.74842932440E+02 -0.38833308517E+02  0.53988974899E+02  0.10012142527E+03  0.00000000000E+00 0.  1.
          5    1    4    4  501    0 -0.24528533422E+02 -0.40175882356E+02  0.21654582701E+03  0.22164232012E+03  0.41800000000E+01 0. -1.
         -5    1    4    4    0  501 -0.49041059326E+02  0.35045352225E+02  0.37899544119E+02  0.71323558919E+02  0.41800000000E+01 0. -1.
</event>
<event>
11    1  0.6763327E-009  0.1288959E+03  0.7561462E-02  0.1120633E+00
         22   -1    0    0    0    0  0.00000000000E+00  0.00000000000E+00  0.22245648078E+03  0.22245648078E+03  0.00000000000E+00 0.  1.
         22   -1    0    0    0    0 -0.00000000000E+00 -0.00000000000E+00 -0.59416295800E+03  0.59416295800E+03  0.00000000000E+00 0. -1.
         24    2    1    2    0    0  0.23221902799E+02  0.91847511065E+01 -0.29195382679E+03  0.30358237524E+03  0.79382650225E+02 0.  0.
         25    2    1    2    0    0 -0.20222805272E+02  0.22122980644E+02 -0.27181199439E+03  0.30071385971E+03  0.12509467216E+03 0.  0.
        -24    2    1    2    0    0 -0.29990975270E+01 -0.31307731751E+02  0.19205934396E+03  0.21232320382E+03  0.84883347152E+02 0.  0.
        -11    1    3    3    0    0 -0.17772020230E+02 -0.14199497022E+02 -0.31315579383E+02  0.38705760952E+02  0.00000000000E+00 0.  1.
         12    1    3    3    0    0  0.40993923029E+02  0.23384248128E+02 -0.26063824741E+03  0.26487661429E+03  0.00000000000E+00 0. -1.
         13    1    5    5    0    0 -0.16659317408E+00 -0.35171895620E+02  0.20527165023E+02  0.40724126739E+02  0.00000000000E+00 0. -1.
        -14    1    5    5    0    0 -0.28325043529E+01  0.38641638690E+01  0.17153217894E+03  0.17159907708E+03  0.00000000000E+00 0.  1.
          5    1    4    4  501    0  0.47692470226E+02  0.34890994394E+02 -0.11780490026E+03  0.13186136709E+03  0.41800000000E+01 0. -1.
         -5    1    4    4    0  501 -0.67915275498E+02 -0.12768013750E+02 -0.15400709413E+03  0.16885249262E+03  0.41800000000E+01 0. -1.
</event>
<event>
11    1  0.6763327E-009  0.2336434E+03  0.7561462E-02  0.1032992E+00
         22   -1    0    0    0    0  0.00000000000E+00  0.00000000000E+00  0.80730642446E+03  0.80730642446E+03  0.00000000000E+00 0.  1.
         22   -1    0    0    0    0 -0.00000000000E+00 -0.00000000000E+00 -0.17000911284E+04  0.17000911284E+04  0.00000000000E+00 0.  1.
        -24    2    1    2    0    0 -0.11270552717E+02 -0.19478023294E+03 -0.15869059088E+04  0.16009142446E+04  0.81176909016E+02 0.  0.
         25    2    1    2    0    0  0.87349102237E+02  0.27443329328E+03  0.15651344008E+03  0.35081937302E+03  0.12503710424E+03 0.  0.
         24    2    1    2    0    0 -0.76078549520E+02 -0.79653060334E+02  0.53760776480E+03  0.55566393526E+03  0.87222385059E+02 0.  0.
        -11    1    5    5    0    0 -0.29115115575E+02 -0.88046674263E+02  0.36240410430E+03  0.37408106289E+03  0.00000000000E+00 0.  1.
         12    1    5    5    0    0 -0.46963433945E+02  0.83936139288E+01  0.17520366051E+03  0.18158287237E+03  0.00000000000E+00 0. -1.
         11    1    3    3    0    0 -0.99285593741E+01  0.51894598403E+01 -0.71926823919E+02  0.72794057338E+02  0.00000000000E+00 0. -1.
        -12    1    3    3    0    0 -0.13419933426E+01 -0.19996969278E+03 -0.15149790849E+04  0.15281201872E+04  0.00000000000E+00 0.  1.
          5    1    4    4  501    0  0.28228491287E+02  0.21441022052E+03  0.63885658165E+02  0.22553811231E+03  0.41800000000E+01 0. -1.
         -5    1    4    4    0  501  0.59120610950E+02  0.60023072756E+02  0.92627781917E+02  0.12528126071E+03  0.41800000000E+01 0. -1.
</event>
<event>
11    1  0.6763327E-009  0.1661922E+03  0.7561462E-02  0.1081394E+00
         22   -1    0    0    0    0  0.00000000000E+00  0.00000000000E+00  0.98719072876E+03  0.98719072876E+03  0.00000000000E+00 0.  1.
         22   -1    0    0    0    0 -0.00000000000E+00 -0.00000000000E+00 -0.29247706846E+04  0.29247706846E+04  0.00000000000E+00 0.  1.
         24    2    1    2    0    0 -0.72396851406E+02 -0.82174800821E+02 -0.28994819342E+04  0.29026386494E+04  0.79508743084E+02 0.  0.
         25    2    1    2    0    0  0.55904978418E+02  0.72600719803E+02  0.26168506095E+03  0.30417610540E+03  0.12509117011E+03 0.  0.
        -24    2    1    2    0    0  0.16491872988E+02  0.95740810177E+01  0.70021691741E+03  0.70514665856E+03  0.81021193174E+02 0.  0.
        -11    1    3    3    0    0 -0.43927365820E+02 -0.94563660877E+02 -0.22137375074E+04  0.22161917000E+04  0.00000000000E+00 0.  1.
         12    1    3    3    0    0 -0.28469485586E+02  0.12388860056E+02 -0.68574442681E+03  0.68644694942E+03  0.00000000000E+00 0. -1.
         11    1    5    5    0    0  0.69283515919E+00 -0.32965462581E+02  0.18332438651E+03  0.18626602597E+03  0.00000000000E+00 0. -1.
        -12    1    5    5    0    0  0.15799037829E+02  0.42539543599E+02  0.51689253091E+03  0.51888063259E+03  0.00000000000E+00 0.  1.
          5    1    4    4  501    0 -0.24657196415E+02  0.40925490384E+02  0.29414053164E+02  0.56263060899E+02  0.41800000000E+01 0. -1.
         -5    1    4    4    0  501  0.80562174833E+02  0.31675229419E+02  0.23227100779E+03  0.24791304450E+03  0.41800000000E+01 0. -1.
</event>
<event>
11    1  0.7299723E-009  0.1735856E+03  0.7561462E-02  0.1074953E+00
         22   -1    0    0    0    0  0.00000000000E+00  0.00000000000E+00  0.57362915974E+03  0.57362915974E+03  0.00000000000E+00 0.  1.
         22   -1    0    0    0    0 -0.00000000000E+00 -0.00000000000E+00 -0.22883575839E+03  0.22883575839E+03  0.00000000000E+00 0. -1.
        -24    2    1    2    0    0 -0.34961314645E+02 -0.11593193382E+03 -0.11498971335E+03  0.18469051967E+03  0.78901502404E+02 0.  0.
         25    2    1    2    0    0  0.89067685202E+02  0.92833016094E+02  0.36992501212E+02  0.18321276965E+03  0.12508977733E+03 0.  0.
         24    2    1    2    0    0 -0.54106370557E+02  0.23098917721E+02  0.42279061349E+03  0.43456162881E+03  0.81430013177E+02 0.  0.
        -11    1    5    5    0    0 -0.35435267423E+02  0.74150313070E+01  0.39850727278E+03  0.40014833165E+03  0.00000000000E+00 0.  1.
         12    1    5    5    0    0 -0.18671103134E+02  0.15683886414E+02  0.24283340710E+02  0.34413297158E+02  0.00000000000E+00 0. -1.
         11    1    3    3    0    0 -0.53918989101E+02 -0.10055088094E+03 -0.11236674720E+03  0.16013751253E+03  0.00000000000E+00 0. -1.
        -12    1    3    3    0    0  0.18957674456E+02 -0.15381052880E+02 -0.26229661485E+01  0.24553007145E+02  0.00000000000E+00 0.  1.
          5    1    4    4  501    0  0.28379626760E+02  0.11193628059E+03  0.20558137159E+02  0.11736798342E+03  0.41800000000E+01 0. -1.
         -5    1    4    4    0  501  0.60688058442E+02 -0.19103264499E+02  0.16434364052E+02  0.65844786231E+02  0.41800000000E+01 0. -1.
</event>
<event>
11    1  0.6763327E-009  0.1554362E+03  0.7561462E-02  0.1091450E+00
         22   -1    0    0    0    0  0.00000000000E+00  0.00000000000E+00  0.18677491142E+04  0.18677491142E+04  0.00000000000E+00 0.  1.
         22   -1    0    0    0    0 -0.00000000000E+00 -0.00000000000E+00 -0.66306045900E+03  0.66306045900E+03  0.00000000000E+00 0.  1.
        -24    2    1    2    0    0  0.70713116820E+02  0.37555505567E+02 -0.64073051363E+03  0.65065407588E+03  0.80027335840E+02 0.  0.
         25    2    1    2    0    0 -0.58427121032E+02 -0.12382167552E+03  0.57445029224E+03  0.60364433960E+03  0.12509122540E+03 0.  0.
         24    2    1    2    0    0 -0.12285995788E+02  0.86266169950E+02  0.12709688766E+04  0.12765111577E+04  0.80783988389E+02 0.  0.
        -13    1    5    5    0    0 -0.43517018438E+02  0.28165255641E+02  0.64358637868E+03  0.64567053467E+03  0.00000000000E+00 0.  1.
         14    1    5    5    0    0  0.31231022649E+02  0.58100914310E+02  0.62738249787E+03  0.63084062302E+03  0.00000000000E+00 0. -1.
         11    1    3    3    0    0  0.80509283863E+02  0.16416317056E+02 -0.37458759167E+03  0.38349329080E+03  0.00000000000E+00 0. -1.
        -12    1    3    3    0    0 -0.97961670422E+01  0.21139188511E+02 -0.26614292195E+03  0.26716078508E+03  0.00000000000E+00 0.  1.
          5    1    4    4  501    0 -0.22008410396E+02  0.29853723490E+01  0.11369561172E+02  0.25298654065E+02  0.41800000000E+01 0. -1.
         -5    1    4    4    0  501 -0.36418710636E+02 -0.12680704787E+03  0.56308073107E+03  0.57834568553E+03  0.41800000000E+01 0. -1.
</event>
<event>
11    1  0.6763327E-009  0.1502314E+03  0.7561462E-02  0.1096643E+00
         22   -1    0    0    0    0  0.00000000000E+00  0.00000000000E+00  0.11285241579E+04  0.11285241579E+04  0.00000000000E+00 0.  1.
         22   -1    0    0    0    0 -0.00000000000E+00 -0.00000000000E+00 -0.43185900682E+02  0.43185900682E+02  0.00000000000E+00 0. -1.
        -24    2    1    2    0    0  0.53630148016E+02  0.38023769903E+02  0.10192442111E+03  0.14634834942E+03  0.81897813794E+02 0.  0.
         25    2    1    2    0    0 -0.10311734452E+03  0.25461415869E+02  0.42391694882E+03  0.45457078948E+03  0.12509017834E+03 0.  0.
         24    2    1    2    0    0  0.49487196506E+02 -0.63485185772E+02  0.55949688732E+03  0.57079091971E+03  0.79285280302E+02 0.  0.
        -13    1    5    5    0    0  0.59572731691E+02 -0.38086182116E+02  0.24194181399E+03  0.25206211335E+03  0.00000000000E+00 0.  1.
         14    1    5    5    0    0 -0.10085535185E+02 -0.25399003656E+02  0.31755507333E+03  0.31872880636E+03  0.00000000000E+00 0. -1.
         13    1    3    3    0    0  0.62568640697E+02  0.63335461659E+01  0.35513589957E+02  0.72223013489E+02  0.00000000000E+00 0. -1.
        -14    1    3    3    0    0 -0.89384926812E+01  0.31690223738E+02  0.66410831152E+02  0.74125335927E+02  0.00000000000E+00 0.  1.
          5    1    4    4  501    0 -0.11549485821E+02 -0.24875431631E+02  0.25072878928E+03  0.25225894611E+03  0.41800000000E+01 0.  1.
         -5    1    4    4    0  501 -0.91567858701E+02  0.50336847500E+02  0.17318815954E+03  0.20231184337E+03  0.41800000000E+01 0.  1.
</event>
<event>
11    1  0.6763327E-009  0.1475014E+03  0.7561462E-02  0.1099460E+00
         22   -1    0    0    0    0  0.00000000000E+00  0.00000000000E+00  0.46674246138E+03  0.46674246138E+03  0.00000000000E+00 0.  1.
         22   -1    0    0    0    0 -0.00000000000E+00 -0.00000000000E+00 -0.15006280962E+04  0.15006280962E+04  0.00000000000E+00 0. -1.
        -24    2    1    2    0    0  0.31486157295E+02  0.28078457052E+02 -0.14529704354E+04  0.14558149929E+04  0.80588022289E+02 0.  0.
         25    2    1    2    0    0 -0.12776638136E+02 -0.87503022915E+02  0.36440889038E+03  0.39530015129E+03  0.12509336001E+03 0.  0.
         24    2    1    2    0    0 -0.18709519159E+02  0.59424565863E+02  0.54675910259E+02  0.11625541342E+03  0.81514053087E+02 0.  0.
        -11    1    5    5    0    0 -0.82518900564E+01  0.78965205555E+02  0.49277319026E+02  0.93444376761E+02  0.00000000000E+00 0.  1.
         12    1    5    5    0    0 -0.10457629103E+02 -0.19540639691E+02  0.53985912329E+01  0.22811036655E+02  0.00000000000E+00 0. -1.
         11    1    3    3    0    0 -0.25077531010E+02  0.22959893217E+02 -0.50205390131E+03  0.50320389414E+03  0.00000000000E+00 0. -1.
        -12    1    3    3    0    0  0.56563688305E+02  0.51185638348E+01 -0.95091653413E+03  0.95261109872E+03  0.00000000000E+00 0.  1.
          5    1    4    4  501    0 -0.28706676908E+02 -0.10148578954E+03  0.35728719471E+03  0.37255207781E+03  0.41800000000E+01 0.  1.
         -5    1    4    4    0  501  0.15930038772E+02  0.13982766621E+02  0.71216956678E+01  0.22748073475E+02  0.41800000000E+01 0.  1.
</event>
<event>
11    1  0.6763327E-009  0.1475867E+03  0.7561462E-02  0.1099370E+00
         22   -1    0    0    0    0  0.00000000000E+00  0.00000000000E+00  0.80657700308E+03  0.80657700308E+03  0.00000000000E+00 0.  1.
         22   -1    0    0    0    0 -0.00000000000E+00 -0.00000000000E+00 -0.14159938831E+03  0.14159938831E+03  0.00000000000E+00 0. -1.
        -24    2    1    2    0    0 -0.69596783754E+02  0.40456026820E+02 -0.79280103061E+02  0.13744325963E+03  0.78261819946E+02 0.  0.
         25    2    1    2    0    0  0.66575392374E+02 -0.15589067405E+02  0.13720360089E+03  0.19785765998E+03  0.12509006204E+03 0.  0.
         24    2    1    2    0    0  0.30213913809E+01 -0.24866959414E+02  0.60705411694E+03  0.61287547179E+03  0.80462093865E+02 0.  0.
        -13    1    5    5    0    0 -0.85465670539E+01  0.24076189876E+02  0.35103970380E+03  0.35196815249E+03  0.00000000000E+00 0.  1.
         14    1    5    5    0    0  0.11567958435E+02 -0.48943149290E+02  0.25601441315E+03  0.26090731930E+03  0.00000000000E+00 0. -1.
         13    1    3    3    0    0  0.21747993258E+01  0.29050096710E+02 -0.52411002698E+02  0.59962914162E+02  0.00000000000E+00 0. -1.
        -14    1    3    3    0    0 -0.71771583080E+02  0.11405930110E+02 -0.26869100363E+02  0.77480345468E+02  0.00000000000E+00 0.  1.
          5    1    4    4  501    0  0.65873873793E+02 -0.51759054534E+01  0.63398176672E+01  0.66511825518E+02  0.41800000000E+01 0.  1.
         -5    1    4    4    0  501  0.70151858100E+00 -0.10413161952E+02  0.13086378322E+03  0.13134583446E+03  0.41800000000E+01 0.  1.
</event>
<event>
11    1  0.6763327E-009  0.1718115E+03  0.7561462E-02  0.1076466E+00
         22   -1    0    0    0    0  0.00000000000E+00  0.00000000000E+00  0.17415978947E+03  0.17415978947E+03  0.00000000000E+00 0. -1.
         22   -1    0    0    0    0 -0.00000000000E+00 -0.00000000000E+00 -0.20470211179E+04  0.20470211179E+04  0.00000000000E+00 0.  1.
         24    2    1    2    0    0 -0.11387254565E+02 -0.11910925982E+03 -0.18047073104E+04  0.18102447231E+04  0.75503616576E+02 0.  0.
         25    2    1    2    0    0 -0.34029411400E+01  0.99605875985E+02 -0.20177390551E+03  0.25747580601E+03  0.12509265044E+03 0.  0.
        -24    2    1    2    0    0  0.14790195705E+02  0.19503383831E+02  0.13361988740E+03  0.15346037830E+03  0.71391046568E+02 0.  0.
        -11    1    3    3    0    0 -0.58464639411E+01 -0.12800690838E+03 -0.17381608024E+04  0.17428777711E+04  0.00000000000E+00 0.  1.
         12    1    3    3    0    0 -0.55407906237E+01  0.88976485593E+01 -0.66546507912E+02  0.67366952030E+02  0.00000000000E+00 0. -1.
         13    1    5    5    0    0 -0.63023742362E+01  0.32849602214E+02  0.24342876607E+02  0.41368973013E+02  0.00000000000E+00 0. -1.
        -14    1    5    5    0    0  0.21092569941E+02 -0.13346218384E+02  0.10927701079E+03  0.11209140529E+03  0.00000000000E+00 0.  1.
          5    1    4    4  501    0  0.11586649466E+02 -0.11234111334E+01 -0.13513579428E+03  0.13570065510E+03  0.41800000000E+01 0.  1.
         -5    1    4    4    0  501 -0.14989590606E+02  0.10072928712E+03 -0.66638111229E+02  0.12177515091E+03  0.41800000000E+01 0.  1.
</event>
<event>
11    1  0.9204694E-009  0.1682596E+03  0.7561462E-02  0.1079556E+00
         22   -1    0    0    0    0  0.00000000000E+00  0.00000000000E+00  0.27539808771E+03  0.27539808771E+03  0.00000000000E+00 0.  1.
         22   -1    0    0    0    0 -0.00000000000E+00 -0.00000000000E+00 -0.59597586209E+03  0.59597586209E+03  0.00000000000E+00 0. -1.
        -24    2    1    2    0    0  0.48711964097E+02  0.25602145774E+01 -0.34380827196E+03  0.35640460758E+03  0.80254011034E+02 0.  0.
         25    2    1    2    0    0 -0.15160774281E+03  0.32653525356E+02 -0.18137621099E+03  0.26943731980E+03  0.12509188218E+03 0.  0.
         24    2    1    2    0    0  0.10289577871E+03 -0.35213739933E+02  0.20460670858E+03  0.24553202242E+03  0.81206650477E+02 0.  0.
        -11    1    5    5    0    0  0.10405322373E+03 -0.47467818558E+02  0.20315826208E+03  0.23313847091E+03  0.00000000000E+00 0.  1.
         12    1    5    5    0    0 -0.11574450196E+01  0.12254078625E+02  0.14484465081E+01  0.12393551517E+02  0.00000000000E+00 0. -1.
         13    1    3    3    0    0  0.19505334672E+02  0.25170167470E+02 -0.28624267148E+03  0.28800844153E+03  0.00000000000E+00 0. -1.
        -14    1    3    3    0    0  0.29206629425E+02 -0.22609952892E+02 -0.57565600479E+02  0.68396166052E+02  0.00000000000E+00 0.  1.
          5    1    4    4  501    0 -0.16175573144E+03  0.82616142659E+01 -0.18067463873E+03  0.24268079529E+03  0.41800000000E+01 0. -1.
         -5    1    4    4    0  501  0.10147988631E+02  0.24391911090E+02 -0.70157226127E+00  0.26756524504E+02  0.41800000000E+01 0. -1.
</event>
<event>
11    1  0.6763327E-009  0.1389148E+03  0.7561462E-02  0.1108776E+00
         22   -1    0    0    0    0  0.00000000000E+00  0.00000000000E+00  0.16561043813E+04  0.16561043813E+04  0.00000000000E+00 0. -1.
         22   -1    0    0    0    0 -0.00000000000E+00 -0.00000000000E+00 -0.31804775253E+04  0.31804775253E+04  0.00000000000E+00 0.  1.
         24    2    1    2    0    0 -0.24176979448E+02  0.75996422922E+01 -0.30651339397E+04  0.30664844619E+04  0.87399117672E+02 0.  0.
         25    2    1    2    0    0 -0.48228069606E+01 -0.60645664084E+02 -0.70347411180E+02  0.15588555169E+03  0.12510152248E+03 0.  0.
        -24    2    1    2    0    0  0.28999786409E+02  0.53046021792E+02  0.16111082068E+04  0.16142118930E+04  0.79721474293E+02 0.  0.
        -11    1    3    3    0    0  0.11225892037E+01  0.12257975909E+02 -0.28158110338E+04  0.28158379385E+04  0.00000000000E+00 0.  1.
         12    1    3    3    0    0 -0.25299568652E+02 -0.46583336167E+01 -0.24932290592E+03  0.25064652334E+03  0.00000000000E+00 0. -1.
         13    1    5    5    0    0  0.21792016332E+01  0.37297414715E+02  0.14274399334E+04  0.14279287831E+04  0.00000000000E+00 0. -1.
        -14    1    5    5    0    0  0.26820584775E+02  0.15748607077E+02  0.18366827344E+03  0.18628310997E+03  0.00000000000E+00 0.  1.
          5    1    4    4  501    0 -0.58359825824E+02 -0.44013031781E+02 -0.67522084074E+02  0.99597793522E+02  0.41800000000E+01 0. -1.
         -5    1    4    4    0  501  0.53537018863E+02 -0.16632632303E+02 -0.28253271064E+01  0.56287758166E+02  0.41800000000E+01 0. -1.
</event>
<event>
11    1  0.6763327E-009  0.2463044E+03  0.7561462E-02  0.1025887E+00
         22   -1    0    0    0    0  0.00000000000E+00  0.00000000000E+00  0.30054671193E+03  0.30054671193E+03  0.00000000000E+00 0.  1.
         22   -1    0    0    0    0 -0.00000000000E+00 -0.00000000000E+00 -0.11796030190E+04  0.11796030190E+04  0.00000000000E+00 0. -1.
         24    2    1    2    0    0  0.15262491446E+03 -0.56350194067E+02 -0.89278785167E+03  0.91105504516E+03  0.80507380552E+02 0.  0.
         25    2    1    2    0    0 -0.22416215530E+03  0.22582821946E+03 -0.74033004114E+02  0.34982202677E+03  0.12509000016E+03 0.  0.
        -24    2    1    2    0    0  0.71537240841E+02 -0.16947802539E+03  0.87764548679E+02  0.21927265904E+03  0.80854839558E+02 0.  0.
        -11    1    3    3    0    0  0.10847337598E+03  0.16718842357E+01 -0.55058342628E+03  0.56116965152E+03  0.00000000000E+00 0.  1.
         12    1    3    3    0    0  0.44151538482E+02 -0.58022078303E+02 -0.34220442539E+03  0.34988539363E+03  0.00000000000E+00 0. -1.
         13    1    5    5    0    0  0.82335957625E+02 -0.14121890211E+03  0.50121637047E+02  0.17098001851E+03  0.00000000000E+00 0. -1.
        -14    1    5    5    0    0 -0.10798716784E+02 -0.28259123283E+02  0.37642911631E+02  0.48292640526E+02  0.00000000000E+00 0.  1.
          5    1    4    4  501    0 -0.14304287211E+03  0.20744550655E+03 -0.84680581644E+02  0.26586307521E+03  0.41800000000E+01 0.  1.
         -5    1    4    4    0  501 -0.81119283194E+02  0.18382712903E+02  0.10647577530E+02  0.83958951559E+02  0.41800000000E+01 0.  1.
</event>
<event>
11    1  0.6763327E-009  0.3157650E+03  0.7561462E-02  0.9937314E-01
         22   -1    0    0    0    0  0.00000000000E+00  0.00000000000E+00  0.19393931503E+04  0.19393931503E+04  0.00000000000E+00 0.  1.
         22   -1    0    0    0    0 -0.00000000000E+00 -0.00000000000E+00 -0.29450314257E+03  0.29450314257E+03  0.00000000000E+00 0. -1.
        -24    2    1    2    0    0 -0.25384395446E+02  0.54716376694E+02 -0.22978359141E+03  0.25071331420E+03  0.80115027481E+02 0.  0.
         25    2    1    2    0    0  0.25967309671E+02  0.26942246822E+03  0.10993532559E+04  0.11390731675E+04  0.12508929670E+03 0.  0.
         24    2    1    2    0    0 -0.58291422497E+00 -0.32413884491E+03  0.77532034330E+03  0.84410981121E+03  0.79582712134E+02 0.  0.
        -11    1    5    5    0    0 -0.13945882712E+01 -0.13216956357E+03  0.22124948060E+03  0.25772479717E+03  0.00000000000E+00 0.  1.
         12    1    5    5    0    0  0.81167404625E+00 -0.19196928134E+03  0.55407086270E+03  0.58638501404E+03  0.00000000000E+00 0. -1.
         11    1    3    3    0    0 -0.39351499069E+02  0.32390187555E+02 -0.21405428477E+03  0.22003840927E+03  0.00000000000E+00 0. -1.
        -12    1    3    3    0    0  0.13967103623E+02  0.22326189139E+02 -0.15729306642E+02  0.30674904931E+02  0.00000000000E+00 0.  1.
          5    1    4    4  501    0 -0.27324814931E+02  0.74569451883E+02  0.16556492777E+03  0.18367489315E+03  0.41800000000E+01 0.  1.
         -5    1    4    4    0  501  0.53292124602E+02  0.19485301633E+03  0.93378832809E+03  0.95539827433E+03  0.41800000000E+01 0.  1.
</event>
<event>
11    1  0.6763327E-009  0.1348047E+03  0.7561462E-02  0.1113503E+00
         22   -1    0    0    0    0  0.00000000000E+00  0.00000000000E+00  0.95861459083E+02  0.95861459083E+02  0.00000000000E+00 0. -1.
         22   -1    0    0    0    0 -0.00000000000E+00 -0.00000000000E+00 -0.76772347589E+03  0.76772347589E+03  0.00000000000E+00 0.  1.
        -24    2    1    2    0    0 -0.85275030939E+01 -0.20203939202E+02 -0.51951963435E+03  0.52610285432E+03  0.80016531927E+02 0.  0.
         25    2    1    2    0    0  0.32012712298E+02  0.61368654843E+02 -0.18877730428E+03  0.23680168096E+03  0.12508892815E+03 0.  0.
         24    2    1    2    0    0 -0.23485209204E+02 -0.41164715640E+02  0.36434921816E+02  0.10068039970E+03  0.81012039177E+02 0.  0.
        -11    1    5    5    0    0  0.24395351379E+02 -0.85546256593E+01 -0.86635876525E+01  0.27264859070E+02  0.00000000000E+00 0.  1.
         12    1    5    5    0    0 -0.47880560583E+02 -0.32610089981E+02  0.45098509468E+02  0.73415540634E+02  0.00000000000E+00 0. -1.
         13    1    3    3    0    0 -0.33130745560E+02 -0.25629251839E+02 -0.15038481443E+03  0.15610924784E+03  0.00000000000E+00 0. -1.
        -14    1    3    3    0    0  0.24603242466E+02  0.54253126365E+01 -0.36913481992E+03  0.36999360648E+03  0.00000000000E+00 0.  1.
          5    1    4    4  501    0  0.32112596316E+02 -0.75307787957E+01  0.26073751615E+01  0.33349696800E+02  0.41800000000E+01 0.  1.
         -5    1    4    4    0  501 -0.99884017849E-01  0.68899433638E+02 -0.19138467944E+03  0.20345198416E+03  0.41800000000E+01 0.  1.
</event>
<event>
11    1  0.6763327E-009  0.1257850E+03  0.7561462E-02  0.1124559E+00
         22   -1    0    0    0    0  0.00000000000E+00  0.00000000000E+00  0.19584157827E+04  0.19584157827E+04  0.00000000000E+00 0. -1.
         22   -1    0    0    0    0 -0.00000000000E+00 -0.00000000000E+00 -0.35701629272E+02  0.35701629272E+02  0.00000000000E+00 0. -1.
         24    2    1    2    0    0  0.92023753901E+01  0.10160087109E+02  0.41675525872E+02  0.92299063015E+02  0.81205643239E+02 0.  0.
         25    2    1    2    0    0  0.11412963178E+00 -0.13236928715E+02  0.41552742897E+03  0.43414892568E+03  0.12508803353E+03 0.  0.
        -24    2    1    2    0    0 -0.93165050219E+01  0.30768416062E+01  0.14655111986E+04  0.14676694233E+04  0.78956941617E+02 0.  0.
        -13    1    3    3    0    0 -0.33910791646E+02  0.12326796634E+00  0.32747047325E+02  0.47141553788E+02  0.00000000000E+00 0.  1.
         14    1    3    3    0    0  0.43113167036E+02  0.10036819143E+02  0.89284785465E+01  0.45157509226E+02  0.00000000000E+00 0. -1.
         13    1    5    5    0    0  0.11732969292E+02  0.33763965138E+02  0.42762066983E+03  0.42911199608E+03  0.00000000000E+00 0. -1.
        -14    1    5    5    0    0 -0.21049474314E+02 -0.30687123532E+02  0.10378905287E+04  0.10385574272E+04  0.00000000000E+00 0.  1.
          5    1    4    4  501    0 -0.33747159796E+02 -0.31755870719E+02  0.37556231507E+03  0.37843339047E+03  0.41800000000E+01 0.  1.
         -5    1    4    4    0  501  0.33861289428E+02  0.18518942004E+02  0.39965113899E+02  0.55715535209E+02  0.41800000000E+01 0.  1.
</event>
<event>
11    1  0.6763327E-009  0.1540906E+03  0.7561462E-02  0.1092771E+00
         22   -1    0    0    0    0  0.00000000000E+00  0.00000000000E+00  0.10218912477E+04  0.10218912477E+04  0.00000000000E+00 0. -1.
         22   -1    0    0    0    0 -0.00000000000E+00 -0.00000000000E+00 -0.48798575770E+03  0.48798575770E+03  0.00000000000E+00 0.  1.
        -24    2    1    2    0    0  0.36274275422E+02  0.84021220308E+02 -0.44824873689E+03  0.46467066352E+03  0.81341913531E+02 0.  0.
         25    2    1    2    0    0 -0.55440492469E+02 -0.37962450875E+02  0.14688209065E+03  0.20429475556E+03  0.12508877932E+03 0.  0.
         24    2    1    2    0    0  0.19166217047E+02 -0.46058769433E+02  0.83527213628E+03  0.84091158638E+03  0.83450586197E+02 0.  0.
        -11    1    5    5    0    0  0.64341417420E+01 -0.64793745975E+02  0.41952526483E+03  0.42454808388E+03  0.00000000000E+00 0.  1.
         12    1    5    5    0    0  0.12732075305E+02  0.18734976542E+02  0.41574687145E+03  0.41636350250E+03  0.00000000000E+00 0. -1.
         11    1    3    3    0    0 -0.11514410356E+02  0.66273089026E+02 -0.19314033650E+03  0.20451868755E+03  0.00000000000E+00 0. -1.
        -12    1    3    3    0    0  0.47788685778E+02  0.17748131283E+02 -0.25510840039E+03  0.26015197597E+03  0.00000000000E+00 0.  1.
          5    1    4    4  501    0  0.55895235981E+01 -0.39344217161E+02  0.13650400200E+03  0.14223229296E+03  0.41800000000E+01 0.  1.
         -5    1    4    4    0  501 -0.61030016068E+02  0.13817662859E+01  0.10378088651E+02  0.62062462595E+02  0.41800000000E+01 0.  1.
</event>
<event>
11    1  0.6763327E-009  0.1308500E+03  0.7561462E-02  0.1118229E+00
         22   -1    0    0    0    0  0.00000000000E+00  0.00000000000E+00  0.15195305479E+04  0.15195305479E+04  0.00000000000E+00 0.  1.
         22   -1    0    0    0    0 -0.00000000000E+00 -0.00000000000E+00 -0.71304508638E+03  0.71304508638E+03  0.00000000000E+00 0.  1.
        -24    2    1    2    0    0 -0.27016024657E+02 -0.14293509428E+01 -0.19781397142E+03  0.21540475962E+03  0.80851311357E+02 0.  0.
         25    2    1    2    0    0  0.48623767019E+02  0.13270973889E+02 -0.49625114741E+03  0.51425021634E+03  0.12509074399E+03 0.  0.
         24    2    1    2    0    0 -0.21607742361E+02 -0.11841622946E+02  0.15005505803E+04  0.15029206583E+04  0.80692889622E+02 0.  0.
        -11    1    5    5    0    0 -0.36798050660E+02 -0.14746597593E+02  0.14358575981E+04  0.14364047482E+04  0.00000000000E+00 0.  1.
         12    1    5    5    0    0  0.15190308298E+02  0.29049746474E+01  0.64692982232E+02  0.66515910081E+02  0.00000000000E+00 0. -1.
         11    1    3    3    0    0 -0.10545587666E+02 -0.23054930996E+02 -0.12792344461E+02  0.28396889605E+02  0.00000000000E+00 0. -1.
        -12    1    3    3    0    0 -0.16470436992E+02  0.21625580053E+02 -0.18502162695E+03  0.18700787002E+03  0.00000000000E+00 0.  1.
          5    1    4    4  501    0  0.91793088109E+00  0.60337361721E+02 -0.31948245460E+03  0.32515834760E+03  0.41800000000E+01 0. -1.
         -5    1    4    4    0  501  0.47705836138E+02 -0.47066387832E+02 -0.17676869281E+03  0.18909186874E+03  0.41800000000E+01 0. -1.
</event>
<event>
11    1  0.6763327E-009  0.1551075E+03  0.7561462E-02  0.1091771E+00
         22   -1    0    0    0    0  0.00000000000E+00  0.00000000000E+00  0.95554969828E+03  0.95554969828E+03  0.00000000000E+00 0.  1.
         22   -1    0    0    0    0 -0.00000000000E+00 -0.00000000000E+00 -0.17453226356E+03  0.17453226356E+03  0.00000000000E+00 0. -1.
        -24    2    1    2    0    0 -0.93585793960E+02  0.77406468155E-01 -0.12422672591E+03  0.17464329327E+03  0.79433579995E+02 0.  0.
         25    2    1    2    0    0  0.71910589325E+02  0.43486544478E+02  0.23186439345E+03  0.27653336549E+03  0.12508953941E+03 0.  0.
         24    2    1    2    0    0  0.21675204635E+02 -0.43563950946E+02  0.67337976718E+03  0.67890530308E+03  0.71445555340E+02 0.  0.
        -11    1    5    5    0    0  0.41586264793E+02 -0.45651454610E+02  0.58682810896E+03  0.59006838773E+03  0.00000000000E+00 0.  1.
         12    1    5    5    0    0 -0.19911060158E+02  0.20875036641E+01  0.86551658220E+02  0.88836915349E+02  0.00000000000E+00 0. -1.
         11    1    3    3    0    0 -0.84469969325E+02  0.65633982427E+01 -0.13482291942E+03  0.15923402122E+03  0.00000000000E+00 0. -1.
        -12    1    3    3    0    0 -0.91158246350E+01 -0.64859917746E+01  0.10596193510E+02  0.15409272045E+02  0.00000000000E+00 0.  1.
          5    1    4    4  501    0  0.66817411854E+02 -0.32464098975E+02  0.11833074825E+03  0.13977883470E+03  0.41800000000E+01 0.  1.
         -5    1    4    4    0  501  0.50931774705E+01  0.75950643453E+02  0.11353364521E+03  0.13675453079E+03  0.41800000000E+01 0.  1.
</event>
<event>
11    1  0.6763327E-009  0.2043828E+03  0.7561462E-02  0.1051467E+00
         22   -1    0    0    0    0  0.00000000000E+00  0.00000000000E+00  0.18231767035E+04  0.18231767035E+04  0.00000000000E+00 0.  1.
         22   -1    0    0    0    0 -0.00000000000E+00 -0.00000000000E+00 -0.15878081747E+03  0.15878081747E+03  0.00000000000E+00 0. -1.
        -24    2    1    2    0    0  0.38597017869E+02  0.16133008291E+03 -0.15302452841E+02  0.18482680027E+03  0.80060324704E+02 0.  0.
         25    2    1    2    0    0 -0.22388448915E+02 -0.15188535759E+03  0.11213874610E+03  0.22758007366E+03  0.12508871673E+03 0.  0.
         24    2    1    2    0    0 -0.16208568955E+02 -0.94447253238E+01  0.15675595927E+04  0.15695506470E+04  0.76773929213E+02 0.  0.
        -11    1    5    5    0    0 -0.36765377151E+02 -0.15440036835E+02  0.14075352059E+04  0.14080999409E+04  0.00000000000E+00 0.  1.
         12    1    5    5    0    0  0.20556808196E+02  0.59953115113E+01  0.16002438678E+03  0.16145070607E+03  0.00000000000E+00 0. -1.
         11    1    3    3    0    0  0.15994659190E+01  0.14040769270E+03 -0.20872611272E+02  0.14195965752E+03  0.00000000000E+00 0. -1.
        -12    1    3    3    0    0  0.36997551950E+02  0.20922390214E+02  0.55701584305E+01  0.42867142750E+02  0.00000000000E+00 0.  1.
          5    1    4    4  501    0  0.18877516127E+01 -0.44490205123E+02 -0.25332274459E+02  0.51401736229E+02  0.41800000000E+01 0. -1.
         -5    1    4    4    0  501 -0.24276200527E+02 -0.10739515247E+03  0.13747102056E+03  0.17617833743E+03  0.41800000000E+01 0. -1.
</event>
<event>
11    1  0.6763327E-009  0.1541634E+03  0.7561462E-02  0.1092699E+00
         22   -1    0    0    0    0  0.00000000000E+00  0.00000000000E+00  0.22880120132E+03  0.22880120132E+03  0.00000000000E+00 0. -1.
         22   -1    0    0    0    0 -0.00000000000E+00 -0.00000000000E+00 -0.38078119202E+03  0.38078119202E+03  0.00000000000E+00 0.  1.
         24    2    1    2    0    0  0.73652021240E+02 -0.48516501087E+02 -0.28760953854E+03  0.31168580602E+03  0.81549518138E+02 0.  0.
         25    2    1    2    0    0 -0.10753958668E+03  0.33278641986E+02  0.56021148413E+02  0.17736371069E+03  0.12508911257E+03 0.  0.
        -24    2    1    2    0    0  0.33887565441E+02  0.15237859101E+02  0.79608399425E+02  0.12053287662E+03  0.82523436955E+02 0.  0.
        -13    1    3    3    0    0  0.54039773953E+02 -0.63025845018E+02 -0.26744640816E+03  0.28003595403E+03  0.00000000000E+00 0.  1.
         14    1    3    3    0    0  0.19612247287E+02  0.14509343930E+02 -0.20163130378E+02  0.31649851999E+02  0.00000000000E+00 0. -1.
         13    1    5    5    0    0  0.25620962399E+02 -0.41345439042E+01  0.92342565332E+02  0.95920162321E+02  0.00000000000E+00 0. -1.
        -14    1    5    5    0    0  0.82666030422E+01  0.19372403006E+02 -0.12734165907E+02  0.24612714304E+02  0.00000000000E+00 0.  1.
          5    1    4    4  501    0 -0.39894441875E+02  0.30751069113E+02 -0.36716732430E+02  0.62472278528E+02  0.41800000000E+01 0. -1.
         -5    1    4    4    0  501 -0.67645144806E+02  0.25275728726E+01  0.92737880843E+02  0.11489143216E+03  0.41800000000E+01 0. -1.
</event>
<event>
11    1  0.6763327E-009  0.1388722E+03  0.7561462E-02  0.1108824E+00
         22   -1    0    0    0    0  0.00000000000E+00  0.00000000000E+00  0.53999004902E+02  0.53999004902E+02  0.00000000000E+00 0.  1.
         22   -1    0    0    0    0 -0.00000000000E+00 -0.00000000000E+00 -0.12556064813E+04  0.12556064813E+04  0.00000000000E+00 0.  1.
        -24    2    1    2    0    0 -0.15805471181E+02 -0.25484727611E+02 -0.87498577785E+03  0.87904291092E+03  0.78848231095E+02 0.  0.
         25    2    1    2    0    0 -0.34483869820E+02  0.58101049556E+02 -0.29213872958E+03  0.32489731865E+03  0.12509340955E+03 0.  0.
         24    2    1    2    0    0  0.50289341001E+02 -0.32616321945E+02 -0.34482969022E+02  0.10566525667E+03  0.79895112742E+02 0.  0.
        -11    1    5    5    0    0  0.37425909375E+02 -0.83644197201E+01  0.21028824734E+02  0.43736411370E+02  0.00000000000E+00 0.  1.
         12    1    5    5    0    0  0.12863431625E+02 -0.24251902225E+02 -0.55511793756E+02  0.61928845304E+02  0.00000000000E+00 0. -1.
         11    1    3    3    0    0 -0.37098170517E+01 -0.24279321888E+02 -0.74091262640E+02  0.78056155513E+02  0.00000000000E+00 0. -1.
        -12    1    3    3    0    0 -0.12095654129E+02 -0.12054057234E+01 -0.80089451521E+03  0.80098675541E+03  0.00000000000E+00 0.  1.
          5    1    4    4  501    0 -0.56725149296E+02 -0.17687815494E+02 -0.16204397731E+03  0.17264508207E+03  0.41800000000E+01 0.  1.
         -5    1    4    4    0  501  0.22241279476E+02  0.75788865050E+02 -0.13009475226E+03  0.15225223658E+03  0.41800000000E+01 0.  1.
</event>
<event>
11    1  0.6763327E-009  0.1474236E+03  0.7561462E-02  0.1099541E+00
         22   -1    0    0    0    0  0.00000000000E+00  0.00000000000E+00  0.49641599857E+03  0.49641599857E+03  0.00000000000E+00 0.  1.
         22   -1    0    0    0    0 -0.00000000000E+00 -0.00000000000E+00 -0.36819365822E+03  0.36819365822E+03  0.00000000000E+00 0.  1.
        -24    2    1    2    0    0  0.42903939992E+02 -0.32910336887E+02 -0.30209923085E+03  0.31662856337E+03  0.77883653751E+02 0.  0.
         25    2    1    2    0    0 -0.33224935442E+02  0.10613254285E+03  0.88520957971E+02  0.18934606326E+03  0.12509180103E+03 0.  0.
         24    2    1    2    0    0 -0.96790045499E+01 -0.73222205959E+02  0.34180061322E+03  0.35863503017E+03  0.79600572168E+02 0.  0.
        -11    1    5    5    0    0 -0.40400090570E+02 -0.28041559343E+02  0.21520839149E+03  0.22075585640E+03  0.00000000000E+00 0.  1.
         12    1    5    5    0    0  0.30721086020E+02 -0.45180646617E+02  0.12659222173E+03  0.13787917377E+03  0.00000000000E+00 0. -1.
         13    1    3    3    0    0 -0.98324718041E+01  0.15383106552E+02 -0.11290728008E+03  0.11437382289E+03  0.00000000000E+00 0. -1.
        -14    1    3    3    0    0  0.52736411796E+02 -0.48293443439E+02 -0.18919195077E+03  0.20225474047E+03  0.00000000000E+00 0.  1.
          5    1    4    4  501    0  0.37531160682E+02  0.46532585067E+02 -0.18432926729E+01  0.59956147499E+02  0.41800000000E+01 0. -1.
         -5    1    4    4    0  501 -0.70756096124E+02  0.59599957779E+02  0.90364250644E+02  0.12938991576E+03  0.41800000000E+01 0. -1.
</event>
<event>
11    1  0.6763327E-009  0.2338858E+03  0.7561462E-02  0.1032852E+00
         22   -1    0    0    0    0  0.00000000000E+00  0.00000000000E+00  0.97810977455E+03  0.97810977455E+03  0.00000000000E+00 0. -1.
         22   -1    0    0    0    0 -0.00000000000E+00 -0.00000000000E+00 -0.28160332720E+03  0.28160332720E+03  0.00000000000E+00 0. -1.
        -24    2    1    2    0    0  0.14046869369E+03  0.13245467024E+03 -0.18914734832E+03  0.28187206476E+03  0.79996549555E+02 0.  0.
         25    2    1    2    0    0 -0.19110394159E+03 -0.15033842102E+03  0.41356587854E+03  0.49578885493E+03  0.12508994945E+03 0.  0.
         24    2    1    2    0    0  0.50635247902E+02  0.17883750780E+02  0.47208791713E+03  0.48205218206E+03  0.81385182021E+02 0.  0.
        -11    1    5    5    0    0  0.22786447431E+02 -0.24192912741E+02  0.78531697450E+02  0.85274537336E+02  0.00000000000E+00 0.  1.
         12    1    5    5    0    0  0.27848800470E+02  0.42076663521E+02  0.39355621968E+03  0.39677764472E+03  0.00000000000E+00 0. -1.
         13    1    3    3    0    0  0.39632596981E+02  0.34269203425E+02 -0.10641704429E+03  0.11861580149E+03  0.00000000000E+00 0. -1.
        -14    1    3    3    0    0  0.10083609671E+03  0.98185466816E+02 -0.82730304028E+02  0.16325626327E+03  0.00000000000E+00 0.  1.
          5    1    4    4  501    0 -0.18559621279E+03 -0.86383994896E+02  0.27347184378E+03  0.34163206892E+03  0.41800000000E+01 0.  1.
         -5    1    4    4    0  501 -0.55077288070E+01 -0.63954426125E+02  0.14009403475E+03  0.15415678600E+03  0.41800000000E+01 0.  1.
</event>
<event>
11    1  0.6763327E-009  0.1357007E+03  0.7561462E-02  0.1112457E+00
         22   -1    0    0    0    0  0.00000000000E+00  0.00000000000E+00  0.14147009768E+03  0.14147009768E+03  0.00000000000E+00 0.  1.
         22   -1    0    0    0    0 -0.00000000000E+00 -0.00000000000E+00 -0.54153650465E+03  0.54153650465E+03  0.00000000000E+00 0. -1.
         24    2    1    2    0    0 -0.20016662666E+02 -0.74026140218E+02 -0.19823796938E+03  0.22960468308E+03  0.86830189276E+02 0.  0.
         25    2    1    2    0    0  0.17246402281E+02  0.27864993406E+02 -0.29493345590E+03  0.32203160736E+03  0.12507884107E+03 0.  0.
        -24    2    1    2    0    0  0.27702603843E+01  0.46161146811E+02  0.93105018308E+02  0.13137031188E+03  0.80318669012E+02 0.  0.
        -13    1    3    3    0    0  0.39931331827E+00  0.19584399930E+02 -0.26579124430E+02  0.33017541205E+02  0.00000000000E+00 0.  1.
         14    1    3    3    0    0 -0.20415975984E+02 -0.93610540148E+02 -0.17165884495E+03  0.19658714188E+03  0.00000000000E+00 0. -1.
         11    1    5    5    0    0  0.78744567725E+01  0.42439504411E+02  0.54713234757E+01  0.43509240222E+02  0.00000000000E+00 0. -1.
        -12    1    5    5    0    0 -0.51041963882E+01  0.37216424002E+01  0.87633694832E+02  0.87861071658E+02  0.00000000000E+00 0.  1.
          5    1    4    4  501    0  0.36731207716E+02  0.39355606814E+02 -0.42933979712E+02  0.68984378100E+02  0.41800000000E+01 0.  1.
         -5    1    4    4    0  501 -0.19484805434E+02 -0.11490613408E+02 -0.25199947619E+03  0.25304722926E+03  0.41800000000E+01 0.  1.
</event>
<event>
11    1  0.6763327E-009  0.1531330E+03  0.7561462E-02  0.1093720E+00
         22   -1    0    0    0    0  0.00000000000E+00  0.00000000000E+00  0.49223756046E+03  0.49223756046E+03  0.00000000000E+00 0.  1.
         22   -1    0    0    0    0 -0.00000000000E+00 -0.00000000000E+00 -0.10161973975E+04  0.10161973975E+04  0.00000000000E+00 0. -1.
        -24    2    1    2    0    0  0.58467181949E+02 -0.66412711129E+02 -0.80199673274E+03  0.81102477622E+03  0.82057106731E+02 0.  0.
         25    2    1    2    0    0 -0.20427718176E+02  0.96237613407E+02 -0.17383323991E+03  0.23567283528E+03  0.12507885548E+03 0.  0.
         24    2    1    2    0    0 -0.38039463773E+02 -0.29824902278E+02  0.45187013558E+03  0.46173734649E+03  0.81720450991E+02 0.  0.
        -13    1    5    5    0    0  0.15384077439E+02 -0.32532532690E+02  0.26256605882E+03  0.26502069875E+03  0.00000000000E+00 0.  1.
         14    1    5    5    0    0 -0.53423541212E+02  0.27076304121E+01  0.18930407676E+03  0.19671664774E+03  0.00000000000E+00 0. -1.
         13    1    3    3    0    0  0.45310277944E+02  0.60349064266E+01 -0.25078703135E+03  0.25491876447E+03  0.00000000000E+00 0. -1.
        -14    1    3    3    0    0  0.13156904005E+02 -0.72447617556E+02 -0.55120970138E+03  0.55610601175E+03  0.00000000000E+00 0.  1.
          5    1    4    4  501    0 -0.47856161473E+02  0.39827456678E+02 -0.14043622224E+02  0.63961974810E+02  0.41800000000E+01 0. -1.
         -5    1    4    4    0  501  0.27428443297E+02  0.56410156729E+02 -0.15978961768E+03  0.17171086047E+03  0.41800000000E+01 0. -1.
</event>
<event>
11    1  0.6763327E-009  0.1329732E+03  0.7561462E-02  0.1115669E+00
         22   -1    0    0    0    0  0.00000000000E+00  0.00000000000E+00  0.66923827844E+03  0.66923827844E+03  0.00000000000E+00 0. -1.
         22   -1    0    0    0    0 -0.00000000000E+00 -0.00000000000E+00 -0.62248489442E+03  0.62248489442E+03  0.00000000000E+00 0. -1.
         24    2    1    2    0    0 -0.16632177449E+02  0.21314940877E+02 -0.44167433033E+03  0.44986045967E+03  0.81038651684E+02 0.  0.
         25    2    1    2    0    0 -0.62081101561E+01 -0.60008209152E+02 -0.14558392472E+03  0.20119696852E+03  0.12508403258E+03 0.  0.
        -24    2    1    2    0    0  0.22840287605E+02  0.38693268274E+02  0.63401163907E+03  0.64066574467E+03  0.80392724614E+02 0.  0.
        -11    1    3    3    0    0  0.32043782819E+02  0.27665144313E+01 -0.20620722407E+03  0.20870044772E+03  0.00000000000E+00 0.  1.
         12    1    3    3    0    0 -0.48675960268E+02  0.18548426446E+02 -0.23546710626E+03  0.24116001195E+03  0.00000000000E+00 0. -1.
         13    1    5    5    0    0 -0.22833898490E+02  0.38438457347E+02  0.37523391849E+03  0.37788807273E+03  0.00000000000E+00 0. -1.
        -14    1    5    5    0    0  0.45674186095E+02  0.25481092759E+00  0.25877772058E+03  0.26277767195E+03  0.00000000000E+00 0.  1.
          5    1    4    4  501    0 -0.63719599208E+02 -0.42446021627E+02 -0.97810990827E+02  0.12428320241E+03  0.41800000000E+01 0.  1.
         -5    1    4    4    0  501  0.57511489052E+02 -0.17562187525E+02 -0.47772933892E+02  0.76913766104E+02  0.41800000000E+01 0.  1.
</event>
<event>
11    1  0.6763327E-009  0.2352208E+03  0.7561462E-02  0.1032081E+00
         22   -1    0    0    0    0  0.00000000000E+00  0.00000000000E+00  0.14652987918E+04  0.14652987918E+04  0.00000000000E+00 0.  1.
         22   -1    0    0    0    0 -0.00000000000E+00 -0.00000000000E+00 -0.39196388421E+03  0.39196388421E+03  0.00000000000E+00 0.  1.
         24    2    1    2    0    0 -0.87532641304E+02  0.18152709589E+03 -0.31815761677E+03  0.38442989176E+03  0.77123425325E+02 0.  0.
         25    2    1    2    0    0  0.13586175991E+03 -0.12847652454E+03  0.29599204662E+03  0.37178455234E+03  0.12509127280E+03 0.  0.
        -24    2    1    2    0    0 -0.48329118605E+02 -0.53050571349E+02  0.10955004777E+04  0.11010482319E+04  0.83879946681E+02 0.  0.
        -11    1    3    3    0    0 -0.58874331098E+02  0.12953118468E+03 -0.27935905633E+03  0.31350597605E+03  0.00000000000E+00 0.  1.
         12    1    3    3    0    0 -0.28658310206E+02  0.51995911217E+02 -0.38798560432E+02  0.70923915704E+02  0.00000000000E+00 0. -1.
         11    1    5    5    0    0 -0.50004221336E+02 -0.56895502742E+02  0.51575452649E+03  0.52128711089E+03  0.00000000000E+00 0. -1.
        -12    1    5    5    0    0  0.16751027305E+01  0.38449313925E+01  0.57974595121E+03  0.57976112099E+03  0.00000000000E+00 0.  1.
          5    1    4    4  501    0  0.91804570938E+02 -0.11522079155E+03  0.12067581358E+03  0.19048368548E+03  0.41800000000E+01 0.  1.
         -5    1    4    4    0  501  0.44057188971E+02 -0.13255732994E+02  0.17531623303E+03  0.18130086686E+03  0.41800000000E+01 0.  1.
</event>
<event>
11    1  0.6763327E-009  0.2079452E+03  0.7561462E-02  0.1049043E+00
         22   -1    0    0    0    0  0.00000000000E+00  0.00000000000E+00  0.10010637173E+04  0.10010637173E+04  0.00000000000E+00 0. -1.
         22   -1    0    0    0    0 -0.00000000000E+00 -0.00000000000E+00 -0.51346328843E+03  0.51346328843E+03  0.00000000000E+00 0. -1.
         24    2    1    2    0    0 -0.16255281213E+03  0.14351289478E+02 -0.35929886410E+03  0.40279192503E+03  0.80723508837E+02 0.  0.
         25    2    1    2    0    0  0.18221265181E+03  0.49155897550E+02 -0.30067324637E+02  0.22840530618E+03  0.12508871707E+03 0.  0.
        -24    2    1    2    0    0 -0.19659839678E+02 -0.63507187028E+02  0.87696661766E+03  0.88332977457E+03  0.82349074415E+02 0.  0.
        -11    1    3    3    0    0 -0.89658673842E+02 -0.27434497951E+02 -0.14570550558E+03  0.17326691499E+03  0.00000000000E+00 0.  1.
         12    1    3    3    0    0 -0.72894138284E+02  0.41785787429E+02 -0.21359335852E+03  0.22952501003E+03  0.00000000000E+00 0. -1.
         11    1    5    5    0    0  0.22749634403E+02 -0.84385514262E+01  0.45754245198E+03  0.45818538866E+03  0.00000000000E+00 0. -1.
        -12    1    5    5    0    0 -0.42409474081E+02 -0.55068635602E+02  0.41942416568E+03  0.42514438591E+03  0.00000000000E+00 0.  1.
          5    1    4    4  501    0  0.12237526710E+03  0.73073750437E+02 -0.63030030793E+02  0.15590297041E+03  0.41800000000E+01 0.  1.
         -5    1    4    4    0  501  0.59837384709E+02 -0.23917852887E+02  0.32962706156E+02  0.72502335773E+02  0.41800000000E+01 0.  1.
</event>
<event>
11    1  0.6763327E-009  0.1516100E+03  0.7561462E-02  0.1095245E+00
         22   -1    0    0    0    0  0.00000000000E+00  0.00000000000E+00  0.20284659394E+03  0.20284659394E+03  0.00000000000E+00 0. -1.
         22   -1    0    0    0    0 -0.00000000000E+00 -0.00000000000E+00 -0.43186684921E+03  0.43186684921E+03  0.00000000000E+00 0.  1.
        -24    2    1    2    0    0 -0.36256962404E+02 -0.42853139781E+02 -0.16165063316E+03  0.18894620705E+03  0.80117308039E+02 0.  0.
         25    2    1    2    0    0  0.51329418041E+02  0.12287329427E+03 -0.19888303450E+03  0.27006309961E+03  0.12508821190E+03 0.  0.
         24    2    1    2    0    0 -0.15072455637E+02 -0.80020154487E+02  0.13151341239E+03  0.17570413649E+03  0.83341237686E+02 0.  0.
        -13    1    5    5    0    0 -0.31235317303E+02 -0.26629513040E+01  0.14587696905E+02  0.34576542014E+02  0.00000000000E+00 0.  1.
         14    1    5    5    0    0  0.16162861665E+02 -0.77357203183E+02  0.11692571549E+03  0.14112759448E+03  0.00000000000E+00 0. -1.
         11    1    3    3    0    0 -0.92894385084E+01 -0.49680023401E+01  0.78785086036E+01  0.13154680265E+02  0.00000000000E+00 0. -1.
        -12    1    3    3    0    0 -0.26967523896E+02 -0.37885137441E+02 -0.16952914176E+03  0.17579152679E+03  0.00000000000E+00 0.  1.
          5    1    4    4  501    0  0.98759558064E+01 -0.11360404423E+02 -0.92449990680E+02  0.93760687223E+02  0.41800000000E+01 0. -1.
         -5    1    4    4    0  501  0.41453462235E+02  0.13423369869E+03 -0.10643304382E+03  0.17630241238E+03  0.41800000000E+01 0. -1.
</event>
<event>
11    1  0.6763327E-009  0.1443514E+03  0.7561462E-02  0.1102794E+00
         22   -1    0    0    0    0  0.00000000000E+00  0.00000000000E+00  0.64464783895E+03  0.64464783895E+03  0.00000000000E+00 0.  1.
         22   -1    0    0    0    0 -0.00000000000E+00 -0.00000000000E+00 -0.39149232164E+03  0.39149232164E+03  0.00000000000E+00 0.  1.
         24    2    1    2    0    0  0.10405873689E+02 -0.73347924946E+02 -0.27295208636E+03  0.29400477320E+03  0.80297975807E+02 0.  0.
         25    2    1    2    0    0 -0.66132982862E+02  0.48843221139E+02 -0.49554131124E+02  0.15767808892E+03  0.12509011208E+03 0.  0.
        -24    2    1    2    0    0  0.55727109173E+02  0.24504703807E+02  0.57566173479E+03  0.58445729846E+03  0.80609612403E+02 0.  0.
        -13    1    3    3    0    0 -0.30500020290E+01  0.29005988343E+01 -0.14064135978E+03  0.14070432853E+03  0.00000000000E+00 0.  1.
         14    1    3    3    0    0  0.13455875718E+02 -0.76248523780E+02 -0.13231072658E+03  0.15330044467E+03  0.00000000000E+00 0. -1.
         11    1    5    5    0    0 -0.36989798600E+01  0.33931300586E+02  0.31978482298E+03  0.32160122609E+03  0.00000000000E+00 0. -1.
        -12    1    5    5    0    0  0.59426089033E+02 -0.94265967793E+01  0.25587691181E+03  0.26285607237E+03  0.00000000000E+00 0.  1.
          5    1    4    4  501    0 -0.67124678881E+02 -0.23729550430E+02 -0.46050963118E+02  0.84893920174E+02  0.41800000000E+01 0. -1.
         -5    1    4    4    0  501  0.99169601870E+00  0.72572771569E+02 -0.35031680062E+01  0.72784168748E+02  0.41800000000E+01 0. -1.
</event>
<event>
11    1  0.6763327E-009  0.1381285E+03  0.7561462E-02  0.1109666E+00
         22   -1    0    0    0    0  0.00000000000E+00  0.00000000000E+00  0.29846922877E+03  0.29846922877E+03  0.00000000000E+00 0.  1.
         22   -1    0    0    0    0 -0.00000000000E+00 -0.00000000000E+00 -0.22299621009E+04  0.22299621009E+04  0.00000000000E+00 0.  1.
        -24    2    1    2    0    0 -0.13272393044E+02  0.25477134269E+02 -0.21563195103E+04  0.21580183895E+04  0.80649230444E+02 0.  0.
         25    2    1    2    0    0  0.49811324993E+02 -0.65524684886E+02  0.30023210999E+02  0.15271828242E+03  0.12508728217E+03 0.  0.
         24    2    1    2    0    0 -0.36538931949E+02  0.40047550617E+02  0.19480342717E+03  0.21769465770E+03  0.80645451774E+02 0.  0.
        -13    1    5    5    0    0 -0.45621096196E+02  0.21929844396E+01  0.15670322162E+03  0.16322375215E+03  0.00000000000E+00 0.  1.
         14    1    5    5    0    0  0.90821642472E+01  0.37854566178E+02  0.38100205553E+02  0.54470905547E+02  0.00000000000E+00 0. -1.
         13    1    3    3    0    0  0.22018125933E+02 -0.44935673749E+01 -0.21985877398E+03  0.22100423189E+03  0.00000000000E+00 0. -1.
        -14    1    3    3    0    0 -0.35290518977E+02  0.29970701644E+02 -0.19364607363E+04  0.19370141577E+04  0.00000000000E+00 0.  1.
          5    1    4    4  501    0  0.72912328526E+02 -0.16604479996E+02  0.55062169403E+02  0.92958223447E+02  0.41800000000E+01 0.  1.
         -5    1    4    4    0  501 -0.23101003533E+02 -0.48920204890E+02 -0.25038958405E+02  0.59760058975E+02  0.41800000000E+01 0.  1.
</event>
<event>
11    1  0.6763327E-009  0.1279503E+03  0.7561462E-02  0.1121813E+00
         22   -1    0    0    0    0  0.00000000000E+00  0.00000000000E+00  0.25828506015E+04  0.25828506015E+04  0.00000000000E+00 0.  1.
         22   -1    0    0    0    0 -0.00000000000E+00 -0.00000000000E+00 -0.61393745714E+03  0.61393745714E+03  0.00000000000E+00 0.  1.
         24    2    1    2    0    0 -0.24649537127E+02 -0.11241454302E+02 -0.59919995962E+03  0.60639928745E+03  0.89137726224E+02 0.  0.
         25    2    1    2    0    0  0.10575282662E+02 -0.17134942363E+02  0.38122933410E+03  0.40173448894E+03  0.12509736836E+03 0.  0.
        -24    2    1    2    0    0  0.14074254465E+02  0.28376396665E+02  0.21868837699E+04  0.21886542822E+04  0.82119666918E+02 0.  0.
        -11    1    3    3    0    0  0.13793075101E+02 -0.38254923385E+02 -0.38300245471E+03  0.38515525233E+03  0.00000000000E+00 0.  1.
         12    1    3    3    0    0 -0.38442612228E+02  0.27013469083E+02 -0.21619750491E+03  0.22124403512E+03  0.00000000000E+00 0. -1.
         13    1    5    5    0    0 -0.10365692146E+02  0.15070117815E+02  0.10477500039E+03  0.10635956342E+03  0.00000000000E+00 0. -1.
        -14    1    5    5    0    0  0.24439946611E+02  0.13306278850E+02  0.20821087695E+04  0.20822947188E+04  0.00000000000E+00 0.  1.
          5    1    4    4  501    0  0.19389005881E+02  0.36906007929E+02  0.46751235556E+02  0.62778478767E+02  0.41800000000E+01 0. -1.
         -5    1    4    4    0  501 -0.88137232192E+01 -0.54040950292E+02  0.33447809854E+03  0.33895601017E+03  0.41800000000E+01 0. -1.
</event>
<event>
11    1  0.6763327E-009  0.1475081E+03  0.7561462E-02  0.1099453E+00
         22   -1    0    0    0    0  0.00000000000E+00  0.00000000000E+00  0.66040100434E+03  0.66040100434E+03  0.00000000000E+00 0. -1.
         22   -1    0    0    0    0 -0.00000000000E+00 -0.00000000000E+00 -0.13934070221E+03  0.13934070221E+03  0.00000000000E+00 0.  1.
        -24    2    1    2    0    0  0.19903218727E+01  0.10831739954E+02 -0.87823666430E+02  0.12038457976E+03  0.81597565450E+02 0.  0.
         25    2    1    2    0    0 -0.25222280994E+02  0.65824350431E+02  0.15413955768E+03  0.21065739930E+03  0.12509407688E+03 0.  0.
         24    2    1    2    0    0  0.23231959121E+02 -0.76656090385E+02  0.45474441088E+03  0.46869972749E+03  0.80442993501E+02 0.  0.
        -13    1    5    5    0    0  0.31399469390E+02 -0.77601740066E+02  0.24715225220E+03  0.26094480740E+03  0.00000000000E+00 0.  1.
         14    1    5    5    0    0 -0.81675102692E+01  0.94564968097E+00  0.20759215868E+03  0.20775492009E+03  0.00000000000E+00 0. -1.
         13    1    3    3    0    0 -0.67057644828E+00  0.44316858676E+02 -0.30026864322E+02  0.53535466905E+02  0.00000000000E+00 0. -1.
        -14    1    3    3    0    0  0.26608983210E+01 -0.33485118723E+02 -0.57796802107E+02  0.66849112855E+02  0.00000000000E+00 0.  1.
          5    1    4    4  501    0 -0.88558714864E+01 -0.89239025183E+01 -0.17930350384E+02  0.22294222589E+02  0.41800000000E+01 0. -1.
         -5    1    4    4    0  501 -0.16366409507E+02  0.74748252949E+02  0.17206990806E+03  0.18836317671E+03  0.41800000000E+01 0. -1.
</event>
<event>
11    1  0.6763327E-009  0.1717264E+03  0.7561462E-02  0.1076539E+00
         22   -1    0    0    0    0  0.00000000000E+00  0.00000000000E+00  0.80635399347E+03  0.80635399347E+03  0.00000000000E+00 0.  1.
         22   -1    0    0    0    0 -0.00000000000E+00 -0.00000000000E+00 -0.18118248118E+03  0.18118248118E+03  0.00000000000E+00 0. -1.
        -24    2    1    2    0    0 -0.11920940760E+03  0.16373616624E+02 -0.90337270075E+02  0.17276230220E+03  0.84894125320E+02 0.  0.
         25    2    1    2    0    0  0.10234112470E+03 -0.42353082680E+02  0.10440649155E+03  0.19701735635E+03  0.12509050247E+03 0.  0.
         24    2    1    2    0    0  0.16868282902E+02  0.25979466056E+02  0.61110229081E+03  0.61775681611E+03  0.84958827605E+02 0.  0.
        -11    1    5    5    0    0  0.13935540633E+02  0.53991479853E+02  0.50161992455E+03  0.50470964712E+03  0.00000000000E+00 0.  1.
         12    1    5    5    0    0  0.29327422681E+01 -0.28012013797E+02  0.10948236626E+03  0.11304716899E+03  0.00000000000E+00 0. -1.
         13    1    3    3    0    0 -0.40453793940E+02  0.16131301506E+02 -0.82915480571E+02  0.93657382254E+02  0.00000000000E+00 0. -1.
        -14    1    3    3    0    0 -0.78755613659E+02  0.24231511797E+00 -0.74217895041E+01  0.79104919941E+02  0.00000000000E+00 0.  1.
          5    1    4    4  501    0  0.95614725619E+01  0.35503292659E+02 -0.76727396450E-01  0.37005186586E+02  0.41800000000E+01 0. -1.
         -5    1    4    4    0  501  0.92779652136E+02 -0.77856375339E+02  0.10448321895E+03  0.16001216976E+03  0.41800000000E+01 0. -1.
</event>
<event>
11    1  0.6763327E-009  0.1392414E+03  0.7561462E-02  0.1108408E+00
         22   -1    0    0    0    0  0.00000000000E+00  0.00000000000E+00  0.10112068616E+03  0.10112068616E+03  0.00000000000E+00 0. -1.
         22   -1    0    0    0    0 -0.00000000000E+00 -0.00000000000E+00 -0.34086867852E+03  0.34086867852E+03  0.00000000000E+00 0.  1.
        -24    2    1    2    0    0  0.30937382421E+02  0.99220614953E+02 -0.11585650805E+03  0.17503649073E+03  0.80082398609E+02 0.  0.
         25    2    1    2    0    0  0.13738548865E+02 -0.37759540188E+02 -0.40370684450E+02  0.13744759696E+03  0.12509004416E+03 0.  0.
         24    2    1    2    0    0 -0.44675931285E+02 -0.61461074765E+02 -0.83520799860E+02  0.12950527699E+03  0.63423104707E+02 0.  0.
        -11    1    5    5    0    0 -0.54881457374E+02 -0.31397666111E+02 -0.71777638250E+02  0.95654676590E+02  0.00000000000E+00 0.  1.
         12    1    5    5    0    0  0.10205526088E+02 -0.30063408654E+02 -0.11743161610E+02  0.33850600397E+02  0.00000000000E+00 0. -1.
         13    1    3    3    0    0 -0.13061640083E+02  0.13567003854E+02  0.59634450749E+01  0.19754308704E+02  0.00000000000E+00 0. -1.
        -14    1    3    3    0    0  0.43999022503E+02  0.85653611099E+02 -0.12181995312E+03  0.15528218202E+03  0.00000000000E+00 0.  1.
          5    1    4    4  501    0 -0.54215413168E+02 -0.24228754064E+02 -0.55460192905E+01  0.59787743547E+02  0.41800000000E+01 0.  1.
         -5    1    4    4    0  501  0.67953962033E+02 -0.13530786124E+02 -0.34824665160E+02  0.77659853416E+02  0.41800000000E+01 0.  1.
</event>
<event>
11    1  0.6763327E-009  0.1305956E+03  0.7561462E-02  0.1118539E+00
         22   -1    0    0    0    0  0.00000000000E+00  0.00000000000E+00  0.18421719638E+04  0.18421719638E+04  0.00000000000E+00 0.  1.
         22   -1    0    0    0    0 -0.00000000000E+00 -0.00000000000E+00 -0.32692662183E+03  0.32692662183E+03  0.00000000000E+00 0.  1.
         24    2    1    2    0    0  0.11533761451E+01  0.27963674108E+02 -0.31305327415E+03  0.32120575294E+03  0.66238100242E+02 0.  0.
         25    2    1    2    0    0 -0.29568906181E+02 -0.47510190523E+02  0.56833658507E+03  0.58462456811E+03  0.12509145974E+03 0.  0.
        -24    2    1    2    0    0  0.28415530036E+02  0.19546516415E+02  0.12599620310E+04  0.12632682645E+04  0.84574700177E+02 0.  0.
        -11    1    3    3    0    0 -0.81287825315E+01  0.45995781955E+02 -0.15582601662E+03  0.16267586336E+03  0.00000000000E+00 0.  1.
         12    1    3    3    0    0  0.92821586765E+01 -0.18032107847E+02 -0.15722725752E+03  0.15852988958E+03  0.00000000000E+00 0. -1.
         11    1    5    5    0    0  0.49730314954E+02 -0.78018381908E+01  0.50301649575E+03  0.50552899808E+03  0.00000000000E+00 0. -1.
        -12    1    5    5    0    0 -0.21314784917E+02  0.27348354606E+02  0.75694553526E+03  0.75773926644E+03  0.00000000000E+00 0.  1.
          5    1    4    4  501    0  0.35931386872E+02  0.19346109423E+02  0.22633726523E+03  0.23002470855E+03  0.41800000000E+01 0. -1.
         -5    1    4    4    0  501 -0.65500293053E+02 -0.66856299946E+02  0.34199931984E+03  0.35459985956E+03  0.41800000000E+01 0. -1.
</event>
<event>
11    1  0.6763327E-009  0.1740170E+03  0.7561462E-02  0.1074588E+00
         22   -1    0    0    0    0  0.00000000000E+00  0.00000000000E+00  0.12303309310E+03  0.12303309310E+03  0.00000000000E+00 0.  1.
         22   -1    0    0    0    0 -0.00000000000E+00 -0.00000000000E+00 -0.94351913750E+03  0.94351913750E+03  0.00000000000E+00 0. -1.
         24    2    1    2    0    0  0.15904199188E+02 -0.11844740151E+03 -0.75815031733E+03  0.77173925723E+03  0.80665029651E+02 0.  0.
         25    2    1    2    0    0 -0.53465470054E+02  0.12759604217E+03 -0.81314877810E+02  0.20346761680E+03  0.12509058825E+03 0.  0.
        -24    2    1    2    0    0  0.37561270866E+02 -0.91486406646E+01  0.18979150745E+02  0.91345356569E+02  0.80555690728E+02 0.  0.
        -13    1    3    3    0    0  0.67886359479E+01  0.99049008042E+01 -0.12946932740E+03  0.13002499519E+03  0.00000000000E+00 0.  1.
         14    1    3    3    0    0  0.91155632401E+01 -0.12835230231E+03 -0.62868098993E+03  0.64171426204E+03  0.00000000000E+00 0. -1.
         13    1    5    5    0    0 -0.22138172442E+02 -0.30831253448E+01  0.21866745529E+02  0.31269136557E+02  0.00000000000E+00 0. -1.
        -14    1    5    5    0    0  0.59699443308E+02 -0.60655153198E+01 -0.28875947845E+01  0.60076220012E+02  0.00000000000E+00 0.  1.
          5    1    4    4  501    0 -0.46707540163E+02  0.19898550700E+02  0.20629441098E+02  0.54959920561E+02  0.41800000000E+01 0.  1.
         -5    1    4    4    0  501 -0.67579298905E+01  0.10769749147E+03 -0.10194431891E+03  0.14850769624E+03  0.41800000000E+01 0.  1.
</event>
<event>
11    1  0.6763327E-009  0.3333567E+03  0.7561462E-02  0.9869853E-01
         22   -1    0    0    0    0  0.00000000000E+00  0.00000000000E+00  0.35510608105E+03  0.35510608105E+03  0.00000000000E+00 0. -1.
         22   -1    0    0    0    0 -0.00000000000E+00 -0.00000000000E+00 -0.80583715672E+03  0.80583715672E+03  0.00000000000E+00 0.  1.
        -24    2    1    2    0    0 -0.41045868254E+02  0.72873199691E+02 -0.48495927073E+03  0.49840521520E+03  0.78911328310E+02 0.  0.
         25    2    1    2    0    0 -0.71852124083E+02  0.25304425442E+03 -0.56775440356E+02  0.29675745622E+03  0.12508962693E+03 0.  0.
         24    2    1    2    0    0  0.11289799234E+03 -0.32591745411E+03  0.91003635413E+02  0.36578056636E+03  0.80904990593E+02 0.  0.
        -11    1    5    5    0    0  0.14858036832E+01 -0.71988241410E+02  0.44410712714E+02  0.84598025496E+02  0.00000000000E+00 0.  1.
         12    1    5    5    0    0  0.11141218865E+03 -0.25392921270E+03  0.46592922698E+02  0.28118254086E+03  0.00000000000E+00 0. -1.
         11    1    3    3    0    0 -0.16878113050E+02  0.58309935402E+02 -0.14388754991E+03  0.15616832677E+03  0.00000000000E+00 0. -1.
        -12    1    3    3    0    0 -0.24167755204E+02  0.14563264289E+02 -0.34107172082E+03  0.34223688843E+03  0.00000000000E+00 0.  1.
          5    1    4    4  501    0  0.50911594013E+01  0.72826426593E+02  0.34136301567E+02  0.80699242865E+02  0.41800000000E+01 0. -1.
         -5    1    4    4    0  501 -0.76943283484E+02  0.18021782782E+03 -0.90911741923E+02  0.21605821335E+03  0.41800000000E+01 0. -1.
</event>
<event>
11    1  0.6763327E-009  0.2448616E+03  0.7561462E-02  0.1026673E+00
         22   -1    0    0    0    0  0.00000000000E+00  0.00000000000E+00  0.17215106128E+04  0.17215106128E+04  0.00000000000E+00 0.  1.
         22   -1    0    0    0    0 -0.00000000000E+00 -0.00000000000E+00 -0.19365154270E+04  0.19365154270E+04  0.00000000000E+00 0.  1.
         24    2    1    2    0    0 -0.30641916728E+02 -0.13612113634E+03 -0.17390401850E+04  0.17463894959E+04  0.78406731502E+02 0.  0.
         25    2    1    2    0    0  0.87645893490E+02  0.33281498742E+03 -0.54679811482E+01  0.36622862787E+03  0.12508353433E+03 0.  0.
        -24    2    1    2    0    0 -0.57003976762E+02 -0.19669385107E+03  0.15295033519E+04  0.15454079160E+04  0.83469748612E+02 0.  0.
        -13    1    3    3    0    0 -0.37186634544E+02 -0.13489590306E+03 -0.17267609008E+04  0.17324211264E+04  0.00000000000E+00 0.  1.
         14    1    3    3    0    0  0.65447178153E+01 -0.12252332861E+01 -0.12279284191E+02  0.13968369558E+02  0.00000000000E+00 0. -1.
         11    1    5    5    0    0 -0.69818641044E+01 -0.15666340510E+03  0.10512119270E+04  0.10628446191E+04  0.00000000000E+00 0. -1.
        -12    1    5    5    0    0 -0.50022112658E+02 -0.40030445971E+02  0.47829142488E+03  0.48256329686E+03  0.00000000000E+00 0.  1.
          5    1    4    4  501    0 -0.22281654022E+02  0.15289260147E+03  0.91511614845E+01  0.15483486638E+03  0.41800000000E+01 0. -1.
         -5    1    4    4    0  501  0.10992754751E+03  0.17992238595E+03 -0.14619142633E+02  0.21139376150E+03  0.41800000000E+01 0. -1.
</event>
<event>
11    1  0.6763327E-009  0.1394581E+03  0.7561462E-02  0.1108165E+00
         22   -1    0    0    0    0  0.00000000000E+00  0.00000000000E+00  0.11237331912E+03  0.11237331912E+03  0.00000000000E+00 0.  1.
         22   -1    0    0    0    0 -0.00000000000E+00 -0.00000000000E+00 -0.16659780519E+04  0.16659780519E+04  0.00000000000E+00 0. -1.
         24    2    1    2    0    0 -0.12991960605E+02 -0.55192596846E+01 -0.14501056727E+04  0.14524010147E+04  0.80392737009E+02 0.  0.
         25    2    1    2    0    0  0.68793634219E+02  0.26680601839E+02 -0.15604364451E+03  0.21316875024E+03  0.12508748323E+03 0.  0.
        -24    2    1    2    0    0 -0.55801673614E+02 -0.21161342155E+02  0.52544584417E+02  0.11278160612E+03  0.79982048910E+02 0.  0.
        -11    1    3    3    0    0  0.27781931921E+02 -0.51316794743E+01 -0.10139324155E+04  0.10143259403E+04  0.00000000000E+00 0.  1.
         12    1    3    3    0    0 -0.40773892526E+02 -0.38758021026E+00 -0.43617325720E+03  0.43807507442E+03  0.00000000000E+00 0. -1.
         13    1    5    5    0    0  0.12872702833E+02 -0.27961453911E+02  0.16447897671E+02  0.34901041830E+02  0.00000000000E+00 0. -1.
        -14    1    5    5    0    0 -0.68674376446E+02  0.68001117564E+01  0.36096686747E+02  0.77880564291E+02  0.00000000000E+00 0.  1.
          5    1    4    4  501    0  0.81604265128E+02  0.63807706821E+02 -0.12805112897E+03  0.16475813658E+03  0.41800000000E+01 0.  1.
         -5    1    4    4    0  501 -0.12810630910E+02 -0.37127104981E+02 -0.27992515538E+02  0.48410613658E+02  0.41800000000E+01 0.  1.
</event>
<event>
11    1  0.6763327E-009  0.1768127E+03  0.7561462E-02  0.1072251E+00
         22   -1    0    0    0    0  0.00000000000E+00  0.00000000000E+00  0.20599522117E+03  0.20599522117E+03  0.00000000000E+00 0. -1.
         22   -1    0    0    0    0 -0.00000000000E+00 -0.00000000000E+00 -0.12273492513E+04  0.12273492513E+04  0.00000000000E+00 0.  1.
        -24    2    1    2    0    0 -0.15449626145E+03  0.94929779638E+01 -0.89116509514E+03  0.90805874066E+03  0.80226169372E+02 0.  0.
         25    2    1    2    0    0  0.60464380528E+02  0.50114241544E+02 -0.28285979307E+03  0.31910065982E+03  0.12509272578E+03 0.  0.
         24    2    1    2    0    0  0.94031880922E+02 -0.59607219508E+02  0.15267085806E+03  0.20618507202E+03  0.82515924369E+02 0.  0.
        -11    1    5    5    0    0 -0.14943945570E+02 -0.43948465278E+01  0.25206394406E+02  0.29631039539E+02  0.00000000000E+00 0.  1.
         12    1    5    5    0    0  0.10897582649E+03 -0.55212372980E+02  0.12746446366E+03  0.17655403248E+03  0.00000000000E+00 0. -1.
         11    1    3    3    0    0 -0.36882477345E+02 -0.32767593958E+02 -0.26003229731E+03  0.26467116955E+03  0.00000000000E+00 0. -1.
        -12    1    3    3    0    0 -0.11761378410E+03  0.42260571922E+02 -0.63113279784E+03  0.64338757111E+03  0.00000000000E+00 0.  1.
          5    1    4    4  501    0 -0.12987052275E+02  0.68179421856E+02 -0.10686362512E+03  0.12749276005E+03  0.41800000000E+01 0.  1.
         -5    1    4    4    0  501  0.73451432803E+02 -0.18065180311E+02 -0.17599616795E+03  0.19160789977E+03  0.41800000000E+01 0.  1.
</event>
<event>
11    1  0.6763327E-009  0.1451866E+03  0.7561462E-02  0.1101901E+00
         22   -1    0    0    0    0  0.00000000000E+00  0.00000000000E+00  0.13042726074E+04  0.13042726074E+04  0.00000000000E+00 0. -1.
         22   -1    0    0    0    0 -0.00000000000E+00 -0.00000000000E+00 -0.44442472033E+03  0.44442472033E+03  0.00000000000E+00 0.  1.
         24    2    1    2    0    0  0.43235893736E+01 -0.65273031392E+01 -0.40629591843E+03  0.41409535850E+03  0.79607119568E+02 0.  0.
         25    2    1    2    0    0  0.58413468904E+02  0.45237633085E+02  0.13504118921E+03  0.19834783283E+03  0.12508862142E+03 0.  0.
        -24    2    1    2    0    0 -0.62737058278E+02 -0.38710329946E+02  0.11311026163E+04  0.11362541364E+04  0.79031043105E+02 0.  0.
        -13    1    3    3    0    0 -0.66084308057E+01  0.17388724433E+02 -0.36274260799E+03  0.36321927089E+03  0.00000000000E+00 0.  1.
         14    1    3    3    0    0  0.10932020179E+02 -0.23916027572E+02 -0.43553310442E+02  0.50876087609E+02  0.00000000000E+00 0. -1.
         11    1    5    5    0    0 -0.80835064485E+02 -0.39359721654E+02  0.92719594579E+03  0.93154485519E+03  0.00000000000E+00 0. -1.
        -12    1    5    5    0    0  0.18098006207E+02  0.64939170823E+00  0.20390667052E+03  0.20470928122E+03  0.00000000000E+00 0.  1.
          5    1    4    4  501    0  0.58068659185E+02  0.83188163456E+02  0.71385652354E+02  0.12411939204E+03  0.41800000000E+01 0.  1.
         -5    1    4    4    0  501  0.34480971895E+00 -0.37950530371E+02  0.63655536860E+02  0.74228440790E+02  0.41800000000E+01 0.  1.
</event>
<event>
11    1  0.6763327E-009  0.1598592E+03  0.7561462E-02  0.1087210E+00
         22   -1    0    0    0    0  0.00000000000E+00  0.00000000000E+00  0.13834582813E+04  0.13834582813E+04  0.00000000000E+00 0. -1.
         22   -1    0    0    0    0 -0.00000000000E+00 -0.00000000000E+00 -0.62513826515E+03  0.62513826515E+03  0.00000000000E+00 0.  1.
        -24    2    1    2    0    0 -0.10200229557E+02 -0.15274842967E+02 -0.60710485969E+03  0.61259262114E+03  0.79724797237E+02 0.  0.
         25    2    1    2    0    0  0.38023936943E+02 -0.84990564830E+02  0.64243221740E+03  0.66108828351E+03  0.12509735708E+03 0.  0.
         24    2    1    2    0    0 -0.27823707386E+02  0.10026540780E+03  0.72299265842E+03  0.73491564178E+03  0.80964842403E+02 0.  0.
        -13    1    5    5    0    0 -0.12680082924E+01  0.53848098402E+02  0.14899231335E+03  0.15842958999E+03  0.00000000000E+00 0.  1.
         14    1    5    5    0    0 -0.26555699094E+02  0.46417309395E+02  0.57400034507E+03  0.57648605179E+03  0.00000000000E+00 0. -1.
         13    1    3    3    0    0  0.16086174238E+02  0.15420107110E+02 -0.44389485861E+03  0.44445381111E+03  0.00000000000E+00 0. -1.
        -14    1    3    3    0    0 -0.26286403794E+02 -0.30694950077E+02 -0.16321000108E+03  0.16813881003E+03  0.00000000000E+00 0.  1.
          5    1    4    4  501    0 -0.73950001143E+01  0.16450001063E+02  0.30982042291E+03  0.31037309068E+03  0.41800000000E+01 0. -1.
         -5    1    4    4    0  501  0.45418937057E+02 -0.10144056589E+03  0.33261179448E+03  0.35071519283E+03  0.41800000000E+01 0. -1.
</event>
<event>
11    1  0.6763327E-009  0.1610244E+03  0.7561462E-02  0.1086118E+00
         22   -1    0    0    0    0  0.00000000000E+00  0.00000000000E+00  0.31281881999E+03  0.31281881999E+03  0.00000000000E+00 0.  1.
         22   -1    0    0    0    0 -0.00000000000E+00 -0.00000000000E+00 -0.36691790412E+03  0.36691790412E+03  0.00000000000E+00 0.  1.
        -24    2    1    2    0    0 -0.37207956813E+02  0.95027898051E+02 -0.25326027158E+03  0.28646141973E+03  0.86629362071E+02 0.  0.
         25    2    1    2    0    0  0.43313840622E+02 -0.88903315054E+02 -0.21111113938E+02  0.16085140815E+03  0.12509039994E+03 0.  0.
         24    2    1    2    0    0 -0.61058838096E+01 -0.61245829973E+01  0.22027230139E+03  0.23242389623E+03  0.73662666537E+02 0.  0.
        -11    1    5    5    0    0  0.23568342053E+02 -0.40861514168E+01  0.18384961096E+03  0.18539914464E+03  0.00000000000E+00 0.  1.
         12    1    5    5    0    0 -0.29674225863E+02 -0.20384315805E+01  0.36422690431E+02  0.47024751590E+02  0.00000000000E+00 0. -1.
         11    1    3    3    0    0 -0.19585991512E+02 -0.12850936502E+02 -0.31833387333E+02  0.39523691396E+02  0.00000000000E+00 0. -1.
        -12    1    3    3    0    0 -0.17621965301E+02  0.10787883455E+03 -0.22142688425E+03  0.24693772833E+03  0.00000000000E+00 0.  1.
          5    1    4    4  501    0  0.69035486574E+02 -0.88272325305E+02 -0.49264044601E+02  0.12248395941E+03  0.41800000000E+01 0.  1.
         -5    1    4    4    0  501 -0.25721645952E+02 -0.63098974896E+00  0.28152930663E+02  0.38367448749E+02  0.41800000000E+01 0.  1.
</event>
<event>
11    1  0.6763327E-009  0.2428533E+03  0.7561462E-02  0.1027777E+00
         22   -1    0    0    0    0  0.00000000000E+00  0.00000000000E+00  0.12016305725E+04  0.12016305725E+04  0.00000000000E+00 0. -1.
         22   -1    0    0    0    0 -0.00000000000E+00 -0.00000000000E+00 -0.27767780785E+03  0.27767780785E+03  0.00000000000E+00 0.  1.
        -24    2    1    2    0    0  0.19040624397E+03  0.83344944133E+02 -0.16401996828E+02  0.22384653942E+03  0.81469811922E+02 0.  0.
         25    2    1    2    0    0 -0.15394600043E+03 -0.15038264133E+03 -0.54239877287E+02  0.25476541389E+03  0.12509653058E+03 0.  0.
         24    2    1    2    0    0 -0.36460243538E+02  0.67037697201E+02  0.99459463873E+03  0.10006964270E+04  0.79695931067E+02 0.  0.
        -11    1    5    5    0    0  0.19257914377E+02 -0.66378322940E+00  0.29498567832E+03  0.29561437429E+03  0.00000000000E+00 0.  1.
         12    1    5    5    0    0 -0.55718157915E+02  0.67701480430E+02  0.69960896041E+03  0.70508205271E+03  0.00000000000E+00 0. -1.
         11    1    3    3    0    0  0.42552300087E+02 -0.15486363628E+02 -0.40267557619E+00  0.45284521072E+02  0.00000000000E+00 0. -1.
        -12    1    3    3    0    0  0.14785394388E+03  0.98831307761E+02 -0.15999321251E+02  0.17856201835E+03  0.00000000000E+00 0.  1.
          5    1    4    4  501    0 -0.30470234541E+02 -0.11374562356E+03 -0.89327099059E+01  0.11816838739E+03  0.41800000000E+01 0.  1.
         -5    1    4    4    0  501 -0.12347576589E+03 -0.36637017776E+02 -0.45307167381E+02  0.13659702650E+03  0.41800000000E+01 0.  1.
</event>
<event>
11    1  0.6763327E-009  0.1317168E+03  0.7561462E-02  0.1117177E+00
         22   -1    0    0    0    0  0.00000000000E+00  0.00000000000E+00  0.82602154437E+03  0.82602154437E+03  0.00000000000E+00 0. -1.
         22   -1    0    0    0    0 -0.00000000000E+00 -0.00000000000E+00 -0.16190416804E+04  0.16190416804E+04  0.00000000000E+00 0. -1.
        -24    2    1    2    0    0 -0.81331965117E+01 -0.40446799462E+02 -0.15943784773E+04  0.15969537518E+04  0.80724617537E+02 0.  0.
         25    2    1    2    0    0 -0.18971602873E+02  0.49169115075E+02  0.20603215838E+03  0.24672345821E+03  0.12508273642E+03 0.  0.
         24    2    1    2    0    0  0.27104799385E+02 -0.87223156130E+01  0.59532618289E+03  0.60138601481E+03  0.80256624892E+02 0.  0.
        -13    1    5    5    0    0  0.29139122629E+02 -0.41873610878E+02  0.31587374110E+03  0.31996672964E+03  0.00000000000E+00 0.  1.
         14    1    5    5    0    0 -0.20343232441E+01  0.33151295265E+02  0.27945244179E+03  0.28141928518E+03  0.00000000000E+00 0. -1.
         13    1    3    3    0    0 -0.39838025346E+02 -0.42183570294E+02 -0.11322946282E+04  0.11337802463E+04  0.00000000000E+00 0. -1.
        -14    1    3    3    0    0  0.31704828834E+02  0.17367708317E+01 -0.46208384912E+03  0.46317350546E+03  0.00000000000E+00 0.  1.
          5    1    4    4  501    0  0.49185187340E+02  0.21169940459E+02  0.46880038622E+02  0.71292071466E+02  0.41800000000E+01 0.  1.
         -5    1    4    4    0  501 -0.68156790213E+02  0.27999174616E+02  0.15915211976E+03  0.17543138674E+03  0.41800000000E+01 0.  1.
</event>
<event>
11    1  0.6763327E-009  0.1340015E+03  0.7561462E-02  0.1114448E+00
         22   -1    0    0    0    0  0.00000000000E+00  0.00000000000E+00  0.26650635933E+03  0.26650635933E+03  0.00000000000E+00 0. -1.
         22   -1    0    0    0    0 -0.00000000000E+00 -0.00000000000E+00 -0.81226300829E+03  0.81226300829E+03  0.00000000000E+00 0.  1.
        -24    2    1    2    0    0 -0.11345026525E+01 -0.33767781707E+02 -0.67522539575E+03  0.68100352462E+03  0.81822462016E+02 0.  0.
         25    2    1    2    0    0  0.28953868546E+02  0.70454052160E+02 -0.81398510940E+02  0.16755694361E+03  0.12509001479E+03 0.  0.
         24    2    1    2    0    0 -0.27819365893E+02 -0.36686270453E+02  0.21086725773E+03  0.23020889938E+03  0.80070827485E+02 0.  0.
        -11    1    5    5    0    0  0.14989635197E+02 -0.20687313224E+02  0.16203230495E+02  0.30252252317E+02  0.00000000000E+00 0.  1.
         12    1    5    5    0    0 -0.42809001090E+02 -0.15998957230E+02  0.19466402724E+03  0.19995664707E+03  0.00000000000E+00 0. -1.
         13    1    3    3    0    0 -0.27464587885E+02  0.12496856055E+02 -0.14460226828E+03  0.14771692858E+03  0.00000000000E+00 0. -1.
        -14    1    3    3    0    0  0.26330085232E+02 -0.46264637762E+02 -0.53062312748E+03  0.53328659603E+03  0.00000000000E+00 0.  1.
          5    1    4    4  501    0  0.37246924853E+02  0.33312338979E+01 -0.91603277999E+02  0.99030618853E+02  0.41800000000E+01 0.  1.
         -5    1    4    4    0  501 -0.82930563070E+01  0.67122818263E+02  0.10204767060E+02  0.68526324760E+02  0.41800000000E+01 0.  1.
</event>
<event>
11    1  0.6763327E-009  0.1457880E+03  0.7561462E-02  0.1101262E+00
         22   -1    0    0    0    0  0.00000000000E+00  0.00000000000E+00  0.20086792323E+04  0.20086792323E+04  0.00000000000E+00 0. -1.
         22   -1    0    0    0    0 -0.00000000000E+00 -0.00000000000E+00 -0.94223548545E+03  0.94223548545E+03  0.00000000000E+00 0. -1.
         24    2    1    2    0    0  0.11226546916E+01 -0.18755096264E+02 -0.92163167172E+03  0.92520848051E+03  0.79074522371E+02 0.  0.
         25    2    1    2    0    0 -0.58268449320E+01 -0.57763772939E+02  0.26252508859E+03  0.29654366601E+03  0.12509243831E+03 0.  0.
        -24    2    1    2    0    0  0.47041902404E+01  0.76518869203E+02  0.17255503300E+04  0.17291625713E+04  0.81252628707E+02 0.  0.
        -13    1    3    3    0    0 -0.66525932307E+01  0.13216620518E+02 -0.35422169502E+02  0.38388359523E+02  0.00000000000E+00 0.  1.
         14    1    3    3    0    0  0.77752479223E+01 -0.31971716783E+02 -0.88620950222E+03  0.88682012098E+03  0.00000000000E+00 0. -1.
         13    1    5    5    0    0  0.37884466379E+01  0.10878996904E+02  0.11208850809E+04  0.11209442758E+04  0.00000000000E+00 0. -1.
        -14    1    5    5    0    0  0.91574360252E+00  0.65639872299E+02  0.60466524917E+03  0.60821829549E+03  0.00000000000E+00 0.  1.
          5    1    4    4  501    0 -0.42037385655E+02  0.42579068987E+01  0.18887621330E+03  0.19358968958E+03  0.41800000000E+01 0. -1.
         -5    1    4    4    0  501  0.36210540723E+02 -0.62021679838E+02  0.73648875294E+02  0.10295397642E+03  0.41800000000E+01 0. -1.
</event>
<event>
11    1  0.6763327E-009  0.1364690E+03  0.7561462E-02  0.1111567E+00
         22   -1    0    0    0    0  0.00000000000E+00  0.00000000000E+00  0.13970760656E+04  0.13970760656E+04  0.00000000000E+00 0. -1.
         22   -1    0    0    0    0 -0.00000000000E+00 -0.00000000000E+00 -0.13539818648E+03  0.13539818648E+03  0.00000000000E+00 0.  1.
         24    2    1    2    0    0  0.46766622171E+02 -0.36332806760E+02 -0.71507338282E+02  0.14464623726E+03  0.11091458303E+03 0.  0.
         25    2    1    2    0    0 -0.54645414139E+02 -0.29619613592E+02  0.17029895273E+03  0.22025372683E+03  0.12508608270E+03 0.  0.
        -24    2    1    2    0    0  0.78787919682E+01  0.65952420351E+02  0.11628862647E+04  0.11675742880E+04  0.80705986818E+02 0.  0.
        -11    1    3    3    0    0  0.19967120412E+02 -0.13908589298E+02 -0.97885128877E+02  0.10086442985E+03  0.00000000000E+00 0.  1.
         12    1    3    3    0    0  0.26799501759E+02 -0.22424217462E+02  0.26377790595E+02  0.43781807409E+02  0.00000000000E+00 0. -1.
         11    1    5    5    0    0  0.15523558390E+02  0.30180549264E+02  0.10023028981E+04  0.10028773335E+04  0.00000000000E+00 0. -1.
        -12    1    5    5    0    0 -0.76447664221E+01  0.35771871088E+02  0.16058336660E+03  0.16469695456E+03  0.00000000000E+00 0.  1.
          5    1    4    4  501    0  0.96050919027E+01 -0.51912783627E+02  0.22568667348E+02  0.57567456434E+02  0.41800000000E+01 0. -1.
         -5    1    4    4    0  501 -0.64250506042E+02  0.22293170035E+02  0.14773028538E+03  0.16268627039E+03  0.41800000000E+01 0. -1.
</event>
<event>
11    1  0.6763327E-009  0.1331802E+03  0.7561462E-02  0.1115422E+00
         22   -1    0    0    0    0  0.00000000000E+00  0.00000000000E+00  0.12601834881E+04  0.12601834881E+04  0.00000000000E+00 0. -1.
         22   -1    0    0    0    0 -0.00000000000E+00 -0.00000000000E+00 -0.10955059780E+03  0.10955059780E+03  0.00000000000E+00 0. -1.
        -24    2    1    2    0    0 -0.45675732170E+02 -0.25972687488E+02 -0.40314576307E+02  0.11030501074E+03  0.88210415065E+02 0.  0.
         25    2    1    2    0    0  0.20494309965E+02  0.70088564999E+01  0.91340490209E+02  0.15640913896E+03  0.12510632593E+03 0.  0.
         24    2    1    2    0    0  0.25181422205E+02  0.18963830989E+02  0.10996069764E+04  0.11030199362E+04  0.80769711004E+02 0.  0.
        -13    1    5    5    0    0  0.83504648892E+01  0.30521592006E+02  0.15523517876E+03  0.15842745522E+03  0.00000000000E+00 0.  1.
         14    1    5    5    0    0  0.16830957316E+02 -0.11557761018E+02  0.94437179768E+03  0.94459248103E+03  0.00000000000E+00 0. -1.
         13    1    3    3    0    0 -0.59494085025E+02  0.58214087419E+01 -0.37153595770E+01  0.59893562671E+02  0.00000000000E+00 0. -1.
        -14    1    3    3    0    0  0.13818352855E+02 -0.31794096230E+02 -0.36599216730E+02  0.50411448064E+02  0.00000000000E+00 0.  1.
          5    1    4    4  501    0 -0.47759668129E+02  0.20036622228E+02  0.17255715157E+02  0.54751111730E+02  0.41800000000E+01 0. -1.
         -5    1    4    4    0  501  0.68253978094E+02 -0.13027765728E+02  0.74084775052E+02  0.10165802723E+03  0.41800000000E+01 0. -1.
</event>
<event>
11    1  0.6763327E-009  0.1310131E+03  0.7561462E-02  0.1118030E+00
         22   -1    0    0    0    0  0.00000000000E+00  0.00000000000E+00  0.79473138062E+02  0.79473138062E+02  0.00000000000E+00 0.  1.
         22   -1    0    0    0    0 -0.00000000000E+00 -0.00000000000E+00 -0.12558291049E+04  0.12558291049E+04  0.00000000000E+00 0.  1.
        -24    2    1    2    0    0  0.27896267880E+02  0.26406966616E+02 -0.93420480343E+03  0.93851908658E+03  0.81264576929E+02 0.  0.
         25    2    1    2    0    0 -0.19862725667E+02 -0.40602806737E+02 -0.27738855430E+03  0.30762744058E+03  0.12508843413E+03 0.  0.
         24    2    1    2    0    0 -0.80335422122E+01  0.14195840121E+02  0.35237390902E+02  0.89155715805E+02  0.80255892406E+02 0.  0.
        -11    1    5    5    0    0  0.98987599284E+01  0.10212036382E+02  0.58106985216E+02  0.59822177042E+02  0.00000000000E+00 0.  1.
         12    1    5    5    0    0 -0.17932302141E+02  0.39838037388E+01 -0.22869594314E+02  0.29333538763E+02  0.00000000000E+00 0. -1.
         13    1    3    3    0    0  0.29054201269E+01  0.86507964113E+01 -0.90356286821E+01  0.12842131067E+02  0.00000000000E+00 0. -1.
        -14    1    3    3    0    0  0.24990847753E+02  0.17756170205E+02 -0.92516917475E+03  0.92567695551E+03  0.00000000000E+00 0.  1.
          5    1    4    4  501    0 -0.11575482365E+02 -0.77515076613E+02 -0.10502640496E+03  0.13111291711E+03  0.41800000000E+01 0.  1.
         -5    1    4    4    0  501 -0.82872433027E+01  0.36912269876E+02 -0.17236214934E+03  0.17651452347E+03  0.41800000000E+01 0.  1.
</event>
<event>
11    1  0.6763327E-009  0.1543731E+03  0.7561462E-02  0.1092492E+00
         22   -1    0    0    0    0  0.00000000000E+00  0.00000000000E+00  0.12358390261E+04  0.12358390261E+04  0.00000000000E+00 0. -1.
         22   -1    0    0    0    0 -0.00000000000E+00 -0.00000000000E+00 -0.11550135243E+04  0.11550135243E+04  0.00000000000E+00 0. -1.
        -24    2    1    2    0    0  0.26015110869E+02  0.91098229572E+02 -0.10616822896E+04  0.10690410587E+04  0.81876906585E+02 0.  0.
         25    2    1    2    0    0  0.26529267762E+02 -0.39222002835E+02 -0.36079830352E+02  0.13853298891E+03  0.12508983693E+03 0.  0.
         24    2    1    2    0    0 -0.52544378631E+02 -0.51876226737E+02  0.11785876217E+04  0.11832785027E+04  0.75014521866E+02 0.  0.
        -13    1    5    5    0    0 -0.18889361140E+02  0.17237652287E+02  0.19112434866E+03  0.19282754282E+03  0.00000000000E+00 0.  1.
         14    1    5    5    0    0 -0.33655017491E+02 -0.69113879024E+02  0.98746327301E+03  0.99045095993E+03  0.00000000000E+00 0. -1.
         13    1    3    3    0    0  0.25780039645E+02  0.10574041355E+03 -0.98306654487E+03  0.98907303934E+03  0.00000000000E+00 0. -1.
        -14    1    3    3    0    0  0.23507122407E+00 -0.14642183982E+02 -0.78615744723E+02  0.79968019411E+02  0.00000000000E+00 0.  1.
          5    1    4    4  501    0 -0.47158962057E+02 -0.16508086344E+02 -0.35277183845E+02  0.61306090375E+02  0.41800000000E+01 0. -1.
         -5    1    4    4    0  501  0.73688229819E+02 -0.22713916491E+02 -0.80264650721E+00  0.77226898537E+02  0.41800000000E+01 0. -1.
</event>
<event>
11    1  0.6763327E-009  0.1442106E+03  0.7561462E-02  0.1102946E+00
         22   -1    0    0    0    0  0.00000000000E+00  0.00000000000E+00  0.73221473718E+03  0.73221473718E+03  0.00000000000E+00 0. -1.
         22   -1    0    0    0    0 -0.00000000000E+00 -0.00000000000E+00 -0.49073213839E+03  0.49073213839E+03  0.00000000000E+00 0. -1.
        -24    2    1    2    0    0 -0.34263110600E+02  0.55352617168E+02 -0.43239354605E+03  0.44461690251E+03  0.80511728071E+02 0.  0.
         25    2    1    2    0    0  0.86731043160E+02 -0.95398106088E+02  0.12318584526E+03  0.21782063923E+03  0.12509198980E+03 0.  0.
         24    2    1    2    0    0 -0.52467932561E+02  0.40045488920E+02  0.55069029958E+03  0.56050933382E+03  0.80959138564E+02 0.  0.
        -13    1    5    5    0    0 -0.65158120357E+02  0.25436420232E+02  0.26216182996E+03  0.27133266889E+03  0.00000000000E+00 0.  1.
         14    1    5    5    0    0  0.12690187797E+02  0.14609068687E+02  0.28852846963E+03  0.28917666493E+03  0.00000000000E+00 0. -1.
         11    1    3    3    0    0 -0.59571117451E+02  0.48572738198E+02 -0.34002104108E+03  0.34860054118E+03  0.00000000000E+00 0. -1.
        -12    1    3    3    0    0  0.25308006851E+02  0.67798789700E+01 -0.92372504969E+02  0.96016361334E+02  0.00000000000E+00 0.  1.
          5    1    4    4  501    0  0.48115250454E+02  0.13065226388E+02  0.12231416300E+01  0.50047436920E+02  0.41800000000E+01 0.  1.
         -5    1    4    4    0  501  0.38615792706E+02 -0.10846333248E+03  0.12196270363E+03  0.16777320231E+03  0.41800000000E+01 0.  1.
</event>
<event>
11    1  0.6763327E-009  0.1501443E+03  0.7561462E-02  0.1096731E+00
         22   -1    0    0    0    0  0.00000000000E+00  0.00000000000E+00  0.24086808437E+04  0.24086808437E+04  0.00000000000E+00 0. -1.
         22   -1    0    0    0    0 -0.00000000000E+00 -0.00000000000E+00 -0.67988652409E+03  0.67988652409E+03  0.00000000000E+00 0.  1.
         24    2    1    2    0    0  0.73009222212E+02 -0.47863757406E+02 -0.41357979234E+03  0.43017506423E+03  0.79881508835E+02 0.  0.
         25    2    1    2    0    0 -0.26318003608E+02  0.81686194482E+02 -0.23459155349E+03  0.27936629949E+03  0.12508821143E+03 0.  0.
        -24    2    1    2    0    0 -0.46691218604E+02 -0.33822437076E+02  0.23769656654E+04  0.23790260041E+04  0.80466925856E+02 0.  0.
        -13    1    3    3    0    0  0.41191925303E+01 -0.98929470228E+01 -0.23251229213E+03  0.23275911183E+03  0.00000000000E+00 0.  1.
         14    1    3    3    0    0  0.68890029682E+02 -0.37970810383E+02 -0.18106750021E+03  0.19741595240E+03  0.00000000000E+00 0. -1.
         13    1    5    5    0    0 -0.59484242057E+02 -0.37161043110E+02  0.12390490338E+04  0.12410325646E+04  0.00000000000E+00 0. -1.
        -14    1    5    5    0    0  0.12793023453E+02  0.33386060337E+01  0.11379166316E+04  0.11379934395E+04  0.00000000000E+00 0.  1.
          5    1    4    4  501    0 -0.70793291525E+02  0.62820388712E+02 -0.10723613767E+03  0.14309141478E+03  0.41800000000E+01 0.  1.
         -5    1    4    4    0  501  0.44475287917E+02  0.18865805771E+02 -0.12735541582E+03  0.13627488471E+03  0.41800000000E+01 0.  1.
</event>
<event>
11    1  0.6763327E-009  0.2140149E+03  0.7561462E-02  0.1045033E+00
         22   -1    0    0    0    0  0.00000000000E+00  0.00000000000E+00  0.91016325007E+03  0.91016325007E+03  0.00000000000E+00 0.  1.
         22   -1    0    0    0    0 -0.00000000000E+00 -0.00000000000E+00 -0.25145128194E+04  0.25145128194E+04  0.00000000000E+00 0.  1.
         24    2    1    2    0    0 -0.28903650079E+02  0.60745011730E+01 -0.20472962666E+04  0.20490987190E+04  0.80692233431E+02 0.  0.
         25    2    1    2    0    0 -0.62986118650E+02  0.14180941986E+03 -0.43415312613E+03  0.47771635047E+03  0.12508721708E+03 0.  0.
        -24    2    1    2    0    0  0.91889768729E+02 -0.14788392103E+03  0.87709982341E+03  0.89786099997E+03  0.80851044182E+02 0.  0.
        -11    1    3    3    0    0 -0.45376318433E+02  0.19196819671E+01 -0.19342436606E+04  0.19347767918E+04  0.00000000000E+00 0.  1.
         12    1    3    3    0    0  0.16472668354E+02  0.41548192059E+01 -0.11305260593E+03  0.11432192718E+03  0.00000000000E+00 0. -1.
         11    1    5    5    0    0 -0.10702392690E+02 -0.16014583807E+01  0.94860740656E+02  0.95475996963E+02  0.00000000000E+00 0. -1.
        -12    1    5    5    0    0  0.10259216142E+03 -0.14628246265E+03  0.78223908275E+03  0.80238500301E+03  0.00000000000E+00 0.  1.
          5    1    4    4  501    0 -0.32146769198E+02 -0.12035285167E+02 -0.36858819669E+02  0.50540160727E+02  0.41800000000E+01 0.  1.
         -5    1    4    4    0  501 -0.30839349452E+02  0.15384470502E+03 -0.39729430646E+03  0.42717618975E+03  0.41800000000E+01 0.  1.
</event>
<event>
11    1  0.6763327E-009  0.1332647E+03  0.7561462E-02  0.1115322E+00
         22   -1    0    0    0    0  0.00000000000E+00  0.00000000000E+00  0.31896846644E+03  0.31896846644E+03  0.00000000000E+00 0. -1.
         22   -1    0    0    0    0 -0.00000000000E+00 -0.00000000000E+00 -0.56404800012E+03  0.56404800012E+03  0.00000000000E+00 0. -1.
         24    2    1    2    0    0 -0.23862893236E+02  0.36125227063E+02 -0.33079802177E+03  0.34322879934E+03  0.80648668857E+02 0.  0.
         25    2    1    2    0    0  0.25410368825E+02 -0.80679401491E+02 -0.19277042960E+03  0.24487908672E+03  0.12510186215E+03 0.  0.
        -24    2    1    2    0    0 -0.15474755883E+01  0.44554174428E+02  0.27848891769E+03  0.29490858050E+03  0.86183086721E+02 0.  0.
        -13    1    3    3    0    0 -0.23580725994E+01 -0.15344591586E+02 -0.12092704252E+02  0.19678681191E+02  0.00000000000E+00 0.  1.
         14    1    3    3    0    0 -0.21504820637E+02  0.51469818649E+02 -0.31870531752E+03  0.32355011815E+03  0.00000000000E+00 0. -1.
         11    1    5    5    0    0 -0.40979560046E+02  0.75949923768E+01  0.14567194743E+03  0.15151674666E+03  0.00000000000E+00 0. -1.
        -12    1    5    5    0    0  0.39432084457E+02  0.36959182051E+02  0.13281697025E+03  0.14339183383E+03  0.00000000000E+00 0.  1.
          5    1    4    4  501    0 -0.39979274819E+02 -0.16494305351E+02 -0.17078642678E+02  0.46685725439E+02  0.41800000000E+01 0.  1.
         -5    1    4    4    0  501  0.65389643644E+02 -0.64185096140E+02 -0.17569178693E+03  0.19819336128E+03  0.41800000000E+01 0.  1.
</event>
<event>
11    1  0.6763327E-009  0.1933505E+03  0.7561462E-02  0.1059328E+00
         22   -1    0    0    0    0  0.00000000000E+00  0.00000000000E+00  0.11958126171E+04  0.11958126171E+04  0.00000000000E+00 0.  1.
         22   -1    0    0    0    0 -0.00000000000E+00 -0.00000000000E+00 -0.33692197625E+03  0.33692197625E+03  0.00000000000E+00 0. -1.
        -24    2    1    2    0    0 -0.97690907253E+02 -0.24083085420E+02 -0.14445617424E+03  0.18995768140E+03  0.71364039160E+02 0.  0.
         25    2    1    2    0    0 -0.51776825063E+02  0.13996270301E+01 -0.13532818658E+03  0.19142414620E+03  0.12508671831E+03 0.  0.
         24    2    1    2    0    0  0.14946773232E+03  0.22683458390E+02  0.11386750017E+04  0.11513527658E+04  0.78595734483E+02 0.  0.
        -13    1    5    5    0    0  0.42851525118E+02 -0.28967698252E+02  0.37198306743E+03  0.37556195654E+03  0.00000000000E+00 0.  1.
         14    1    5    5    0    0  0.10661620720E+03  0.51651156642E+02  0.76669193426E+03  0.77579080923E+03  0.00000000000E+00 0. -1.
         11    1    3    3    0    0 -0.48515677900E+02  0.24262360402E+02 -0.58968572674E+02  0.80123190760E+02  0.00000000000E+00 0. -1.
        -12    1    3    3    0    0 -0.49175229353E+02 -0.48345445822E+02 -0.85487601564E+02  0.10983449064E+03  0.00000000000E+00 0.  1.
          5    1    4    4  501    0 -0.82714834898E+02  0.26781739031E+02 -0.59043589823E+02  0.10517900626E+03  0.41800000000E+01 0.  1.
         -5    1    4    4    0  501  0.30938009835E+02 -0.25382112001E+02 -0.76284596758E+02  0.86245139948E+02  0.41800000000E+01 0.  1.
</event>
<event>
11    1  0.6763327E-009  0.2245490E+03  0.7561462E-02  0.1038405E+00
         22   -1    0    0    0    0  0.00000000000E+00  0.00000000000E+00  0.13054067200E+03  0.13054067200E+03  0.00000000000E+00 0.  1.
         22   -1    0    0    0    0 -0.00000000000E+00 -0.00000000000E+00 -0.77111923087E+03  0.77111923087E+03  0.00000000000E+00 0.  1.
        -24    2    1    2    0    0 -0.19764853850E+03 -0.15629878201E+02 -0.54946807149E+03  0.58960283772E+03  0.80044405144E+02 0.  0.
         25    2    1    2    0    0  0.15040169483E+03 -0.70293195820E+01 -0.89820153841E+02  0.21537242032E+03  0.12509012054E+03 0.  0.
         24    2    1    2    0    0  0.47246843666E+02  0.22659197783E+02 -0.12903335391E+01  0.96684644831E+02  0.81243781946E+02 0.  0.
        -13    1    5    5    0    0  0.56698722322E+02  0.78721025802E+01  0.27080015459E+02  0.63324895178E+02  0.00000000000E+00 0.  1.
         14    1    5    5    0    0 -0.94518786557E+01  0.14787095203E+02 -0.28370348998E+02  0.33359749653E+02  0.00000000000E+00 0. -1.
         13    1    3    3    0    0 -0.16936966530E+03 -0.12910827259E+02 -0.36052767667E+03  0.39853855350E+03  0.00000000000E+00 0. -1.
        -14    1    3    3    0    0 -0.28278873200E+02 -0.27190509421E+01 -0.18894039482E+03  0.19106428421E+03  0.00000000000E+00 0.  1.
          5    1    4    4  501    0  0.16741901024E+03 -0.62910798996E-01 -0.98846219719E+02  0.19446638913E+03  0.41800000000E+01 0. -1.
         -5    1    4    4    0  501 -0.17017315409E+02 -0.69664087830E+01  0.90260658784E+01  0.20906031195E+02  0.41800000000E+01 0. -1.
</event>
<event>
11    1  0.6763327E-009  0.2516431E+03  0.7561462E-02  0.1023028E+00
         22   -1    0    0    0    0  0.00000000000E+00  0.00000000000E+00  0.73751816515E+03  0.73751816515E+03  0.00000000000E+00 0. -1.
         22   -1    0    0    0    0 -0.00000000000E+00 -0.00000000000E+00 -0.51845004246E+03  0.51845004246E+03  0.00000000000E+00 0.  1.
        -24    2    1    2    0    0  0.18562730854E+02 -0.50844419649E+01 -0.41160610906E+03  0.41975995807E+03  0.80052525608E+02 0.  0.
         25    2    1    2    0    0  0.18448319156E+03  0.10956115617E+03  0.50583748117E+03  0.56352202664E+03  0.12509125565E+03 0.  0.
         24    2    1    2    0    0 -0.20304592242E+03 -0.10447671420E+03  0.12483675058E+03  0.27268622290E+03  0.81428075272E+02 0.  0.
        -13    1    5    5    0    0 -0.30417246690E+02 -0.41505668285E+02  0.57044573945E+02  0.76824558655E+02  0.00000000000E+00 0.  1.
         14    1    5    5    0    0 -0.17262867573E+03 -0.62971045917E+02  0.67792176636E+02  0.19586166424E+03  0.00000000000E+00 0. -1.
         13    1    3    3    0    0  0.71033560164E+01  0.37396723217E+02 -0.20791576839E+03  0.21137156696E+03  0.00000000000E+00 0. -1.
        -14    1    3    3    0    0  0.11459374838E+02 -0.42481165182E+02 -0.20369034067E+03  0.20838839111E+03  0.00000000000E+00 0.  1.
          5    1    4    4  501    0  0.13709063020E+03  0.97823193308E+02  0.47876086274E+03  0.50753586487E+03  0.41800000000E+01 0. -1.
         -5    1    4    4    0  501  0.47392561356E+02  0.11737962859E+02  0.27076618437E+02  0.55986161772E+02  0.41800000000E+01 0. -1.
</event>
<event>
11    1  0.6763327E-009  0.1481413E+03  0.7561462E-02  0.1098793E+00
         22   -1    0    0    0    0  0.00000000000E+00  0.00000000000E+00  0.10940419649E+03  0.10940419649E+03  0.00000000000E+00 0. -1.
         22   -1    0    0    0    0 -0.00000000000E+00 -0.00000000000E+00 -0.21919447946E+04  0.21919447946E+04  0.00000000000E+00 0.  1.
         24    2    1    2    0    0 -0.72324060533E+02  0.22850563315E+02 -0.16398334075E+04  0.16440143529E+04  0.89312207222E+02 0.  0.
         25    2    1    2    0    0  0.96891890976E+02 -0.23683624632E+02 -0.51991152078E+03  0.54397139664E+03  0.12509171959E+03 0.  0.
        -24    2    1    2    0    0 -0.24567830443E+02  0.83306131716E+00  0.77204330195E+02  0.11336324147E+03  0.79287096254E+02 0.  0.
        -11    1    3    3    0    0 -0.83311423632E+02  0.11972449438E+02 -0.15791767464E+04  0.15814181386E+04  0.00000000000E+00 0.  1.
         12    1    3    3    0    0  0.10987363099E+02  0.10878113877E+02 -0.60656661121E+02  0.62596214324E+02  0.00000000000E+00 0. -1.
         13    1    5    5    0    0 -0.25814370507E+02 -0.15710686740E+02  0.88350764721E+02  0.93375933887E+02  0.00000000000E+00 0. -1.
        -14    1    5    5    0    0  0.12465400640E+01  0.16543748057E+02 -0.11146434526E+02  0.19987307586E+02  0.00000000000E+00 0.  1.
          5    1    4    4  501    0  0.32014072797E+02 -0.19725300802E+02 -0.26291483941E+02  0.46072799747E+02  0.41800000000E+01 0.  1.
         -5    1    4    4    0  501  0.64877818179E+02 -0.39583238302E+01 -0.49362003684E+03  0.49789859689E+03  0.41800000000E+01 0.  1.
</event>
<event>
11    1  0.6763327E-009  0.2148160E+03  0.7561462E-02  0.1044514E+00
         22   -1    0    0    0    0  0.00000000000E+00  0.00000000000E+00  0.18148880028E+04  0.18148880028E+04  0.00000000000E+00 0. -1.
         22   -1    0    0    0    0 -0.00000000000E+00 -0.00000000000E+00 -0.40218305549E+03  0.40218305549E+03  0.00000000000E+00 0. -1.
        -24    2    1    2    0    0 -0.29788498189E+02  0.31880363807E+02 -0.36459470378E+03  0.37497633971E+03  0.75988453723E+02 0.  0.
         25    2    1    2    0    0  0.19447988320E+03  0.10368784363E+02  0.49880894872E+03  0.54989733239E+03  0.12508705841E+03 0.  0.
         24    2    1    2    0    0 -0.16469138501E+03 -0.42249148170E+02  0.12784907024E+04  0.12921973862E+04  0.79544742378E+02 0.  0.
        -11    1    5    5    0    0 -0.46857119556E+02 -0.51362163937E+02  0.47166842102E+03  0.47676489062E+03  0.00000000000E+00 0.  1.
         12    1    5    5    0    0 -0.11783426545E+03  0.91130157674E+01  0.80682228134E+03  0.81543249557E+03  0.00000000000E+00 0. -1.
         11    1    3    3    0    0 -0.46103377494E+02  0.31690462104E+02 -0.34486906937E+03  0.34937727719E+03  0.00000000000E+00 0. -1.
        -12    1    3    3    0    0  0.16314879304E+02  0.18990170286E+00 -0.19725634402E+02  0.25599062520E+02  0.00000000000E+00 0.  1.
          5    1    4    4  501    0  0.17534369697E+03  0.30938206985E+02  0.48803785995E+03  0.51951998024E+03  0.41800000000E+01 0.  1.
         -5    1    4    4    0  501  0.19136186226E+02 -0.20569422622E+02  0.10771088772E+02  0.30377352149E+02  0.41800000000E+01 0.  1.
</event>
<event>
11    1  0.6763327E-009  0.1752465E+03  0.7561462E-02  0.1073554E+00
         22   -1    0    0    0    0  0.00000000000E+00  0.00000000000E+00  0.91499315770E+03  0.91499315770E+03  0.00000000000E+00 0. -1.
         22   -1    0    0    0    0 -0.00000000000E+00 -0.00000000000E+00 -0.31404366204E+03  0.31404366204E+03  0.00000000000E+00 0.  1.
         24    2    1    2    0    0  0.24394152555E+02 -0.12430363244E+03 -0.18234152318E+03  0.23613040837E+03  0.80390739302E+02 0.  0.
         25    2    1    2    0    0 -0.52560555641E+02  0.10305635461E+03 -0.31607382061E+02  0.17328668813E+03  0.12508407352E+03 0.  0.
        -24    2    1    2    0    0  0.28166403087E+02  0.21247277829E+02  0.81489840090E+03  0.81961972324E+03  0.80450567732E+02 0.  0.
        -11    1    3    3    0    0  0.13034049438E+02 -0.93243704025E+02 -0.17980220861E+03  0.20296085585E+03  0.00000000000E+00 0.  1.
         12    1    3    3    0    0  0.11360103116E+02 -0.31059928414E+02 -0.25393145646E+01  0.33169552520E+02  0.00000000000E+00 0. -1.
         11    1    5    5    0    0  0.20254841260E+02 -0.23863997312E+02  0.54214087185E+03  0.54304371269E+03  0.00000000000E+00 0. -1.
        -12    1    5    5    0    0  0.79115618268E+01  0.45111275141E+02  0.27275752905E+03  0.27657601055E+03  0.00000000000E+00 0.  1.
          5    1    4    4  501    0 -0.78546589953E+00  0.10802489006E+02  0.42498640330E+02  0.44055845870E+02  0.41800000000E+01 0.  1.
         -5    1    4    4    0  501 -0.51775089742E+02  0.92253865603E+02 -0.74106022392E+02  0.12923084226E+03  0.41800000000E+01 0.  1.
</event>
<event>
11    1  0.6763327E-009  0.2482261E+03  0.7561462E-02  0.1024848E+00
         22   -1    0    0    0    0  0.00000000000E+00  0.00000000000E+00  0.66044331888E+03  0.66044331888E+03  0.00000000000E+00 0. -1.
         22   -1    0    0    0    0 -0.00000000000E+00 -0.00000000000E+00 -0.84840434733E+03  0.84840434733E+03  0.00000000000E+00 0. -1.
        -24    2    1    2    0    0  0.15841732639E+03 -0.15923345549E+03 -0.77326738955E+03  0.80923368776E+03  0.80407481166E+02 0.  0.
         25    2    1    2    0    0 -0.11312111709E+03  0.55053736238E+02  0.12081191600E+03  0.21463737304E+03  0.12508549818E+03 0.  0.
         24    2    1    2    0    0 -0.45296209296E+02  0.10417971926E+03  0.46449444510E+03  0.48497660541E+03  0.80882988210E+02 0.  0.
        -11    1    5    5    0    0 -0.22213006062E+02  0.88852788024E+01  0.24708163437E+02  0.34392719552E+02  0.00000000000E+00 0.  1.
         12    1    5    5    0    0 -0.23083203234E+02  0.95294440454E+02  0.43978628166E+03  0.45058388585E+03  0.00000000000E+00 0. -1.
         13    1    3    3    0    0  0.13739839564E+03 -0.94418289595E+02 -0.47906693201E+03  0.50724575689E+03  0.00000000000E+00 0. -1.
        -14    1    3    3    0    0  0.21018930745E+02 -0.64815165899E+02 -0.29420045753E+03  0.30198793087E+03  0.00000000000E+00 0.  1.
          5    1    4    4  501    0 -0.87621847746E+01  0.16952364929E+01 -0.25372955703E+02  0.27219643457E+02  0.41800000000E+01 0. -1.
         -5    1    4    4    0  501 -0.10435893232E+03  0.53358499745E+02  0.14618487170E+03  0.18741772959E+03  0.41800000000E+01 0. -1.
</event>
<event>
11    1  0.6763327E-009  0.3328739E+03  0.7561462E-02  0.9871644E-01
         22   -1    0    0    0    0  0.00000000000E+00  0.00000000000E+00  0.36492089446E+04  0.36492089446E+04  0.00000000000E+00 0. -1.
         22   -1    0    0    0    0 -0.00000000000E+00 -0.00000000000E+00 -0.14228042527E+03  0.14228042527E+03  0.00000000000E+00 0.  1.
         24    2    1    2    0    0  0.85053427101E+01 -0.66653672266E+02  0.24017682633E+02  0.10720583165E+03  0.80007427024E+02 0.  0.
         25    2    1    2    0    0  0.28401525487E+03  0.16138817548E+03  0.23615563797E+03  0.42205163717E+03  0.12508913185E+03 0.  0.
        -24    2    1    2    0    0 -0.29252059758E+03 -0.94734503210E+02  0.32467551988E+04  0.32622319011E+04  0.78706605127E+02 0.  0.
        -11    1    3    3    0    0 -0.17396383531E+02 -0.67349138862E+02  0.36377851710E+02  0.78497699077E+02  0.00000000000E+00 0.  1.
         12    1    3    3    0    0  0.25901726241E+02  0.69546659543E+00 -0.12360169077E+02  0.28708132570E+02  0.00000000000E+00 0. -1.
         13    1    5    5    0    0 -0.14412599588E+03 -0.51918443169E+02  0.20183699045E+04  0.20241751157E+04  0.00000000000E+00 0. -1.
        -14    1    5    5    0    0 -0.14839460170E+03 -0.42816060041E+02  0.12283852943E+04  0.12380567854E+04  0.00000000000E+00 0.  1.
          5    1    4    4  501    0  0.96175389405E+02  0.11573862795E+03  0.65553578527E+02  0.16419463933E+03  0.41800000000E+01 0. -1.
         -5    1    4    4    0  501  0.18783986547E+03  0.45649547525E+02  0.17060205944E+03  0.25785699784E+03  0.41800000000E+01 0. -1.
</event>
<event>
11    1  0.6763327E-009  0.1373458E+03  0.7561462E-02  0.1110559E+00
         22   -1    0    0    0    0  0.00000000000E+00  0.00000000000E+00  0.13283076127E+04  0.13283076127E+04  0.00000000000E+00 0.  1.
         22   -1    0    0    0    0 -0.00000000000E+00 -0.00000000000E+00 -0.19797783301E+04  0.19797783301E+04  0.00000000000E+00 0. -1.
         24    2    1    2    0    0  0.27890617488E+02  0.52801154438E+02 -0.16981928356E+04  0.17011719266E+04  0.81001041562E+02 0.  0.
         25    2    1    2    0    0  0.38018631745E+01 -0.31769663559E+02 -0.26365407054E+03  0.29357216709E+03  0.12508949872E+03 0.  0.
        -24    2    1    2    0    0 -0.31692480663E+02 -0.21031490878E+02  0.13103761887E+04  0.13133418491E+04  0.79588440996E+02 0.  0.
        -13    1    3    3    0    0  0.99716239687E+01 -0.12190311102E+02 -0.77841982739E+02  0.79419212072E+02  0.00000000000E+00 0.  1.
         14    1    3    3    0    0  0.17918993519E+02  0.64991465540E+02 -0.16203508528E+04  0.16217527146E+04  0.00000000000E+00 0. -1.
         11    1    5    5    0    0  0.92658358119E+01  0.24666311313E+02  0.33283166204E+03  0.33387302659E+03  0.00000000000E+00 0. -1.
        -12    1    5    5    0    0 -0.40958316474E+02 -0.45697802192E+02  0.97754452663E+03  0.97946882255E+03  0.00000000000E+00 0.  1.
          5    1    4    4  501    0  0.12762807880E+02  0.20963990548E+02 -0.22753841001E+03  0.22889643639E+03  0.41800000000E+01 0. -1.
         -5    1    4    4    0  501 -0.89609447058E+01 -0.52733654107E+02 -0.36115660536E+02  0.64675730699E+02  0.41800000000E+01 0. -1.
</event>
<event>
11    1  0.6763327E-009  0.1516674E+03  0.7561462E-02  0.1095187E+00
         22   -1    0    0    0    0  0.00000000000E+00  0.00000000000E+00  0.35407467535E+03  0.35407467535E+03  0.00000000000E+00 0.  1.
         22   -1    0    0    0    0 -0.00000000000E+00 -0.00000000000E+00 -0.55866128709E+03  0.55866128709E+03  0.00000000000E+00 0. -1.
        -24    2    1    2    0    0  0.50093175413E+02  0.67115988855E+02 -0.36451088674E+03  0.38093853492E+03  0.72333247185E+02 0.  0.
         25    2    1    2    0    0 -0.85070657510E+02 -0.52604510718E+02 -0.14393966057E+03  0.21533861167E+03  0.12509132853E+03 0.  0.
         24    2    1    2    0    0  0.34977482097E+02 -0.14511478137E+02  0.30386393557E+03  0.31645881586E+03  0.79867913100E+02 0.  0.
        -13    1    5    5    0    0  0.56833655046E+02 -0.15964597581E+01  0.25644121789E+03  0.26266844360E+03  0.00000000000E+00 0.  1.
         14    1    5    5    0    0 -0.21856172949E+02 -0.12915018379E+02  0.47422717682E+02  0.53790372262E+02  0.00000000000E+00 0. -1.
         13    1    3    3    0    0  0.30460999504E+02  0.77516212188E+02 -0.23021669415E+03  0.24481903910E+03  0.00000000000E+00 0. -1.
        -14    1    3    3    0    0  0.19632175910E+02 -0.10400223333E+02 -0.13429419259E+03  0.13611949581E+03  0.00000000000E+00 0.  1.
          5    1    4    4  501    0 -0.72751929976E+02  0.16760540444E+01 -0.14420685359E+02  0.74303977274E+02  0.41800000000E+01 0.  1.
         -5    1    4    4    0  501 -0.12318727534E+02 -0.54280564762E+02 -0.12951897521E+03  0.14103463439E+03  0.41800000000E+01 0.  1.
</event>
<event>
11    1  0.6763327E-009  0.1622157E+03  0.7561462E-02  0.1085012E+00
         22   -1    0    0    0    0  0.00000000000E+00  0.00000000000E+00  0.99525637112E+03  0.99525637112E+03  0.00000000000E+00 0.  1.
         22   -1    0    0    0    0 -0.00000000000E+00 -0.00000000000E+00 -0.14500707112E+03  0.14500707112E+03  0.00000000000E+00 0.  1.
        -24    2    1    2    0    0  0.99626376699E+02  0.10212430955E+02 -0.77664939496E+02  0.15027422840E+03  0.80751422363E+02 0.  0.
         25    2    1    2    0    0 -0.13956211960E+03  0.55091834386E+02  0.34595915423E+03  0.39730187761E+03  0.12509336557E+03 0.  0.
         24    2    1    2    0    0  0.39935742899E+02 -0.65304265341E+02  0.58195508525E+03  0.59268733623E+03  0.82140408109E+02 0.  0.
        -11    1    5    5    0    0  0.13224948172E+02 -0.31775426739E+02  0.49025967237E+03  0.49146629930E+03  0.00000000000E+00 0.  1.
         12    1    5    5    0    0  0.26710794727E+02 -0.33528838602E+02  0.91695412884E+02  0.10122103693E+03  0.00000000000E+00 0. -1.
         13    1    3    3    0    0  0.80827015121E+02  0.30305094875E+01 -0.12215920723E+02  0.81801094616E+02  0.00000000000E+00 0. -1.
        -14    1    3    3    0    0  0.18799361577E+02  0.71819214676E+01 -0.65449018772E+02  0.68473133782E+02  0.00000000000E+00 0.  1.
          5    1    4    4  501    0 -0.78193768781E+02  0.70940977804E+02  0.30227651167E+03  0.32021157024E+03  0.41800000000E+01 0.  1.
         -5    1    4    4    0  501 -0.61368350816E+02 -0.15849143417E+02  0.43682642567E+02  0.77090307371E+02  0.41800000000E+01 0.  1.
</event>
<event>
11    1  0.6763327E-009  0.1825951E+03  0.7561462E-02  0.1067563E+00
         22   -1    0    0    0    0  0.00000000000E+00  0.00000000000E+00  0.18714060135E+04  0.18714060135E+04  0.00000000000E+00 0. -1.
         22   -1    0    0    0    0 -0.00000000000E+00 -0.00000000000E+00 -0.16919227504E+03  0.16919227504E+03  0.00000000000E+00 0. -1.
         24    2    1    2    0    0  0.44693366042E+02 -0.13501649532E+03 -0.79177889800E+02  0.18144209028E+03  0.80156989169E+02 0.  0.
         25    2    1    2    0    0  0.12530477731E+02  0.10762540033E+03  0.14641612462E+03  0.22096485508E+03  0.12509015134E+03 0.  0.
        -24    2    1    2    0    0 -0.57223843773E+02  0.27391094991E+02  0.16349755036E+04  0.16381913432E+04  0.80629641134E+02 0.  0.
        -13    1    3    3    0    0  0.15142874299E+02 -0.96885129095E+02 -0.12080705353E+02  0.98802724272E+02  0.00000000000E+00 0.  1.
         14    1    3    3    0    0  0.29550491744E+02 -0.38131366229E+02 -0.67097184446E+02  0.82639366003E+02  0.00000000000E+00 0. -1.
         11    1    5    5    0    0 -0.52847940392E+02 -0.30031281493E+01  0.14249519984E+04  0.14259348237E+04  0.00000000000E+00 0. -1.
        -12    1    5    5    0    0 -0.43759033812E+01  0.30394223141E+02  0.21002350516E+03  0.21225651945E+03  0.00000000000E+00 0.  1.
          5    1    4    4  501    0  0.62757024681E+02  0.84963469561E+02  0.70487521295E+02  0.12705588678E+03  0.41800000000E+01 0.  1.
         -5    1    4    4    0  501 -0.50226546949E+02  0.22661930771E+02  0.75928603326E+02  0.93908968304E+02  0.41800000000E+01 0.  1.
</event>
<event>
11    1  0.6763327E-009  0.1593471E+03  0.7561462E-02  0.1087693E+00
         22   -1    0    0    0    0  0.00000000000E+00  0.00000000000E+00  0.50952088123E+03  0.50952088123E+03  0.00000000000E+00 0.  1.
         22   -1    0    0    0    0 -0.00000000000E+00 -0.00000000000E+00 -0.32552150474E+03  0.32552150474E+03  0.00000000000E+00 0.  1.
        -24    2    1    2    0    0 -0.29489886195E+02  0.14331730623E+02 -0.23779920656E+03  0.25425802553E+03  0.83807094070E+02 0.  0.
         25    2    1    2    0    0  0.11378750885E+03  0.32230935477E+02  0.36887355803E+02  0.17605186728E+03  0.12508857895E+03 0.  0.
         24    2    1    2    0    0 -0.84297622655E+02 -0.46562666100E+02  0.38491122725E+03  0.40473249316E+03  0.79859671281E+02 0.  0.
        -13    1    5    5    0    0 -0.76289700721E+02 -0.39958058490E+02  0.38483343200E+03  0.39435204483E+03  0.00000000000E+00 0.  1.
         14    1    5    5    0    0 -0.80079219334E+01 -0.66046076096E+01  0.77795243593E-01  0.10380448327E+02  0.00000000000E+00 0. -1.
         11    1    3    3    0    0 -0.16430268755E+02  0.32756944133E+02 -0.36592602259E+02  0.51787929679E+02  0.00000000000E+00 0. -1.
        -12    1    3    3    0    0 -0.13059617439E+02 -0.18425213510E+02 -0.20120660430E+03  0.20247009585E+03  0.00000000000E+00 0.  1.
          5    1    4    4  501    0  0.70287922604E+02 -0.34893090487E+02 -0.15832679831E+02  0.80162746824E+02  0.41800000000E+01 0.  1.
         -5    1    4    4    0  501  0.43499586245E+02  0.67124025964E+02  0.52720035634E+02  0.95889120459E+02  0.41800000000E+01 0.  1.
</event>
<event>
11    1  0.6763327E-009  0.1400146E+03  0.7561462E-02  0.1107542E+00
         22   -1    0    0    0    0  0.00000000000E+00  0.00000000000E+00  0.21682113382E+03  0.21682113382E+03  0.00000000000E+00 0.  1.
         22   -1    0    0    0    0 -0.00000000000E+00 -0.00000000000E+00 -0.44009035935E+03  0.44009035935E+03  0.00000000000E+00 0. -1.
        -24    2    1    2    0    0  0.28681617434E+02  0.26578551980E+02 -0.34974379736E+03  0.36100511905E+03  0.80466872566E+02 0.  0.
         25    2    1    2    0    0  0.36203817917E+02 -0.44061151482E+02  0.70531629068E+01  0.13765845260E+03  0.12509197002E+03 0.  0.
         24    2    1    2    0    0 -0.64885435352E+02  0.17482599502E+02  0.11942140892E+03  0.15824792152E+03  0.79152831599E+02 0.  0.
        -11    1    5    5    0    0 -0.54075885850E+02 -0.21485610281E+02  0.45035254158E+02  0.73579936101E+02  0.00000000000E+00 0.  1.
         12    1    5    5    0    0 -0.10809549502E+02  0.38968209783E+02  0.74386154766E+02  0.84667985420E+02  0.00000000000E+00 0. -1.
         11    1    3    3    0    0  0.31759469704E+02  0.39965478253E+02 -0.11454070733E+03  0.12540126397E+03  0.00000000000E+00 0. -1.
        -12    1    3    3    0    0 -0.30778522696E+01 -0.13386926273E+02 -0.23520309003E+03  0.23560385508E+03  0.00000000000E+00 0.  1.
          5    1    4    4  501    0 -0.41205179786E+01 -0.55102223481E+02  0.52098442044E+02  0.76058883534E+02  0.41800000000E+01 0. -1.
         -5    1    4    4    0  501  0.40324335896E+02  0.11041071999E+02 -0.45045279137E+02  0.61599569064E+02  0.41800000000E+01 0. -1.
</event>
<event>
11    1  0.6763327E-009  0.1682332E+03  0.7561462E-02  0.1079579E+00
         22   -1    0    0    0    0  0.00000000000E+00  0.00000000000E+00  0.20400635352E+04  0.20400635352E+04  0.00000000000E+00 0.  1.
         22   -1    0    0    0    0 -0.00000000000E+00 -0.00000000000E+00 -0.93388513304E+03  0.93388513304E+03  0.00000000000E+00 0.  1.
        -24    2    1    2    0    0  0.62489309719E+02  0.95811360309E+02 -0.87980109525E+03  0.89095579707E+03  0.81654972516E+02 0.  0.
         25    2    1    2    0    0 -0.77230580231E+02 -0.34421066406E+02  0.73919047704E+02  0.16810852021E+03  0.12508827530E+03 0.  0.
         24    2    1    2    0    0  0.14741270512E+02 -0.61390293903E+02  0.19120604497E+04  0.19148843510E+04  0.82588383202E+02 0.  0.
        -13    1    5    5    0    0 -0.93172954120E+01 -0.75277427691E+02  0.14638793841E+04  0.14658432229E+04  0.00000000000E+00 0.  1.
         14    1    5    5    0    0  0.24058565924E+02  0.13887133789E+02  0.44818106562E+03  0.44904112803E+03  0.00000000000E+00 0. -1.
         11    1    3    3    0    0  0.33122595739E+01 -0.38710654688E+01 -0.28047665712E+03  0.28052292491E+03  0.00000000000E+00 0. -1.
        -12    1    3    3    0    0  0.59177050145E+02  0.99682425778E+02 -0.59932443812E+03  0.61043287215E+03  0.00000000000E+00 0.  1.
          5    1    4    4  501    0 -0.82915469627E+02 -0.27873286112E+02 -0.58411727723E+01  0.87769509977E+02  0.41800000000E+01 0. -1.
         -5    1    4    4    0  501  0.56848893962E+01 -0.65477802938E+01  0.79760220476E+02  0.80339010229E+02  0.41800000000E+01 0. -1.
</event>
<event>
11    1  0.6763327E-009  0.1370344E+03  0.7561462E-02  0.1110916E+00
         22   -1    0    0    0    0  0.00000000000E+00  0.00000000000E+00  0.10874810235E+03  0.10874810235E+03  0.00000000000E+00 0. -1.
         22   -1    0    0    0    0 -0.00000000000E+00 -0.00000000000E+00 -0.60803650359E+03  0.60803650359E+03  0.00000000000E+00 0.  1.
        -24    2    1    2    0    0 -0.52227689216E+01 -0.58708305076E+02 -0.47522871372E+03  0.48605220028E+03  0.83249436345E+02 0.  0.
         25    2    1    2    0    0  0.44017456559E+01  0.32250120783E+02 -0.55739363519E+02  0.14076098837E+03  0.12508930229E+03 0.  0.
         24    2    1    2    0    0  0.82102326569E+00  0.26458184293E+02  0.31679675994E+02  0.89971417287E+02  0.79940881045E+02 0.  0.
        -11    1    5    5    0    0 -0.35888067653E+02 -0.24787035874E+01  0.22214502780E+02  0.42279800201E+02  0.00000000000E+00 0.  1.
         12    1    5    5    0    0  0.36709090919E+02  0.28936887880E+02  0.94651732148E+01  0.47691617086E+02  0.00000000000E+00 0. -1.
         13    1    3    3    0    0  0.18032586407E+02 -0.56245307577E+02 -0.17075973494E+03  0.18068645736E+03  0.00000000000E+00 0. -1.
        -14    1    3    3    0    0 -0.23255355329E+02 -0.24629974984E+01 -0.30446897878E+03  0.30536574292E+03  0.00000000000E+00 0.  1.
          5    1    4    4  501    0 -0.32172870616E+02  0.59240170554E+02 -0.65495594531E+02  0.94083137245E+02  0.41800000000E+01 0.  1.
         -5    1    4    4    0  501  0.36574616272E+02 -0.26990049771E+02  0.97562310125E+01  0.46677851125E+02  0.41800000000E+01 0.  1.
</event>
<event>
11    1  0.6763327E-009  0.1262095E+03  0.7561462E-02  0.1124016E+00
         22   -1    0    0    0    0  0.00000000000E+00  0.00000000000E+00  0.94209091940E+02  0.94209091940E+02  0.00000000000E+00 0. -1.
         22   -1    0    0    0    0 -0.00000000000E+00 -0.00000000000E+00 -0.46206093715E+03  0.46206093715E+03  0.00000000000E+00 0. -1.
         24    2    1    2    0    0 -0.15949625793E+02  0.70098658004E+01 -0.17667042657E+03  0.19537347272E+03  0.81577113459E+02 0.  0.
         25    2    1    2    0    0  0.10442717996E+02 -0.13339523458E+02 -0.23667757138E+03  0.26823716763E+03  0.12509161466E+03 0.  0.
        -24    2    1    2    0    0  0.55069077973E+01  0.63296576576E+01  0.45496152739E+02  0.92659388734E+02  0.80283695773E+02 0.  0.
        -13    1    3    3    0    0 -0.20135339957E+02  0.40403576630E+02 -0.68077423352E+02  0.81684860837E+02  0.00000000000E+00 0.  1.
         14    1    3    3    0    0  0.41857141635E+01 -0.33393710830E+02 -0.10859300321E+03  0.11368861189E+03  0.00000000000E+00 0. -1.
         13    1    5    5    0    0 -0.22385408512E+02 -0.65465822023E+00  0.57343012433E+02  0.61560995496E+02  0.00000000000E+00 0. -1.
        -14    1    5    5    0    0  0.27892316310E+02  0.69843158779E+01 -0.11846859694E+02  0.31098393238E+02  0.00000000000E+00 0.  1.
          5    1    4    4  501    0 -0.18870881511E+02 -0.57046073641E+02 -0.18420941766E+03  0.19380646698E+03  0.41800000000E+01 0.  1.
         -5    1    4    4    0  501  0.29313599507E+02  0.43706550183E+02 -0.52468153722E+02  0.74430700654E+02  0.41800000000E+01 0.  1.
</event>
<event>
11    1  0.6763327E-009  0.1709745E+03  0.7561462E-02  0.1077187E+00
         22   -1    0    0    0    0  0.00000000000E+00  0.00000000000E+00  0.20191198442E+03  0.20191198442E+03  0.00000000000E+00 0.  1.
         22   -1    0    0    0    0 -0.00000000000E+00 -0.00000000000E+00 -0.44598786100E+03  0.44598786100E+03  0.00000000000E+00 0. -1.
         24    2    1    2    0    0  0.17260276442E+02 -0.35295718927E+02 -0.25028858063E+03  0.26568115065E+03  0.79989969997E+02 0.  0.
         25    2    1    2    0    0 -0.68264146626E+02  0.13216661959E+03 -0.92892680784E+02  0.21542016442E+03  0.12509511599E+03 0.  0.
        -24    2    1    2    0    0  0.51003870183E+02 -0.96870900661E+02  0.99105384836E+02  0.16679853035E+03  0.77553247861E+02 0.  0.
        -13    1    3    3    0    0  0.34731215082E+01  0.17676649127E+02 -0.13140470375E+02  0.22297947418E+02  0.00000000000E+00 0.  1.
         14    1    3    3    0    0  0.13787154934E+02 -0.52972368054E+02 -0.23714811026E+03  0.24338320323E+03  0.00000000000E+00 0. -1.
         11    1    5    5    0    0  0.37583553987E+02 -0.15220247199E+02  0.40154256866E+01  0.40746817036E+02  0.00000000000E+00 0. -1.
        -12    1    5    5    0    0  0.13420316196E+02 -0.81650653462E+02  0.95089959149E+02  0.12605171331E+03  0.00000000000E+00 0.  1.
          5    1    4    4  501    0  0.21311607523E+02  0.52208078609E+02 -0.75036066115E+02  0.93956115848E+02  0.41800000000E+01 0. -1.
         -5    1    4    4    0  501 -0.89575754149E+02  0.79958540979E+02 -0.17856614669E+02  0.12146404857E+03  0.41800000000E+01 0. -1.
</event>
<event>
11    1  0.6763327E-009  0.1431821E+03  0.7561462E-02  0.1104056E+00
         22   -1    0    0    0    0  0.00000000000E+00  0.00000000000E+00  0.88322162835E+03  0.88322162835E+03  0.00000000000E+00 0.  1.
         22   -1    0    0    0    0 -0.00000000000E+00 -0.00000000000E+00 -0.97173239896E+03  0.97173239896E+03  0.00000000000E+00 0. -1.
         24    2    1    2    0    0 -0.67492422575E+02 -0.17690516222E+02 -0.94623280227E+03  0.95227927843E+03  0.81308834483E+02 0.  0.
         25    2    1    2    0    0  0.41842243283E+02  0.71445098106E+02  0.29125420523E+03  0.32761544118E+03  0.12509072657E+03 0.  0.
        -24    2    1    2    0    0  0.25650179292E+02 -0.53754581884E+02  0.56646782643E+03  0.57505930769E+03  0.79119670202E+02 0.  0.
        -11    1    3    3    0    0  0.69521938508E+01 -0.12701915273E+02 -0.33417892547E+02  0.36420148177E+02  0.00000000000E+00 0.  1.
         12    1    3    3    0    0 -0.74444616426E+02 -0.49886009490E+01 -0.91281490972E+03  0.91585913025E+03  0.00000000000E+00 0. -1.
         13    1    5    5    0    0 -0.10972948061E+02 -0.35092951248E+02  0.96017035811E+02  0.10281630212E+03  0.00000000000E+00 0. -1.
        -14    1    5    5    0    0  0.36623127353E+02 -0.18661630636E+02  0.47045079062E+03  0.47224300557E+03  0.00000000000E+00 0.  1.
          5    1    4    4  501    0 -0.18126735289E+02  0.83447234976E+01 -0.31069637474E+01  0.20623737930E+02  0.41800000000E+01 0.  1.
         -5    1    4    4    0  501  0.59968978572E+02  0.63100374609E+02  0.29436116897E+03  0.30699170325E+03  0.41800000000E+01 0.  1.
</event>
<event>
11    1  0.6763327E-009  0.1487115E+03  0.7561462E-02  0.1098203E+00
         22   -1    0    0    0    0  0.00000000000E+00  0.00000000000E+00  0.19963917427E+04  0.19963917427E+04  0.00000000000E+00 0.  1.
         22   -1    0    0    0    0 -0.00000000000E+00 -0.00000000000E+00 -0.14309908896E+03  0.14309908896E+03  0.00000000000E+00 0. -1.
         24    2    1    2    0    0 -0.19795314436E+02 -0.16015098726E+02 -0.98604861046E+02  0.12823793676E+03  0.77934023003E+02 0.  0.
         25    2    1    2    0    0  0.14366496660E+02  0.95354197509E+02  0.19592051508E+03  0.25165509284E+03  0.12508644335E+03 0.  0.
        -24    2    1    2    0    0  0.54288177752E+01 -0.79339098782E+02  0.17559769997E+04  0.17595978020E+04  0.80031474294E+02 0.  0.
        -13    1    3    3    0    0 -0.10518749132E+00  0.29631569753E+02 -0.21956599227E+02  0.36879984274E+02  0.00000000000E+00 0.  1.
         14    1    3    3    0    0 -0.19690126944E+02 -0.45646668479E+02 -0.76648261818E+02  0.91357952484E+02  0.00000000000E+00 0. -1.
         11    1    5    5    0    0  0.86378766968E+01  0.15552590442E+02  0.30330852530E+03  0.30382981668E+03  0.00000000000E+00 0. -1.
        -12    1    5    5    0    0 -0.32090589216E+01 -0.94891689224E+02  0.14526684744E+04  0.14557679853E+04  0.00000000000E+00 0.  1.
          5    1    4    4  501    0 -0.45750811808E+02  0.96761911121E+00  0.56025849339E+02  0.72459928664E+02  0.41800000000E+01 0. -1.
         -5    1    4    4    0  501  0.60117308468E+02  0.94386578397E+02  0.13989466574E+03  0.17919516417E+03  0.41800000000E+01 0. -1.
</event>
<event>
11    1  0.6763327E-009  0.1404927E+03  0.7561462E-02  0.1107009E+00
         22   -1    0    0    0    0  0.00000000000E+00  0.00000000000E+00  0.31503002801E+03  0.31503002801E+03  0.00000000000E+00 0.  1.
         22   -1    0    0    0    0 -0.00000000000E+00 -0.00000000000E+00 -0.34143979489E+03  0.34143979489E+03  0.00000000000E+00 0.  1.
         24    2    1    2    0    0 -0.58283592242E+02  0.50027944194E+02 -0.19325532575E+03  0.22548500862E+03  0.87155584216E+02 0.  0.
         25    2    1    2    0    0  0.87370578991E+01 -0.41915705566E+02 -0.87329640679E+02  0.15845251929E+03  0.12508985640E+03 0.  0.
        -24    2    1    2    0    0  0.49546534343E+02 -0.81122386280E+01  0.25417519955E+03  0.27253229499E+03  0.84546746020E+02 0.  0.
        -13    1    3    3    0    0 -0.54562291283E+02  0.60722421701E+02 -0.89597064378E+02  0.12121010714E+03  0.00000000000E+00 0.  1.
         14    1    3    3    0    0 -0.37213009596E+01 -0.10694477507E+02 -0.10365826137E+03  0.10427490149E+03  0.00000000000E+00 0. -1.
         13    1    5    5    0    0  0.20901036029E+02 -0.19564541139E+02  0.16869166347E+02  0.33229404905E+02  0.00000000000E+00 0. -1.
        -14    1    5    5    0    0  0.28645498315E+02  0.11452302511E+02  0.23730603320E+03  0.23930289008E+03  0.00000000000E+00 0.  1.
          5    1    4    4  501    0 -0.21927323969E+02 -0.61953920081E+02 -0.24349930601E+01  0.65897627734E+02  0.41800000000E+01 0.  1.
         -5    1    4    4    0  501  0.30664381868E+02  0.20038214515E+02 -0.84894647619E+02  0.92554891555E+02  0.41800000000E+01 0.  1.
</event>
<event>
11    1  0.6763327E-009  0.1351675E+03  0.7561462E-02  0.1113078E+00
         22   -1    0    0    0    0  0.00000000000E+00  0.00000000000E+00  0.10844741802E+03  0.10844741802E+03  0.00000000000E+00 0.  1.
         22   -1    0    0    0    0 -0.00000000000E+00 -0.00000000000E+00 -0.34858646498E+04  0.34858646498E+04  0.00000000000E+00 0. -1.
        -24    2    1    2    0    0  0.74061245342E+01 -0.45981411297E+02 -0.25509411016E+04  0.25526100438E+04  0.79676792521E+02 0.  0.
         25    2    1    2    0    0 -0.20743760898E+02  0.84152810281E+02 -0.90697678757E+03  0.91965568210E+03  0.12509069247E+03 0.  0.
         24    2    1    2    0    0  0.13337636364E+02 -0.38171398984E+02  0.80500657413E+02  0.12204634185E+03  0.82340788622E+02 0.  0.
        -11    1    5    5    0    0  0.46633136879E+02 -0.24532607915E+02  0.31970385876E+02  0.61632814956E+02  0.00000000000E+00 0.  1.
         12    1    5    5    0    0 -0.33295500515E+02 -0.13638791069E+02  0.48530271537E+02  0.60413526895E+02  0.00000000000E+00 0. -1.
         11    1    3    3    0    0  0.16618702377E+02  0.18311675727E+02 -0.10067080424E+04  0.10070117087E+04  0.00000000000E+00 0. -1.
        -12    1    3    3    0    0 -0.92125778424E+01 -0.64293087024E+02 -0.15442330591E+04  0.15455983351E+04  0.00000000000E+00 0.  1.
          5    1    4    4  501    0  0.27625036060E+02  0.95879470658E+02 -0.67630340512E+03  0.68363717255E+03  0.41800000000E+01 0.  1.
         -5    1    4    4    0  501 -0.48368796958E+02 -0.11726660377E+02 -0.23067338245E+03  0.23601850956E+03  0.41800000000E+01 0.  1.
</event>
<event>
11    1  0.6763327E-009  0.1421024E+03  0.7561462E-02  0.1105233E+00
         22   -1    0    0    0    0  0.00000000000E+00  0.00000000000E+00  0.48649470836E+03  0.48649470836E+03  0.00000000000E+00 0.  1.
         22   -1    0    0    0    0 -0.00000000000E+00 -0.00000000000E+00 -0.11275959495E+04  0.11275959495E+04  0.00000000000E+00 0.  1.
         24    2    1    2    0    0 -0.62749665487E+02  0.54464026290E+00 -0.89377852934E+03  0.89955694969E+03  0.80155031528E+02 0.  0.
         25    2    1    2    0    0  0.12281451711E+03  0.10165216964E+02 -0.19095174871E+03  0.25941519611E+03  0.12508771478E+03 0.  0.
        -24    2    1    2    0    0 -0.60064851624E+02 -0.10709857226E+02  0.44362903693E+03  0.45511851203E+03  0.81262846031E+02 0.  0.
        -11    1    3    3    0    0 -0.81644620435E+02  0.27241426449E+01 -0.66741906960E+03  0.67239979139E+03  0.00000000000E+00 0.  1.
         12    1    3    3    0    0  0.18894954948E+02 -0.21795023821E+01 -0.22635945974E+03  0.22715715830E+03  0.00000000000E+00 0. -1.
         13    1    5    5    0    0 -0.29630896913E+01 -0.36706683580E+02  0.21036628275E+03  0.21356529081E+03  0.00000000000E+00 0. -1.
        -14    1    5    5    0    0 -0.57101761932E+02  0.25996826353E+02  0.23326275418E+03  0.24155322122E+03  0.00000000000E+00 0.  1.
          5    1    4    4  501    0  0.78919345153E+02  0.39193609106E+02 -0.35232100669E+02  0.94990396102E+02  0.41800000000E+01 0.  1.
         -5    1    4    4    0  501  0.43895171958E+02 -0.29028392143E+02 -0.15571964804E+03  0.16442480000E+03  0.41800000000E+01 0.  1.
</event>
<event>
11    1  0.6763327E-009  0.1430964E+03  0.7561462E-02  0.1104149E+00
         22   -1    0    0    0    0  0.00000000000E+00  0.00000000000E+00  0.23445287348E+03  0.23445287348E+03  0.00000000000E+00 0.  1.
         22   -1    0    0    0    0 -0.00000000000E+00 -0.00000000000E+00 -0.38869222950E+03  0.38869222950E+03  0.00000000000E+00 0.  1.
         24    2    1    2    0    0  0.14660372186E+02 -0.48509139634E+02 -0.30254113419E+03  0.31720173547E+03  0.80732521114E+02 0.  0.
         25    2    1    2    0    0  0.42252731513E+02 -0.16554334678E+02  0.41079451486E+02  0.13926875137E+03  0.12509566122E+03 0.  0.
        -24    2    1    2    0    0 -0.56913103700E+02  0.65063474312E+02  0.10722232669E+03  0.16667461615E+03  0.93869288193E+02 0.  0.
        -11    1    3    3    0    0 -0.28814799950E+02 -0.10595176372E+02 -0.16851597684E+03  0.17128976884E+03  0.00000000000E+00 0.  1.
         12    1    3    3    0    0  0.43475172136E+02 -0.37913963262E+02 -0.13402515735E+03  0.14591196663E+03  0.00000000000E+00 0. -1.
         13    1    5    5    0    0  0.94078797164E+01 -0.50600358024E+01 -0.10135259208E+02  0.14725340142E+02  0.00000000000E+00 0. -1.
        -14    1    5    5    0    0 -0.66320983416E+02  0.70123510115E+02  0.11735758589E+03  0.15194927601E+03  0.00000000000E+00 0.  1.
          5    1    4    4  501    0 -0.29328910132E+02 -0.26300431181E+02 -0.20178939681E+02  0.44458516130E+02  0.41800000000E+01 0.  1.
         -5    1    4    4    0  501  0.71581641645E+02  0.97460965025E+01  0.61258391167E+02  0.94810235239E+02  0.41800000000E+01 0.  1.
</event>
<event>
11    1  0.6763327E-009  0.1311465E+03  0.7561462E-02  0.1117868E+00
         22   -1    0    0    0    0  0.00000000000E+00  0.00000000000E+00  0.95692750145E+03  0.95692750145E+03  0.00000000000E+00 0.  1.
         22   -1    0    0    0    0 -0.00000000000E+00 -0.00000000000E+00 -0.32240873236E+03  0.32240873236E+03  0.00000000000E+00 0.  1.
         24    2    1    2    0    0 -0.36661649607E+02 -0.13267361851E+02 -0.28619096125E+03  0.29784621101E+03  0.72711757460E+02 0.  0.
         25    2    1    2    0    0  0.50930394391E+02  0.77541237226E+01  0.13339092949E+03  0.18998657198E+03  0.12509087080E+03 0.  0.
        -24    2    1    2    0    0 -0.14268744784E+02  0.55132381286E+01  0.78731880085E+03  0.79150345081E+03  0.79829979383E+02 0.  0.
        -13    1    3    3    0    0  0.30771838771E+01  0.25777871144E+02 -0.72326018700E+02  0.76844132387E+02  0.00000000000E+00 0.  1.
         14    1    3    3    0    0 -0.39738833484E+02 -0.39045232995E+02 -0.21386494255E+03  0.22100207863E+03  0.00000000000E+00 0. -1.
         13    1    5    5    0    0 -0.46791182614E+02 -0.77011390910E+00  0.38768436884E+03  0.39049862700E+03  0.00000000000E+00 0. -1.
        -14    1    5    5    0    0  0.32522437831E+02  0.62833520377E+01  0.39963443201E+03  0.40100482382E+03  0.00000000000E+00 0.  1.
          5    1    4    4  501    0  0.86789490724E+02 -0.32400507660E+01  0.54730155234E+02  0.10274130582E+03  0.41800000000E+01 0.  1.
         -5    1    4    4    0  501 -0.35859096333E+02  0.10994174489E+02  0.78660774253E+02  0.87245266167E+02  0.41800000000E+01 0.  1.
</event>
<event>
11    1  0.6763327E-009  0.1587429E+03  0.7561462E-02  0.1088266E+00
         22   -1    0    0    0    0  0.00000000000E+00  0.00000000000E+00  0.15903308838E+04  0.15903308838E+04  0.00000000000E+00 0.  1.
         22   -1    0    0    0    0 -0.00000000000E+00 -0.00000000000E+00 -0.12497521999E+03  0.12497521999E+03  0.00000000000E+00 0. -1.
         24    2    1    2    0    0 -0.14309377472E+02  0.34767972992E+02 -0.94248696652E+02  0.12937229324E+03  0.80254614869E+02 0.  0.
         25    2    1    2    0    0 -0.69368297649E+00  0.78433529395E+02  0.75314029836E+03  0.76747644090E+03  0.12508988205E+03 0.  0.
        -24    2    1    2    0    0  0.15003060449E+02 -0.11320150239E+03  0.80646406212E+03  0.81845736968E+03  0.80302618362E+02 0.  0.
        -11    1    3    3    0    0 -0.11020583918E+02  0.25239996438E+02  0.63551248318E+01  0.28264789079E+02  0.00000000000E+00 0.  1.
         12    1    3    3    0    0 -0.32887935541E+01  0.95279765542E+01 -0.10060382148E+03  0.10110750416E+03  0.00000000000E+00 0. -1.
         13    1    5    5    0    0  0.40907062879E+02 -0.36720590146E+02  0.23667239064E+03  0.24297244705E+03  0.00000000000E+00 0. -1.
        -14    1    5    5    0    0 -0.25904002430E+02 -0.76480912241E+02  0.56979167148E+03  0.57548492262E+03  0.00000000000E+00 0.  1.
          5    1    4    4  501    0  0.23183665606E+02  0.10720245440E+03  0.58036907720E+03  0.59065691120E+03  0.41800000000E+01 0. -1.
         -5    1    4    4    0  501 -0.23877348583E+02 -0.28768925002E+02  0.17277122117E+03  0.17681952970E+03  0.41800000000E+01 0. -1.
</event>
<event>
11    1  0.6763327E-009  0.1945071E+03  0.7561462E-02  0.1058477E+00
         22   -1    0    0    0    0  0.00000000000E+00  0.00000000000E+00  0.15770775540E+04  0.15770775540E+04  0.00000000000E+00 0. -1.
         22   -1    0    0    0    0 -0.00000000000E+00 -0.00000000000E+00 -0.27616769998E+03  0.27616769998E+03  0.00000000000E+00 0. -1.
        -24    2    1    2    0    0 -0.62797676922E+02 -0.15044838569E+03 -0.14638865594E+03  0.23422160916E+03  0.82775954395E+02 0.  0.
         25    2    1    2    0    0  0.18803837499E+02  0.12095471968E+03  0.67150686298E+01  0.17514472598E+03  0.12508778667E+03 0.  0.
         24    2    1    2    0    0  0.43993839423E+02  0.29493666010E+02  0.14405834413E+04  0.14438789188E+04  0.81855644705E+02 0.  0.
        -11    1    5    5    0    0  0.26729590249E+02  0.21354014779E+02  0.18418305778E+03  0.18733356270E+03  0.00000000000E+00 0.  1.
         12    1    5    5    0    0  0.17264249174E+02  0.81396512306E+01  0.12564003835E+04  0.12565453561E+04  0.00000000000E+00 0. -1.
         11    1    3    3    0    0 -0.77305156795E+02 -0.13934256686E+03 -0.14573051990E+03  0.21593939575E+03  0.00000000000E+00 0. -1.
        -12    1    3    3    0    0  0.14507479873E+02 -0.11105818830E+02 -0.65813604021E+00  0.18282213411E+02  0.00000000000E+00 0.  1.
          5    1    4    4  501    0 -0.12621686778E+02 -0.22673444793E+02 -0.76092254720E+01  0.27363566803E+02  0.41800000000E+01 0.  1.
         -5    1    4    4    0  501  0.31425524277E+02  0.14362816448E+03  0.14324294102E+02  0.14778115918E+03  0.41800000000E+01 0.  1.
</event>
<event>
11    1  0.6763327E-009  0.2108528E+03  0.7561462E-02  0.1047104E+00
         22   -1    0    0    0    0  0.00000000000E+00  0.00000000000E+00  0.13154876751E+03  0.13154876751E+03  0.00000000000E+00 0.  1.
         22   -1    0    0    0    0 -0.00000000000E+00 -0.00000000000E+00 -0.14664788561E+04  0.14664788561E+04  0.00000000000E+00 0. -1.
        -24    2    1    2    0    0 -0.82999904578E+02 -0.37604682437E+02 -0.93492744943E+03  0.94285066725E+03  0.81086057579E+02 0.  0.
         25    2    1    2    0    0  0.19568411805E+02  0.19367562503E+03 -0.40931063023E+03  0.47018529397E+03  0.12508336491E+03 0.  0.
         24    2    1    2    0    0  0.63431492773E+02 -0.15607094260E+03  0.93079911081E+01  0.18499166234E+03  0.75852376629E+02 0.  0.
        -13    1    5    5    0    0  0.56298419753E+02 -0.16373194047E+03  0.38428586240E+01  0.17318322078E+03  0.00000000000E+00 0.  1.
         14    1    5    5    0    0  0.71330730202E+01  0.76609978744E+01  0.54651324841E+01  0.11808441566E+02  0.00000000000E+00 0. -1.
         13    1    3    3    0    0 -0.57184478002E+02 -0.93306350999E+00 -0.76400427213E+03  0.76614193396E+03  0.00000000000E+00 0. -1.
        -14    1    3    3    0    0 -0.25815426576E+02 -0.36671618927E+02 -0.17092317730E+03  0.17670873329E+03  0.00000000000E+00 0.  1.
          5    1    4    4  501    0  0.44488144621E+02  0.64454707502E+02 -0.25775383455E+03  0.26942181789E+03  0.41800000000E+01 0. -1.
         -5    1    4    4    0  501 -0.24919732816E+02  0.12922091753E+03 -0.15155679568E+03  0.20076347608E+03  0.41800000000E+01 0. -1.
</event>
<event>
11    1  0.6763327E-009  0.3836480E+03  0.7561462E-02  0.9699276E-01
         22   -1    0    0    0    0  0.00000000000E+00  0.00000000000E+00  0.91068991581E+03  0.91068991581E+03  0.00000000000E+00 0. -1.
         22   -1    0    0    0    0 -0.00000000000E+00 -0.00000000000E+00 -0.19370997802E+04  0.19370997802E+04  0.00000000000E+00 0.  1.
         24    2    1    2    0    0 -0.36969648856E+03 -0.34399527264E+02 -0.13425496839E+04  0.13959124642E+04  0.90956763723E+02 0.  0.
         25    2    1    2    0    0  0.34318149103E+03  0.19673441409E+02 -0.50634556056E+03  0.62465470805E+03  0.12508835881E+03 0.  0.
        -24    2    1    2    0    0  0.26514997534E+02  0.14726085855E+02  0.82248538001E+03  0.82722252380E+03  0.83036141822E+02 0.  0.
        -13    1    3    3    0    0 -0.34300528577E+03 -0.12345265779E+02 -0.11444570569E+04  0.11948167168E+04  0.00000000000E+00 0.  1.
         14    1    3    3    0    0 -0.26691202798E+02 -0.22054261485E+02 -0.19809262695E+03  0.20109574737E+03  0.00000000000E+00 0. -1.
         13    1    5    5    0    0  0.45676302712E+02 -0.19004001571E+02  0.48371569839E+03  0.48623898812E+03  0.00000000000E+00 0. -1.
        -14    1    5    5    0    0 -0.19161305178E+02  0.33730087425E+02  0.33876968162E+03  0.34098353568E+03  0.00000000000E+00 0.  1.
          5    1    4    4  501    0  0.14547622972E+03 -0.34558339140E+02 -0.14026928481E+03  0.20506232438E+03  0.41800000000E+01 0. -1.
         -5    1    4    4    0  501  0.19770526130E+03  0.54231780550E+02 -0.36607627574E+03  0.41959238367E+03  0.41800000000E+01 0. -1.
</event>
<event>
11    1  0.6763327E-009  0.1534211E+03  0.7561462E-02  0.1093433E+00
         22   -1    0    0    0    0  0.00000000000E+00  0.00000000000E+00  0.52879396303E+03  0.52879396303E+03  0.00000000000E+00 0.  1.
         22   -1    0    0    0    0 -0.00000000000E+00 -0.00000000000E+00 -0.96489349138E+03  0.96489349138E+03  0.00000000000E+00 0. -1.
         24    2    1    2    0    0 -0.36887061212E+02 -0.75031950950E+02 -0.70430260709E+03  0.71416887237E+03  0.83693290980E+02 0.  0.
         25    2    1    2    0    0  0.10030547563E+02  0.13076541018E+03 -0.21771250012E+03  0.28327771413E+03  0.12508927305E+03 0.  0.
        -24    2    1    2    0    0  0.26856513650E+02 -0.55733459230E+02  0.48591557886E+03  0.49624086792E+03  0.79457903400E+02 0.  0.
        -13    1    3    3    0    0 -0.10317771992E+02  0.87496517585E+01 -0.19408532659E+02  0.23658063419E+02  0.00000000000E+00 0.  1.
         14    1    3    3    0    0 -0.26569289220E+02 -0.83781602709E+02 -0.68489407443E+03  0.69051080895E+03  0.00000000000E+00 0. -1.
         13    1    5    5    0    0  0.47107425928E+01  0.10732376515E+02  0.10640938193E+02  0.15830494846E+02  0.00000000000E+00 0. -1.
        -14    1    5    5    0    0  0.22145771057E+02 -0.66465835745E+02  0.47527464066E+03  0.48041037307E+03  0.00000000000E+00 0.  1.
          5    1    4    4  501    0  0.53109224439E+02  0.32688890218E+02 -0.13190263484E+03  0.14596208666E+03  0.41800000000E+01 0. -1.
         -5    1    4    4    0  501 -0.43078676876E+02  0.98076519962E+02 -0.85809865276E+02  0.13731562747E+03  0.41800000000E+01 0. -1.
</event>
<event>
11    1  0.6763327E-009  0.1327403E+03  0.7561462E-02  0.1115947E+00
         22   -1    0    0    0    0  0.00000000000E+00  0.00000000000E+00  0.92989847775E+02  0.92989847775E+02  0.00000000000E+00 0. -1.
         22   -1    0    0    0    0 -0.00000000000E+00 -0.00000000000E+00 -0.12533277442E+04  0.12533277442E+04  0.00000000000E+00 0. -1.
        -24    2    1    2    0    0 -0.18983140140E+01  0.39229223332E+02 -0.10545960720E+04  0.10582329245E+04  0.78367798541E+02 0.  0.
         25    2    1    2    0    0 -0.27210906535E+02  0.16803775408E+01 -0.13603409564E+03  0.18680451745E+03  0.12508954975E+03 0.  0.
         24    2    1    2    0    0  0.29109220549E+02 -0.40909600872E+02  0.30292271178E+02  0.10128015007E+03  0.82577871984E+02 0.  0.
        -11    1    5    5    0    0 -0.37664217777E+01 -0.30236965578E+02 -0.22710461067E+02  0.38002961230E+02  0.00000000000E+00 0.  1.
         12    1    5    5    0    0  0.32875642326E+02 -0.10672635295E+02  0.53002732245E+02  0.63277188844E+02  0.00000000000E+00 0. -1.
         11    1    3    3    0    0 -0.16464118106E+02 -0.14401052306E+02 -0.57700341158E+03  0.57741786816E+03  0.00000000000E+00 0. -1.
        -12    1    3    3    0    0  0.14565804092E+02  0.53630275637E+02 -0.47759266041E+03  0.48081505633E+03  0.00000000000E+00 0.  1.
          5    1    4    4  501    0 -0.13412922980E+02 -0.59385472550E+01  0.22637863608E+02  0.27296851743E+02  0.41800000000E+01 0.  1.
         -5    1    4    4    0  501 -0.13797983555E+02  0.76189247958E+01 -0.15867195925E+03  0.15950766570E+03  0.41800000000E+01 0.  1.
</event>
<event>
11    1  0.6763327E-009  0.1409195E+03  0.7561462E-02  0.1106536E+00
         22   -1    0    0    0    0  0.00000000000E+00  0.00000000000E+00  0.14447358392E+04  0.14447358392E+04  0.00000000000E+00 0. -1.
         22   -1    0    0    0    0 -0.00000000000E+00 -0.00000000000E+00 -0.37558346267E+03  0.37558346267E+03  0.00000000000E+00 0.  1.
         24    2    1    2    0    0 -0.19245664059E+02 -0.46429054066E+02 -0.35408014323E+03  0.36538439551E+03  0.74879610072E+02 0.  0.
         25    2    1    2    0    0  0.27212272279E+02 -0.25158179469E+02  0.30828360499E+03  0.33475369113E+03  0.12509121017E+03 0.  0.
        -24    2    1    2    0    0 -0.79666082201E+01  0.71587233535E+02  0.11149489147E+04  0.11201812152E+04  0.80663954403E+02 0.  0.
        -11    1    3    3    0    0 -0.24135175563E+02 -0.65548940647E+02 -0.25732513894E+03  0.26663720193E+03  0.00000000000E+00 0.  1.
         12    1    3    3    0    0  0.48895115036E+01  0.19119886581E+02 -0.96755004287E+02  0.98747193581E+02  0.00000000000E+00 0. -1.
         13    1    5    5    0    0  0.18947481719E+02  0.56179100159E+02  0.97664369437E+03  0.97844162018E+03  0.00000000000E+00 0. -1.
        -14    1    5    5    0    0 -0.26914089940E+02  0.15408133376E+02  0.13830522037E+03  0.14173959501E+03  0.00000000000E+00 0.  1.
          5    1    4    4  501    0 -0.13304239618E+02  0.35471720285E+02  0.20341575001E+03  0.20695575731E+03  0.41800000000E+01 0. -1.
         -5    1    4    4    0  501  0.40516511897E+02 -0.60629899754E+02  0.10486785498E+03  0.12779793382E+03  0.41800000000E+01 0. -1.
</event>
<event>
11    1  0.6763327E-009  0.1609869E+03  0.7561462E-02  0.1086153E+00
         22   -1    0    0    0    0  0.00000000000E+00  0.00000000000E+00  0.10892236746E+04  0.10892236746E+04  0.00000000000E+00 0.  1.
         22   -1    0    0    0    0 -0.00000000000E+00 -0.00000000000E+00 -0.12305214758E+03  0.12305214758E+03  0.00000000000E+00 0.  1.
        -24    2    1    2    0    0  0.96538321366E+00 -0.10022409659E+03 -0.57722073904E+02  0.14022649176E+03  0.79283224413E+02 0.  0.
         25    2    1    2    0    0  0.35757102689E+02  0.11016994311E+03  0.32138296018E+03  0.36380024991E+03  0.12509047920E+03 0.  0.
         24    2    1    2    0    0 -0.36722485903E+02 -0.99458465142E+01  0.70251064071E+03  0.70824908047E+03  0.81535874585E+02 0.  0.
        -11    1    5    5    0    0 -0.48760572222E+02  0.19446773700E+02  0.54793320622E+03  0.55044215763E+03  0.00000000000E+00 0.  1.
         12    1    5    5    0    0  0.12038086319E+02 -0.29392620214E+02  0.15457743448E+03  0.15780692284E+03  0.00000000000E+00 0. -1.
         13    1    3    3    0    0  0.14095126132E+02  0.87468989363E+01 -0.85541614236E+00  0.16610615836E+02  0.00000000000E+00 0. -1.
        -14    1    3    3    0    0 -0.13129742919E+02 -0.10897099553E+03 -0.56866657762E+02  0.12361587593E+03  0.00000000000E+00 0.  1.
          5    1    4    4  501    0  0.46636227612E+02  0.12730069883E+02  0.20919293154E+03  0.21474670524E+03  0.41800000000E+01 0. -1.
         -5    1    4    4    0  501 -0.10879124922E+02  0.97439873225E+02  0.11219002863E+03  0.14905354467E+03  0.41800000000E+01 0. -1.
</event>
<event>
11    1  0.6763327E-009  0.1346466E+03  0.7561462E-02  0.1113688E+00
         22   -1    0    0    0    0  0.00000000000E+00  0.00000000000E+00  0.10575337059E+04  0.10575337059E+04  0.00000000000E+00 0.  1.
         22   -1    0    0    0    0 -0.00000000000E+00 -0.00000000000E+00 -0.63100140254E+03  0.63100140254E+03  0.00000000000E+00 0.  1.
        -24    2    1    2    0    0 -0.44290970118E+02 -0.22503692105E+02 -0.61480167503E+03  0.62205998781E+03  0.80680992941E+02 0.  0.
         25    2    1    2    0    0  0.43108621593E+02  0.63040262320E+02  0.59316652250E+03  0.61100751571E+03  0.12510488762E+03 0.  0.
         24    2    1    2    0    0  0.11823485250E+01 -0.40536570215E+02  0.44816745593E+03  0.45546760495E+03  0.70370868484E+02 0.  0.
        -11    1    5    5    0    0  0.82279614430E+01 -0.54780384746E+02  0.22438566872E+03  0.23112230146E+03  0.00000000000E+00 0.  1.
         12    1    5    5    0    0 -0.70456129179E+01  0.14243814531E+02  0.22378178721E+03  0.22434530350E+03  0.00000000000E+00 0. -1.
         13    1    3    3    0    0 -0.16532169542E+02 -0.13420280857E+02 -0.31467051601E+02  0.37994629943E+02  0.00000000000E+00 0. -1.
        -14    1    3    3    0    0 -0.27758800577E+02 -0.90834112480E+01 -0.58333462343E+03  0.58406535787E+03  0.00000000000E+00 0.  1.
          5    1    4    4  501    0  0.37754798030E+02  0.99824256246E+02  0.48284522233E+03  0.49451722723E+03  0.41800000000E+01 0. -1.
         -5    1    4    4    0  501  0.53538235638E+01 -0.36783993927E+02  0.11032130018E+03  0.11649028847E+03  0.41800000000E+01 0. -1.
</event>
<event>
11    1  0.6763327E-009  0.1344385E+03  0.7561462E-02  0.1113933E+00
         22   -1    0    0    0    0  0.00000000000E+00  0.00000000000E+00  0.10162426942E+04  0.10162426942E+04  0.00000000000E+00 0. -1.
         22   -1    0    0    0    0 -0.00000000000E+00 -0.00000000000E+00 -0.37648360249E+03  0.37648360249E+03  0.00000000000E+00 0. -1.
         24    2    1    2    0    0 -0.15943687908E+02  0.46014615810E+02 -0.28117891532E+03  0.29673227631E+03  0.81344424114E+02 0.  0.
         25    2    1    2    0    0 -0.33877276285E+01 -0.56850618102E+02 -0.30474520031E+02  0.14078270733E+03  0.12509038666E+03 0.  0.
        -24    2    1    2    0    0  0.19331415536E+02  0.10836002292E+02  0.95141252701E+03  0.95521131300E+03  0.82168931906E+02 0.  0.
        -11    1    3    3    0    0 -0.81992200330E+01  0.35249671878E+02 -0.35498717354E+02  0.50694432736E+02  0.00000000000E+00 0.  1.
         12    1    3    3    0    0 -0.77444678747E+01  0.10764943932E+02 -0.24568019796E+03  0.24603784358E+03  0.00000000000E+00 0. -1.
         13    1    5    5    0    0  0.38896590462E+02 -0.64906152696E+01  0.83371773192E+03  0.83464982439E+03  0.00000000000E+00 0. -1.
        -14    1    5    5    0    0 -0.19565174926E+02  0.17326617561E+02  0.11769479508E+03  0.12056148861E+03  0.00000000000E+00 0.  1.
          5    1    4    4  501    0 -0.46053810943E+02 -0.24306389727E+02 -0.59867208291E+02  0.79456334628E+02  0.41800000000E+01 0.  1.
         -5    1    4    4    0  501  0.42666083314E+02 -0.32544228375E+02  0.29392688260E+02  0.61326372705E+02  0.41800000000E+01 0.  1.
</event>
<event>
11    1  0.6763327E-009  0.1580346E+03  0.7561462E-02  0.1088940E+00
         22   -1    0    0    0    0  0.00000000000E+00  0.00000000000E+00  0.14031404917E+04  0.14031404917E+04  0.00000000000E+00 0. -1.
         22   -1    0    0    0    0 -0.00000000000E+00 -0.00000000000E+00 -0.13064096975E+03  0.13064096975E+03  0.00000000000E+00 0. -1.
        -24    2    1    2    0    0 -0.16375935287E+01 -0.37017330144E+02 -0.46255125629E+02  0.10103851833E+03  0.81830807740E+02 0.  0.
         25    2    1    2    0    0  0.70366820423E+02  0.10276180290E+03  0.90702594707E+02  0.19845573728E+03  0.12508493682E+03 0.  0.
         24    2    1    2    0    0 -0.68729226894E+02 -0.65744472758E+02  0.12280520529E+04  0.12342872059E+04  0.79416746604E+02 0.  0.
        -13    1    5    5    0    0 -0.88975629170E+00 -0.40530594951E+02  0.22466509934E+03  0.22829351208E+03  0.00000000000E+00 0.  1.
         14    1    5    5    0    0 -0.67839470602E+02 -0.25213877806E+02  0.10033869535E+04  0.10059936938E+04  0.00000000000E+00 0. -1.
         13    1    3    3    0    0 -0.12868870325E+02 -0.51473924856E+02 -0.58528383834E+02  0.78998382754E+02  0.00000000000E+00 0. -1.
        -14    1    3    3    0    0  0.11231276796E+02  0.14456594712E+02  0.12273258205E+02  0.22040135574E+02  0.00000000000E+00 0.  1.
          5    1    4    4  501    0 -0.17256723447E+02 -0.17958260261E+02  0.24560026669E+02  0.35227275309E+02  0.41800000000E+01 0.  1.
         -5    1    4    4    0  501  0.87623543870E+02  0.12072006316E+03  0.66142568037E+02  0.16322846197E+03  0.41800000000E+01 0.  1.
</event>
<event>
11    1  0.6763327E-009  0.1493509E+03  0.7561462E-02  0.1097544E+00
         22   -1    0    0    0    0  0.00000000000E+00  0.00000000000E+00  0.15739970442E+04  0.15739970442E+04  0.00000000000E+00 0.  1.
         22   -1    0    0    0    0 -0.00000000000E+00 -0.00000000000E+00 -0.35135350065E+03  0.35135350065E+03  0.00000000000E+00 0. -1.
         24    2    1    2    0    0 -0.52284835475E+02 -0.59362115909E+02 -0.29739243755E+03  0.31770738790E+03  0.78982008005E+02 0.  0.
         25    2    1    2    0    0  0.12690487152E+03  0.67718292371E+02  0.17716219425E+03  0.26023783972E+03  0.12508667639E+03 0.  0.
        -24    2    1    2    0    0 -0.74620036046E+02 -0.83561764623E+01  0.13428737869E+04  0.13474053173E+04  0.80951257224E+02 0.  0.
        -13    1    3    3    0    0 -0.27435407110E+02 -0.31347717762E+02 -0.40500809476E+02  0.58100744749E+02  0.00000000000E+00 0.  1.
         14    1    3    3    0    0 -0.24849428366E+02 -0.28014398147E+02 -0.25689162807E+03  0.25960664315E+03  0.00000000000E+00 0. -1.
         13    1    5    5    0    0 -0.38839317136E+02  0.22933630246E+02  0.29256096770E+03  0.29601750586E+03  0.00000000000E+00 0. -1.
        -14    1    5    5    0    0 -0.35780718910E+02 -0.31289806708E+02  0.10503128192E+04  0.10513878114E+04  0.00000000000E+00 0.  1.
          5    1    4    4  501    0  0.13101806242E+03  0.14129226849E+02  0.97200343972E+02  0.16380093712E+03  0.41800000000E+01 0. -1.
         -5    1    4    4    0  501 -0.41131908984E+01  0.53589065522E+02  0.79961850281E+02  0.96436902601E+02  0.41800000000E+01 0. -1.
</event>
<event>
11    1  0.6763327E-009  0.1440519E+03  0.7561462E-02  0.1103116E+00
         22   -1    0    0    0    0  0.00000000000E+00  0.00000000000E+00  0.43065280642E+03  0.43065280642E+03  0.00000000000E+00 0.  1.
         22   -1    0    0    0    0 -0.00000000000E+00 -0.00000000000E+00 -0.93853276289E+02  0.93853276289E+02  0.00000000000E+00 0.  1.
         24    2    1    2    0    0  0.22834317556E+02  0.31103761088E+02  0.28613073401E+02  0.93483315594E+02  0.80197084193E+02 0.  0.
         25    2    1    2    0    0  0.50249576214E+02 -0.43885820434E+02  0.48554935114E+02  0.14984983331E+03  0.12508559339E+03 0.  0.
        -24    2    1    2    0    0 -0.73083893770E+02  0.12782059346E+02  0.25963152161E+03  0.28117293381E+03  0.78390401962E+02 0.  0.
        -11    1    3    3    0    0  0.53911174129E+01  0.44913187673E+00 -0.27050633503E+02  0.27586276286E+02  0.00000000000E+00 0.  1.
         12    1    3    3    0    0  0.17443200143E+02  0.30654629211E+02  0.55663706904E+02  0.65897039309E+02  0.00000000000E+00 0. -1.
         13    1    5    5    0    0 -0.20004025570E+02 -0.29636582379E+02  0.55414766379E+02  0.65949104520E+02  0.00000000000E+00 0. -1.
        -14    1    5    5    0    0 -0.53079868201E+02  0.42418641726E+02  0.20421675524E+03  0.21522382929E+03  0.00000000000E+00 0.  1.
          5    1    4    4  501    0  0.36480627887E+02  0.30018324763E+02  0.56925505693E+02  0.74094005365E+02  0.41800000000E+01 0. -1.
         -5    1    4    4    0  501  0.13768948327E+02 -0.73904145197E+02 -0.83705705794E+01  0.75755827942E+02  0.41800000000E+01 0. -1.
</event>
<event>
11    1  0.6763327E-009  0.1781786E+03  0.7561462E-02  0.1071126E+00
         22   -1    0    0    0    0  0.00000000000E+00  0.00000000000E+00  0.14370581153E+03  0.14370581153E+03  0.00000000000E+00 0. -1.
         22   -1    0    0    0    0 -0.00000000000E+00 -0.00000000000E+00 -0.37605446151E+04  0.37605446151E+04  0.00000000000E+00 0. -1.
         24    2    1    2    0    0  0.43010381711E+02  0.15229116664E+02 -0.25691516211E+04  0.25706722246E+04  0.75721959999E+02 0.  0.
         25    2    1    2    0    0  0.12417459846E+02 -0.12954814852E+03 -0.11429469555E+04  0.11571139244E+04  0.12509186577E+03 0.  0.
        -24    2    1    2    0    0 -0.55427841557E+02  0.11431903185E+03  0.95259773028E+02  0.17646427761E+03  0.76968371754E+02 0.  0.
        -11    1    3    3    0    0  0.31933565019E+02 -0.18342441104E+02 -0.55998506262E+03  0.56119467930E+03  0.00000000000E+00 0.  1.
         12    1    3    3    0    0  0.11076816692E+02  0.33571557768E+02 -0.20091665585E+04  0.20094775453E+04  0.00000000000E+00 0. -1.
         13    1    5    5    0    0 -0.12094010945E+02  0.99140238999E+02  0.80364759498E+02  0.12819339553E+03  0.00000000000E+00 0. -1.
        -14    1    5    5    0    0 -0.43333830612E+02  0.15178792856E+02  0.14895013530E+02  0.48270882073E+02  0.00000000000E+00 0.  1.
          5    1    4    4  501    0 -0.25955067131E+02 -0.13607785843E+03 -0.79719556883E+03  0.80915332072E+03  0.41800000000E+01 0.  1.
         -5    1    4    4    0  501  0.38372526977E+02  0.65297099115E+01 -0.34575138670E+03  0.34796060372E+03  0.41800000000E+01 0.  1.
</event>
<event>
11    1  0.6763327E-009  0.2033162E+03  0.7561462E-02  0.1052203E+00
         22   -1    0    0    0    0  0.00000000000E+00  0.00000000000E+00  0.86756440252E+03  0.86756440252E+03  0.00000000000E+00 0.  1.
         22   -1    0    0    0    0 -0.00000000000E+00 -0.00000000000E+00 -0.33002604291E+04  0.33002604291E+04  0.00000000000E+00 0. -1.
        -24    2    1    2    0    0  0.84204960637E+02  0.13618222547E+03 -0.32550757940E+04  0.32600314910E+04  0.81552582415E+02 0.  0.
         25    2    1    2    0    0 -0.11737368064E+03 -0.13721255050E+03  0.26800240609E+03  0.34653072386E+03  0.12511749673E+03 0.  0.
         24    2    1    2    0    0  0.33168720006E+02  0.10303250294E+01  0.55437736126E+03  0.56126261683E+03  0.81118683474E+02 0.  0.
        -11    1    5    5    0    0  0.18194586616E+01  0.88022556017E+01  0.48108829074E+03  0.48117224943E+03  0.00000000000E+00 0.  1.
         12    1    5    5    0    0  0.31349261344E+02 -0.77719305724E+01  0.73289070526E+02  0.80090367400E+02  0.00000000000E+00 0. -1.
         11    1    3    3    0    0  0.89550314207E+02  0.14205932905E+03 -0.28938348827E+04  0.28987032342E+04  0.00000000000E+00 0. -1.
        -12    1    3    3    0    0 -0.53453535700E+01 -0.58771035771E+01 -0.36124091132E+03  0.36132825680E+03  0.00000000000E+00 0.  1.
          5    1    4    4  501    0 -0.27348473751E+02 -0.15602617649E+02 -0.70910997113E+01  0.32544381837E+02  0.41800000000E+01 0.  1.
         -5    1    4    4    0  501 -0.90025206892E+02 -0.12160993285E+03  0.27509350580E+03  0.31398634202E+03  0.41800000000E+01 0.  1.
</event>
<event>
11    1  0.6763327E-009  0.1543326E+03  0.7561462E-02  0.1092532E+00
         22   -1    0    0    0    0  0.00000000000E+00  0.00000000000E+00  0.22040199762E+04  0.22040199762E+04  0.00000000000E+00 0. -1.
         22   -1    0    0    0    0 -0.00000000000E+00 -0.00000000000E+00 -0.11961028808E+03  0.11961028808E+03  0.00000000000E+00 0.  1.
        -24    2    1    2    0    0  0.18717001924E+02  0.57841337193E+02 -0.27400585651E+02  0.10506693702E+03  0.81193119852E+02 0.  0.
         25    2    1    2    0    0  0.40447866788E+02 -0.12477242592E+03  0.10770324635E+03  0.21083312803E+03  0.12508569223E+03 0.  0.
         24    2    1    2    0    0 -0.59164868711E+02  0.66931088730E+02  0.20041070274E+04  0.20077301992E+04  0.80964950486E+02 0.  0.
        -11    1    5    5    0    0 -0.35416933555E+02 -0.12232017439E+02  0.70787109634E+03  0.70886209552E+03  0.00000000000E+00 0.  1.
         12    1    5    5    0    0 -0.23747935157E+02  0.79163106169E+02  0.12962359311E+04  0.12988681037E+04  0.00000000000E+00 0. -1.
         11    1    3    3    0    0  0.34988212371E+02  0.66412841818E+02 -0.37686888812E+02  0.83994893604E+02  0.00000000000E+00 0. -1.
        -12    1    3    3    0    0 -0.16271210447E+02 -0.85715046251E+01  0.10286303161E+02  0.21072043415E+02  0.00000000000E+00 0.  1.
          5    1    4    4  501    0  0.11996337051E+02 -0.41892990753E+02  0.11475701237E+03  0.12282336531E+03  0.41800000000E+01 0. -1.
         -5    1    4    4    0  501  0.28451529737E+02 -0.82879435169E+02 -0.70537660281E+01  0.88009762717E+02  0.41800000000E+01 0. -1.
</event>
<event>
11    1  0.6763327E-009  0.1373789E+03  0.7561462E-02  0.1110521E+00
         22   -1    0    0    0    0  0.00000000000E+00  0.00000000000E+00  0.82758957562E+03  0.82758957562E+03  0.00000000000E+00 0. -1.
         22   -1    0    0    0    0 -0.00000000000E+00 -0.00000000000E+00 -0.18504885080E+03  0.18504885080E+03  0.00000000000E+00 0.  1.
         24    2    1    2    0    0  0.56485432108E+02 -0.89030339436E+01 -0.11517546147E+03  0.15496075489E+03  0.86473004899E+02 0.  0.
         25    2    1    2    0    0 -0.47413297062E+02  0.41351056025E+02  0.56890584829E+02  0.15112933804E+03  0.12508240325E+03 0.  0.
        -24    2    1    2    0    0 -0.90721350463E+01 -0.32448022081E+02  0.70082560146E+03  0.70654833349E+03  0.83179601620E+02 0.  0.
        -13    1    3    3    0    0 -0.17211472425E+02  0.21954585042E+01 -0.59374569515E+02  0.61857855816E+02  0.00000000000E+00 0.  1.
         14    1    3    3    0    0  0.73696904533E+02 -0.11098492448E+02 -0.55800891956E+02  0.93102899071E+02  0.00000000000E+00 0. -1.
         13    1    5    5    0    0 -0.13362419284E+02 -0.42527111715E+02  0.68895554557E+03  0.69039615675E+03  0.00000000000E+00 0. -1.
        -14    1    5    5    0    0  0.42902842374E+01  0.10079089634E+02  0.11870055886E+02  0.16152176739E+02  0.00000000000E+00 0.  1.
          5    1    4    4  501    0 -0.84720646849E+01  0.82187734251E+02  0.41153610226E+02  0.92399629739E+02  0.41800000000E+01 0.  1.
         -5    1    4    4    0  501 -0.38941232377E+02 -0.40836678226E+02  0.15736974603E+02  0.58729708302E+02  0.41800000000E+01 0.  1.
</event>
<event>
11    1  0.6763327E-009  0.1474653E+03  0.7561462E-02  0.1099497E+00
         22   -1    0    0    0    0  0.00000000000E+00  0.00000000000E+00  0.25543525741E+03  0.25543525741E+03  0.00000000000E+00 0.  1.
         22   -1    0    0    0    0 -0.00000000000E+00 -0.00000000000E+00 -0.54597152805E+03  0.54597152805E+03  0.00000000000E+00 0. -1.
        -24    2    1    2    0    0  0.15979000013E+01  0.45736340493E+02 -0.46591318331E+03  0.47507243865E+03  0.80773519505E+02 0.  0.
         25    2    1    2    0    0 -0.24204730651E+02 -0.95829994138E+02  0.14518607684E+03  0.21562820717E+03  0.12508904851E+03 0.  0.
         24    2    1    2    0    0  0.22606830650E+02  0.50093653645E+02  0.30190835839E+02  0.11070613964E+03  0.91235518624E+02 0.  0.
        -13    1    5    5    0    0  0.29697188720E+01  0.57677838035E+02  0.53901259767E+02  0.78999354649E+02  0.00000000000E+00 0.  1.
         14    1    5    5    0    0  0.19637111778E+02 -0.75841843897E+01 -0.23710423928E+02  0.31706784994E+02  0.00000000000E+00 0. -1.
         11    1    3    3    0    0  0.21352205477E+02  0.62660727240E+02 -0.35792997438E+03  0.36400020602E+03  0.00000000000E+00 0. -1.
        -12    1    3    3    0    0 -0.19754305476E+02 -0.16924386747E+02 -0.10798320893E+03  0.11107223263E+03  0.00000000000E+00 0.  1.
          5    1    4    4  501    0 -0.59918699305E+02 -0.55446616346E+02  0.13893168528E+03  0.16119572998E+03  0.41800000000E+01 0. -1.
         -5    1    4    4    0  501  0.35713968654E+02 -0.40383377792E+02  0.62543915619E+01  0.54432477187E+02  0.41800000000E+01 0. -1.
</event>
<event>
11    1  0.6763327E-009  0.1579185E+03  0.7561462E-02  0.1089051E+00
         22   -1    0    0    0    0  0.00000000000E+00  0.00000000000E+00  0.34145661817E+03  0.34145661817E+03  0.00000000000E+00 0.  1.
         22   -1    0    0    0    0 -0.00000000000E+00 -0.00000000000E+00 -0.10160029997E+04  0.10160029997E+04  0.00000000000E+00 0.  1.
         24    2    1    2    0    0 -0.36388982060E+02  0.69607105619E+02 -0.90401232683E+03  0.91096632199E+03  0.80324626133E+02 0.  0.
         25    2    1    2    0    0 -0.25580143326E+02  0.18695262342E+02 -0.47483816089E+02  0.13749860487E+03  0.12508915614E+03 0.  0.
        -24    2    1    2    0    0  0.61969125386E+02 -0.88302367961E+02  0.27694976143E+03  0.30899469097E+03  0.84493005636E+02 0.  0.
        -11    1    3    3    0    0 -0.27703476838E+02  0.67179266038E+02 -0.89588130197E+03  0.89882358871E+03  0.00000000000E+00 0.  1.
         12    1    3    3    0    0 -0.86855052222E+01  0.24278395809E+01 -0.81310248641E+01  0.12142733273E+02  0.00000000000E+00 0. -1.
         13    1    5    5    0    0 -0.18510804926E+02 -0.16708268612E+02  0.26628295133E+02  0.36481258760E+02  0.00000000000E+00 0. -1.
        -14    1    5    5    0    0  0.80479930312E+02 -0.71594099349E+02  0.25032146630E+03  0.27251343221E+03  0.00000000000E+00 0.  1.
          5    1    4    4  501    0  0.25027334687E+02 -0.24318160757E+02  0.21858725564E+02  0.41388606009E+02  0.41800000000E+01 0.  1.
         -5    1    4    4    0  501 -0.50607478012E+02  0.43013423099E+02 -0.69342541653E+02  0.96109998857E+02  0.41800000000E+01 0.  1.
</event>
<event>
11    1  0.6763327E-009  0.1551086E+03  0.7561462E-02  0.1091770E+00
         22   -1    0    0    0    0  0.00000000000E+00  0.00000000000E+00  0.33075598038E+03  0.33075598038E+03  0.00000000000E+00 0. -1.
         22   -1    0    0    0    0 -0.00000000000E+00 -0.00000000000E+00 -0.90905059672E+03  0.90905059672E+03  0.00000000000E+00 0. -1.
         24    2    1    2    0    0 -0.16362457769E+02 -0.17622897465E+02 -0.79900974113E+03  0.80374297722E+03  0.83713263451E+02 0.  0.
         25    2    1    2    0    0 -0.67082323197E+02 -0.27257512415E+02 -0.37328709007E+02  0.14927548036E+03  0.12508687562E+03 0.  0.
        -24    2    1    2    0    0  0.83444780966E+02  0.44880409880E+02  0.25804383380E+03  0.28678811951E+03  0.81752814431E+02 0.  0.
        -13    1    3    3    0    0 -0.41282615409E+02 -0.35207232702E+02 -0.59460819279E+03  0.59707847600E+03  0.00000000000E+00 0.  1.
         14    1    3    3    0    0  0.24920157640E+02  0.17584335236E+02 -0.20440154834E+03  0.20666450122E+03  0.00000000000E+00 0. -1.
         11    1    5    5    0    0  0.47553006428E+02  0.21219908815E+02  0.22914845858E+03  0.23499061475E+03  0.00000000000E+00 0. -1.
        -12    1    5    5    0    0  0.35891774538E+02  0.23660501065E+02  0.28895375218E+02  0.51797504758E+02  0.00000000000E+00 0.  1.
          5    1    4    4  501    0 -0.22074681092E+02  0.33285896801E+02 -0.58364751062E+02  0.70846023443E+02  0.41800000000E+01 0. -1.
         -5    1    4    4    0  501 -0.45007642105E+02 -0.60543409216E+02  0.21036042054E+02  0.78429456920E+02  0.41800000000E+01 0. -1.
</event>
<event>
11    1  0.6763327E-009  0.1560334E+03  0.7561462E-02  0.1090868E+00
         22   -1    0    0    0    0  0.00000000000E+00  0.00000000000E+00  0.48372041953E+03  0.48372041953E+03  0.00000000000E+00 0. -1.
         22   -1    0    0    0    0 -0.00000000000E+00 -0.00000000000E+00 -0.10994273184E+04  0.10994273184E+04  0.00000000000E+00 0. -1.
        -24    2    1    2    0    0  0.38279823090E+01  0.61320029082E+01 -0.10204112807E+04  0.10254949493E+04  0.10172735386E+03 0.  0.
         25    2    1    2    0    0 -0.94563951167E+02  0.14045690527E+02  0.26661226370E+02  0.15967956230E+03  0.12508844608E+03 0.  0.
         24    2    1    2    0    0  0.90735968858E+02 -0.20177693435E+02  0.37804315540E+03  0.39797322631E+03  0.82619042359E+02 0.  0.
        -13    1    5    5    0    0  0.23275875975E+02 -0.35219196792E+02  0.65845371836E+02  0.78216182579E+02  0.00000000000E+00 0.  1.
         14    1    5    5    0    0  0.67460092883E+02  0.15041503357E+02  0.31219778357E+03  0.31975704374E+03  0.00000000000E+00 0. -1.
         11    1    3    3    0    0 -0.15183653037E+02  0.39041761964E+02 -0.84386115331E+03  0.84490025954E+03  0.00000000000E+00 0. -1.
        -12    1    3    3    0    0  0.19011635346E+02 -0.32909759055E+02 -0.17655012734E+03  0.18059468980E+03  0.00000000000E+00 0.  1.
          5    1    4    4  501    0  0.13483830982E+02  0.77237323218E+01  0.46818417512E+02  0.49506629427E+02  0.41800000000E+01 0. -1.
         -5    1    4    4    0  501 -0.10804778215E+03  0.63219582052E+01 -0.20157191142E+02  0.11017293287E+03  0.41800000000E+01 0. -1.
</event>
<event>
11    1  0.6763327E-009  0.1410096E+03  0.7561462E-02  0.1106436E+00
         22   -1    0    0    0    0  0.00000000000E+00  0.00000000000E+00  0.39770847983E+03  0.39770847983E+03  0.00000000000E+00 0.  1.
         22   -1    0    0    0    0 -0.00000000000E+00 -0.00000000000E+00 -0.46918999628E+03  0.46918999628E+03  0.00000000000E+00 0. -1.
         24    2    1    2    0    0 -0.65399559081E+02  0.16029390695E+02 -0.39858101323E+03  0.41200965164E+03  0.79693696398E+02 0.  0.
         25    2    1    2    0    0  0.39334595610E+02 -0.88570234427E+01  0.15776521995E+02  0.13236925307E+03  0.12508822181E+03 0.  0.
        -24    2    1    2    0    0  0.26064963471E+02 -0.71723672519E+01  0.31132297479E+03  0.32251957140E+03  0.79787556257E+02 0.  0.
        -11    1    3    3    0    0 -0.56831385550E+02  0.11773990651E+02 -0.12034230585E+03  0.13360652610E+03  0.00000000000E+00 0.  1.
         12    1    3    3    0    0 -0.85681735306E+01  0.42554000434E+01 -0.27823870738E+03  0.27840312554E+03  0.00000000000E+00 0. -1.
         11    1    5    5    0    0 -0.18929745816E+02  0.12464832250E+02  0.33851869502E+02  0.40738880550E+02  0.00000000000E+00 0. -1.
        -12    1    5    5    0    0  0.44994709287E+02 -0.19637199502E+02  0.27747110529E+03  0.28178069085E+03  0.00000000000E+00 0.  1.
          5    1    4    4  501    0  0.11734168399E+02  0.65623243041E+01 -0.53917520873E+02  0.55725454375E+02  0.41800000000E+01 0.  1.
         -5    1    4    4    0  501  0.27600427211E+02 -0.15419347747E+02  0.69694042867E+02  0.76643798695E+02  0.41800000000E+01 0.  1.
</event>
<event>
11    1  0.6763327E-009  0.1334340E+03  0.7561462E-02  0.1115120E+00
         22   -1    0    0    0    0  0.00000000000E+00  0.00000000000E+00  0.32698383220E+03  0.32698383220E+03  0.00000000000E+00 0. -1.
         22   -1    0    0    0    0 -0.00000000000E+00 -0.00000000000E+00 -0.22837030539E+03  0.22837030539E+03  0.00000000000E+00 0.  1.
        -24    2    1    2    0    0  0.21580531934E+02  0.42707116038E+02 -0.17929888775E+03  0.20161469507E+03  0.78808483057E+02 0.  0.
         25    2    1    2    0    0 -0.24831773936E+02 -0.17337637137E+02  0.12821246672E+03  0.18166963247E+03  0.12509279788E+03 0.  0.
         24    2    1    2    0    0  0.32512420020E+01 -0.25369478901E+02  0.14969994784E+03  0.17206981005E+03  0.80893535668E+02 0.  0.
        -13    1    5    5    0    0 -0.16282278385E+02 -0.32348593665E+02  0.21319848920E+02  0.42024755317E+02  0.00000000000E+00 0.  1.
         14    1    5    5    0    0  0.19533520387E+02  0.69791147639E+01  0.12838009892E+03  0.13004505473E+03  0.00000000000E+00 0. -1.
         11    1    3    3    0    0  0.27277587237E+02  0.30701169791E+02 -0.27935608645E+02  0.49669173764E+02  0.00000000000E+00 0. -1.
        -12    1    3    3    0    0 -0.56970553032E+01  0.12005946247E+02 -0.15136327910E+03  0.15194552130E+03  0.00000000000E+00 0.  1.
          5    1    4    4  501    0 -0.30393653129E+02  0.23325630719E+02 -0.79874205425E+01  0.39358994980E+02  0.41800000000E+01 0.  1.
         -5    1    4    4    0  501  0.55618791928E+01 -0.40663267856E+02  0.13619988726E+03  0.14231063749E+03  0.41800000000E+01 0.  1.
</event>
<event>
11    1  0.6763327E-009  0.1395501E+03  0.7561462E-02  0.1108062E+00
         22   -1    0    0    0    0  0.00000000000E+00  0.00000000000E+00  0.42511436662E+03  0.42511436662E+03  0.00000000000E+00 0. -1.
         22   -1    0    0    0    0 -0.00000000000E+00 -0.00000000000E+00 -0.22372763575E+04  0.22372763575E+04  0.00000000000E+00 0. -1.
         24    2    1    2    0    0 -0.25990464843E+01  0.65805652538E+02 -0.18288838530E+04  0.18319747524E+04  0.83535661421E+02 0.  0.
         25    2    1    2    0    0 -0.32637678240E+02 -0.33328241638E+02 -0.39039897604E+03  0.41259542868E+03  0.12509051738E+03 0.  0.
        -24    2    1    2    0    0  0.35236724724E+02 -0.32477410900E+02  0.40712083811E+03  0.41782054309E+03  0.80809779175E+02 0.  0.
        -13    1    3    3    0    0 -0.35232806426E+02  0.43333846937E+01 -0.75891504709E+03  0.75974481082E+03  0.00000000000E+00 0.  1.
         14    1    3    3    0    0  0.32633759941E+02  0.61472267844E+02 -0.10699688059E+04  0.10722299416E+04  0.00000000000E+00 0. -1.
         13    1    5    5    0    0 -0.33236461245E+01 -0.19528015246E+02  0.33031447424E+03  0.33090790546E+03  0.00000000000E+00 0. -1.
        -14    1    5    5    0    0  0.38560370848E+02 -0.12949395654E+02  0.76806363876E+02  0.86912637629E+02  0.00000000000E+00 0.  1.
          5    1    4    4  501    0  0.98879990870E+01 -0.63162513163E+02 -0.10919417455E+03  0.12660219489E+03  0.41800000000E+01 0. -1.
         -5    1    4    4    0  501 -0.42525677327E+02  0.29834271525E+02 -0.28120480149E+03  0.28599323379E+03  0.41800000000E+01 0. -1.
</event>
<event>
11    1  0.6763327E-009  0.4400363E+03  0.7561462E-02  0.9538496E-01
         22   -1    0    0    0    0  0.00000000000E+00  0.00000000000E+00  0.91399575147E+03  0.91399575147E+03  0.00000000000E+00 0. -1.
         22   -1    0    0    0    0 -0.00000000000E+00 -0.00000000000E+00 -0.71120819549E+03  0.71120819549E+03  0.00000000000E+00 0.  1.
         24    2    1    2    0    0 -0.20196350604E+02  0.52182059740E+03 -0.10093633016E+03  0.53834569408E+03  0.83206460944E+02 0.  0.
         25    2    1    2    0    0 -0.16957649571E+03 -0.34924451603E+03 -0.24499914703E+03  0.47581565005E+03  0.12509208975E+03 0.  0.
        -24    2    1    2    0    0  0.18977284631E+03 -0.17257608137E+03  0.54872303317E+03  0.61104260282E+03  0.80497566827E+02 0.  0.
        -13    1    3    3    0    0 -0.42989341763E+02  0.32085828372E+03 -0.89030655758E+02  0.33574481291E+03  0.00000000000E+00 0.  1.
         14    1    3    3    0    0  0.22792991159E+02  0.20096231369E+03 -0.11905674402E+02  0.20260088117E+03  0.00000000000E+00 0. -1.
         13    1    5    5    0    0  0.15099529242E+03 -0.14878553246E+03  0.50609780064E+03  0.54870000621E+03  0.00000000000E+00 0. -1.
        -14    1    5    5    0    0  0.38777553890E+02 -0.23790548917E+02  0.42625232535E+02  0.62342596610E+02  0.00000000000E+00 0.  1.
          5    1    4    4  501    0 -0.35970105333E+02 -0.21405071900E+03 -0.11688330613E+03  0.24655777910E+03  0.41800000000E+01 0. -1.
         -5    1    4    4    0  501 -0.13360639037E+03 -0.13519379702E+03 -0.12811584090E+03  0.22925787095E+03  0.41800000000E+01 0. -1.
</event>
<event>
11    1  0.6763327E-009  0.1381850E+03  0.7561462E-02  0.1109602E+00
         22   -1    0    0    0    0  0.00000000000E+00  0.00000000000E+00  0.13159945373E+04  0.13159945373E+04  0.00000000000E+00 0.  1.
         22   -1    0    0    0    0 -0.00000000000E+00 -0.00000000000E+00 -0.10708110924E+04  0.10708110924E+04  0.00000000000E+00 0.  1.
         24    2    1    2    0    0 -0.54099767285E+02 -0.22539684034E+02 -0.10542874144E+04  0.10590768047E+04  0.81773491547E+02 0.  0.
         25    2    1    2    0    0  0.59986020486E+02  0.80831542994E+02  0.59149942585E+03  0.61290367728E+03  0.12508911159E+03 0.  0.
        -24    2    1    2    0    0 -0.58862532007E+01 -0.58291858961E+02  0.70797143341E+03  0.71482514774E+03  0.79491210355E+02 0.  0.
        -13    1    3    3    0    0 -0.48120857028E+02 -0.87846963472E+01 -0.25503779313E+03  0.25968647192E+03  0.00000000000E+00 0.  1.
         14    1    3    3    0    0 -0.59789102571E+01 -0.13754987686E+02 -0.79924962125E+03  0.79939033276E+03  0.00000000000E+00 0. -1.
         11    1    5    5    0    0  0.20784596923E+02 -0.59100175085E+02  0.32874783677E+03  0.33466396631E+03  0.00000000000E+00 0. -1.
        -12    1    5    5    0    0 -0.26670850124E+02  0.80831612426E+00  0.37922359664E+03  0.38016118143E+03  0.00000000000E+00 0.  1.
          5    1    4    4  501    0  0.25605170333E+02  0.58309763158E+02  0.93567011178E+02  0.11326036910E+03  0.41800000000E+01 0.  1.
         -5    1    4    4    0  501  0.34380850152E+02  0.22521779837E+02  0.49793241467E+03  0.49964330818E+03  0.41800000000E+01 0.  1.
</event>
<event>
11    1  0.6763327E-009  0.1562191E+03  0.7561462E-02  0.1090688E+00
         22   -1    0    0    0    0  0.00000000000E+00  0.00000000000E+00  0.24811915539E+03  0.24811915539E+03  0.00000000000E+00 0. -1.
         22   -1    0    0    0    0 -0.00000000000E+00 -0.00000000000E+00 -0.16506610605E+04  0.16506610605E+04  0.00000000000E+00 0. -1.
        -24    2    1    2    0    0 -0.20238147014E+02  0.92034866243E+02 -0.15519968391E+04  0.15570096966E+04  0.81884111412E+02 0.  0.
         25    2    1    2    0    0  0.61809561497E+02 -0.63117730734E+02 -0.13179830764E+02  0.15370336369E+03  0.12508695473E+03 0.  0.
         24    2    1    2    0    0 -0.41571414483E+02 -0.28917135509E+02  0.16263476477E+03  0.18806715554E+03  0.79717031131E+02 0.  0.
        -11    1    5    5    0    0 -0.14900335120E+02 -0.54613614273E+02  0.86112092394E+02  0.10305318679E+03  0.00000000000E+00 0.  1.
         12    1    5    5    0    0 -0.26671079363E+02  0.25696478764E+02  0.76522672374E+02  0.85013968749E+02  0.00000000000E+00 0. -1.
         11    1    3    3    0    0 -0.37666694084E+02  0.95784818923E+02 -0.14322081805E+04  0.14359017319E+04  0.00000000000E+00 0. -1.
        -12    1    3    3    0    0  0.17428547070E+02 -0.37499526800E+01 -0.11978865857E+03  0.12110796472E+03  0.00000000000E+00 0.  1.
          5    1    4    4  501    0  0.39436895051E+02  0.29456576215E+02  0.19233150324E+02  0.53012687585E+02  0.41800000000E+01 0.  1.
         -5    1    4    4    0  501  0.22372666446E+02 -0.92574306949E+02 -0.32412981089E+02  0.10069067610E+03  0.41800000000E+01 0.  1.
</event>
<event>
11    1  0.6763327E-009  0.1317028E+03  0.7561462E-02  0.1117194E+00
         22   -1    0    0    0    0  0.00000000000E+00  0.00000000000E+00  0.33382025617E+03  0.33382025617E+03  0.00000000000E+00 0.  1.
         22   -1    0    0    0    0 -0.00000000000E+00 -0.00000000000E+00 -0.71024475717E+03  0.71024475717E+03  0.00000000000E+00 0.  1.
         24    2    1    2    0    0  0.40103676813E+02 -0.91892206168E+01 -0.62495912168E+03  0.63106342185E+03  0.77294191006E+02 0.  0.
         25    2    1    2    0    0  0.25984412604E+01  0.21990412624E+02 -0.20166068065E+02  0.12862337911E+03  0.12508786195E+03 0.  0.
        -24    2    1    2    0    0 -0.42702118073E+02 -0.12801192008E+02  0.26870068874E+03  0.28437821238E+03  0.81753080310E+02 0.  0.
        -11    1    3    3    0    0  0.57576696796E+02  0.65487097251E+01 -0.53317322397E+03  0.53631301343E+03  0.00000000000E+00 0.  1.
         12    1    3    3    0    0 -0.17473019983E+02 -0.15737930342E+02 -0.91785897701E+02  0.94750408419E+02  0.00000000000E+00 0. -1.
         13    1    5    5    0    0  0.22044704849E+02  0.22957913480E+01  0.35195458205E+02  0.41592787212E+02  0.00000000000E+00 0. -1.
        -14    1    5    5    0    0 -0.64746822922E+02 -0.15096983356E+02  0.23350523054E+03  0.24278542517E+03  0.00000000000E+00 0.  1.
          5    1    4    4  501    0 -0.12609394058E+01 -0.80566628343E+01 -0.69759776241E+02  0.70359068821E+02  0.41800000000E+01 0.  1.
         -5    1    4    4    0  501  0.38593806661E+01  0.30047075459E+02  0.49593708176E+02  0.58264310288E+02  0.41800000000E+01 0.  1.
</event>
<event>
11    1  0.6763327E-009  0.3613720E+03  0.7561462E-02  0.9771153E-01
         22   -1    0    0    0    0  0.00000000000E+00  0.00000000000E+00  0.59780898012E+03  0.59780898012E+03  0.00000000000E+00 0.  1.
         22   -1    0    0    0    0 -0.00000000000E+00 -0.00000000000E+00 -0.19819724308E+04  0.19819724308E+04  0.00000000000E+00 0.  1.
        -24    2    1    2    0    0  0.18416521034E+02 -0.30346012607E+02 -0.16548028904E+04  0.16571665666E+04  0.81045508522E+02 0.  0.
         25    2    1    2    0    0  0.32277666739E+03  0.55874580597E+02 -0.14431163353E+03  0.37918340551E+03  0.12508981445E+03 0.  0.
         24    2    1    2    0    0 -0.34119318842E+03 -0.25528567991E+02  0.41495107330E+03  0.54343143882E+03  0.77902733326E+02 0.  0.
        -13    1    5    5    0    0 -0.94337126667E+02 -0.42460304828E+02  0.12465997722E+03  0.16199531127E+03  0.00000000000E+00 0.  1.
         14    1    5    5    0    0 -0.24685606175E+03  0.16931736837E+02  0.29029109608E+03  0.38143612755E+03  0.00000000000E+00 0. -1.
         11    1    3    3    0    0 -0.14618026535E+02 -0.47722938305E+02 -0.80657709006E+03  0.80811989689E+03  0.00000000000E+00 0. -1.
        -12    1    3    3    0    0  0.33034547569E+02  0.17376925698E+02 -0.84822580037E+03  0.84904666968E+03  0.00000000000E+00 0.  1.
          5    1    4    4  501    0  0.27412339775E+03  0.68865004480E+02 -0.73287467939E+02  0.29201806689E+03  0.41800000000E+01 0. -1.
         -5    1    4    4    0  501  0.48653269640E+02 -0.12990423883E+02 -0.71024165588E+02  0.87165338620E+02  0.41800000000E+01 0. -1.
</event>
<event>
11    1  0.6763327E-009  0.1259621E+03  0.7561462E-02  0.1124332E+00
         22   -1    0    0    0    0  0.00000000000E+00  0.00000000000E+00  0.18868945927E+04  0.18868945927E+04  0.00000000000E+00 0.  1.
         22   -1    0    0    0    0 -0.00000000000E+00 -0.00000000000E+00 -0.11433938824E+03  0.11433938824E+03  0.00000000000E+00 0.  1.
        -24    2    1    2    0    0 -0.11358759797E+02 -0.97183542841E+01 -0.87747060944E+02  0.12944746525E+03  0.93987401924E+02 0.  0.
         25    2    1    2    0    0  0.87176180243E+01  0.10589989361E+01  0.97308217700E+03  0.98112881550E+03  0.12509081129E+03 0.  0.
         24    2    1    2    0    0  0.26411417724E+01  0.86593553480E+01  0.88722008838E+03  0.89065770018E+03  0.77651101670E+02 0.  0.
        -13    1    5    5    0    0 -0.31693990757E+02 -0.79869626183E+00  0.65064512623E+03  0.65141709162E+03  0.00000000000E+00 0.  1.
         14    1    5    5    0    0  0.34335132530E+02  0.94580516098E+01  0.23657496215E+03  0.23924060856E+03  0.00000000000E+00 0. -1.
         11    1    3    3    0    0  0.26113082558E+02  0.30271039492E+02 -0.31295153071E+02  0.50770222753E+02  0.00000000000E+00 0. -1.
        -12    1    3    3    0    0 -0.37471842355E+02 -0.39989393776E+02 -0.56451907873E+02  0.78677242494E+02  0.00000000000E+00 0.  1.
          5    1    4    4  501    0 -0.48672965185E+02  0.31688902189E+02  0.37323687769E+03  0.37775188064E+03  0.41800000000E+01 0.  1.
         -5    1    4    4    0  501  0.57390583210E+02 -0.30629903253E+02  0.59984529931E+03  0.60337693486E+03  0.41800000000E+01 0.  1.
</event>
<event>
11    1  0.6763327E-009  0.1336003E+03  0.7561462E-02  0.1114923E+00
         22   -1    0    0    0    0  0.00000000000E+00  0.00000000000E+00  0.84645223244E+03  0.84645223244E+03  0.00000000000E+00 0. -1.
         22   -1    0    0    0    0 -0.00000000000E+00 -0.00000000000E+00 -0.10529387597E+04  0.10529387597E+04  0.00000000000E+00 0.  1.
        -24    2    1    2    0    0  0.17083036851E+02 -0.84233625144E+01 -0.89701425557E+03  0.90076281856E+03  0.79851721553E+02 0.  0.
         25    2    1    2    0    0  0.28619171582E+02  0.20081556491E+02 -0.12358016503E+03  0.17928171141E+03  0.12509016333E+03 0.  0.
         24    2    1    2    0    0 -0.45702208433E+02 -0.11658193977E+02  0.81410789332E+03  0.81934646219E+03  0.79576113197E+02 0.  0.
        -13    1    5    5    0    0 -0.31416743683E+02 -0.41561595611E+02  0.63968416092E+03  0.64180230893E+03  0.00000000000E+00 0.  1.
         14    1    5    5    0    0 -0.14285464750E+02  0.29903401634E+02  0.17442373240E+03  0.17754415325E+03  0.00000000000E+00 0. -1.
         13    1    3    3    0    0 -0.53684848372E+01 -0.31315093244E+02 -0.16409527010E+03  0.16714279333E+03  0.00000000000E+00 0. -1.
        -14    1    3    3    0    0  0.22451521688E+02  0.22891730730E+02 -0.73291898547E+03  0.73362002523E+03  0.00000000000E+00 0.  1.
          5    1    4    4  501    0  0.68559829417E+02  0.20088050574E+02 -0.30281543889E+02  0.77707298794E+02  0.41800000000E+01 0. -1.
         -5    1    4    4    0  501 -0.39940657835E+02 -0.64940829270E-02 -0.93298621141E+02  0.10157441261E+03  0.41800000000E+01 0. -1.
</event>
<event>
11    1  0.6763327E-009  0.1441771E+03  0.7561462E-02  0.1102982E+00
         22   -1    0    0    0    0  0.00000000000E+00  0.00000000000E+00  0.38635764789E+03  0.38635764789E+03  0.00000000000E+00 0.  1.
         22   -1    0    0    0    0 -0.00000000000E+00 -0.00000000000E+00 -0.55793608648E+03  0.55793608648E+03  0.00000000000E+00 0. -1.
         24    2    1    2    0    0  0.69678175544E+02  0.21590253220E+01 -0.49059105907E+03  0.50179171694E+03  0.79092543351E+02 0.  0.
         25    2    1    2    0    0 -0.12923659561E+03 -0.11337063223E+01  0.10988620357E+03  0.21076447945E+03  0.12507319908E+03 0.  0.
        -24    2    1    2    0    0  0.59558420065E+02 -0.10253189997E+01  0.20912641690E+03  0.23173753799E+03  0.80125973224E+02 0.  0.
        -13    1    3    3    0    0  0.47962310023E+00  0.17759845831E+02 -0.24114172546E+02  0.29952219949E+02  0.00000000000E+00 0.  1.
         14    1    3    3    0    0  0.69198552444E+02 -0.15600820509E+02 -0.46647688652E+03  0.47183949699E+03  0.00000000000E+00 0. -1.
         13    1    5    5    0    0 -0.17292249369E+02  0.63686785594E+00  0.14834786210E+02  0.22792506901E+02  0.00000000000E+00 0. -1.
        -14    1    5    5    0    0  0.76850669434E+02 -0.16621868557E+01  0.19429163069E+03  0.20894503109E+03  0.00000000000E+00 0.  1.
          5    1    4    4  501    0 -0.64366668660E+02 -0.20780979992E+02  0.12408786082E+03  0.14138665696E+03  0.41800000000E+01 0. -1.
         -5    1    4    4    0  501 -0.64869926948E+02  0.19647273669E+02 -0.14201657246E+02  0.69377822490E+02  0.41800000000E+01 0. -1.
</event>
<event>
11    1  0.6763327E-009  0.2076721E+03  0.7561462E-02  0.1049227E+00
         22   -1    0    0    0    0  0.00000000000E+00  0.00000000000E+00  0.24193384221E+03  0.24193384221E+03  0.00000000000E+00 0.  1.
         22   -1    0    0    0    0 -0.00000000000E+00 -0.00000000000E+00 -0.52259532531E+03  0.52259532531E+03  0.00000000000E+00 0. -1.
         24    2    1    2    0    0 -0.11181602335E+03 -0.36366416890E+02 -0.22756434681E+03  0.26842687726E+03  0.80262800512E+02 0.  0.
         25    2    1    2    0    0  0.25347284163E+03 -0.98601705332E+00 -0.13243867504E+03  0.31214885101E+03  0.12508976322E+03 0.  0.
        -24    2    1    2    0    0 -0.14165681829E+03  0.37352433944E+02  0.79341538743E+02  0.18395343925E+03  0.77986726774E+02 0.  0.
        -11    1    3    3    0    0  0.10226969478E+02  0.38857313109E+01 -0.65055744695E+01  0.12728405702E+02  0.00000000000E+00 0.  1.
         12    1    3    3    0    0 -0.12204299282E+03 -0.40252148201E+02 -0.22105877234E+03  0.25569847156E+03  0.00000000000E+00 0. -1.
         13    1    5    5    0    0 -0.21355268277E+02 -0.96830649572E+00  0.49932521430E+02  0.54316128332E+02  0.00000000000E+00 0. -1.
        -14    1    5    5    0    0 -0.12030155001E+03  0.38320740440E+02  0.29409017313E+02  0.12963731092E+03  0.00000000000E+00 0.  1.
          5    1    4    4  501    0  0.31160920687E+02 -0.33239771371E+02  0.90388700501E+01  0.46637527278E+02  0.41800000000E+01 0. -1.
         -5    1    4    4    0  501  0.22231192095E+03  0.32253754318E+02 -0.14147754509E+03  0.26551132373E+03  0.41800000000E+01 0. -1.
</event>
<event>
11    1  0.6763327E-009  0.1299077E+03  0.7561462E-02  0.1119382E+00
         22   -1    0    0    0    0  0.00000000000E+00  0.00000000000E+00  0.28842845321E+03  0.28842845321E+03  0.00000000000E+00 0.  1.
         22   -1    0    0    0    0 -0.00000000000E+00 -0.00000000000E+00 -0.99289061928E+03  0.99289061928E+03  0.00000000000E+00 0.  1.
         24    2    1    2    0    0  0.31296643628E+02  0.76025110322E+01 -0.77513212229E+03  0.78183687176E+03  0.96962925628E+02 0.  0.
         25    2    1    2    0    0 -0.43521297795E+02 -0.44951954809E+02 -0.18316341806E+03  0.23046267590E+03  0.12509766451E+03 0.  0.
        -24    2    1    2    0    0  0.12224654167E+02  0.37349443777E+02  0.25383337428E+03  0.26901952484E+03  0.79973118756E+02 0.  0.
        -11    1    3    3    0    0  0.31890400049E+02  0.13207351501E+02 -0.77542519060E+03  0.77619305457E+03  0.00000000000E+00 0.  1.
         12    1    3    3    0    0 -0.59375642074E+00 -0.56048404683E+01  0.29306830538E+00  0.56438171829E+01  0.00000000000E+00 0. -1.
         11    1    5    5    0    0  0.92876607661E+01 -0.24586124263E+02  0.59821918697E+02  0.65340646656E+02  0.00000000000E+00 0. -1.
        -12    1    5    5    0    0  0.29369934010E+01  0.61935568040E+02  0.19401145559E+03  0.20367887818E+03  0.00000000000E+00 0.  1.
          5    1    4    4  501    0 -0.86972559677E+02 -0.29713204455E+02 -0.10460468269E+03  0.13930797786E+03  0.41800000000E+01 0. -1.
         -5    1    4    4    0  501  0.43451261882E+02 -0.15238750354E+02 -0.78558735371E+02  0.91154698039E+02  0.41800000000E+01 0. -1.
</event>
<event>
11    1  0.6763327E-009  0.1297763E+03  0.7561462E-02  0.1119544E+00
         22   -1    0    0    0    0  0.00000000000E+00  0.00000000000E+00  0.64242510749E+03  0.64242510749E+03  0.00000000000E+00 0.  1.
         22   -1    0    0    0    0 -0.00000000000E+00 -0.00000000000E+00 -0.35141288015E+04  0.35141288015E+04  0.00000000000E+00 0.  1.
         24    2    1    2    0    0 -0.18232013605E+02  0.23495363038E+02 -0.33594073399E+04  0.33604960547E+04  0.80197379697E+02 0.  0.
         25    2    1    2    0    0 -0.62562201608E+01  0.17333852216E+01 -0.12526013741E+03  0.17713777345E+03  0.12508214838E+03 0.  0.
        -24    2    1    2    0    0  0.24488233766E+02 -0.25228748259E+02  0.61296378338E+03  0.61892008079E+03  0.78110840128E+02 0.  0.
        -11    1    3    3    0    0  0.43329048704E+01  0.24922109621E+02 -0.31005408574E+04  0.31006440450E+04  0.00000000000E+00 0.  1.
         12    1    3    3    0    0 -0.22564918475E+02 -0.14267465828E+01 -0.25886648255E+03  0.25985200969E+03  0.00000000000E+00 0. -1.
         13    1    5    5    0    0 -0.27856414841E+02 -0.15766518727E+02  0.20015180519E+03  0.20269511114E+03  0.00000000000E+00 0. -1.
        -14    1    5    5    0    0  0.52344648606E+02 -0.94622295323E+01  0.41281197819E+03  0.41622496965E+03  0.00000000000E+00 0.  1.
          5    1    4    4  501    0 -0.12428652063E+02 -0.14509466533E+02  0.21632352144E+02  0.29162082753E+02  0.41800000000E+01 0.  1.
         -5    1    4    4    0  501  0.61724319026E+01  0.16242851755E+02 -0.14689248956E+03  0.14797569069E+03  0.41800000000E+01 0.  1.
</event>
<event>
11    1  0.6763327E-009  0.1295080E+03  0.7561462E-02  0.1119875E+00
         22   -1    0    0    0    0  0.00000000000E+00  0.00000000000E+00  0.83489236986E+03  0.83489236986E+03  0.00000000000E+00 0. -1.
         22   -1    0    0    0    0 -0.00000000000E+00 -0.00000000000E+00 -0.13545717664E+03  0.13545717664E+03  0.00000000000E+00 0. -1.
        -24    2    1    2    0    0  0.17445591549E+02  0.28582242439E+02 -0.96053710824E+02  0.12957295322E+03  0.80259215027E+02 0.  0.
         25    2    1    2    0    0 -0.35904462676E+02  0.16888663327E+01  0.19892922738E+03  0.23772418070E+03  0.12509182977E+03 0.  0.
         24    2    1    2    0    0  0.18458871127E+02 -0.30271108772E+02  0.59655967666E+03  0.60305241257E+03  0.80818899614E+02 0.  0.
        -11    1    5    5    0    0 -0.18262803476E+02  0.14064246859E+02  0.78802119092E+02  0.82104244738E+02  0.00000000000E+00 0.  1.
         12    1    5    5    0    0  0.36721674603E+02 -0.44335355631E+02  0.51775755757E+03  0.52094816783E+03  0.00000000000E+00 0. -1.
         13    1    3    3    0    0 -0.25330900393E+02  0.52456235299E+01 -0.69328136817E+02  0.73997038018E+02  0.00000000000E+00 0. -1.
        -14    1    3    3    0    0  0.42776491942E+02  0.23336618909E+02 -0.26725574007E+02  0.55575915206E+02  0.00000000000E+00 0.  1.
          5    1    4    4  501    0 -0.56893151841E+01 -0.59916999647E+02  0.77852610900E+02  0.98493231127E+02  0.41800000000E+01 0. -1.
         -5    1    4    4    0  501 -0.30215147492E+02  0.61605865979E+02  0.12107661648E+03  0.13923094958E+03  0.41800000000E+01 0. -1.
</event>
<event>
11    1  0.6763327E-009  0.1737625E+03  0.7561462E-02  0.1074803E+00
         22   -1    0    0    0    0  0.00000000000E+00  0.00000000000E+00  0.12793450417E+03  0.12793450417E+03  0.00000000000E+00 0. -1.
         22   -1    0    0    0    0 -0.00000000000E+00 -0.00000000000E+00 -0.22218640642E+04  0.22218640642E+04  0.00000000000E+00 0.  1.
        -24    2    1    2    0    0  0.60518861233E+02  0.31886321901E+02 -0.18044251848E+04  0.18076178838E+04  0.82782221575E+02 0.  0.
         25    2    1    2    0    0 -0.33985198601E+02  0.91031845336E+02 -0.34845557899E+03  0.38276640602E+03  0.12508813076E+03 0.  0.
         24    2    1    2    0    0 -0.26533662631E+02 -0.12291816724E+03  0.58951203741E+02  0.15941427858E+03  0.78260824829E+02 0.  0.
        -11    1    5    5    0    0 -0.34089079098E+01  0.10188250034E+02 -0.24442125132E+01  0.11017952019E+02  0.00000000000E+00 0.  1.
         12    1    5    5    0    0 -0.23124754722E+02 -0.13310641727E+03  0.61395416255E+02  0.14839632656E+03  0.00000000000E+00 0. -1.
         11    1    3    3    0    0  0.24880789791E+01  0.19355670051E+02 -0.86787137071E+02  0.88954143587E+02  0.00000000000E+00 0. -1.
        -12    1    3    3    0    0  0.58030782254E+02  0.12530651850E+02 -0.17176380477E+04  0.17186637402E+04  0.00000000000E+00 0.  1.
          5    1    4    4  501    0  0.46781601846E+02  0.22414928673E+02 -0.12581143330E+03  0.13615041847E+03  0.41800000000E+01 0. -1.
         -5    1    4    4    0  501 -0.80766800448E+02  0.68616916663E+02 -0.22264414569E+03  0.24661598755E+03  0.41800000000E+01 0. -1.
</event>
<event>
11    1  0.6763327E-009  0.1469630E+03  0.7561462E-02  0.1100023E+00
         22   -1    0    0    0    0  0.00000000000E+00  0.00000000000E+00  0.16262258162E+04  0.16262258162E+04  0.00000000000E+00 0. -1.
         22   -1    0    0    0    0 -0.00000000000E+00 -0.00000000000E+00 -0.48523345299E+03  0.48523345299E+03  0.00000000000E+00 0. -1.
         24    2    1    2    0    0  0.20201259863E+01  0.55800216413E+02 -0.45083260469E+03  0.46151345458E+03  0.81405689258E+02 0.  0.
         25    2    1    2    0    0 -0.78513080167E+02 -0.60175087754E+02  0.21006705548E+03  0.26374646663E+03  0.12509470779E+03 0.  0.
        -24    2    1    2    0    0  0.76492954181E+02  0.43748713408E+01  0.13817579125E+04  0.13861993480E+04  0.80146068511E+02 0.  0.
        -11    1    3    3    0    0  0.10127795283E+02 -0.48250372502E+01 -0.27712317588E+03  0.27735015384E+03  0.00000000000E+00 0.  1.
         12    1    3    3    0    0 -0.81076692972E+01  0.60625253663E+02 -0.17370942880E+03  0.18416330074E+03  0.00000000000E+00 0. -1.
         11    1    5    5    0    0  0.66561040833E+02  0.10073719261E+02  0.13595270256E+04  0.13611927069E+04  0.00000000000E+00 0. -1.
        -12    1    5    5    0    0  0.99319133477E+01 -0.56988479200E+01  0.22230886896E+02  0.25006641169E+02  0.00000000000E+00 0.  1.
          5    1    4    4  501    0 -0.42814880015E+02 -0.68183294608E+01  0.19206524307E+03  0.19694195480E+03  0.41800000000E+01 0. -1.
         -5    1    4    4    0  501 -0.35698200152E+02 -0.53356758293E+02  0.18001812411E+02  0.66804511821E+02  0.41800000000E+01 0. -1.
</event>
<event>
11    1  0.6763327E-009  0.1388276E+03  0.7561462E-02  0.1108875E+00
         22   -1    0    0    0    0  0.00000000000E+00  0.00000000000E+00  0.42415619082E+03  0.42415619082E+03  0.00000000000E+00 0.  1.
         22   -1    0    0    0    0 -0.00000000000E+00 -0.00000000000E+00 -0.21450743352E+03  0.21450743352E+03  0.00000000000E+00 0. -1.
         24    2    1    2    0    0 -0.40171267490E+02 -0.35873113685E+02 -0.11466642363E+03  0.14985113735E+03  0.80039762873E+02 0.  0.
         25    2    1    2    0    0  0.52434655919E+02  0.73084132482E+02  0.18631505165E+01  0.15408368348E+03  0.12509047375E+03 0.  0.
        -24    2    1    2    0    0 -0.12263388429E+02 -0.37211018797E+02  0.32245203041E+03  0.33472880350E+03  0.80827033603E+02 0.  0.
        -11    1    3    3    0    0 -0.36308015840E+02 -0.31180988099E+01 -0.68203535963E+01  0.37074408661E+02  0.00000000000E+00 0.  1.
         12    1    3    3    0    0 -0.38632516501E+01 -0.32755014875E+02 -0.10784607003E+03  0.11277672869E+03  0.00000000000E+00 0. -1.
         13    1    5    5    0    0 -0.44949375986E+02 -0.29114122751E+02  0.23482076275E+03  0.24085030447E+03  0.00000000000E+00 0. -1.
        -14    1    5    5    0    0  0.32685987558E+02 -0.80968960460E+01  0.87631267658E+02  0.93878499027E+02  0.00000000000E+00 0.  1.
          5    1    4    4  501    0  0.65416250226E+02  0.71823626018E+02  0.46216983769E+02  0.10766336906E+03  0.41800000000E+01 0. -1.
         -5    1    4    4    0  501 -0.12981594307E+02  0.12605064646E+01 -0.44353833252E+02  0.46420314427E+02  0.41800000000E+01 0. -1.
</event>
<event>
11    1  0.6763327E-009  0.1659509E+03  0.7561462E-02  0.1081610E+00
         22   -1    0    0    0    0  0.00000000000E+00  0.00000000000E+00  0.23358195748E+03  0.23358195748E+03  0.00000000000E+00 0.  1.
         22   -1    0    0    0    0 -0.00000000000E+00 -0.00000000000E+00 -0.11060474532E+04  0.11060474532E+04  0.00000000000E+00 0.  1.
         24    2    1    2    0    0  0.10994766918E+03 -0.34328423972E+02 -0.98782989547E+03  0.99778192950E+03  0.80585022230E+02 0.  0.
         25    2    1    2    0    0 -0.44453779127E+02  0.28725897538E+02 -0.50962747298E+02  0.14507205738E+03  0.12508950616E+03 0.  0.
        -24    2    1    2    0    0 -0.65493890058E+02  0.56025264349E+01  0.16632714703E+03  0.19677542382E+03  0.82067104496E+02 0.  0.
        -11    1    3    3    0    0  0.69802551223E+02  0.10860609331E+02 -0.70700323186E+03  0.71052369338E+03  0.00000000000E+00 0.  1.
         12    1    3    3    0    0  0.40145117962E+02 -0.45189033304E+02 -0.28082666361E+03  0.28725823612E+03  0.00000000000E+00 0. -1.
         13    1    5    5    0    0 -0.40548277591E+02  0.62155013964E+00  0.14864470688E+02  0.43191453194E+02  0.00000000000E+00 0. -1.
        -14    1    5    5    0    0 -0.24945612466E+02  0.49809762952E+01  0.15146267635E+03  0.15358397062E+03  0.00000000000E+00 0.  1.
          5    1    4    4  501    0  0.94147231016E+01 -0.26828554342E+01  0.36248968005E+02  0.37779555394E+02  0.41800000000E+01 0.  1.
         -5    1    4    4    0  501 -0.53868502228E+02  0.31408752972E+02 -0.87211715303E+02  0.10729250198E+03  0.41800000000E+01 0.  1.
</event>
<event>
11    1  0.6763327E-009  0.1489892E+03  0.7561462E-02  0.1097916E+00
         22   -1    0    0    0    0  0.00000000000E+00  0.00000000000E+00  0.29877474250E+03  0.29877474250E+03  0.00000000000E+00 0. -1.
         22   -1    0    0    0    0 -0.00000000000E+00 -0.00000000000E+00 -0.15109626218E+04  0.15109626218E+04  0.00000000000E+00 0.  1.
         24    2    1    2    0    0 -0.79458653517E+02  0.50381070712E+01 -0.11746280915E+04  0.11798978287E+04  0.77901686010E+02 0.  0.
         25    2    1    2    0    0  0.92040154042E+02  0.41129465017E+02 -0.30604181463E+03  0.34564663434E+03  0.12508789183E+03 0.  0.
        -24    2    1    2    0    0 -0.12581500525E+02 -0.46167572088E+02  0.26848202686E+03  0.28419290123E+03  0.79957910788E+02 0.  0.
        -13    1    3    3    0    0 -0.56259807410E+02  0.39135111284E+02 -0.82621984669E+03  0.82905727059E+03  0.00000000000E+00 0.  1.
         14    1    3    3    0    0 -0.23198846107E+02 -0.34097004213E+02 -0.34840824482E+03  0.35084055812E+03  0.00000000000E+00 0. -1.
         13    1    5    5    0    0 -0.17124538063E+01 -0.64306690181E+02  0.24144831342E+03  0.24987110868E+03  0.00000000000E+00 0. -1.
        -14    1    5    5    0    0 -0.10869046718E+02  0.18139118093E+02  0.27033713438E+02  0.34321792552E+02  0.00000000000E+00 0.  1.
          5    1    4    4  501    0  0.59473877278E+01  0.40612994110E+02 -0.18053092530E+02  0.45035244656E+02  0.41800000000E+01 0.  1.
         -5    1    4    4    0  501  0.86092766314E+02  0.51647090729E+00 -0.28798872210E+03  0.30061138969E+03  0.41800000000E+01 0.  1.
</event>
<event>
11    1  0.6763327E-009  0.2101089E+03  0.7561462E-02  0.1047597E+00
         22   -1    0    0    0    0  0.00000000000E+00  0.00000000000E+00  0.17263267460E+04  0.17263267460E+04  0.00000000000E+00 0. -1.
         22   -1    0    0    0    0 -0.00000000000E+00 -0.00000000000E+00 -0.10258641044E+03  0.10258641044E+03  0.00000000000E+00 0.  1.
        -24    2    1    2    0    0 -0.35175488819E+02  0.20835251387E+02 -0.15437775048E+02  0.92651441127E+02  0.81697869804E+02 0.  0.
         25    2    1    2    0    0  0.22651673928E+02 -0.18680839249E+03  0.25884313981E+03  0.34359656870E+03  0.12509339375E+03 0.  0.
         24    2    1    2    0    0  0.12523814891E+02  0.16597314110E+03  0.13803349708E+04  0.13926651466E+04  0.80545946310E+02 0.  0.
        -13    1    5    5    0    0  0.99536935955E+01  0.61718611134E+02  0.84228464782E+03  0.84460149830E+03  0.00000000000E+00 0.  1.
         14    1    5    5    0    0  0.25701212955E+01  0.10425452997E+03  0.53805032294E+03  0.54806364827E+03  0.00000000000E+00 0. -1.
         13    1    3    3    0    0 -0.14414237219E+02 -0.14317130122E+02  0.26983282457E+02  0.33776441224E+02  0.00000000000E+00 0. -1.
        -14    1    3    3    0    0 -0.20761251599E+02  0.35152381509E+02 -0.42421057506E+02  0.58874999903E+02  0.00000000000E+00 0.  1.
          5    1    4    4  501    0  0.58690701580E+01 -0.12227390649E+03  0.24705640831E+03  0.27575296096E+03  0.41800000000E+01 0.  1.
         -5    1    4    4    0  501  0.16782603769E+02 -0.64534485991E+02  0.11786731505E+02  0.67843607739E+02  0.41800000000E+01 0.  1.
</event>
<event>
11    1  0.6763327E-009  0.1612272E+03  0.7561462E-02  0.1085929E+00
         22   -1    0    0    0    0  0.00000000000E+00  0.00000000000E+00  0.70408759380E+03  0.70408759380E+03  0.00000000000E+00 0.  1.
         22   -1    0    0    0    0 -0.00000000000E+00 -0.00000000000E+00 -0.72575409009E+03  0.72575409009E+03  0.00000000000E+00 0. -1.
        -24    2    1    2    0    0  0.29630350812E+02 -0.30037611524E+02 -0.65342968396E+03  0.65970303084E+03  0.80358703440E+02 0.  0.
         25    2    1    2    0    0 -0.12317532961E+03 -0.48889409965E+01  0.62302582335E+02  0.18634769961E+03  0.12509112604E+03 0.  0.
         24    2    1    2    0    0  0.93544978802E+02  0.34926552521E+02  0.56946060534E+03  0.58379095344E+03  0.80968939499E+02 0.  0.
        -11    1    5    5    0    0  0.92736089495E+02 -0.42283390739E+00  0.38928934259E+03  0.40018289985E+03  0.00000000000E+00 0.  1.
         12    1    5    5    0    0  0.80888930661E+00  0.35349386428E+02  0.18017126275E+03  0.18360805359E+03  0.00000000000E+00 0. -1.
         11    1    3    3    0    0 -0.15361892919E+02 -0.36708154455E+02 -0.42017403401E+03  0.42205413778E+03  0.00000000000E+00 0. -1.
        -12    1    3    3    0    0  0.44992243731E+02  0.66705429314E+01 -0.23325564995E+03  0.23764889306E+03  0.00000000000E+00 0.  1.
          5    1    4    4  501    0  0.18123233916E+02 -0.26333680050E+02  0.66345748120E+01  0.32915107405E+02  0.41800000000E+01 0.  1.
         -5    1    4    4    0  501 -0.14129856353E+03  0.21444739053E+02  0.55668007523E+02  0.15343259220E+03  0.41800000000E+01 0.  1.
</event>
<event>
11    1  0.6763327E-009  0.1321836E+03  0.7561462E-02  0.1116615E+00
         22   -1    0    0    0    0  0.00000000000E+00  0.00000000000E+00  0.17769079702E+04  0.17769079702E+04  0.00000000000E+00 0. -1.
         22   -1    0    0    0    0 -0.00000000000E+00 -0.00000000000E+00 -0.45378563592E+03  0.45378563592E+03  0.00000000000E+00 0. -1.
         24    2    1    2    0    0 -0.42771806226E+02 -0.27981945051E+01 -0.43904797914E+03  0.44803683731E+03  0.78336596136E+02 0.  0.
         25    2    1    2    0    0  0.29201808356E+02 -0.22521771072E+02  0.46407954858E+03  0.48205521505E+03  0.12508967647E+03 0.  0.
        -24    2    1    2    0    0  0.13569997870E+02  0.25319965577E+02  0.12980907649E+04  0.13006015538E+04  0.75495181426E+02 0.  0.
        -13    1    3    3    0    0 -0.12084623600E+01 -0.92805182030E+01 -0.28046880710E+01  0.97700908168E+01  0.00000000000E+00 0.  1.
         14    1    3    3    0    0 -0.41563343866E+02  0.64823236979E+01 -0.43624329107E+03  0.43826674649E+03  0.00000000000E+00 0. -1.
         11    1    5    5    0    0 -0.22884373253E-01 -0.25942728556E+02  0.30763218469E+03  0.30872412725E+03  0.00000000000E+00 0. -1.
        -12    1    5    5    0    0  0.13592882243E+02  0.51262694134E+02  0.99045858017E+03  0.99187742654E+03  0.00000000000E+00 0.  1.
          5    1    4    4  501    0 -0.46588176659E+02 -0.14394999396E+02  0.11974530330E+03  0.12936028863E+03  0.41800000000E+01 0. -1.
         -5    1    4    4    0  501  0.75789985015E+02 -0.81267716758E+01  0.34433424528E+03  0.35269492642E+03  0.41800000000E+01 0. -1.
</event>
<event>
11    1  0.6763327E-009  0.1278889E+03  0.7561462E-02  0.1121890E+00
         22   -1    0    0    0    0  0.00000000000E+00  0.00000000000E+00  0.27124145684E+03  0.27124145684E+03  0.00000000000E+00 0.  1.
         22   -1    0    0    0    0 -0.00000000000E+00 -0.00000000000E+00 -0.32812959785E+03  0.32812959785E+03  0.00000000000E+00 0. -1.
        -24    2    1    2    0    0 -0.14471691470E+02 -0.69050681287E+02  0.73724271414E+02  0.12276436832E+03  0.68252439465E+02 0.  0.
         25    2    1    2    0    0  0.10894473514E+02  0.17717634702E+02 -0.27573048110E+03  0.30349210071E+03  0.12509017890E+03 0.  0.
         24    2    1    2    0    0  0.35772179569E+01  0.51333046585E+02  0.14511806868E+03  0.17311458565E+03  0.79129815812E+02 0.  0.
        -13    1    5    5    0    0 -0.22954977897E+02  0.99324648578E+01  0.10969741963E+03  0.11251270480E+03  0.00000000000E+00 0.  1.
         14    1    5    5    0    0  0.26532195854E+02  0.41400581727E+02  0.35420649046E+02  0.60601880854E+02  0.00000000000E+00 0. -1.
         11    1    3    3    0    0  0.21619667891E+01 -0.68575883445E+02  0.27995081755E+02  0.74101622743E+02  0.00000000000E+00 0. -1.
        -12    1    3    3    0    0 -0.16633658260E+02 -0.47479784239E+00  0.45729189659E+02  0.48662745576E+02  0.00000000000E+00 0.  1.
          5    1    4    4  501    0 -0.47567853216E+02 -0.24131418355E+02 -0.13927049430E+03  0.14919372974E+03  0.41800000000E+01 0.  1.
         -5    1    4    4    0  501  0.58462326729E+02  0.41849053057E+02 -0.13645998680E+03  0.15429837098E+03  0.41800000000E+01 0.  1.
</event>
<event>
11    1  0.6763327E-009  0.2022046E+03  0.7561462E-02  0.1052976E+00
         22   -1    0    0    0    0  0.00000000000E+00  0.00000000000E+00  0.18901425202E+04  0.18901425202E+04  0.00000000000E+00 0. -1.
         22   -1    0    0    0    0 -0.00000000000E+00 -0.00000000000E+00 -0.16903865191E+03  0.16903865191E+03  0.00000000000E+00 0. -1.
         24    2    1    2    0    0 -0.17686211522E+02 -0.54908937300E+01 -0.10757722435E+03  0.13463715349E+03  0.78812130472E+02 0.  0.
         25    2    1    2    0    0  0.11990605105E+03  0.12506445457E+03  0.22125953808E+03  0.30760632704E+03  0.12508912971E+03 0.  0.
        -24    2    1    2    0    0 -0.10221983953E+03 -0.11957356084E+03  0.16074215545E+04  0.16169376915E+04  0.77050063614E+02 0.  0.
        -11    1    3    3    0    0  0.90223305391E+01  0.50227720104E+00  0.10254495967E+02  0.13667824197E+02  0.00000000000E+00 0.  1.
         12    1    3    3    0    0 -0.26708542061E+02 -0.59931709310E+01 -0.11783172032E+03  0.12096932930E+03  0.00000000000E+00 0. -1.
         13    1    5    5    0    0 -0.97942426383E+02 -0.11215923654E+03  0.11706321700E+04  0.11800644435E+04  0.00000000000E+00 0. -1.
        -14    1    5    5    0    0 -0.42774131487E+01 -0.74143243045E+01  0.43678938451E+03  0.43687324808E+03  0.00000000000E+00 0.  1.
          5    1    4    4  501    0  0.64275052238E+02  0.90096944700E+02  0.21451817362E+03  0.24142133501E+03  0.41800000000E+01 0.  1.
         -5    1    4    4    0  501  0.55630998815E+02  0.34967509871E+02  0.67413644541E+01  0.66184992033E+02  0.41800000000E+01 0.  1.
</event>
<event>
11    1  0.6763327E-009  0.1375185E+03  0.7561462E-02  0.1110361E+00
         22   -1    0    0    0    0  0.00000000000E+00  0.00000000000E+00  0.61569571630E+03  0.61569571630E+03  0.00000000000E+00 0. -1.
         22   -1    0    0    0    0 -0.00000000000E+00 -0.00000000000E+00 -0.30691028960E+03  0.30691028960E+03  0.00000000000E+00 0. -1.
         24    2    1    2    0    0 -0.39974492925E+02  0.16654241208E+02 -0.24612379725E+03  0.26274201714E+03  0.81124103443E+02 0.  0.
         25    2    1    2    0    0 -0.17794478161E+02  0.34583495404E+01  0.36457034549E+02  0.13155726561E+03  0.12509834184E+03 0.  0.
        -24    2    1    2    0    0  0.57768971086E+02 -0.20112590749E+02  0.51845218940E+03  0.52830672316E+03  0.81077436507E+02 0.  0.
        -13    1    3    3    0    0 -0.13820608944E+02  0.20994243293E+02 -0.13344262473E+02  0.28457632086E+02  0.00000000000E+00 0.  1.
         14    1    3    3    0    0 -0.26153883982E+02 -0.43400020846E+01 -0.23277953478E+03  0.23428438505E+03  0.00000000000E+00 0. -1.
         11    1    5    5    0    0  0.76768992117E+02 -0.18026101276E+02  0.46263316946E+03  0.46930572973E+03  0.00000000000E+00 0. -1.
        -12    1    5    5    0    0 -0.19000021031E+02 -0.20864894728E+01  0.55819019944E+02  0.59000993424E+02  0.00000000000E+00 0.  1.
          5    1    4    4  501    0 -0.60340226986E+02 -0.26065099157E+02  0.43785890774E+02  0.79088614969E+02  0.41800000000E+01 0. -1.
         -5    1    4    4    0  501  0.42545748825E+02  0.29523448697E+02 -0.73288562258E+01  0.52468650636E+02  0.41800000000E+01 0. -1.
</event>
<event>
11    1  0.6763327E-009  0.1611543E+03  0.7561462E-02  0.1085997E+00
         22   -1    0    0    0    0  0.00000000000E+00  0.00000000000E+00  0.18478301570E+04  0.18478301570E+04  0.00000000000E+00 0.  1.
         22   -1    0    0    0    0 -0.00000000000E+00 -0.00000000000E+00 -0.35718587354E+03  0.35718587354E+03  0.00000000000E+00 0.  1.
        -24    2    1    2    0    0  0.99195735458E+02  0.18025761380E+02 -0.32830183177E+03  0.35274829677E+03  0.80526679585E+02 0.  0.
         25    2    1    2    0    0 -0.14060895732E+03 -0.61758069232E+01  0.57826184726E+03  0.60814780259E+03  0.12509183155E+03 0.  0.
         24    2    1    2    0    0  0.41413221862E+02 -0.11849954457E+02  0.12406842679E+04  0.12441199312E+04  0.81740284081E+02 0.  0.
        -11    1    5    5    0    0 -0.21530832638E+01 -0.16399491790E+02  0.95089244909E+03  0.95103629207E+03  0.00000000000E+00 0.  1.
         12    1    5    5    0    0  0.43566305126E+02  0.45495373336E+01  0.28979181883E+03  0.29308363908E+03  0.00000000000E+00 0. -1.
         13    1    3    3    0    0  0.95336130559E-01 -0.36464994891E+01  0.39373935272E+01  0.53674123458E+01  0.00000000000E+00 0. -1.
        -14    1    3    3    0    0  0.99100399327E+02  0.21672260869E+02 -0.33223922530E+03  0.34738088442E+03  0.00000000000E+00 0.  1.
          5    1    4    4  501    0 -0.11059227255E+03  0.50588930709E+01  0.20104822847E+03  0.22955196736E+03  0.41800000000E+01 0. -1.
         -5    1    4    4    0  501 -0.30016684765E+02 -0.11234699994E+02  0.37721361879E+03  0.37859583523E+03  0.41800000000E+01 0. -1.
</event>
<event>
11    1  0.6763327E-009  0.1528545E+03  0.7561462E-02  0.1093997E+00
         22   -1    0    0    0    0  0.00000000000E+00  0.00000000000E+00  0.23334381924E+03  0.23334381924E+03  0.00000000000E+00 0.  1.
         22   -1    0    0    0    0 -0.00000000000E+00 -0.00000000000E+00 -0.14115690925E+03  0.14115690925E+03  0.00000000000E+00 0. -1.
         24    2    1    2    0    0 -0.15925261441E+02 -0.15474299713E+02 -0.18040003447E+01  0.82903742290E+02  0.79854293340E+02 0.  0.
         25    2    1    2    0    0  0.93686671404E+02  0.37088317018E+02  0.39195162815E+02  0.16534030810E+03  0.12509364907E+03 0.  0.
        -24    2    1    2    0    0 -0.77761409963E+02 -0.21614017304E+02  0.54795747518E+02  0.12625667809E+03  0.80150933828E+02 0.  0.
        -11    1    3    3    0    0 -0.37048857814E+02 -0.35858006878E+02 -0.97923174318E+01  0.52481463425E+02  0.00000000000E+00 0.  1.
         12    1    3    3    0    0  0.21123596373E+02  0.20383707164E+02  0.79883170871E+01  0.30422278865E+02  0.00000000000E+00 0. -1.
         13    1    5    5    0    0 -0.26449622528E+02  0.27383758232E+02  0.25688135260E+01  0.38158243535E+02  0.00000000000E+00 0. -1.
        -14    1    5    5    0    0 -0.51311787436E+02 -0.48997775536E+02  0.52226933992E+02  0.88098434558E+02  0.00000000000E+00 0.  1.
          5    1    4    4  501    0  0.54521583935E+02  0.26495881513E+02  0.84693970125E+02  0.10423615413E+03  0.41800000000E+01 0.  1.
         -5    1    4    4    0  501  0.39165087469E+02  0.10592435505E+02 -0.45498807310E+02  0.61104153975E+02  0.41800000000E+01 0.  1.
</event>
<event>
11    1  0.6763327E-009  0.1605535E+03  0.7561462E-02  0.1086558E+00
         22   -1    0    0    0    0  0.00000000000E+00  0.00000000000E+00  0.23978279698E+03  0.23978279698E+03  0.00000000000E+00 0.  1.
         22   -1    0    0    0    0 -0.00000000000E+00 -0.00000000000E+00 -0.10765071493E+04  0.10765071493E+04  0.00000000000E+00 0. -1.
         24    2    1    2    0    0 -0.21843665073E+02 -0.10622210001E+03 -0.85936777220E+03  0.86983666283E+03  0.79640265376E+02 0.  0.
         25    2    1    2    0    0 -0.47943315486E+01  0.65674066090E+02 -0.17634463987E+03  0.22601218313E+03  0.12509199150E+03 0.  0.
        -24    2    1    2    0    0  0.26637996621E+02  0.40548033916E+02  0.19898805974E+03  0.22044110033E+03  0.81512605633E+02 0.  0.
        -13    1    3    3    0    0  0.14438972920E+02 -0.11010878843E+02 -0.34482134419E+03  0.34529912077E+03  0.00000000000E+00 0.  1.
         14    1    3    3    0    0 -0.36282637993E+02 -0.95211221164E+02 -0.51454642801E+03  0.52453754206E+03  0.00000000000E+00 0. -1.
         13    1    5    5    0    0  0.22950709340E+02  0.96269354603E+01  0.68743298317E+01  0.25819941058E+02  0.00000000000E+00 0. -1.
        -14    1    5    5    0    0  0.36872872809E+01  0.30921098456E+02  0.19211372991E+03  0.19462115927E+03  0.00000000000E+00 0.  1.
          5    1    4    4  501    0  0.19822152504E+02  0.19379457131E+02 -0.17084129133E+03  0.17312625540E+03  0.41800000000E+01 0. -1.
         -5    1    4    4    0  501 -0.24616484053E+02  0.46294608959E+02 -0.55033485454E+01  0.52885927721E+02  0.41800000000E+01 0. -1.
</event>
<event>
11    1  0.6763327E-009  0.1957299E+03  0.7561462E-02  0.1057585E+00
         22   -1    0    0    0    0  0.00000000000E+00  0.00000000000E+00  0.14424207752E+04  0.14424207752E+04  0.00000000000E+00 0.  1.
         22   -1    0    0    0    0 -0.00000000000E+00 -0.00000000000E+00 -0.34158512001E+03  0.34158512001E+03  0.00000000000E+00 0. -1.
        -24    2    1    2    0    0  0.68726671037E+02  0.13244816770E+03 -0.28909306378E+03  0.33511540550E+03  0.80384470152E+02 0.  0.
         25    2    1    2    0    0 -0.12169587711E+03 -0.13527821889E+03  0.42378658058E+03  0.47786277519E+03  0.12509069919E+03 0.  0.
         24    2    1    2    0    0  0.52969206073E+02  0.28300511857E+01  0.96614213838E+03  0.97102771452E+03  0.81550259430E+02 0.  0.
        -11    1    5    5    0    0 -0.96968094746E+01 -0.20124738674E+02  0.45487068750E+03  0.45541890119E+03  0.00000000000E+00 0.  1.
         12    1    5    5    0    0  0.62666015548E+02  0.22954789860E+02  0.51127145089E+03  0.51560881332E+03  0.00000000000E+00 0. -1.
         13    1    3    3    0    0  0.55986249505E+02  0.13886872085E+03 -0.28176278606E+03  0.31907561701E+03  0.00000000000E+00 0. -1.
        -14    1    3    3    0    0  0.12740421532E+02 -0.64205531444E+01 -0.73302777229E+01  0.16039788496E+02  0.00000000000E+00 0.  1.
          5    1    4    4  501    0 -0.29257374523E+01 -0.36798644054E+02  0.13537064679E+02  0.39540165199E+02  0.41800000000E+01 0.  1.
         -5    1    4    4    0  501 -0.11877013966E+03 -0.98479574834E+02  0.41024951590E+03  0.43832260999E+03  0.41800000000E+01 0.  1.
</event>
<event>
11    1  0.6763327E-009  0.1570531E+03  0.7561462E-02  0.1089882E+00
         22   -1    0    0    0    0  0.00000000000E+00  0.00000000000E+00  0.20660497083E+03  0.20660497083E+03  0.00000000000E+00 0. -1.
         22   -1    0    0    0    0 -0.00000000000E+00 -0.00000000000E+00 -0.47800414414E+03  0.47800414414E+03  0.00000000000E+00 0.  1.
         24    2    1    2    0    0  0.75473879225E+02 -0.73471225914E+02 -0.32805465933E+03  0.35607327663E+03  0.89855391278E+02 0.  0.
         25    2    1    2    0    0 -0.35097308764E+02  0.56463645170E+02 -0.82682743166E+02  0.16402304854E+03  0.12508860910E+03 0.  0.
        -24    2    1    2    0    0 -0.40376570461E+02  0.17007580744E+02  0.13933822919E+03  0.16451278980E+03  0.75695380642E+02 0.  0.
        -11    1    3    3    0    0  0.87655312151E+02 -0.44010558083E+02 -0.29155613999E+03  0.30761236278E+03  0.00000000000E+00 0.  1.
         12    1    3    3    0    0 -0.12181432926E+02 -0.29460667830E+02 -0.36498519337E+02  0.48460913848E+02  0.00000000000E+00 0. -1.
         13    1    5    5    0    0 -0.43292382553E+02  0.28283724588E+02  0.14319282183E+03  0.15224448656E+03  0.00000000000E+00 0. -1.
        -14    1    5    5    0    0  0.29158120924E+01 -0.11276143844E+02 -0.38545926392E+01  0.12268303247E+02  0.00000000000E+00 0.  1.
          5    1    4    4  501    0 -0.52855888278E+02  0.12221036896E+02 -0.99410657185E+02  0.11332718046E+03  0.41800000000E+01 0.  1.
         -5    1    4    4    0  501  0.17758579514E+02  0.44242608274E+02  0.16727914019E+02  0.50695868083E+02  0.41800000000E+01 0.  1.
</event>
<event>
11    1  0.6763327E-009  0.1632593E+03  0.7561462E-02  0.1084051E+00
         22   -1    0    0    0    0  0.00000000000E+00  0.00000000000E+00  0.27463448917E+04  0.27463448917E+04  0.00000000000E+00 0. -1.
         22   -1    0    0    0    0 -0.00000000000E+00 -0.00000000000E+00 -0.12997697482E+03  0.12997697482E+03  0.00000000000E+00 0.  1.
        -24    2    1    2    0    0  0.10628582631E+03 -0.31298003226E+02 -0.80373966968E+02  0.15930346384E+03  0.81494644881E+02 0.  0.
         25    2    1    2    0    0 -0.30582032886E+02  0.15744656258E+02  0.46888777345E+03  0.48650160059E+03  0.12507960805E+03 0.  0.
         24    2    1    2    0    0 -0.75703793428E+02  0.15553346968E+02  0.22278541104E+04  0.22305168020E+04  0.76800366068E+02 0.  0.
        -13    1    5    5    0    0 -0.81630732438E+01 -0.34073066227E+01  0.24529499067E+02  0.26075694194E+02  0.00000000000E+00 0.  1.
         14    1    5    5    0    0 -0.67540720185E+02  0.18960653591E+02  0.22033246113E+04  0.22044411078E+04  0.00000000000E+00 0. -1.
         13    1    3    3    0    0  0.10795533266E+03 -0.26705026329E+01 -0.55876435367E+02  0.12158808109E+03  0.00000000000E+00 0. -1.
        -14    1    3    3    0    0 -0.16695063428E+01 -0.28627500593E+02 -0.24497531601E+02  0.37715382752E+02  0.00000000000E+00 0.  1.
          5    1    4    4  501    0 -0.46406233797E+02 -0.41119569279E+02  0.15334484806E+03  0.16545837041E+03  0.41800000000E+01 0.  1.
         -5    1    4    4    0  501  0.15824200911E+02  0.56864225536E+02  0.31554292539E+03  0.32104323018E+03  0.41800000000E+01 0.  1.
</event>
<event>
11    1  0.6763327E-009  0.1286937E+03  0.7561462E-02  0.1120885E+00
         22   -1    0    0    0    0  0.00000000000E+00  0.00000000000E+00  0.54248260137E+03  0.54248260137E+03  0.00000000000E+00 0. -1.
         22   -1    0    0    0    0 -0.00000000000E+00 -0.00000000000E+00 -0.11167925531E+04  0.11167925531E+04  0.00000000000E+00 0. -1.
        -24    2    1    2    0    0  0.20154506800E+01  0.28784766622E+02 -0.82511579528E+03  0.82959689813E+03  0.81131454633E+02 0.  0.
         25    2    1    2    0    0  0.10302682982E+02 -0.39990364328E+02 -0.27095167917E+03  0.30127789382E+03  0.12509269500E+03 0.  0.
         24    2    1    2    0    0 -0.12318133662E+02  0.11205597707E+02  0.52175752275E+03  0.52840036250E+03  0.81845761704E+02 0.  0.
        -11    1    5    5    0    0 -0.44681398035E+02  0.20333909946E+02  0.27273439393E+03  0.27711720418E+03  0.00000000000E+00 0.  1.
         12    1    5    5    0    0  0.32363264374E+02 -0.91283122395E+01  0.24902312882E+03  0.25128315832E+03  0.00000000000E+00 0. -1.
         11    1    3    3    0    0  0.12167852257E+02  0.18142100313E+02 -0.80135092779E+03  0.80164861499E+03  0.00000000000E+00 0. -1.
        -12    1    3    3    0    0 -0.10152401577E+02  0.10642666308E+02 -0.23764867487E+02  0.27948283142E+02  0.00000000000E+00 0.  1.
          5    1    4    4  501    0 -0.10873357660E+02 -0.24264589175E+02  0.20305089448E+01  0.26992509353E+02  0.41800000000E+01 0.  1.
         -5    1    4    4    0  501  0.21176040642E+02 -0.15725775154E+02 -0.27298218812E+03  0.27428538447E+03  0.41800000000E+01 0.  1.
</event>
<event>
11    1  0.6763327E-009  0.1455301E+03  0.7561462E-02  0.1101536E+00
         22   -1    0    0    0    0  0.00000000000E+00  0.00000000000E+00  0.11390466086E+03  0.11390466086E+03  0.00000000000E+00 0. -1.
         22   -1    0    0    0    0 -0.00000000000E+00 -0.00000000000E+00 -0.12653462932E+04  0.12653462932E+04  0.00000000000E+00 0. -1.
        -24    2    1    2    0    0 -0.10037672651E+02 -0.77957357914E+02 -0.10649575784E+04  0.10721713384E+04  0.96117795201E+02 0.  0.
         25    2    1    2    0    0 -0.97497564247E+00  0.45061008658E+02 -0.14841191079E+03  0.19926004770E+03  0.12508807404E+03 0.  0.
         24    2    1    2    0    0  0.11012648293E+02  0.32896349257E+02  0.61927856838E+02  0.10781956797E+03  0.81157572463E+02 0.  0.
        -13    1    5    5    0    0  0.28406423645E+02  0.53847055442E+02  0.39840228688E+02  0.72757639503E+02  0.00000000000E+00 0.  1.
         14    1    5    5    0    0 -0.17393775351E+02 -0.20950706186E+02  0.22087628150E+02  0.35061928469E+02  0.00000000000E+00 0. -1.
         11    1    3    3    0    0 -0.52872704593E+01 -0.87861677709E+02 -0.10496293946E+04  0.10533135790E+04  0.00000000000E+00 0. -1.
        -12    1    3    3    0    0 -0.47504021915E+01  0.99043197949E+01 -0.15328183774E+02  0.18857759395E+02  0.00000000000E+00 0.  1.
          5    1    4    4  501    0  0.85398491539E+01  0.88064504583E+02 -0.10327330173E+03  0.13605562554E+03  0.41800000000E+01 0. -1.
         -5    1    4    4    0  501 -0.95148247964E+01 -0.43003495925E+02 -0.45138609059E+02  0.63204422159E+02  0.41800000000E+01 0. -1.
</event>
<event>
11    1  0.6763327E-009  0.1419102E+03  0.7561462E-02  0.1105444E+00
         22   -1    0    0    0    0  0.00000000000E+00  0.00000000000E+00  0.13659032393E+04  0.13659032393E+04  0.00000000000E+00 0. -1.
         22   -1    0    0    0    0 -0.00000000000E+00 -0.00000000000E+00 -0.61507746206E+03  0.61507746206E+03  0.00000000000E+00 0.  1.
        -24    2    1    2    0    0  0.41952963141E+02 -0.15398318762E+01 -0.56267368844E+03  0.56992362053E+03  0.80304616157E+02 0.  0.
         25    2    1    2    0    0 -0.10118527335E+03  0.28978477649E+02  0.96796373840E+02  0.18998721091E+03  0.12508953039E+03 0.  0.
         24    2    1    2    0    0  0.59232310208E+02 -0.27438645773E+02  0.12167030918E+04  0.12210698699E+04  0.79899109327E+02 0.  0.
        -11    1    5    5    0    0  0.26177404358E+02  0.26740485799E+02  0.33445321608E+03  0.33654013702E+03  0.00000000000E+00 0.  1.
         12    1    5    5    0    0  0.33054905850E+02 -0.54179131572E+02  0.88224987577E+03  0.88452973290E+03  0.00000000000E+00 0. -1.
         11    1    3    3    0    0  0.52896628686E+02 -0.15440231870E+02 -0.22008760196E+03  0.22688104069E+03  0.00000000000E+00 0. -1.
        -12    1    3    3    0    0 -0.10943665545E+02  0.13900399994E+02 -0.34258608647E+03  0.34304257983E+03  0.00000000000E+00 0.  1.
          5    1    4    4  501    0 -0.65378116313E+02  0.77880244320E+02  0.50539154160E+02  0.11362794133E+03  0.41800000000E+01 0. -1.
         -5    1    4    4    0  501 -0.35807157036E+02 -0.48901766671E+02  0.46257219680E+02  0.76359269582E+02  0.41800000000E+01 0. -1.
</event>
<event>
11    1  0.6763327E-009  0.2178249E+03  0.7561462E-02  0.1042589E+00
         22   -1    0    0    0    0  0.00000000000E+00  0.00000000000E+00  0.89859134241E+03  0.89859134241E+03  0.00000000000E+00 0.  1.
         22   -1    0    0    0    0 -0.00000000000E+00 -0.00000000000E+00 -0.21421485440E+04  0.21421485440E+04  0.00000000000E+00 0. -1.
         24    2    1    2    0    0 -0.10032978958E+03  0.11927768640E+02 -0.20124549272E+04  0.20166411715E+04  0.81599280755E+02 0.  0.
         25    2    1    2    0    0 -0.65403537817E+02  0.75386043492E+02 -0.59898686016E+02  0.17086601614E+03  0.12508662828E+03 0.  0.
        -24    2    1    2    0    0  0.16573332739E+03 -0.87313812132E+02  0.82879641154E+03  0.85323269877E+03  0.77532630972E+02 0.  0.
        -13    1    3    3    0    0 -0.42098758069E+02  0.39178156997E+02 -0.13063945796E+04  0.13076597536E+04  0.00000000000E+00 0.  1.
         14    1    3    3    0    0 -0.58231031506E+02 -0.27250388357E+02 -0.70606034751E+03  0.70898141797E+03  0.00000000000E+00 0. -1.
         13    1    5    5    0    0  0.79317058417E+02 -0.78655370844E+02  0.54973135080E+03  0.56096561496E+03  0.00000000000E+00 0. -1.
        -14    1    5    5    0    0  0.86416268976E+02 -0.86584412884E+01  0.27906506074E+03  0.29226708380E+03  0.00000000000E+00 0.  1.
          5    1    4    4  501    0  0.32919704699E+02  0.41116588581E+02 -0.49774276699E+01  0.53070971352E+02  0.41800000000E+01 0.  1.
         -5    1    4    4    0  501 -0.98323242516E+02  0.34269454911E+02 -0.54921258346E+02  0.11779504479E+03  0.41800000000E+01 0.  1.
</event>
<event>
11    1  0.6763327E-009  0.1262987E+03  0.7561462E-02  0.1123902E+00
         22   -1    0    0    0    0  0.00000000000E+00  0.00000000000E+00  0.11652709962E+03  0.11652709962E+03  0.00000000000E+00 0. -1.
         22   -1    0    0    0    0 -0.00000000000E+00 -0.00000000000E+00 -0.21460816104E+04  0.21460816104E+04  0.00000000000E+00 0.  1.
         24    2    1    2    0    0 -0.63075216676E+01 -0.20448065085E+02 -0.16936356406E+04  0.16962236606E+04  0.91187256511E+02 0.  0.
         25    2    1    2    0    0 -0.82032025161E+01 -0.85358840304E+01 -0.42500898654E+03  0.44319344610E+03  0.12509051993E+03 0.  0.
        -24    2    1    2    0    0  0.14510724184E+02  0.28983949115E+02  0.89090116338E+02  0.12319160326E+03  0.78666968053E+02 0.  0.
        -13    1    3    3    0    0  0.16931749342E+02  0.98748088409E+01 -0.13970593517E+04  0.13971968466E+04  0.00000000000E+00 0.  1.
         14    1    3    3    0    0 -0.23239271010E+02 -0.30322873926E+02 -0.29657628890E+03  0.29902681408E+03  0.00000000000E+00 0. -1.
         11    1    5    5    0    0  0.27739718747E+02 -0.71336530574E+01  0.78102624912E+02  0.83188947705E+02  0.00000000000E+00 0. -1.
        -12    1    5    5    0    0 -0.13228994563E+02  0.36117602173E+02  0.10987491426E+02  0.40002655558E+02  0.00000000000E+00 0.  1.
          5    1    4    4  501    0 -0.17587820699E+02 -0.65390284328E+02 -0.23444942528E+03  0.24406807685E+03  0.41800000000E+01 0.  1.
         -5    1    4    4    0  501  0.93846181825E+01  0.56854400297E+02 -0.19055956126E+03  0.19912536925E+03  0.41800000000E+01 0.  1.
</event>
<event>
11    1  0.6763327E-009  0.3720700E+03  0.7561462E-02  0.9735963E-01
         22   -1    0    0    0    0  0.00000000000E+00  0.00000000000E+00  0.24450167862E+04  0.24450167862E+04  0.00000000000E+00 0.  1.
         22   -1    0    0    0    0 -0.00000000000E+00 -0.00000000000E+00 -0.24555555168E+03  0.24555555168E+03  0.00000000000E+00 0.  1.
         24    2    1    2    0    0 -0.38701808441E+02 -0.17030980119E+03  0.12858711752E+02  0.19250780579E+03  0.79941544038E+02 0.  0.
         25    2    1    2    0    0  0.36830579391E+03  0.45535322971E+02  0.13409211187E+03  0.41393497584E+03  0.12505537290E+03 0.  0.
        -24    2    1    2    0    0 -0.32960398547E+03  0.12477447822E+03  0.20525104109E+04  0.20841295562E+04  0.81176121380E+02 0.  0.
        -13    1    3    3    0    0 -0.60573632393E+02 -0.13864115586E+03 -0.18447322586E+01  0.15130742902E+03  0.00000000000E+00 0.  1.
         14    1    3    3    0    0  0.21871823952E+02 -0.31668645332E+02  0.14703444011E+02  0.41200376769E+02  0.00000000000E+00 0. -1.
         11    1    5    5    0    0 -0.25986019318E+02 -0.53033133273E+01  0.83642889263E+02  0.87746972920E+02  0.00000000000E+00 0. -1.
        -12    1    5    5    0    0 -0.30361796615E+03  0.13007779155E+03  0.19688675216E+04  0.19963825833E+04  0.00000000000E+00 0.  1.
          5    1    4    4  501    0  0.22754774594E+02 -0.45552954702E+01  0.49226433185E+02  0.54582456960E+02  0.41800000000E+01 0. -1.
         -5    1    4    4    0  501  0.34555101932E+03  0.50090618441E+02  0.84865678680E+02  0.35935251888E+03  0.41800000000E+01 0. -1.
</event>
<event>
11    1  0.6763327E-009  0.2004541E+03  0.7561462E-02  0.1054203E+00
         22   -1    0    0    0    0  0.00000000000E+00  0.00000000000E+00  0.13910294936E+03  0.13910294936E+03  0.00000000000E+00 0. -1.
         22   -1    0    0    0    0 -0.00000000000E+00 -0.00000000000E+00 -0.19074890437E+04  0.19074890437E+04  0.00000000000E+00 0. -1.
        -24    2    1    2    0    0 -0.17026594164E+03  0.25453616124E+02 -0.16444103109E+04  0.16553654729E+04  0.80692011465E+02 0.  0.
         25    2    1    2    0    0  0.79836447843E+02 -0.31158086050E+02 -0.19784961016E+03  0.24927220452E+03  0.12508988358E+03 0.  0.
         24    2    1    2    0    0  0.90429493800E+02  0.57044699255E+01  0.73873826714E+02  0.14195431568E+03  0.80521122326E+02 0.  0.
        -11    1    5    5    0    0  0.25629941326E+01  0.20353631757E+02 -0.69633454349E+01  0.21663966494E+02  0.00000000000E+00 0.  1.
         12    1    5    5    0    0  0.87866499668E+02 -0.14649161831E+02  0.80837172149E+02  0.12029034919E+03  0.00000000000E+00 0. -1.
         13    1    3    3    0    0 -0.21754671574E+02 -0.98204214020E+01 -0.53153370126E+03  0.53206933945E+03  0.00000000000E+00 0. -1.
        -14    1    3    3    0    0 -0.14851127007E+03  0.35274037526E+02 -0.11128766097E+04  0.11232961334E+04  0.00000000000E+00 0.  1.
          5    1    4    4  501    0  0.83167257061E+02 -0.58242940729E+02 -0.83167236773E+02  0.13131372535E+03  0.41800000000E+01 0.  1.
         -5    1    4    4    0  501 -0.33308092182E+01  0.27084854679E+02 -0.11468237338E+03  0.11795847917E+03  0.41800000000E+01 0.  1.
</event>
<event>
11    1  0.6763327E-009  0.1546567E+03  0.7561462E-02  0.1092213E+00
         22   -1    0    0    0    0  0.00000000000E+00  0.00000000000E+00  0.44002831092E+03  0.44002831092E+03  0.00000000000E+00 0. -1.
         22   -1    0    0    0    0 -0.00000000000E+00 -0.00000000000E+00 -0.21262843219E+03  0.21262843219E+03  0.00000000000E+00 0.  1.
        -24    2    1    2    0    0  0.10228954994E+03 -0.23834600701E+01 -0.12353787419E+03  0.17801018503E+03  0.77182813553E+02 0.  0.
         25    2    1    2    0    0 -0.47821669164E+02 -0.50596361705E+02  0.46358939731E+02  0.15048139661E+03  0.12509434669E+03 0.  0.
         24    2    1    2    0    0 -0.54467880772E+02  0.52979821775E+02  0.30457881319E+03  0.32416516146E+03  0.80877604480E+02 0.  0.
        -11    1    5    5    0    0 -0.11133320957E+02 -0.17800488788E+01 -0.41167283440E+00  0.11282237547E+02  0.00000000000E+00 0.  1.
         12    1    5    5    0    0 -0.43334559815E+02  0.54759870654E+02  0.30499048603E+03  0.31288292391E+03  0.00000000000E+00 0. -1.
         11    1    3    3    0    0  0.90686388904E+02 -0.88350010454E+01 -0.51304436552E+02  0.10456683789E+03  0.00000000000E+00 0. -1.
        -12    1    3    3    0    0  0.11603161032E+02  0.64515409753E+01 -0.72233437638E+02  0.73443347146E+02  0.00000000000E+00 0.  1.
          5    1    4    4  501    0 -0.46142549968E+02  0.32936485506E+02  0.47311855995E+01  0.57042120509E+02  0.41800000000E+01 0.  1.
         -5    1    4    4    0  501 -0.16791191955E+01 -0.83532847211E+02  0.41627754132E+02  0.93439276102E+02  0.41800000000E+01 0.  1.
</event>
<event>
11    1  0.6763327E-009  0.1822919E+03  0.7561462E-02  0.1067804E+00
         22   -1    0    0    0    0  0.00000000000E+00  0.00000000000E+00  0.35022643142E+03  0.35022643142E+03  0.00000000000E+00 0. -1.
         22   -1    0    0    0    0 -0.00000000000E+00 -0.00000000000E+00 -0.17830620463E+04  0.17830620463E+04  0.00000000000E+00 0.  1.
        -24    2    1    2    0    0 -0.12214002240E+03 -0.52548136928E+02 -0.17106072583E+04  0.17175878832E+04  0.79066127497E+02 0.  0.
         25    2    1    2    0    0  0.11394494274E+03  0.38358927566E+02  0.61033679931E+02  0.18392225615E+03  0.12508968352E+03 0.  0.
         24    2    1    2    0    0  0.81950796591E+01  0.14189209362E+02  0.21673796355E+03  0.23177833833E+03  0.80482049447E+02 0.  0.
        -13    1    5    5    0    0  0.38019787590E+02  0.21926443093E+02  0.76505039753E+02  0.88200307612E+02  0.00000000000E+00 0.  1.
         14    1    5    5    0    0 -0.29824707931E+02 -0.77372337314E+01  0.14023292380E+03  0.14357803072E+03  0.00000000000E+00 0. -1.
         11    1    3    3    0    0 -0.50913026677E+01 -0.27987535110E+02 -0.17172512455E+03  0.17406533798E+03  0.00000000000E+00 0. -1.
        -12    1    3    3    0    0 -0.11704871974E+03 -0.24560601818E+02 -0.15388821338E+04  0.15435225452E+04  0.00000000000E+00 0.  1.
          5    1    4    4  501    0  0.30665987239E+02  0.42157472405E+02  0.82551114710E+02  0.97723150751E+02  0.41800000000E+01 0.  1.
         -5    1    4    4    0  501  0.83278955505E+02 -0.37985448388E+01 -0.21517434779E+02  0.86199105403E+02  0.41800000000E+01 0.  1.
</event>
<event>
11    1  0.6763327E-009  0.1350855E+03  0.7561462E-02  0.1113174E+00
         22   -1    0    0    0    0  0.00000000000E+00  0.00000000000E+00  0.52093415686E+03  0.52093415686E+03  0.00000000000E+00 0.  1.
         22   -1    0    0    0    0 -0.00000000000E+00 -0.00000000000E+00 -0.16294939590E+04  0.16294939590E+04  0.00000000000E+00 0. -1.
         24    2    1    2    0    0 -0.21511782195E+02 -0.46379596719E+02 -0.15985445059E+04  0.16014054408E+04  0.80876601786E+02 0.  0.
         25    2    1    2    0    0  0.69256812067E+00  0.44892378993E+02  0.15613611747E+03  0.20502840373E+03  0.12506939600E+03 0.  0.
        -24    2    1    2    0    0  0.20819214075E+02  0.14872177259E+01  0.33384858624E+03  0.34399427137E+03  0.80259134744E+02 0.  0.
        -11    1    3    3    0    0  0.80577043574E+01 -0.81225117895E+01 -0.29874826148E+02  0.31990733575E+02  0.00000000000E+00 0.  1.
         12    1    3    3    0    0 -0.29569486553E+02 -0.38257084930E+02 -0.15686696797E+04  0.15694147072E+04  0.00000000000E+00 0. -1.
         13    1    5    5    0    0  0.32781269438E+02  0.33147040021E+02  0.15074347530E+03  0.15778762066E+03  0.00000000000E+00 0. -1.
        -14    1    5    5    0    0 -0.11962055363E+02 -0.31659822295E+02  0.18310511094E+03  0.18620665071E+03  0.00000000000E+00 0.  1.
          5    1    4    4  501    0  0.39991633871E+02 -0.15125734997E+02  0.11376346674E+03  0.12160475897E+03  0.41800000000E+01 0.  1.
         -5    1    4    4    0  501 -0.39299065751E+02  0.60018113990E+02  0.42372650728E+02  0.83423644763E+02  0.41800000000E+01 0.  1.
</event>
<event>
11    1  0.6763327E-009  0.1492449E+03  0.7561462E-02  0.1097653E+00
         22   -1    0    0    0    0  0.00000000000E+00  0.00000000000E+00  0.78673833112E+03  0.78673833112E+03  0.00000000000E+00 0. -1.
         22   -1    0    0    0    0 -0.00000000000E+00 -0.00000000000E+00 -0.42574552678E+03  0.42574552678E+03  0.00000000000E+00 0. -1.
        -24    2    1    2    0    0  0.66090336360E+02  0.43047171202E+02 -0.35457085890E+03  0.37220171293E+03  0.81195009825E+02 0.  0.
         25    2    1    2    0    0 -0.76477963085E+02 -0.10217818184E+03  0.78434510826E+02  0.19516595318E+03  0.12509403308E+03 0.  0.
         24    2    1    2    0    0  0.10387626725E+02  0.59131010637E+02  0.63712915241E+03  0.64511619178E+03  0.81467569291E+02 0.  0.
        -11    1    5    5    0    0 -0.14426345310E+02 -0.13133614773E+02  0.63742555794E+02  0.66661268328E+02  0.00000000000E+00 0.  1.
         12    1    5    5    0    0  0.24813972035E+02  0.72264625410E+02  0.57338659661E+03  0.57845492346E+03  0.00000000000E+00 0. -1.
         13    1    3    3    0    0  0.17432148408E+02  0.52610681122E+02 -0.25514841992E+03  0.26109860159E+03  0.00000000000E+00 0. -1.
        -14    1    3    3    0    0  0.48658187952E+02 -0.95635099197E+01 -0.99422438986E+02  0.11110311135E+03  0.00000000000E+00 0.  1.
          5    1    4    4  501    0  0.12159129681E+02 -0.14548251836E+02  0.67200718820E+02  0.69949303614E+02  0.41800000000E+01 0. -1.
         -5    1    4    4    0  501 -0.88637092766E+02 -0.87629930003E+02  0.11233792006E+02  0.12521664957E+03  0.41800000000E+01 0. -1.
</event>
<event>
11    1  0.6763327E-009  0.1413299E+03  0.7561462E-02  0.1106082E+00
         22   -1    0    0    0    0  0.00000000000E+00  0.00000000000E+00  0.47184748909E+03  0.47184748909E+03  0.00000000000E+00 0.  1.
         22   -1    0    0    0    0 -0.00000000000E+00 -0.00000000000E+00 -0.41237423794E+04  0.41237423794E+04  0.00000000000E+00 0.  1.
        -24    2    1    2    0    0 -0.64202455431E+02 -0.18429544357E+00 -0.35317641401E+04  0.35332981302E+04  0.81949659203E+02 0.  0.
         25    2    1    2    0    0  0.28972553977E+02  0.56124088612E+02 -0.57695402649E+03  0.59372831324E+03  0.12509212222E+03 0.  0.
         24    2    1    2    0    0  0.35229901454E+02 -0.55939793168E+02  0.45682327629E+03  0.46856342501E+03  0.80583938148E+02 0.  0.
        -11    1    5    5    0    0  0.46317666434E+02 -0.44832219823E+02  0.44295116948E+03  0.44761701565E+03  0.00000000000E+00 0.  1.
         12    1    5    5    0    0 -0.11087764980E+02 -0.11107573346E+02  0.13872106807E+02  0.20946409361E+02  0.00000000000E+00 0. -1.
         11    1    3    3    0    0 -0.24895875145E+02  0.28171006828E+02 -0.62485096530E+03  0.62598094145E+03  0.00000000000E+00 0. -1.
        -12    1    3    3    0    0 -0.39306580286E+02 -0.28355302272E+02 -0.29069131748E+04  0.29073171888E+04  0.00000000000E+00 0.  1.
          5    1    4    4  501    0  0.35515904411E+02  0.75738018689E+02 -0.20882683005E+03  0.22499720951E+03  0.41800000000E+01 0.  1.
         -5    1    4    4    0  501 -0.65433504339E+01 -0.19613930077E+02 -0.36812719645E+03  0.36873110372E+03  0.41800000000E+01 0.  1.
</event>
<event>
11    1  0.6763327E-009  0.1272738E+03  0.7561462E-02  0.1122665E+00
         22   -1    0    0    0    0  0.00000000000E+00  0.00000000000E+00  0.24595927636E+04  0.24595927636E+04  0.00000000000E+00 0.  1.
         22   -1    0    0    0    0 -0.00000000000E+00 -0.00000000000E+00 -0.45296991694E+02  0.45296991694E+02  0.00000000000E+00 0. -1.
         24    2    1    2    0    0 -0.23264154627E+02 -0.46849140394E+01  0.67535267687E+02  0.11664641674E+03  0.92098886241E+02 0.  0.
         25    2    1    2    0    0  0.23791460267E+02 -0.15485442817E+02  0.18657401785E+03  0.22641367591E+03  0.12508979168E+03 0.  0.
        -24    2    1    2    0    0 -0.52730564008E+00  0.20170356857E+02  0.21601864864E+04  0.21618296627E+04  0.81821226170E+02 0.  0.
        -11    1    3    3    0    0  0.89367135690E+01 -0.10413876281E+02  0.80354150043E+02  0.81517501788E+02  0.00000000000E+00 0.  1.
         12    1    3    3    0    0 -0.32200868196E+02  0.57289622416E+01 -0.12818882356E+02  0.35128914953E+02  0.00000000000E+00 0. -1.
         13    1    5    5    0    0  0.38132015629E+02  0.18931334950E+01  0.13241371048E+04  0.13246873997E+04  0.00000000000E+00 0. -1.
        -14    1    5    5    0    0 -0.38659321269E+02  0.18277223362E+02  0.83604938157E+03  0.83714226296E+03  0.00000000000E+00 0.  1.
          5    1    4    4  501    0  0.59097481099E+02  0.13343466352E+02  0.16498233035E+03  0.17580444276E+03  0.41800000000E+01 0. -1.
         -5    1    4    4    0  501 -0.35306020832E+02 -0.28828909170E+02  0.21591687501E+02  0.50609233150E+02  0.41800000000E+01 0. -1.
</event>
<event>
11    1  0.6763327E-009  0.1871506E+03  0.7561462E-02  0.1064001E+00
         22   -1    0    0    0    0  0.00000000000E+00  0.00000000000E+00  0.52846017184E+03  0.52846017184E+03  0.00000000000E+00 0. -1.
         22   -1    0    0    0    0 -0.00000000000E+00 -0.00000000000E+00 -0.91968849378E+03  0.91968849378E+03  0.00000000000E+00 0. -1.
         24    2    1    2    0    0  0.69649203598E+02 -0.25817695879E+02 -0.78471912175E+03  0.79237632814E+03  0.80985062647E+02 0.  0.
         25    2    1    2    0    0 -0.18408350952E+03  0.89370945996E+02  0.73108866472E+01  0.23994891119E+03  0.12509247161E+03 0.  0.
        -24    2    1    2    0    0  0.11443430592E+03 -0.63553250117E+02  0.38617991317E+03  0.41582342629E+03  0.81486014440E+02 0.  0.
        -13    1    3    3    0    0  0.57307586797E+02 -0.37837405117E+02 -0.31758755721E+03  0.32492719988E+03  0.00000000000E+00 0.  1.
         14    1    3    3    0    0  0.12341616800E+02  0.12019709238E+02 -0.46713156454E+03  0.46744912825E+03  0.00000000000E+00 0. -1.
         11    1    5    5    0    0 -0.11322697328E+02 -0.12069809864E+02  0.65132437839E+02  0.67202070235E+02  0.00000000000E+00 0. -1.
        -12    1    5    5    0    0  0.12575700325E+03 -0.51483440254E+02  0.32104747533E+03  0.34862135606E+03  0.00000000000E+00 0.  1.
          5    1    4    4  501    0 -0.18628426117E+03  0.48341224925E+02 -0.14861853616E+02  0.19307264716E+03  0.41800000000E+01 0. -1.
         -5    1    4    4    0  501  0.22007516515E+01  0.41029721071E+02  0.22172740263E+02  0.46876264034E+02  0.41800000000E+01 0. -1.
</event>
<event>
11    1  0.6763327E-009  0.1394029E+03  0.7561462E-02  0.1108227E+00
         22   -1    0    0    0    0  0.00000000000E+00  0.00000000000E+00  0.19152949152E+03  0.19152949152E+03  0.00000000000E+00 0. -1.
         22   -1    0    0    0    0 -0.00000000000E+00 -0.00000000000E+00 -0.60557769194E+03  0.60557769194E+03  0.00000000000E+00 0. -1.
         24    2    1    2    0    0  0.21178891783E+02  0.24865173186E+02 -0.23541390288E+03  0.25089557452E+03  0.80386947628E+02 0.  0.
         25    2    1    2    0    0 -0.68343007474E+02  0.14542927934E+02 -0.33235315418E+03  0.36192969228E+03  0.12510883118E+03 0.  0.
        -24    2    1    2    0    0  0.47164115691E+02 -0.39408101120E+02  0.15371885664E+03  0.18428191666E+03  0.80949896090E+02 0.  0.
        -13    1    3    3    0    0 -0.11217757090E+02  0.18451515283E+02 -0.11319814733E+02  0.24381031479E+02  0.00000000000E+00 0.  1.
         14    1    3    3    0    0  0.32396648873E+02  0.64136579028E+01 -0.22409408815E+03  0.22651454304E+03  0.00000000000E+00 0. -1.
         13    1    5    5    0    0  0.33326814749E+02 -0.37014735250E+01  0.13943561491E+03  0.14341083708E+03  0.00000000000E+00 0. -1.
        -14    1    5    5    0    0  0.13837300941E+02 -0.35706627595E+02  0.14283241738E+02  0.40871079581E+02  0.00000000000E+00 0.  1.
          5    1    4    4  501    0 -0.64219145872E+02  0.65358017407E+02 -0.22639020909E+03  0.24426577392E+03  0.41800000000E+01 0. -1.
         -5    1    4    4    0  501 -0.41238616014E+01 -0.50815089473E+02 -0.10596294509E+03  0.11766391836E+03  0.41800000000E+01 0. -1.
</event>
<event>
11    1  0.6763327E-009  0.1673776E+03  0.7561462E-02  0.1080337E+00
         22   -1    0    0    0    0  0.00000000000E+00  0.00000000000E+00  0.47332307175E+03  0.47332307175E+03  0.00000000000E+00 0.  1.
         22   -1    0    0    0    0 -0.00000000000E+00 -0.00000000000E+00 -0.17074721465E+04  0.17074721465E+04  0.00000000000E+00 0. -1.
         24    2    1    2    0    0 -0.52131775618E+02 -0.92046333516E+02 -0.15337930159E+04  0.15395272887E+04  0.80206032630E+02 0.  0.
         25    2    1    2    0    0  0.10098673402E+02  0.19021348387E+03 -0.77944538767E+02  0.24084244969E+03  0.12508629740E+03 0.  0.
        -24    2    1    2    0    0  0.42033102216E+02 -0.98167150358E+02  0.37758847985E+03  0.40042547986E+03  0.79774267215E+02 0.  0.
        -13    1    3    3    0    0 -0.15165712007E+02 -0.62641943099E+02 -0.43799128521E+03  0.44270800509E+03  0.00000000000E+00 0.  1.
         14    1    3    3    0    0 -0.36966063612E+02 -0.29404390416E+02 -0.10958017307E+04  0.10968192836E+04  0.00000000000E+00 0. -1.
         11    1    5    5    0    0 -0.22999905187E+02 -0.26925051542E+02  0.12918113374E+03  0.13394670340E+03  0.00000000000E+00 0. -1.
        -12    1    5    5    0    0  0.65033007403E+02 -0.71242098816E+02  0.24840734612E+03  0.26647877645E+03  0.00000000000E+00 0.  1.
          5    1    4    4  501    0  0.60072138236E+02  0.60786217719E+02 -0.95225960810E+01  0.86091685388E+02  0.41800000000E+01 0.  1.
         -5    1    4    4    0  501 -0.49973464834E+02  0.12942726615E+03 -0.68421942686E+02  0.15475076430E+03  0.41800000000E+01 0.  1.
</event>
<event>
11    1  0.6763327E-009  0.1361172E+03  0.7561462E-02  0.1111973E+00
         22   -1    0    0    0    0  0.00000000000E+00  0.00000000000E+00  0.14606432986E+03  0.14606432986E+03  0.00000000000E+00 0.  1.
         22   -1    0    0    0    0 -0.00000000000E+00 -0.00000000000E+00 -0.68455435782E+03  0.68455435782E+03  0.00000000000E+00 0.  1.
         24    2    1    2    0    0 -0.10162652563E+02 -0.49952565559E+02 -0.36861837619E+03  0.38060393340E+03  0.79883092991E+02 0.  0.
         25    2    1    2    0    0 -0.18304582841E+01  0.62233709808E+02 -0.27715882886E+03  0.31038916530E+03  0.12509209529E+03 0.  0.
        -24    2    1    2    0    0  0.11993110847E+02 -0.12281144250E+02  0.10728717709E+03  0.13962558898E+03  0.87693246695E+02 0.  0.
        -11    1    3    3    0    0  0.23934385630E+02 -0.15815622574E+02 -0.26212760273E+03  0.26369275463E+03  0.00000000000E+00 0.  1.
         12    1    3    3    0    0 -0.34097038193E+02 -0.34136942985E+02 -0.10649077346E+03  0.11691117877E+03  0.00000000000E+00 0. -1.
         13    1    5    5    0    0 -0.90848478268E+01  0.21469615199E+02 -0.19231453886E+01  0.23391821755E+02  0.00000000000E+00 0. -1.
        -14    1    5    5    0    0  0.21077958674E+02 -0.33750759449E+02  0.10921032248E+03  0.11623376722E+03  0.00000000000E+00 0.  1.
          5    1    4    4  501    0 -0.20159104628E+02  0.26597128400E+02 -0.26663268283E+03  0.26874571009E+03  0.41800000000E+01 0.  1.
         -5    1    4    4    0  501  0.18328646344E+02  0.35636581408E+02 -0.10526146029E+02  0.41643455206E+02  0.41800000000E+01 0.  1.
</event>
<event>
11    1  0.6763327E-009  0.1592859E+03  0.7561462E-02  0.1087751E+00
         22   -1    0    0    0    0  0.00000000000E+00  0.00000000000E+00  0.14689463347E+03  0.14689463347E+03  0.00000000000E+00 0.  1.
         22   -1    0    0    0    0 -0.00000000000E+00 -0.00000000000E+00 -0.55797760048E+03  0.55797760048E+03  0.00000000000E+00 0.  1.
        -24    2    1    2    0    0 -0.87238154302E+02 -0.52327676990E+02 -0.41117350654E+03  0.43113418918E+03  0.80401214229E+02 0.  0.
         25    2    1    2    0    0  0.33335601180E+02  0.92473574649E+02 -0.38931602729E+02  0.16380751745E+03  0.12511837902E+03 0.  0.
         24    2    1    2    0    0  0.53902553122E+02 -0.40145897659E+02  0.39022142258E+02  0.10993052732E+03  0.77748407821E+02 0.  0.
        -13    1    5    5    0    0  0.32969180682E+02 -0.30806945725E+02  0.62521120879E+02  0.77103341923E+02  0.00000000000E+00 0.  1.
         14    1    5    5    0    0  0.20933372439E+02 -0.93389519338E+01 -0.23498978621E+02  0.32827185397E+02  0.00000000000E+00 0. -1.
         11    1    3    3    0    0 -0.40458081299E+01  0.19346428814E+02 -0.57122219787E+02  0.60445023490E+02  0.00000000000E+00 0. -1.
        -12    1    3    3    0    0 -0.83192346172E+02 -0.71674105804E+02 -0.35405128676E+03  0.37068916569E+03  0.00000000000E+00 0.  1.
          5    1    4    4  501    0  0.20733186557E+02  0.66181629189E+02 -0.84594263742E+02  0.10946933326E+03  0.41800000000E+01 0.  1.
         -5    1    4    4    0  501  0.12602414624E+02  0.26291945460E+02  0.45662661013E+02  0.54338184191E+02  0.41800000000E+01 0.  1.
</event>
<event>
11    1  0.6763327E-009  0.1881716E+03  0.7561462E-02  0.1063218E+00
         22   -1    0    0    0    0  0.00000000000E+00  0.00000000000E+00  0.36742563036E+03  0.36742563036E+03  0.00000000000E+00 0.  1.
         22   -1    0    0    0    0 -0.00000000000E+00 -0.00000000000E+00 -0.27276717907E+03  0.27276717907E+03  0.00000000000E+00 0.  1.
         24    2    1    2    0    0 -0.97324540507E+00 -0.14011677394E+03 -0.11955930333E+03  0.20325339993E+03  0.85929389748E+02 0.  0.
         25    2    1    2    0    0 -0.13327501170E+03  0.21896856020E+02  0.11155538056E+03  0.21525176705E+03  0.12508804594E+03 0.  0.
        -24    2    1    2    0    0  0.13424825711E+03  0.11821991792E+03  0.10266237407E+03  0.22168764245E+03  0.81285326081E+02 0.  0.
        -11    1    3    3    0    0 -0.37797148760E+01 -0.78981947447E+02 -0.12665544550E+02  0.80080274011E+02  0.00000000000E+00 0.  1.
         12    1    3    3    0    0  0.28064694709E+01 -0.61134826495E+02 -0.10689375878E+03  0.12317312592E+03  0.00000000000E+00 0. -1.
         13    1    5    5    0    0  0.95422662497E+02  0.49679680625E+02  0.23716853265E+02  0.11016371596E+03  0.00000000000E+00 0. -1.
        -14    1    5    5    0    0  0.38825594613E+02  0.68540237296E+02  0.78945520801E+02  0.11152392649E+03  0.00000000000E+00 0.  1.
          5    1    4    4  501    0 -0.42424345311E+02 -0.31355334823E+02 -0.10543402779E+02  0.53959409180E+02  0.41800000000E+01 0. -1.
         -5    1    4    4    0  501 -0.90850666394E+02  0.53252190843E+02  0.12209878334E+03  0.16129235787E+03  0.41800000000E+01 0. -1.
</event>
<event>
11    1  0.6763327E-009  0.1443972E+03  0.7561462E-02  0.1102745E+00
         22   -1    0    0    0    0  0.00000000000E+00  0.00000000000E+00  0.29748787309E+03  0.29748787309E+03  0.00000000000E+00 0.  1.
         22   -1    0    0    0    0 -0.00000000000E+00 -0.00000000000E+00 -0.10621786524E+04  0.10621786524E+04  0.00000000000E+00 0. -1.
         24    2    1    2    0    0  0.20218995379E+02  0.63450564390E+01 -0.74688014757E+03  0.75134882411E+03  0.79031848885E+02 0.  0.
         25    2    1    2    0    0  0.30915740735E+02  0.45422601268E+02 -0.28694495707E+03  0.31781249408E+03  0.12509347415E+03 0.  0.
        -24    2    1    2    0    0 -0.51134736113E+02 -0.51767657707E+02  0.26913432533E+03  0.29050520730E+03  0.81641526045E+02 0.  0.
        -13    1    3    3    0    0  0.46466423328E+02  0.18129800345E+02 -0.56614299230E+03  0.56833590937E+03  0.00000000000E+00 0.  1.
         14    1    3    3    0    0 -0.26247427950E+02 -0.11784743906E+02 -0.18073715528E+03  0.18301291474E+03  0.00000000000E+00 0. -1.
         11    1    5    5    0    0 -0.69103770684E+02 -0.36950375388E+02  0.15127409344E+03  0.17036582025E+03  0.00000000000E+00 0. -1.
        -12    1    5    5    0    0  0.17969034570E+02 -0.14817282318E+02  0.11786023189E+03  0.12013938705E+03  0.00000000000E+00 0.  1.
          5    1    4    4  501    0 -0.81086774287E+00 -0.27183424481E+02 -0.19252121156E+03  0.19447746753E+03  0.41800000000E+01 0.  1.
         -5    1    4    4    0  501  0.31726608478E+02  0.72606025749E+02 -0.94423745504E+02  0.12333502656E+03  0.41800000000E+01 0.  1.
</event>
<event>
11    1  0.6763327E-009  0.1420833E+03  0.7561462E-02  0.1105254E+00
         22   -1    0    0    0    0  0.00000000000E+00  0.00000000000E+00  0.13387112406E+03  0.13387112406E+03  0.00000000000E+00 0.  1.
         22   -1    0    0    0    0 -0.00000000000E+00 -0.00000000000E+00 -0.81686299826E+03  0.81686299826E+03  0.00000000000E+00 0.  1.
        -24    2    1    2    0    0 -0.92983760764E+01 -0.63482858585E+02 -0.58539629269E+03  0.59456597518E+03  0.81873965398E+02 0.  0.
         25    2    1    2    0    0 -0.26966189825E+02  0.91979998866E+02 -0.17526797968E+03  0.23569624705E+03  0.12508541316E+03 0.  0.
         24    2    1    2    0    0  0.36264565901E+02 -0.28497140280E+02  0.77672398173E+02  0.12047190009E+03  0.79707412007E+02 0.  0.
        -13    1    5    5    0    0  0.28558118763E+02  0.12778030377E+02  0.71482795959E+02  0.78029701561E+02  0.00000000000E+00 0.  1.
         14    1    5    5    0    0  0.77064471388E+01 -0.41275170657E+02  0.61896022139E+01  0.42442198528E+02  0.00000000000E+00 0. -1.
         11    1    3    3    0    0 -0.13710446670E+02  0.15978515359E+02 -0.71211643966E+02  0.74258922274E+02  0.00000000000E+00 0. -1.
        -12    1    3    3    0    0  0.44120705937E+01 -0.79461373944E+02 -0.51418464873E+03  0.52030705290E+03  0.00000000000E+00 0.  1.
          5    1    4    4  501    0 -0.71400657189E+02  0.59789475422E+02 -0.68843138889E+02  0.11588651945E+03  0.41800000000E+01 0. -1.
         -5    1    4    4    0  501  0.44434467364E+02  0.32190523444E+02 -0.10642484079E+03  0.11980972760E+03  0.41800000000E+01 0. -1.
</event>
<event>
11    1  0.6763327E-009  0.1347237E+03  0.7561462E-02  0.1113598E+00
         22   -1    0    0    0    0  0.00000000000E+00  0.00000000000E+00  0.51856460211E+02  0.51856460211E+02  0.00000000000E+00 0.  1.
         22   -1    0    0    0    0 -0.00000000000E+00 -0.00000000000E+00 -0.14475933763E+04  0.14475933763E+04  0.00000000000E+00 0. -1.
         24    2    1    2    0    0  0.18874074051E+02 -0.52964581039E+02 -0.50669527994E+03  0.51517168105E+03  0.74163850554E+02 0.  0.
         25    2    1    2    0    0 -0.28847102828E+02  0.33992259045E+02 -0.89453681450E+03  0.90434025854E+03  0.12509021426E+03 0.  0.
        -24    2    1    2    0    0  0.99730287769E+01  0.18972321994E+02  0.54951783471E+01  0.79937896922E+02  0.76814452250E+02 0.  0.
        -11    1    3    3    0    0 -0.98584008611E+01  0.15308350517E+02 -0.12931348630E+03  0.13058909374E+03  0.00000000000E+00 0.  1.
         12    1    3    3    0    0  0.28732474912E+02 -0.68272931557E+02 -0.37738179364E+03  0.38458258731E+03  0.00000000000E+00 0. -1.
         13    1    5    5    0    0  0.24717358070E+02  0.24197547206E+02 -0.26995656745E+02  0.43877494958E+02  0.00000000000E+00 0. -1.
        -14    1    5    5    0    0 -0.14744329293E+02 -0.52252252112E+01  0.32490835092E+02  0.36060401964E+02  0.00000000000E+00 0.  1.
          5    1    4    4  501    0 -0.95364777262E+01  0.71265670966E+02 -0.30886537846E+03  0.31715143808E+03  0.41800000000E+01 0.  1.
         -5    1    4    4    0  501 -0.19310625101E+02 -0.37273411920E+02 -0.58567143604E+03  0.58718882046E+03  0.41800000000E+01 0.  1.
</event>
<event>
11    1  0.6763327E-009  0.1667441E+03  0.7561462E-02  0.1080900E+00
         22   -1    0    0    0    0  0.00000000000E+00  0.00000000000E+00  0.16397616083E+04  0.16397616083E+04  0.00000000000E+00 0.  1.
         22   -1    0    0    0    0 -0.00000000000E+00 -0.00000000000E+00 -0.74615557686E+03  0.74615557686E+03  0.00000000000E+00 0. -1.
         24    2    1    2    0    0 -0.41985742077E+02  0.69678192313E+01 -0.70891801972E+03  0.71463747415E+03  0.79565116381E+02 0.  0.
         25    2    1    2    0    0 -0.59651617443E+02 -0.57668894144E+02  0.15050085768E+03  0.21256162568E+03  0.12509164534E+03 0.  0.
        -24    2    1    2    0    0  0.10163735952E+03  0.50701074913E+02  0.14520231935E+04  0.14587180853E+04  0.81156307473E+02 0.  0.
        -13    1    3    3    0    0  0.49366359802E+01 -0.19996290865E+02 -0.59415150808E+02  0.62883878448E+02  0.00000000000E+00 0.  1.
         14    1    3    3    0    0 -0.46922378057E+02  0.26964110096E+02 -0.64950286891E+03  0.65175359571E+03  0.00000000000E+00 0. -1.
         13    1    5    5    0    0  0.48507907438E+02  0.50837637881E+02  0.46635052832E+03  0.47161456484E+03  0.00000000000E+00 0. -1.
        -14    1    5    5    0    0  0.53129452082E+02 -0.13656296861E+00  0.98567266514E+03  0.98710352047E+03  0.00000000000E+00 0.  1.
          5    1    4    4  501    0 -0.43746490612E+02 -0.91569675318E+02  0.14087567329E+03  0.17367264783E+03  0.41800000000E+01 0. -1.
         -5    1    4    4    0  501 -0.15905126832E+02  0.33900781174E+02  0.96251843865E+01  0.38888977850E+02  0.41800000000E+01 0. -1.
</event>
<event>
11    1  0.6763327E-009  0.2036816E+03  0.7561462E-02  0.1051950E+00
         22   -1    0    0    0    0  0.00000000000E+00  0.00000000000E+00  0.64759579282E+03  0.64759579282E+03  0.00000000000E+00 0.  1.
         22   -1    0    0    0    0 -0.00000000000E+00 -0.00000000000E+00 -0.27867247667E+03  0.27867247667E+03  0.00000000000E+00 0.  1.
         24    2    1    2    0    0 -0.13307535162E+03  0.89024584442E+02 -0.20447540452E+03  0.27178895766E+03  0.80153731094E+02 0.  0.
         25    2    1    2    0    0  0.12678598613E+03 -0.11018141313E+03  0.28536803716E+03  0.35397388232E+03  0.12509181689E+03 0.  0.
        -24    2    1    2    0    0  0.62893654820E+01  0.21156828690E+02  0.28803068352E+03  0.30050542950E+03  0.82792940498E+02 0.  0.
        -11    1    3    3    0    0 -0.11030639551E+03  0.45797736836E+02 -0.18275491346E+03  0.21832153348E+03  0.00000000000E+00 0.  1.
         12    1    3    3    0    0 -0.22768956101E+02  0.43226847605E+02 -0.21720491069E+02  0.53467424177E+02  0.00000000000E+00 0. -1.
         11    1    5    5    0    0 -0.10882760713E+02  0.39649391878E+02  0.71261151523E+02  0.82271869272E+02  0.00000000000E+00 0. -1.
        -12    1    5    5    0    0  0.17172126195E+02 -0.18492563188E+02  0.21676953199E+03  0.21823356023E+03  0.00000000000E+00 0.  1.
          5    1    4    4  501    0  0.42709008228E+02  0.11133915770E+02  0.16648458023E+02  0.47356805411E+02  0.41800000000E+01 0.  1.
         -5    1    4    4    0  501  0.84076977905E+02 -0.12131532890E+03  0.26871957914E+03  0.30661707691E+03  0.41800000000E+01 0.  1.
</event>
<event>
11    1  0.6763327E-009  0.1571492E+03  0.7561462E-02  0.1089790E+00
         22   -1    0    0    0    0  0.00000000000E+00  0.00000000000E+00  0.33390346299E+03  0.33390346299E+03  0.00000000000E+00 0.  1.
         22   -1    0    0    0    0 -0.00000000000E+00 -0.00000000000E+00 -0.22350928402E+04  0.22350928402E+04  0.00000000000E+00 0. -1.
        -24    2    1    2    0    0 -0.73204982033E+02 -0.32355898618E+02 -0.19190162335E+04  0.19223654788E+04  0.80373231355E+02 0.  0.
         25    2    1    2    0    0  0.63708123215E+02  0.12590540779E+03 -0.27172419629E+03  0.33074546318E+03  0.12509047083E+03 0.  0.
         24    2    1    2    0    0  0.94968588180E+01 -0.93549509174E+02  0.28955105254E+03  0.31588536119E+03  0.84273651832E+02 0.  0.
        -13    1    5    5    0    0 -0.15057937146E+02 -0.90683608880E+02  0.26715396983E+03  0.28252699337E+03  0.00000000000E+00 0.  1.
         14    1    5    5    0    0  0.24554795964E+02 -0.28659002945E+01  0.22397082714E+02  0.33358367817E+02  0.00000000000E+00 0. -1.
         13    1    3    3    0    0 -0.87753874730E+02 -0.20523936965E+02 -0.17485323402E+04  0.17508533117E+04  0.00000000000E+00 0. -1.
        -14    1    3    3    0    0  0.14548892697E+02 -0.11831961652E+02 -0.17048389327E+03  0.17151216709E+03  0.00000000000E+00 0.  1.
          5    1    4    4  501    0 -0.19490057519E+02  0.90366850606E+02 -0.17675857913E+03  0.19951716148E+03  0.41800000000E+01 0. -1.
         -5    1    4    4    0  501  0.83198180734E+02  0.35538557186E+02 -0.94965617163E+02  0.13122830170E+03  0.41800000000E+01 0. -1.
</event>
<event>
11    1  0.6763327E-009  0.1858968E+03  0.7561462E-02  0.1064970E+00
         22   -1    0    0    0    0  0.00000000000E+00  0.00000000000E+00  0.29262801002E+03  0.29262801002E+03  0.00000000000E+00 0. -1.
         22   -1    0    0    0    0 -0.00000000000E+00 -0.00000000000E+00 -0.52751350952E+03  0.52751350952E+03  0.00000000000E+00 0. -1.
        -24    2    1    2    0    0  0.35397307194E+02  0.26603514801E+02 -0.36136331584E+03  0.37299188829E+03  0.81109717891E+02 0.  0.
         25    2    1    2    0    0 -0.16036308649E+03 -0.62264679151E+02 -0.44874079074E+02  0.21737973258E+03  0.12508819043E+03 0.  0.
         24    2    1    2    0    0  0.12496577930E+03  0.35661164350E+02  0.17135189542E+03  0.22976989866E+03  0.80898514386E+02 0.  0.
        -13    1    5    5    0    0  0.27350591552E+02 -0.17116587286E+01 -0.18562260218E+01  0.27466892961E+02  0.00000000000E+00 0.  1.
         14    1    5    5    0    0  0.97615187746E+02  0.37372823078E+02  0.17320812144E+03  0.20230300570E+03  0.00000000000E+00 0. -1.
         11    1    3    3    0    0  0.31770684169E+02  0.27261959428E+02 -0.36524652984E+03  0.36763789027E+03  0.00000000000E+00 0. -1.
        -12    1    3    3    0    0  0.36266230252E+01 -0.65844462679E+00  0.38832139925E+01  0.53539980207E+01  0.00000000000E+00 0.  1.
          5    1    4    4  501    0 -0.20333581997E+02  0.29071874347E+02  0.16352723173E+02  0.39287560245E+02  0.41800000000E+01 0.  1.
         -5    1    4    4    0  501 -0.14002950450E+03 -0.91336553498E+02 -0.61226802247E+02  0.17809217234E+03  0.41800000000E+01 0.  1.
</event>
<event>
11    1  0.6763327E-009  0.1303514E+03  0.7561462E-02  0.1118838E+00
         22   -1    0    0    0    0  0.00000000000E+00  0.00000000000E+00  0.61027008645E+03  0.61027008645E+03  0.00000000000E+00 0.  1.
         22   -1    0    0    0    0 -0.00000000000E+00 -0.00000000000E+00 -0.23201726143E+03  0.23201726143E+03  0.00000000000E+00 0. -1.
         24    2    1    2    0    0  0.82803434091E+01  0.34322863556E+02 -0.11051337406E+03  0.14062275339E+03  0.79466533039E+02 0.  0.
         25    2    1    2    0    0  0.11278395217E+02 -0.42765601406E+02 -0.60858122259E+02  0.14596873680E+03  0.12508821773E+03 0.  0.
        -24    2    1    2    0    0 -0.19558738626E+02  0.84427378503E+01  0.54962432134E+03  0.55569585770E+03  0.79102260232E+02 0.  0.
        -13    1    3    3    0    0  0.40705755414E+02  0.12240365160E+02 -0.33235548687E+02  0.53957267903E+02  0.00000000000E+00 0.  1.
         14    1    3    3    0    0 -0.32425412004E+02  0.22082498396E+02 -0.77277825376E+02  0.86665485482E+02  0.00000000000E+00 0. -1.
         13    1    5    5    0    0  0.24858700825E+01  0.33027165009E+02  0.11114438842E+03  0.11597434309E+03  0.00000000000E+00 0. -1.
        -14    1    5    5    0    0 -0.22044608708E+02 -0.24584427159E+02  0.43847993292E+03  0.43972151460E+03  0.00000000000E+00 0.  1.
          5    1    4    4  501    0  0.21655122639E+02 -0.82306578384E+02 -0.18983767834E+02  0.87299330026E+02  0.41800000000E+01 0. -1.
         -5    1    4    4    0  501 -0.10376727423E+02  0.39540976978E+02 -0.41874354425E+02  0.58669406771E+02  0.41800000000E+01 0. -1.
</event>
<event>
11    1  0.6763327E-009  0.1427038E+03  0.7561462E-02  0.1104576E+00
         22   -1    0    0    0    0  0.00000000000E+00  0.00000000000E+00  0.25283225183E+03  0.25283225183E+03  0.00000000000E+00 0.  1.
         22   -1    0    0    0    0 -0.00000000000E+00 -0.00000000000E+00 -0.10397279136E+04  0.10397279136E+04  0.00000000000E+00 0.  1.
        -24    2    1    2    0    0 -0.50826359890E+02  0.38762786941E+02 -0.82305012495E+03  0.82955708148E+03  0.81655194169E+02 0.  0.
         25    2    1    2    0    0  0.95661031500E+02 -0.82244723180E+02 -0.16223760076E+03  0.24059070804E+03  0.12509045629E+03 0.  0.
         24    2    1    2    0    0 -0.44834671609E+02  0.43481936239E+02  0.19839206397E+03  0.22241237588E+03  0.78784689757E+02 0.  0.
        -13    1    5    5    0    0 -0.24156256686E+01  0.49713981803E+02  0.14855257237E+03  0.15666902052E+03  0.00000000000E+00 0.  1.
         14    1    5    5    0    0 -0.42419045941E+02 -0.62320455641E+01  0.49839491604E+02  0.65743355359E+02  0.00000000000E+00 0. -1.
         13    1    3    3    0    0 -0.16835228186E+02  0.60627409431E+02 -0.53429501745E+03  0.53798724274E+03  0.00000000000E+00 0. -1.
        -14    1    3    3    0    0 -0.33991131704E+02 -0.21864622490E+02 -0.28875510751E+03  0.29156983874E+03  0.00000000000E+00 0.  1.
          5    1    4    4  501    0  0.20294852696E+02 -0.95501980657E+02 -0.67660139089E+02  0.11886074279E+03  0.41800000000E+01 0.  1.
         -5    1    4    4    0  501  0.75366178804E+02  0.13257257477E+02 -0.94577461668E+02  0.12172996525E+03  0.41800000000E+01 0.  1.
</event>
<event>
11    1  0.6763327E-009  0.1581851E+03  0.7561462E-02  0.1088797E+00
         22   -1    0    0    0    0  0.00000000000E+00  0.00000000000E+00  0.23283804608E+04  0.23283804608E+04  0.00000000000E+00 0.  1.
         22   -1    0    0    0    0 -0.00000000000E+00 -0.00000000000E+00 -0.35882702013E+02  0.35882702013E+02  0.00000000000E+00 0. -1.
        -24    2    1    2    0    0 -0.29275385236E+02 -0.86268649879E+02  0.11848427537E+03  0.16903622822E+03  0.78964516128E+02 0.  0.
         25    2    1    2    0    0  0.65594010999E+02  0.12192117367E+03  0.99740607228E+03  0.10147088055E+04  0.12509092740E+03 0.  0.
         24    2    1    2    0    0 -0.36318625763E+02 -0.35652523787E+02  0.11766074111E+04  0.11805181290E+04  0.81411965324E+02 0.  0.
        -11    1    5    5    0    0 -0.28647453655E+02 -0.39489690874E+02  0.11653236226E+04  0.11663443993E+04  0.00000000000E+00 0.  1.
         12    1    5    5    0    0 -0.76711721079E+01  0.38371670873E+01  0.11283788465E+02  0.14173729745E+02  0.00000000000E+00 0. -1.
         13    1    3    3    0    0 -0.12422958511E+02 -0.42357282495E+02  0.28860235315E+01  0.44235714195E+02  0.00000000000E+00 0. -1.
        -14    1    3    3    0    0 -0.16852426725E+02 -0.43911367384E+02  0.11559825184E+03  0.12480051402E+03  0.00000000000E+00 0.  1.
          5    1    4    4  501    0  0.14998742105E+02  0.11492521502E+03  0.86484673597E+03  0.87258817115E+03  0.41800000000E+01 0.  1.
         -5    1    4    4    0  501  0.50595268894E+02  0.69959586435E+01  0.13255933632E+03  0.14212063438E+03  0.41800000000E+01 0.  1.
</event>
<event>
11    1  0.6763327E-009  0.2165860E+03  0.7561462E-02  0.1043377E+00
         22   -1    0    0    0    0  0.00000000000E+00  0.00000000000E+00  0.75484327631E+03  0.75484327631E+03  0.00000000000E+00 0. -1.
         22   -1    0    0    0    0 -0.00000000000E+00 -0.00000000000E+00 -0.67505392301E+03  0.67505392301E+03  0.00000000000E+00 0. -1.
        -24    2    1    2    0    0  0.16124724021E+03  0.64872847435E+02 -0.59543568935E+03  0.62538684523E+03  0.79723818467E+02 0.  0.
         25    2    1    2    0    0 -0.26182360542E+03 -0.62734181341E+02  0.39802386229E+03  0.49654616941E+03  0.12509166857E+03 0.  0.
         24    2    1    2    0    0  0.10057636520E+03 -0.21386660938E+01  0.27720118035E+03  0.30796418468E+03  0.88776491969E+02 0.  0.
        -13    1    5    5    0    0  0.11080811846E+03  0.17264800279E+02  0.23586733345E+03  0.26117027288E+03  0.00000000000E+00 0.  1.
         14    1    5    5    0    0 -0.10231753259E+02 -0.19403466372E+02  0.41333846898E+02  0.46793911799E+02  0.00000000000E+00 0. -1.
         13    1    3    3    0    0  0.14961553364E+03  0.81922209236E+02 -0.53255845618E+03  0.55920887468E+03  0.00000000000E+00 0. -1.
        -14    1    3    3    0    0  0.11631706574E+02 -0.17049361801E+02 -0.62877233163E+02  0.66177970548E+02  0.00000000000E+00 0.  1.
          5    1    4    4  501    0 -0.90323904375E+02  0.18603432408E+01  0.23285580033E+03  0.24980225124E+03  0.41800000000E+01 0. -1.
         -5    1    4    4    0  501 -0.17149970104E+03 -0.64594524582E+02  0.16516806196E+03  0.24674391817E+03  0.41800000000E+01 0. -1.
</event>
<event>
11    1  0.6763327E-009  0.1858728E+03  0.7561462E-02  0.1064989E+00
         22   -1    0    0    0    0  0.00000000000E+00  0.00000000000E+00  0.34183286963E+04  0.34183286963E+04  0.00000000000E+00 0. -1.
         22   -1    0    0    0    0 -0.00000000000E+00 -0.00000000000E+00 -0.15461449148E+03  0.15461449148E+03  0.00000000000E+00 0. -1.
        -24    2    1    2    0    0 -0.13639764430E+03 -0.16646993700E+02 -0.10404848110E+03  0.18966207440E+03  0.79146549366E+02 0.  0.
         25    2    1    2    0    0  0.14150044413E+03 -0.90517782112E+01  0.12910417504E+04  0.13048151361E+04  0.12509767243E+03 0.  0.
         24    2    1    2    0    0 -0.51027998239E+01  0.25698771911E+02  0.20767209355E+04  0.20784659773E+04  0.81021659941E+02 0.  0.
        -11    1    5    5    0    0  0.19267388582E+02  0.25650204032E+02  0.32583861591E+03  0.32741406330E+03  0.00000000000E+00 0.  1.
         12    1    5    5    0    0 -0.24370188406E+02  0.48567879526E-01  0.17508823196E+04  0.17510519140E+04  0.00000000000E+00 0. -1.
         11    1    3    3    0    0 -0.13438298076E+03 -0.29969458101E+02 -0.73052353859E+02  0.15586404442E+03  0.00000000000E+00 0. -1.
        -12    1    3    3    0    0 -0.20146635386E+01  0.13322464401E+02 -0.30996127240E+02  0.33798029983E+02  0.00000000000E+00 0.  1.
          5    1    4    4  501    0  0.74657031837E+02  0.44526045135E+02  0.38452884280E+03  0.39425390860E+03  0.41800000000E+01 0.  1.
         -5    1    4    4    0  501  0.66843412288E+02 -0.53577823346E+02  0.90651290763E+03  0.91056122750E+03  0.41800000000E+01 0.  1.
</event>
<event>
11    1  0.7816473E-009  0.1582441E+03  0.7561462E-02  0.1088741E+00
         22   -1    0    0    0    0  0.00000000000E+00  0.00000000000E+00  0.39478506151E+03  0.39478506151E+03  0.00000000000E+00 0. -1.
         22   -1    0    0    0    0 -0.00000000000E+00 -0.00000000000E+00 -0.53574709790E+03  0.53574709790E+03  0.00000000000E+00 0. -1.
         24    2    1    2    0    0 -0.90860243843E+02  0.30011045407E+01 -0.34933661808E+03  0.36970894171E+03  0.79900177121E+02 0.  0.
         25    2    1    2    0    0  0.13020095544E+03 -0.88371383650E+02 -0.10275541374E+03  0.22575984823E+03  0.12508814403E+03 0.  0.
        -24    2    1    2    0    0 -0.39340711596E+02  0.85370279109E+02  0.31112999543E+03  0.33506336947E+03  0.81423653537E+02 0.  0.
        -11    1    3    3    0    0 -0.14585597979E+02 -0.10706807725E+02 -0.81722944034E+01  0.19853508402E+02  0.00000000000E+00 0.  1.
         12    1    3    3    0    0 -0.76274645864E+02  0.13707912266E+02 -0.34116432368E+03  0.34985543330E+03  0.00000000000E+00 0. -1.
         11    1    5    5    0    0 -0.44210495684E+02  0.98604386366E+02  0.25048650431E+03  0.27280190941E+03  0.00000000000E+00 0. -1.
        -12    1    5    5    0    0  0.48697840883E+01 -0.13234107257E+02  0.60643491128E+02  0.62261460055E+02  0.00000000000E+00 0.  1.
          5    1    4    4  501    0  0.15021602208E+03 -0.52861004346E+02 -0.89345111861E+02  0.18264490271E+03  0.41800000000E+01 0. -1.
         -5    1    4    4    0  501 -0.20015066647E+02 -0.35510379304E+02 -0.13410301884E+02  0.43114945527E+02  0.41800000000E+01 0. -1.
</event>
<event>
11    1  0.6763327E-009  0.1376806E+03  0.7561462E-02  0.1110176E+00
         22   -1    0    0    0    0  0.00000000000E+00  0.00000000000E+00  0.55863351498E+03  0.55863351498E+03  0.00000000000E+00 0.  1.
         22   -1    0    0    0    0 -0.00000000000E+00 -0.00000000000E+00 -0.17162139868E+03  0.17162139868E+03  0.00000000000E+00 0.  1.
         24    2    1    2    0    0 -0.16343691780E+02 -0.47285502871E+01 -0.12576336470E+03  0.15000057055E+03  0.79964190836E+02 0.  0.
         25    2    1    2    0    0 -0.34029722354E+02  0.36847583319E+02  0.14196885882E+03  0.19575086089E+03  0.12508987275E+03 0.  0.
        -24    2    1    2    0    0  0.50373414134E+02 -0.32119033032E+02  0.37080662218E+03  0.38450348221E+03  0.82318063912E+02 0.  0.
        -13    1    3    3    0    0 -0.48951953248E+02 -0.33078371822E+01 -0.78111676061E+02  0.92242449288E+02  0.00000000000E+00 0.  1.
         14    1    3    3    0    0  0.32608261468E+02 -0.14207131048E+01 -0.47651688638E+02  0.57758121262E+02  0.00000000000E+00 0. -1.
         11    1    5    5    0    0  0.21381210076E+02 -0.15663048407E+02  0.22969703459E+02  0.35072703156E+02  0.00000000000E+00 0. -1.
        -12    1    5    5    0    0  0.28992204058E+02 -0.16455984626E+02  0.34783691872E+03  0.34943077906E+03  0.00000000000E+00 0.  1.
          5    1    4    4  501    0 -0.44471535562E+02 -0.51426644197E+01  0.14535342854E+03  0.15214879580E+03  0.41800000000E+01 0.  1.
         -5    1    4    4    0  501  0.10441813208E+02  0.41990247739E+02 -0.33845697274E+01  0.43602065094E+02  0.41800000000E+01 0.  1.
</event>
<event>
11    1  0.6763327E-009  0.1310222E+03  0.7561462E-02  0.1118019E+00
         22   -1    0    0    0    0  0.00000000000E+00  0.00000000000E+00  0.92866543036E+02  0.92866543036E+02  0.00000000000E+00 0. -1.
         22   -1    0    0    0    0 -0.00000000000E+00 -0.00000000000E+00 -0.12464128738E+04  0.12464128738E+04  0.00000000000E+00 0. -1.
        -24    2    1    2    0    0 -0.19506961559E+02  0.33928190040E+02 -0.10782838334E+04  0.10819831166E+04  0.80372853590E+02 0.  0.
         25    2    1    2    0    0 -0.38034957518E+01 -0.43562192254E+02 -0.10303779690E+03  0.16785719871E+03  0.12508845028E+03 0.  0.
         24    2    1    2    0    0  0.23310457311E+02  0.96340022141E+01  0.27775299600E+02  0.89439101471E+02  0.81189249198E+02 0.  0.
        -11    1    5    5    0    0 -0.25298339316E+02  0.21504628441E+02  0.22812203501E+01  0.33281511126E+02  0.00000000000E+00 0.  1.
         12    1    5    5    0    0  0.48608796627E+02 -0.11870626227E+02  0.25494079250E+02  0.56157590345E+02  0.00000000000E+00 0. -1.
         13    1    3    3    0    0  0.23849137159E+02  0.39024166114E+02 -0.54566065822E+03  0.54757394095E+03  0.00000000000E+00 0. -1.
        -14    1    3    3    0    0 -0.43356098718E+02 -0.50959760748E+01 -0.53262317521E+03  0.53440917567E+03  0.00000000000E+00 0.  1.
          5    1    4    4  501    0  0.31499404091E+02 -0.76808695484E+02 -0.73253129628E+02  0.11079386969E+03  0.41800000000E+01 0.  1.
         -5    1    4    4    0  501 -0.35302899843E+02  0.33246503230E+02 -0.29784667271E+02  0.57063329019E+02  0.41800000000E+01 0.  1.
</event>
<event>
11    1  0.6763327E-009  0.1476289E+03  0.7561462E-02  0.1099326E+00
         22   -1    0    0    0    0  0.00000000000E+00  0.00000000000E+00  0.11263971974E+03  0.11263971974E+03  0.00000000000E+00 0. -1.
         22   -1    0    0    0    0 -0.00000000000E+00 -0.00000000000E+00 -0.34402119987E+03  0.34402119987E+03  0.00000000000E+00 0.  1.
        -24    2    1    2    0    0  0.80839592834E+02 -0.36635449785E+02 -0.11744350314E+03  0.16924081474E+03  0.83500185600E+02 0.  0.
         25    2    1    2    0    0 -0.15327904694E+02  0.82625565611E+02 -0.66322670228E+02  0.16464181250E+03  0.12508517530E+03 0.  0.
         24    2    1    2    0    0 -0.65511688140E+02 -0.45990115826E+02 -0.47615306763E+02  0.12277829237E+03  0.80002622468E+02 0.  0.
        -13    1    5    5    0    0 -0.39483085926E+02 -0.55855879663E+02 -0.61219035209E+02  0.91796316043E+02  0.00000000000E+00 0.  1.
         14    1    5    5    0    0 -0.26028602214E+02  0.98657638375E+01  0.13603728446E+02  0.30981976324E+02  0.00000000000E+00 0. -1.
         13    1    3    3    0    0  0.48294595478E+02 -0.10021944606E+02 -0.54588112577E+01  0.49624650592E+02  0.00000000000E+00 0. -1.
        -14    1    3    3    0    0  0.32544997356E+02 -0.26613505179E+02 -0.11198469188E+03  0.11961616415E+03  0.00000000000E+00 0.  1.
          5    1    4    4  501    0  0.15726095807E+02  0.46072501525E+01 -0.77952414449E+02  0.79765833298E+02  0.41800000000E+01 0. -1.
         -5    1    4    4    0  501 -0.31054000500E+02  0.78018315459E+02  0.11629744221E+02  0.84875979197E+02  0.41800000000E+01 0. -1.
</event>
<event>
11    1  0.6763327E-009  0.1511203E+03  0.7561462E-02  0.1095739E+00
         22   -1    0    0    0    0  0.00000000000E+00  0.00000000000E+00  0.62883617781E+03  0.62883617781E+03  0.00000000000E+00 0.  1.
         22   -1    0    0    0    0 -0.00000000000E+00 -0.00000000000E+00 -0.32651446765E+03  0.32651446765E+03  0.00000000000E+00 0. -1.
        -24    2    1    2    0    0  0.32810452571E+02  0.81335688202E+02 -0.18246660127E+03  0.21837758382E+03  0.81869949076E+02 0.  0.
         25    2    1    2    0    0 -0.38004262144E+02 -0.68179338941E+02 -0.78287547957E+02  0.16694051456E+03  0.12508976391E+03 0.  0.
         24    2    1    2    0    0  0.51938095723E+01 -0.13156349261E+02  0.56307585938E+03  0.57003254709E+03  0.87650534141E+02 0.  0.
        -11    1    5    5    0    0  0.34394770020E+02 -0.37208023902E+02  0.34464596087E+03  0.34835079387E+03  0.00000000000E+00 0.  1.
         12    1    5    5    0    0 -0.29200960448E+02  0.24051674641E+02  0.21842989851E+03  0.22168175321E+03  0.00000000000E+00 0. -1.
         13    1    3    3    0    0  0.27418135645E+02  0.90965211313E+02 -0.11119167594E+03  0.14625324827E+03  0.00000000000E+00 0. -1.
        -14    1    3    3    0    0  0.53923169262E+01 -0.96295231110E+01 -0.71274925332E+02  0.72124335548E+02  0.00000000000E+00 0.  1.
          5    1    4    4  501    0 -0.19937094874E+02 -0.12016103680E+02 -0.10088869793E+03  0.10362372446E+03  0.41800000000E+01 0.  1.
         -5    1    4    4    0  501 -0.18067167270E+02 -0.56163235262E+02  0.22601149977E+02  0.63316790099E+02  0.41800000000E+01 0.  1.
</event>
<event>
11    1  0.6763327E-009  0.1335448E+03  0.7561462E-02  0.1114989E+00
         22   -1    0    0    0    0  0.00000000000E+00  0.00000000000E+00  0.73330120125E+02  0.73330120125E+02  0.00000000000E+00 0. -1.
         22   -1    0    0    0    0 -0.00000000000E+00 -0.00000000000E+00 -0.56298590838E+03  0.56298590838E+03  0.00000000000E+00 0.  1.
         24    2    1    2    0    0 -0.33062573620E+02 -0.26843923442E+02 -0.30871767619E+03  0.32187698436E+03  0.80526141521E+02 0.  0.
         25    2    1    2    0    0  0.41722902401E+02  0.46019068367E+02 -0.18498984189E+03  0.23179161579E+03  0.12509019270E+03 0.  0.
        -24    2    1    2    0    0 -0.86603287810E+01 -0.19175144925E+02  0.40517298354E+01  0.82647428344E+02  0.79821635036E+02 0.  0.
        -13    1    3    3    0    0 -0.30580197621E+02  0.16810495497E+01 -0.27875750572E+03  0.28043487909E+03  0.00000000000E+00 0.  1.
         14    1    3    3    0    0 -0.24823759986E+01 -0.28524972991E+02 -0.29960170472E+02  0.41442105273E+02  0.00000000000E+00 0. -1.
         13    1    5    5    0    0 -0.41917457660E+02 -0.23246823208E+02  0.90265933538E+01  0.48774659748E+02  0.00000000000E+00 0. -1.
        -14    1    5    5    0    0  0.33257128879E+02  0.40716782824E+01 -0.49748635184E+01  0.33872768596E+02  0.00000000000E+00 0.  1.
          5    1    4    4  501    0 -0.30740035844E+02  0.16627639702E+02 -0.50601809915E+01  0.35559893664E+02  0.41800000000E+01 0.  1.
         -5    1    4    4    0  501  0.72462938245E+02  0.29391428665E+02 -0.17992966090E+03  0.19623172213E+03  0.41800000000E+01 0.  1.
</event>
<event>
11    1  0.6763327E-009  0.1304526E+03  0.7561462E-02  0.1118714E+00
         22   -1    0    0    0    0  0.00000000000E+00  0.00000000000E+00  0.27126766873E+04  0.27126766873E+04  0.00000000000E+00 0. -1.
         22   -1    0    0    0    0 -0.00000000000E+00 -0.00000000000E+00 -0.27401147902E+03  0.27401147902E+03  0.00000000000E+00 0.  1.
        -24    2    1    2    0    0  0.23345730929E+02 -0.13033580648E+02 -0.23930910915E+03  0.25410697245E+03  0.81157909950E+02 0.  0.
         25    2    1    2    0    0  0.13511010061E+02  0.49070438860E+01  0.12286383684E+03  0.17592525828E+03  0.12509015798E+03 0.  0.
         24    2    1    2    0    0 -0.36856740990E+02  0.81265367622E+01  0.25551104806E+04  0.25566559356E+04  0.80470770813E+02 0.  0.
        -11    1    5    5    0    0 -0.29760602076E+02 -0.27745385806E+02  0.69760102695E+03  0.69878658593E+03  0.00000000000E+00 0.  1.
         12    1    5    5    0    0 -0.70961389140E+01  0.35871922568E+02  0.18575094536E+04  0.18578693496E+04  0.00000000000E+00 0. -1.
         13    1    3    3    0    0  0.51904923577E+01  0.54718919905E+00  0.58854874090E+01  0.78663580504E+01  0.00000000000E+00 0. -1.
        -14    1    3    3    0    0  0.18155238571E+02 -0.13580769847E+02 -0.24519459656E+03  0.24624061440E+03  0.00000000000E+00 0.  1.
          5    1    4    4  501    0 -0.50335951560E+02  0.27049068423E+02  0.66914266759E+02  0.88092857928E+02  0.41800000000E+01 0. -1.
         -5    1    4    4    0  501  0.63846961621E+02 -0.22142024537E+02  0.55949570081E+02  0.87832400349E+02  0.41800000000E+01 0. -1.
</event>
<event>
11    1  0.6763327E-009  0.1682953E+03  0.7561462E-02  0.1079525E+00
         22   -1    0    0    0    0  0.00000000000E+00  0.00000000000E+00  0.43106878638E+03  0.43106878638E+03  0.00000000000E+00 0.  1.
         22   -1    0    0    0    0 -0.00000000000E+00 -0.00000000000E+00 -0.51449362421E+03  0.51449362421E+03  0.00000000000E+00 0.  1.
         24    2    1    2    0    0 -0.68355668375E+02  0.76702655595E+02 -0.38232520217E+03  0.40394835431E+03  0.80286474311E+02 0.  0.
         25    2    1    2    0    0 -0.14034873654E+02 -0.15226441881E+03 -0.15621190401E+02  0.19814578834E+03  0.12504519557E+03 0.  0.
        -24    2    1    2    0    0  0.82390542029E+02  0.75561763217E+02  0.31452155474E+03  0.34346826794E+03  0.80925034497E+02 0.  0.
        -11    1    3    3    0    0 -0.69920247201E+02  0.63933195854E+02 -0.37899719542E+03  0.39065991430E+03  0.00000000000E+00 0.  1.
         12    1    3    3    0    0  0.15645788266E+01  0.12769459741E+02 -0.33280067508E+01  0.13288440011E+02  0.00000000000E+00 0. -1.
         13    1    5    5    0    0 -0.12545043774E+02 -0.45070828367E+01  0.22795333884E+02  0.26406801508E+02  0.00000000000E+00 0. -1.
        -14    1    5    5    0    0  0.94935585803E+02  0.80068846053E+02  0.29172622086E+03  0.31706146643E+03  0.00000000000E+00 0.  1.
          5    1    4    4  501    0 -0.59475597155E+02 -0.45657497328E+02  0.18357604763E+02  0.77307359105E+02  0.41800000000E+01 0.  1.
         -5    1    4    4    0  501  0.45440723500E+02 -0.10660692148E+03 -0.33978795164E+02  0.12083842924E+03  0.41800000000E+01 0.  1.
</event>
<event>
11    1  0.6763327E-009  0.1648845E+03  0.7561462E-02  0.1082571E+00
         22   -1    0    0    0    0  0.00000000000E+00  0.00000000000E+00  0.96043328344E+02  0.96043328344E+02  0.00000000000E+00 0.  1.
         22   -1    0    0    0    0 -0.00000000000E+00 -0.00000000000E+00 -0.31645412128E+04  0.31645412128E+04  0.00000000000E+00 0. -1.
         24    2    1    2    0    0  0.30953011122E+02 -0.70580049337E+02 -0.18941618347E+04  0.18975653545E+04  0.83460088203E+02 0.  0.
         25    2    1    2    0    0 -0.13252193494E+03  0.36600818416E+02 -0.12109622765E+04  0.12251442410E+04  0.12508834044E+03 0.  0.
        -24    2    1    2    0    0  0.10156892382E+03  0.33979230920E+02  0.36626226712E+02  0.13787494571E+03  0.78722206211E+02 0.  0.
        -13    1    3    3    0    0  0.27042689280E+02  0.11771147996E+02 -0.36897170809E+03  0.37014860305E+03  0.00000000000E+00 0.  1.
         14    1    3    3    0    0  0.39103218414E+01 -0.82351197333E+02 -0.15251901266E+04  0.15274167514E+04  0.00000000000E+00 0. -1.
         13    1    5    5    0    0 -0.63597252088E+01  0.20280661271E+02 -0.42128100292E+01  0.21667927789E+02  0.00000000000E+00 0. -1.
        -14    1    5    5    0    0  0.10792864903E+03  0.13698569649E+02  0.40839036742E+02  0.11620701792E+03  0.00000000000E+00 0.  1.
          5    1    4    4  501    0 -0.68349871790E+02  0.45078427102E+02 -0.27559497726E+03  0.28753057830E+03  0.41800000000E+01 0. -1.
         -5    1    4    4    0  501 -0.64172063149E+02 -0.84776086858E+01 -0.93536729926E+03  0.93761366269E+03  0.41800000000E+01 0. -1.
</event>
<event>
11    1  0.6763327E-009  0.2082102E+03  0.7561462E-02  0.1048865E+00
         22   -1    0    0    0    0  0.00000000000E+00  0.00000000000E+00  0.86521874149E+03  0.86521874149E+03  0.00000000000E+00 0. -1.
         22   -1    0    0    0    0 -0.00000000000E+00 -0.00000000000E+00 -0.65622076441E+03  0.65622076441E+03  0.00000000000E+00 0. -1.
         24    2    1    2    0    0 -0.86202901722E+02  0.25104764577E+02 -0.57266761860E+03  0.58538468329E+03  0.81644574647E+02 0.  0.
         25    2    1    2    0    0  0.15107951167E+03 -0.16734541293E+03  0.19372979538E+03  0.32250290604E+03  0.12508950681E+03 0.  0.
        -24    2    1    2    0    0 -0.64876609944E+02  0.14224064836E+03  0.58793580030E+03  0.61355191657E+03  0.79599450294E+02 0.  0.
        -11    1    3    3    0    0  0.16033448302E+02 -0.14029215692E+00 -0.72730273615E+02  0.74476733592E+02  0.00000000000E+00 0.  1.
         12    1    3    3    0    0 -0.10223635002E+03  0.25245056733E+02 -0.49993734498E+03  0.51090794970E+03  0.00000000000E+00 0. -1.
         13    1    5    5    0    0 -0.11864890070E+01  0.37262752184E+02  0.27287088322E+03  0.27540595375E+03  0.00000000000E+00 0. -1.
        -14    1    5    5    0    0 -0.63690120937E+02  0.10497789617E+03  0.31506491708E+03  0.33814596281E+03  0.00000000000E+00 0.  1.
          5    1    4    4  501    0  0.10018236947E+03 -0.10478770848E+03  0.42615172549E+02  0.15116380629E+03  0.41800000000E+01 0. -1.
         -5    1    4    4    0  501  0.50897142196E+02 -0.62557704455E+02  0.15111462283E+03  0.17133909976E+03  0.41800000000E+01 0. -1.
</event>
<event>
11    1  0.6763327E-009  0.2037541E+03  0.7561462E-02  0.1051900E+00
         22   -1    0    0    0    0  0.00000000000E+00  0.00000000000E+00  0.15075228142E+04  0.15075228142E+04  0.00000000000E+00 0.  1.
         22   -1    0    0    0    0 -0.00000000000E+00 -0.00000000000E+00 -0.22851893901E+03  0.22851893901E+03  0.00000000000E+00 0.  1.
        -24    2    1    2    0    0 -0.50037064387E+02 -0.34869682362E+02 -0.18709743481E+03  0.21282485417E+03  0.81051624774E+02 0.  0.
         25    2    1    2    0    0  0.19412622216E+03  0.85392638344E+00  0.64701161104E+03  0.68699166899E+03  0.12509120318E+03 0.  0.
         24    2    1    2    0    0 -0.14408915778E+03  0.34015755978E+02  0.81908969895E+03  0.83622523005E+03  0.80286632758E+02 0.  0.
        -11    1    5    5    0    0 -0.13808791291E+03  0.59999743843E+01  0.63056692673E+03  0.64553769873E+03  0.00000000000E+00 0.  1.
         12    1    5    5    0    0 -0.60012448690E+01  0.28015781594E+02  0.18852277222E+03  0.19068753132E+03  0.00000000000E+00 0. -1.
         13    1    3    3    0    0 -0.29036910304E+02  0.77529661412E+01 -0.13689672734E+02  0.33025108380E+02  0.00000000000E+00 0. -1.
        -14    1    3    3    0    0 -0.21000154084E+02 -0.42622648503E+02 -0.17340776208E+03  0.17979974579E+03  0.00000000000E+00 0.  1.
          5    1    4    4  501    0  0.10053133057E+02 -0.40276675921E+02  0.99737000808E+02  0.10811206148E+03  0.41800000000E+01 0.  1.
         -5    1    4    4    0  501  0.18407308911E+03  0.41130602304E+02  0.54727461023E+03  0.57887960750E+03  0.41800000000E+01 0.  1.
</event>
<event>
11    1  0.6763327E-009  0.1686804E+03  0.7561462E-02  0.1079186E+00
         22   -1    0    0    0    0  0.00000000000E+00  0.00000000000E+00  0.12061151990E+04  0.12061151990E+04  0.00000000000E+00 0.  1.
         22   -1    0    0    0    0 -0.00000000000E+00 -0.00000000000E+00 -0.72186788916E+02  0.72186788916E+02  0.00000000000E+00 0. -1.
        -24    2    1    2    0    0  0.71660981313E+02 -0.93005183724E+02  0.80023844767E+02  0.16316526545E+03  0.80211144344E+02 0.  0.
         25    2    1    2    0    0 -0.13435218272E+03  0.92298464533E+01  0.31321134004E+03  0.36315842169E+03  0.12508795565E+03 0.  0.
         24    2    1    2    0    0  0.62691201403E+02  0.83775337271E+02  0.74069322524E+03  0.75197830073E+03  0.76788130537E+02 0.  0.
        -13    1    5    5    0    0  0.72940843261E+02  0.36900748685E+02  0.45540483707E+03  0.46268304215E+03  0.00000000000E+00 0.  1.
         14    1    5    5    0    0 -0.10249641858E+02  0.46874588586E+02  0.28528838817E+03  0.28929525858E+03  0.00000000000E+00 0. -1.
         11    1    3    3    0    0 -0.17680574294E+02 -0.20479687100E+02  0.17188365807E+02  0.32054020188E+02  0.00000000000E+00 0. -1.
        -12    1    3    3    0    0  0.89341555608E+02 -0.72525496624E+02  0.62835478960E+02  0.13111124527E+03  0.00000000000E+00 0.  1.
          5    1    4    4  501    0 -0.29089841424E+02 -0.33906586137E+02  0.20969253384E+02  0.49528349912E+02  0.41800000000E+01 0.  1.
         -5    1    4    4    0  501 -0.10526234129E+03  0.43136432590E+02  0.29224208666E+03  0.31363007178E+03  0.41800000000E+01 0.  1.
</event>
<event>
11    1  0.6763327E-009  0.1580154E+03  0.7561462E-02  0.1088959E+00
         22   -1    0    0    0    0  0.00000000000E+00  0.00000000000E+00  0.46458520522E+03  0.46458520522E+03  0.00000000000E+00 0. -1.
         22   -1    0    0    0    0 -0.00000000000E+00 -0.00000000000E+00 -0.27631879299E+03  0.27631879299E+03  0.00000000000E+00 0. -1.
         24    2    1    2    0    0 -0.68740299653E+02 -0.52427882250E+02 -0.17485685820E+03  0.21119006776E+03  0.80946971708E+02 0.  0.
         25    2    1    2    0    0 -0.31609437728E+02  0.78098430660E+02  0.77204704591E+01  0.15101250502E+03  0.12508656835E+03 0.  0.
        -24    2    1    2    0    0  0.10034973738E+03 -0.25670548410E+02  0.35540279997E+03  0.37870142543E+03  0.79840920250E+02 0.  0.
        -13    1    3    3    0    0 -0.43405002966E+02  0.90832296498E+01 -0.35627775698E+02  0.56884424446E+02  0.00000000000E+00 0.  1.
         14    1    3    3    0    0 -0.25335296687E+02 -0.61511111900E+02 -0.13922908250E+03  0.15430564332E+03  0.00000000000E+00 0. -1.
         11    1    5    5    0    0  0.77603911648E+02  0.51247438925E+01  0.30852550536E+03  0.31817702236E+03  0.00000000000E+00 0. -1.
        -12    1    5    5    0    0  0.22745825733E+02 -0.30795292303E+02  0.46877294613E+02  0.60524403066E+02  0.00000000000E+00 0.  1.
          5    1    4    4  501    0  0.37956037286E+02  0.22914280020E+02  0.36495841570E+02  0.57577285862E+02  0.41800000000E+01 0. -1.
         -5    1    4    4    0  501 -0.69565475014E+02  0.55184150640E+02 -0.28775371111E+02  0.93435219154E+02  0.41800000000E+01 0. -1.
</event>
<event>
11    1  0.7010253E-009  0.1696155E+03  0.7561462E-02  0.1078367E+00
         22   -1    0    0    0    0  0.00000000000E+00  0.00000000000E+00  0.24562295307E+03  0.24562295307E+03  0.00000000000E+00 0.  1.
         22   -1    0    0    0    0 -0.00000000000E+00 -0.00000000000E+00 -0.14268754687E+04  0.14268754687E+04  0.00000000000E+00 0. -1.
        -24    2    1    2    0    0  0.16330163145E+01 -0.73588191812E+01 -0.11812562496E+04  0.11839690401E+04  0.79746734732E+02 0.  0.
         25    2    1    2    0    0 -0.60105337807E+01 -0.10780908972E+03 -0.19025449382E+03  0.25199408152E+03  0.12508124703E+03 0.  0.
         24    2    1    2    0    0  0.43775174662E+01  0.11516790891E+03  0.19025822776E+03  0.23653530020E+03  0.80423535789E+02 0.  0.
        -13    1    5    5    0    0  0.33153000268E+00  0.95140612549E+02  0.19371047829E+03  0.21581379814E+03  0.00000000000E+00 0.  1.
         14    1    5    5    0    0  0.40459874635E+01  0.20027296357E+02 -0.34522505283E+01  0.20721502060E+02  0.00000000000E+00 0. -1.
         13    1    3    3    0    0 -0.31219457981E+01  0.22186516347E+02 -0.10006141530E+04  0.10008649615E+04  0.00000000000E+00 0. -1.
        -14    1    3    3    0    0  0.47549621126E+01 -0.29545335529E+02 -0.18064209657E+03  0.18310407852E+03  0.00000000000E+00 0.  1.
          5    1    4    4  501    0 -0.59860840316E+02 -0.33650683633E+02 -0.11183812458E+03  0.13130471134E+03  0.41800000000E+01 0.  1.
         -5    1    4    4    0  501  0.53850306535E+02 -0.74158406091E+02 -0.78416369242E+02  0.12068937017E+03  0.41800000000E+01 0.  1.
</event>
<event>
11    1  0.6763327E-009  0.1404777E+03  0.7561462E-02  0.1107026E+00
         22   -1    0    0    0    0  0.00000000000E+00  0.00000000000E+00  0.94812422245E+03  0.94812422245E+03  0.00000000000E+00 0.  1.
         22   -1    0    0    0    0 -0.00000000000E+00 -0.00000000000E+00 -0.27199389837E+03  0.27199389837E+03  0.00000000000E+00 0. -1.
        -24    2    1    2    0    0  0.30508513365E+02 -0.53677093117E+02 -0.22514472015E+03  0.24588701348E+03  0.77189887126E+02 0.  0.
         25    2    1    2    0    0 -0.69218064028E+02  0.83743344548E+02  0.17211695428E+03  0.23890636075E+03  0.12509162687E+03 0.  0.
         24    2    1    2    0    0  0.38709550664E+02 -0.30066251431E+02  0.72915808995E+03  0.73532474659E+03  0.81415932214E+02 0.  0.
        -13    1    5    5    0    0 -0.23061940479E+02 -0.12658135774E+02  0.32929597234E+03  0.33034515116E+03  0.00000000000E+00 0.  1.
         14    1    5    5    0    0  0.61771491142E+02 -0.17408115657E+02  0.39986211761E+03  0.40497959543E+03  0.00000000000E+00 0. -1.
         13    1    3    3    0    0  0.23586706225E+02 -0.28857565101E+02 -0.21498170249E+03  0.21818850606E+03  0.00000000000E+00 0. -1.
        -14    1    3    3    0    0  0.69218071393E+01 -0.24819528017E+02 -0.10163017658E+02  0.27698507414E+02  0.00000000000E+00 0.  1.
          5    1    4    4  501    0  0.25091753870E+01  0.46637830631E+02 -0.19927558798E+01  0.46934280468E+02  0.41800000000E+01 0. -1.
         -5    1    4    4    0  501 -0.71727239415E+02  0.37105513918E+02  0.17410971016E+03  0.19197208028E+03  0.41800000000E+01 0. -1.
</event>
<event>
11    1  0.8495005E-009  0.1388113E+03  0.7561462E-02  0.1108893E+00
         22   -1    0    0    0    0  0.00000000000E+00  0.00000000000E+00  0.92515385620E+03  0.92515385620E+03  0.00000000000E+00 0.  1.
         22   -1    0    0    0    0 -0.00000000000E+00 -0.00000000000E+00 -0.21759002590E+03  0.21759002590E+03  0.00000000000E+00 0. -1.
        -24    2    1    2    0    0  0.48980889248E+02  0.43382086415E+01 -0.16950370004E+03  0.19321010121E+03  0.78617372870E+02 0.  0.
         25    2    1    2    0    0  0.15234405736E+02 -0.11206312655E+02  0.88627713870E+02  0.15446670220E+03  0.12508965529E+03 0.  0.
         24    2    1    2    0    0 -0.64215294983E+02  0.68681040132E+01  0.78843981647E+03  0.79506707868E+03  0.79520691918E+02 0.  0.
        -11    1    5    5    0    0 -0.75039871199E+02 -0.10557256040E+00  0.76171099189E+03  0.76539834634E+03  0.00000000000E+00 0.  1.
         12    1    5    5    0    0  0.10824576216E+02  0.69736765736E+01  0.26728824582E+02  0.29668732341E+02  0.00000000000E+00 0. -1.
         13    1    3    3    0    0 -0.16759353860E+01  0.30196829992E+02 -0.30185081181E+02  0.42729339182E+02  0.00000000000E+00 0. -1.
        -14    1    3    3    0    0  0.50656824634E+02 -0.25858621351E+02 -0.13931861886E+03  0.15048076203E+03  0.00000000000E+00 0.  1.
          5    1    4    4  501    0  0.13308308291E+02 -0.18972988915E+02 -0.28511999020E+02  0.36979614196E+02  0.41800000000E+01 0.  1.
         -5    1    4    4    0  501  0.19260974444E+01  0.77666762602E+01  0.11713971289E+03  0.11748708800E+03  0.41800000000E+01 0.  1.
</event>
<event>
11    1  0.6763327E-009  0.1958817E+03  0.7561462E-02  0.1057475E+00
         22   -1    0    0    0    0  0.00000000000E+00  0.00000000000E+00  0.40239993410E+03  0.40239993410E+03  0.00000000000E+00 0.  1.
         22   -1    0    0    0    0 -0.00000000000E+00 -0.00000000000E+00 -0.33524090161E+03  0.33524090161E+03  0.00000000000E+00 0.  1.
         24    2    1    2    0    0  0.67110605362E+02  0.12924035843E+03 -0.22054454500E+03  0.27623545400E+03  0.80369310777E+02 0.  0.
         25    2    1    2    0    0 -0.53882130927E+02 -0.17441026084E+03  0.83726685430E+02  0.23660145333E+03  0.12509143354E+03 0.  0.
        -24    2    1    2    0    0 -0.13228474434E+02  0.45169902410E+02  0.20397689206E+03  0.22480392839E+03  0.81944622164E+02 0.  0.
        -11    1    3    3    0    0  0.81235620769E+02  0.77896772440E+02 -0.15977059160E+03  0.19543227773E+03  0.00000000000E+00 0.  1.
         12    1    3    3    0    0 -0.14125015407E+02  0.51343585990E+02 -0.60773953402E+02  0.80803176266E+02  0.00000000000E+00 0. -1.
         11    1    5    5    0    0 -0.83994696577E+01 -0.21952798483E+02  0.28982145932E+02  0.37315428908E+02  0.00000000000E+00 0. -1.
        -12    1    5    5    0    0 -0.48290047767E+01  0.67122700893E+02  0.17499474613E+03  0.18748849948E+03  0.00000000000E+00 0.  1.
          5    1    4    4  501    0 -0.21026401346E+02 -0.17372015618E+02 -0.29342715858E+02  0.40278578104E+02  0.41800000000E+01 0.  1.
         -5    1    4    4    0  501 -0.32855729581E+02 -0.15703824522E+03  0.11306940129E+03  0.19632287522E+03  0.41800000000E+01 0.  1.
</event>
<event>
11    1  0.6763327E-009  0.1493341E+03  0.7561462E-02  0.1097561E+00
         22   -1    0    0    0    0  0.00000000000E+00  0.00000000000E+00  0.11789581688E+04  0.11789581688E+04  0.00000000000E+00 0. -1.
         22   -1    0    0    0    0 -0.00000000000E+00 -0.00000000000E+00 -0.29913258332E+04  0.29913258332E+04  0.00000000000E+00 0. -1.
        -24    2    1    2    0    0 -0.16641333988E+02 -0.59067296839E+02 -0.13791171938E+04  0.13829614236E+04  0.82777928351E+02 0.  0.
         25    2    1    2    0    0 -0.14874591493E+02  0.13420988376E+03 -0.16021890212E+04  0.16127276497E+04  0.12508903200E+03 0.  0.
         24    2    1    2    0    0  0.31515925481E+02 -0.75142586924E+02  0.11689385506E+04  0.11745949287E+04  0.81340331124E+02 0.  0.
        -11    1    5    5    0    0 -0.17493697552E+02 -0.64728859684E+00  0.74472584935E+02  0.76502381293E+02  0.00000000000E+00 0.  1.
         12    1    5    5    0    0  0.49009623033E+02 -0.74495298327E+02  0.10944659657E+04  0.10980925474E+04  0.00000000000E+00 0. -1.
         11    1    3    3    0    0 -0.39498120206E+01 -0.79042660625E+02 -0.10993961257E+04  0.11022409829E+04  0.00000000000E+00 0. -1.
        -12    1    3    3    0    0 -0.12691521967E+02  0.19975363786E+02 -0.27972106812E+03  0.28072044072E+03  0.00000000000E+00 0.  1.
          5    1    4    4  501    0 -0.29188577267E+02  0.15407115957E+03 -0.14580944795E+04  0.14665083971E+04  0.41800000000E+01 0.  1.
         -5    1    4    4    0  501  0.14313985774E+02 -0.19861275807E+02 -0.14409454174E+03  0.14621925258E+03  0.41800000000E+01 0.  1.
</event>
<event>
11    1  0.6763327E-009  0.1364257E+03  0.7561462E-02  0.1111617E+00
         22   -1    0    0    0    0  0.00000000000E+00  0.00000000000E+00  0.17099395130E+03  0.17099395130E+03  0.00000000000E+00 0.  1.
         22   -1    0    0    0    0 -0.00000000000E+00 -0.00000000000E+00 -0.17063967612E+04  0.17063967612E+04  0.00000000000E+00 0.  1.
         24    2    1    2    0    0  0.85678099666E+01 -0.24057811396E+01 -0.16006832698E+04  0.16027304707E+04  0.80491220197E+02 0.  0.
         25    2    1    2    0    0 -0.61152522411E+02  0.68287518905E+01 -0.26109863264E+02  0.14180789648E+03  0.12506594938E+03 0.  0.
        -24    2    1    2    0    0  0.52584712444E+02 -0.44229707509E+01  0.91390323145E+02  0.13285234529E+03  0.80702167444E+02 0.  0.
        -13    1    3    3    0    0  0.17883343934E+02 -0.53814273683E+01 -0.15769607243E+04  0.15770713046E+04  0.00000000000E+00 0.  1.
         14    1    3    3    0    0 -0.93155339671E+01  0.29756462287E+01 -0.23722545423E+02  0.25659166099E+02  0.00000000000E+00 0. -1.
         11    1    5    5    0    0  0.20290662961E+02  0.73731342346E+01 -0.11435868329E+02  0.24430579123E+02  0.00000000000E+00 0. -1.
        -12    1    5    5    0    0  0.32294049483E+02 -0.11796104985E+02  0.10282619147E+03  0.10842176616E+03  0.00000000000E+00 0.  1.
          5    1    4    4  501    0  0.24105828257E+02  0.31492195032E+02  0.16633839489E+02  0.43208868535E+02  0.41800000000E+01 0. -1.
         -5    1    4    4    0  501 -0.85258350668E+02 -0.24663443142E+02 -0.42743702753E+02  0.98599027943E+02  0.41800000000E+01 0. -1.
</event>
<event>
11    1  0.6763327E-009  0.2354043E+03  0.7561462E-02  0.1031975E+00
         22   -1    0    0    0    0  0.00000000000E+00  0.00000000000E+00  0.40263022554E+03  0.40263022554E+03  0.00000000000E+00 0. -1.
         22   -1    0    0    0    0 -0.00000000000E+00 -0.00000000000E+00 -0.13958249070E+04  0.13958249070E+04  0.00000000000E+00 0.  1.
         24    2    1    2    0    0  0.24628749527E+02  0.64036817924E+01 -0.12574689907E+04  0.12598729600E+04  0.73512109351E+02 0.  0.
         25    2    1    2    0    0 -0.21159534457E+03  0.35749309180E+02  0.80364549170E+02  0.26106915460E+03  0.12509212513E+03 0.  0.
        -24    2    1    2    0    0  0.18696659504E+03 -0.42152990972E+02  0.18390976010E+03  0.27751301796E+03  0.80357283246E+02 0.  0.
        -11    1    3    3    0    0  0.47892648486E+02 -0.10314622767E+02 -0.75467621733E+03  0.75626469588E+03  0.00000000000E+00 0.  1.
         12    1    3    3    0    0 -0.23263898959E+02  0.16718304560E+02 -0.50279277337E+03  0.50360826408E+03  0.00000000000E+00 0. -1.
         13    1    5    5    0    0  0.89035785744E+02 -0.58286924263E+02  0.11501154379E+03  0.15669202880E+03  0.00000000000E+00 0. -1.
        -14    1    5    5    0    0  0.97930809295E+02  0.16133933291E+02  0.68898216306E+02  0.12082098916E+03  0.00000000000E+00 0.  1.
          5    1    4    4  501    0 -0.18213984271E+03  0.60581455980E+02  0.25184411754E+02  0.19364080693E+03  0.41800000000E+01 0.  1.
         -5    1    4    4    0  501 -0.29455501855E+02 -0.24832146800E+02  0.55180137416E+02  0.67428347670E+02  0.41800000000E+01 0.  1.
</event>
<event>
11    1  0.6763327E-009  0.2029081E+03  0.7561462E-02  0.1052486E+00
         22   -1    0    0    0    0  0.00000000000E+00  0.00000000000E+00  0.51940524884E+03  0.51940524884E+03  0.00000000000E+00 0. -1.
         22   -1    0    0    0    0 -0.00000000000E+00 -0.00000000000E+00 -0.65365788476E+03  0.65365788476E+03  0.00000000000E+00 0. -1.
         24    2    1    2    0    0 -0.20880427298E+02 -0.14510757111E+03 -0.37162686284E+03  0.40746047581E+03  0.80158060883E+02 0.  0.
         25    2    1    2    0    0 -0.14000341375E+03  0.12489719513E+03 -0.19413311014E+03  0.29754888151E+03  0.12508959678E+03 0.  0.
        -24    2    1    2    0    0  0.16088384105E+03  0.20210375980E+02  0.43150733705E+03  0.46805377629E+03  0.81139915955E+02 0.  0.
        -11    1    3    3    0    0 -0.51806920929E+02 -0.88965693516E+02 -0.23324676148E+03  0.25495666969E+03  0.00000000000E+00 0.  1.
         12    1    3    3    0    0  0.30926493631E+02 -0.56141877598E+02 -0.13838010135E+03  0.15250380611E+03  0.00000000000E+00 0. -1.
         11    1    5    5    0    0  0.14581455066E+03  0.22840312642E+02  0.42747068995E+03  0.45223307467E+03  0.00000000000E+00 0. -1.
        -12    1    5    5    0    0  0.15069290390E+02 -0.26299366616E+01  0.40366471023E+01  0.15820701613E+02  0.00000000000E+00 0.  1.
          5    1    4    4  501    0 -0.11921308908E+03  0.51518859524E+02 -0.59838924206E+02  0.14305286696E+03  0.41800000000E+01 0. -1.
         -5    1    4    4    0  501 -0.20790324669E+02  0.73378335610E+02 -0.13429418593E+03  0.15449601455E+03  0.41800000000E+01 0. -1.
</event>
<event>
11    1  0.6763327E-009  0.1755109E+03  0.7561462E-02  0.1073333E+00
         22   -1    0    0    0    0  0.00000000000E+00  0.00000000000E+00  0.51880359750E+03  0.51880359750E+03  0.00000000000E+00 0.  1.
         22   -1    0    0    0    0 -0.00000000000E+00 -0.00000000000E+00 -0.13182308812E+03  0.13182308812E+03  0.00000000000E+00 0.  1.
         24    2    1    2    0    0  0.94005293912E+01 -0.16310498517E+03  0.35537145244E+02  0.18500714619E+03  0.79203215274E+02 0.  0.
         25    2    1    2    0    0  0.63373974868E+02  0.50462876261E+02  0.16216736347E+03  0.22024555836E+03  0.12508832731E+03 0.  0.
        -24    2    1    2    0    0 -0.72774504259E+02  0.11264210891E+03  0.18927600066E+03  0.24537398107E+03  0.79991330731E+02 0.  0.
        -13    1    3    3    0    0  0.97979312978E+01 -0.16005676643E+03  0.11493454500E+02  0.16076774376E+03  0.00000000000E+00 0.  1.
         14    1    3    3    0    0 -0.39740190656E+00 -0.30482187441E+01  0.24043690744E+02  0.24239402435E+02  0.00000000000E+00 0. -1.
         13    1    5    5    0    0 -0.72493714836E+02  0.66771917741E+02  0.80273356487E+02  0.12711270374E+03  0.00000000000E+00 0. -1.
        -14    1    5    5    0    0 -0.28078942277E+00  0.45870191168E+02  0.10900264417E+03  0.11826127734E+03  0.00000000000E+00 0.  1.
          5    1    4    4  501    0  0.76016747293E+02 -0.17609645732E+02  0.10149951863E+03  0.12809477029E+03  0.41800000000E+01 0.  1.
         -5    1    4    4    0  501 -0.12642772425E+02  0.68072521993E+02  0.60667844839E+02  0.92150788073E+02  0.41800000000E+01 0.  1.
</event>
<event>
11    1  0.6763327E-009  0.1971046E+03  0.7561462E-02  0.1056590E+00
         22   -1    0    0    0    0  0.00000000000E+00  0.00000000000E+00  0.16515731692E+03  0.16515731692E+03  0.00000000000E+00 0.  1.
         22   -1    0    0    0    0 -0.00000000000E+00 -0.00000000000E+00 -0.33948614624E+04  0.33948614624E+04  0.00000000000E+00 0.  1.
         24    2    1    2    0    0  0.54340747129E+02  0.38570189835E+02 -0.29662798316E+04  0.29680526966E+04  0.77975596251E+02 0.  0.
         25    2    1    2    0    0 -0.18689232647E+03 -0.94711237081E+02 -0.33278392957E+03  0.41266332941E+03  0.12508764740E+03 0.  0.
        -24    2    1    2    0    0  0.13255157934E+03  0.56141047246E+02  0.69359615763E+02  0.17930275333E+03  0.81344838065E+02 0.  0.
        -13    1    3    3    0    0  0.73268996871E+02  0.26208176697E+02 -0.25193344257E+04  0.25205358880E+04  0.00000000000E+00 0.  1.
         14    1    3    3    0    0 -0.18928249742E+02  0.12362013138E+02 -0.44694540597E+03  0.44751680854E+03  0.00000000000E+00 0. -1.
         11    1    5    5    0    0  0.92198814706E+02  0.38493712994E+02  0.33740593286E+01  0.99968853398E+02  0.00000000000E+00 0. -1.
        -12    1    5    5    0    0  0.40352764634E+02  0.17647334252E+02  0.65985556434E+02  0.79333899928E+02  0.00000000000E+00 0.  1.
          5    1    4    4  501    0 -0.10365828242E+03  0.16490152220E+02 -0.14133869870E+03  0.17609958769E+03  0.41800000000E+01 0. -1.
         -5    1    4    4    0  501 -0.83234044051E+02 -0.11120138930E+03 -0.19144523087E+03  0.23656374172E+03  0.41800000000E+01 0. -1.
</event>
<event>
11    1  0.6763327E-009  0.1885283E+03  0.7561462E-02  0.1062946E+00
         22   -1    0    0    0    0  0.00000000000E+00  0.00000000000E+00  0.32226522914E+03  0.32226522914E+03  0.00000000000E+00 0.  1.
         22   -1    0    0    0    0 -0.00000000000E+00 -0.00000000000E+00 -0.10947481062E+04  0.10947481062E+04  0.00000000000E+00 0.  1.
        -24    2    1    2    0    0 -0.43543220517E+02  0.52711751809E+02 -0.94473197071E+03  0.95041892901E+03  0.78122361118E+02 0.  0.
         25    2    1    2    0    0  0.10062896493E+03 -0.16795991551E+03 -0.70129620712E+01  0.23245008757E+03  0.12508852775E+03 0.  0.
         24    2    1    2    0    0 -0.57085744417E+02  0.11524816370E+03  0.17926205569E+03  0.23414431879E+03  0.78407626934E+02 0.  0.
        -13    1    5    5    0    0  0.57033759078E+01  0.63340207346E+02  0.11069241886E+03  0.12766096489E+03  0.00000000000E+00 0.  1.
         14    1    5    5    0    0 -0.62789120325E+02  0.51907956352E+02  0.68569636835E+02  0.10648335391E+03  0.00000000000E+00 0. -1.
         11    1    3    3    0    0 -0.35433427952E+02  0.55123882474E+02 -0.37898078155E+03  0.38460447607E+03  0.00000000000E+00 0. -1.
        -12    1    3    3    0    0 -0.81097925651E+01 -0.24121306646E+01 -0.56575118916E+03  0.56581445293E+03  0.00000000000E+00 0.  1.
          5    1    4    4  501    0  0.26640421153E+02 -0.15419106361E+03 -0.11413747230E+02  0.15694694059E+03  0.41800000000E+01 0. -1.
         -5    1    4    4    0  501  0.73988543781E+02 -0.13768851899E+02  0.44007851584E+01  0.75503146977E+02  0.41800000000E+01 0. -1.
</event>
<event>
11    1  0.6763327E-009  0.1389885E+03  0.7561462E-02  0.1108693E+00
         22   -1    0    0    0    0  0.00000000000E+00  0.00000000000E+00  0.94782557939E+03  0.94782557939E+03  0.00000000000E+00 0.  1.
         22   -1    0    0    0    0 -0.00000000000E+00 -0.00000000000E+00 -0.25330002880E+03  0.25330002880E+03  0.00000000000E+00 0.  1.
        -24    2    1    2    0    0 -0.25806673451E+02  0.22732335796E+01 -0.14608509878E+03  0.16867490980E+03  0.80244732691E+02 0.  0.
         25    2    1    2    0    0  0.85399812460E+02 -0.76921580016E+01 -0.31459871184E+02  0.15488631772E+03  0.12509096953E+03 0.  0.
         24    2    1    2    0    0 -0.59593139008E+02  0.54189244220E+01  0.87207052055E+03  0.87756438067E+03  0.77663005649E+02 0.  0.
        -11    1    5    5    0    0 -0.64250490204E+02 -0.39269222801E+01  0.85588904778E+03  0.85830624390E+03  0.00000000000E+00 0.  1.
         12    1    5    5    0    0  0.46573511952E+01  0.93458467020E+01  0.16181472771E+02  0.19258136768E+02  0.00000000000E+00 0. -1.
         11    1    3    3    0    0  0.48092635662E+01 -0.18149001923E+02 -0.79065961721E+00  0.18792031010E+02  0.00000000000E+00 0. -1.
        -12    1    3    3    0    0 -0.30615937017E+02  0.20422235503E+02 -0.14529443916E+03  0.14988287879E+03  0.00000000000E+00 0.  1.
          5    1    4    4  501    0  0.79459834074E+01  0.15104943303E+02 -0.65018289796E+02  0.67350934459E+02  0.41800000000E+01 0.  1.
         -5    1    4    4    0  501  0.77453829052E+02 -0.22797101305E+02  0.33558418611E+02  0.87535383260E+02  0.41800000000E+01 0.  1.
</event>
<event>
11    1  0.6763327E-009  0.1297737E+03  0.7561462E-02  0.1119547E+00
         22   -1    0    0    0    0  0.00000000000E+00  0.00000000000E+00  0.16761460843E+04  0.16761460843E+04  0.00000000000E+00 0.  1.
         22   -1    0    0    0    0 -0.00000000000E+00 -0.00000000000E+00 -0.19538964845E+03  0.19538964845E+03  0.00000000000E+00 0.  1.
        -24    2    1    2    0    0 -0.32184275802E+01 -0.13501269003E+02 -0.17697422687E+03  0.19520902322E+03  0.81203714391E+02 0.  0.
         25    2    1    2    0    0 -0.92689139490E+01  0.43423198501E+02  0.57456268329E+03  0.58969616357E+03  0.12509117219E+03 0.  0.
         24    2    1    2    0    0  0.12487341529E+02 -0.29921929498E+02  0.10831679794E+04  0.10866305459E+04  0.80385422885E+02 0.  0.
        -13    1    5    5    0    0 -0.13685643952E+02 -0.26683088625E+02  0.96869012472E+03  0.96915418887E+03  0.00000000000E+00 0.  1.
         14    1    5    5    0    0  0.26172985481E+02 -0.32388408730E+01  0.11447785466E+03  0.11747635706E+03  0.00000000000E+00 0. -1.
         13    1    3    3    0    0 -0.26275267072E+02  0.16123503262E+02 -0.28229388553E+02  0.41800184153E+02  0.00000000000E+00 0. -1.
        -14    1    3    3    0    0  0.23056839492E+02 -0.29624772265E+02 -0.14874483831E+03  0.15340883907E+03  0.00000000000E+00 0.  1.
          5    1    4    4  501    0  0.39798959244E+02  0.64408407033E+02  0.39947856386E+03  0.40661160269E+03  0.41800000000E+01 0.  1.
         -5    1    4    4    0  501 -0.49067873193E+02 -0.20985208532E+02  0.17508411943E+03  0.18308456088E+03  0.41800000000E+01 0.  1.
</event>
<event>
11    1  0.6763327E-009  0.1651767E+03  0.7561462E-02  0.1082307E+00
         22   -1    0    0    0    0  0.00000000000E+00  0.00000000000E+00  0.25861053903E+02  0.25861053903E+02  0.00000000000E+00 0.  1.
         22   -1    0    0    0    0 -0.00000000000E+00 -0.00000000000E+00 -0.24821356917E+04  0.24821356917E+04  0.00000000000E+00 0. -1.
         24    2    1    2    0    0 -0.72317798087E+02  0.81085470516E+01 -0.10929817370E+04  0.10969208687E+04  0.57712237776E+02 0.  0.
         25    2    1    2    0    0  0.16601039437E+03 -0.13667328819E+02 -0.11101158010E+04  0.11294916239E+04  0.12509192656E+03 0.  0.
        -24    2    1    2    0    0 -0.93692596279E+02  0.55587817672E+01 -0.25317709990E+03  0.28158425300E+03  0.79886450476E+02 0.  0.
        -13    1    3    3    0    0 -0.27234455537E+02  0.11601634653E+02 -0.15214482274E+03  0.15499793735E+03  0.00000000000E+00 0.  1.
         14    1    3    3    0    0 -0.45083342550E+02 -0.34930876013E+01 -0.94083691423E+03  0.94192293135E+03  0.00000000000E+00 0. -1.
         11    1    5    5    0    0 -0.63773292227E+02  0.41711857437E+02 -0.16268964110E+03  0.17965197236E+03  0.00000000000E+00 0. -1.
        -12    1    5    5    0    0 -0.29919304052E+02 -0.36153075669E+02 -0.90487458804E+02  0.10193228064E+03  0.00000000000E+00 0.  1.
          5    1    4    4  501    0  0.10541866815E+03  0.50620850293E+02 -0.53786452538E+03  0.55044644257E+03  0.41800000000E+01 0. -1.
         -5    1    4    4    0  501  0.60591726215E+02 -0.64288179111E+02 -0.57225127559E+03  0.57904518137E+03  0.41800000000E+01 0. -1.
</event>
<event>
11    1  0.6763327E-009  0.2263927E+03  0.7561462E-02  0.1037285E+00
         22   -1    0    0    0    0  0.00000000000E+00  0.00000000000E+00  0.67735607989E+03  0.67735607989E+03  0.00000000000E+00 0. -1.
         22   -1    0    0    0    0 -0.00000000000E+00 -0.00000000000E+00 -0.20694177836E+03  0.20694177836E+03  0.00000000000E+00 0.  1.
         24    2    1    2    0    0  0.89557333158E+02  0.15724679833E+02 -0.80782303945E+02  0.15430577571E+03  0.94956360017E+02 0.  0.
         25    2    1    2    0    0 -0.16073561384E+03 -0.17334771258E+03  0.21535748545E+03  0.34338336767E+03  0.12509166093E+03 0.  0.
        -24    2    1    2    0    0  0.71178280681E+02  0.15762303275E+03  0.33583912002E+03  0.38660871487E+03  0.82261873212E+02 0.  0.
        -11    1    3    3    0    0  0.67250935839E+02  0.44576281665E+02 -0.19520690886E+02  0.83010786233E+02  0.00000000000E+00 0.  1.
         12    1    3    3    0    0  0.22306397319E+02 -0.28851601831E+02 -0.61261613059E+02  0.71294989475E+02  0.00000000000E+00 0. -1.
         13    1    5    5    0    0  0.16535334182E+02  0.12543835744E+03  0.24615833426E+03  0.27677088777E+03  0.00000000000E+00 0. -1.
        -14    1    5    5    0    0  0.54642946499E+02  0.32184675314E+02  0.89680785763E+02  0.10983782710E+03  0.00000000000E+00 0.  1.
          5    1    4    4  501    0 -0.10518139323E+03 -0.11080495836E+03  0.20963241027E+03  0.25943030686E+03  0.41800000000E+01 0. -1.
         -5    1    4    4    0  501 -0.55554220611E+02 -0.62542754222E+02  0.57250751779E+01  0.83953060809E+02  0.41800000000E+01 0. -1.
</event>
<event>
11    1  0.6763327E-009  0.1623263E+03  0.7561462E-02  0.1084909E+00
         22   -1    0    0    0    0  0.00000000000E+00  0.00000000000E+00  0.12938285212E+03  0.12938285212E+03  0.00000000000E+00 0. -1.
         22   -1    0    0    0    0 -0.00000000000E+00 -0.00000000000E+00 -0.16525424542E+04  0.16525424542E+04  0.00000000000E+00 0. -1.
         24    2    1    2    0    0  0.77504751623E+02  0.67135458670E+02 -0.13588603666E+04  0.13651686419E+04  0.81668651109E+02 0.  0.
         25    2    1    2    0    0 -0.48591585132E+02 -0.11224902944E+03 -0.24358610464E+03  0.29990500271E+03  0.12509130073E+03 0.  0.
        -24    2    1    2    0    0 -0.28913166491E+02  0.45113570768E+02  0.79286869145E+02  0.11685166173E+03  0.67057421414E+02 0.  0.
        -13    1    3    3    0    0  0.18684845456E+01  0.19579079702E+02 -0.58005774283E+02  0.61249501603E+02  0.00000000000E+00 0.  1.
         14    1    3    3    0    0  0.75636267077E+02  0.47556378968E+02 -0.13008545923E+04  0.13039191403E+04  0.00000000000E+00 0. -1.
         13    1    5    5    0    0 -0.26875301453E+02  0.61193761964E+02  0.74201089628E+02  0.99863707289E+02  0.00000000000E+00 0. -1.
        -14    1    5    5    0    0 -0.20378650377E+01 -0.16080191197E+02  0.50857795170E+01  0.16987954442E+02  0.00000000000E+00 0.  1.
          5    1    4    4  501    0 -0.41870816500E+02 -0.97320282198E+02 -0.25720563119E+03  0.27820246533E+03  0.41800000000E+01 0. -1.
         -5    1    4    4    0  501 -0.67207686319E+01 -0.14928747240E+02  0.13619526547E+02  0.21702537375E+02  0.41800000000E+01 0. -1.
</event>
<event>
11    1  0.6763327E-009  0.1664200E+03  0.7561462E-02  0.1081190E+00
         22   -1    0    0    0    0  0.00000000000E+00  0.00000000000E+00  0.65306395867E+03  0.65306395867E+03  0.00000000000E+00 0.  1.
         22   -1    0    0    0    0 -0.00000000000E+00 -0.00000000000E+00 -0.24642338176E+03  0.24642338176E+03  0.00000000000E+00 0.  1.
        -24    2    1    2    0    0 -0.18106363995E+02  0.10134931172E+03 -0.16345112457E+03  0.20953798726E+03  0.81181122080E+02 0.  0.
         25    2    1    2    0    0  0.20497916285E+02 -0.17312546124E+03  0.16504119797E+03  0.27070320935E+03  0.12509612552E+03 0.  0.
         24    2    1    2    0    0 -0.23915522897E+01  0.71776149524E+02  0.40505050351E+03  0.41924614381E+03  0.80894273895E+02 0.  0.
        -11    1    5    5    0    0  0.28223056399E+02  0.62682226505E+01  0.19423039416E+03  0.19637025626E+03  0.00000000000E+00 0.  1.
         12    1    5    5    0    0 -0.30614608689E+02  0.65507926873E+02  0.21082010935E+03  0.22287588756E+03  0.00000000000E+00 0. -1.
         11    1    3    3    0    0  0.10699852166E+02 -0.10752405203E+02 -0.15440452477E+02  0.21645060100E+02  0.00000000000E+00 0. -1.
        -12    1    3    3    0    0 -0.28806216161E+02  0.11210171692E+03 -0.14801067209E+03  0.18789292716E+03  0.00000000000E+00 0.  1.
          5    1    4    4  501    0  0.28195948336E+02 -0.16181634115E+02 -0.11116511813E+02  0.34610778959E+02  0.41800000000E+01 0.  1.
         -5    1    4    4    0  501 -0.76980320515E+01 -0.15694382713E+03  0.17615770978E+03  0.23609243039E+03  0.41800000000E+01 0.  1.
</event>
<event>
11    1  0.6763327E-009  0.3167313E+03  0.7561462E-02  0.9933487E-01
         22   -1    0    0    0    0  0.00000000000E+00  0.00000000000E+00  0.16900027993E+03  0.16900027993E+03  0.00000000000E+00 0.  1.
         22   -1    0    0    0    0 -0.00000000000E+00 -0.00000000000E+00 -0.14278645042E+04  0.14278645042E+04  0.00000000000E+00 0.  1.
         24    2    1    2    0    0  0.12598409492E+03  0.43545082618E+01 -0.78231904735E+03  0.79643809083E+03  0.79997417293E+02 0.  0.
         25    2    1    2    0    0  0.19402238541E+03  0.10420339020E+03 -0.34706968650E+03  0.42966084613E+03  0.12509213739E+03 0.  0.
        -24    2    1    2    0    0 -0.32000648033E+03 -0.10855789846E+03 -0.12947549043E+03  0.37076584718E+03  0.80712118304E+02 0.  0.
        -11    1    3    3    0    0 -0.27932077166E+01  0.19359947137E+02 -0.11230901353E+03  0.11399966703E+03  0.00000000000E+00 0.  1.
         12    1    3    3    0    0  0.12877730264E+03 -0.15005438875E+02 -0.67001003381E+03  0.68243842380E+03  0.00000000000E+00 0. -1.
         11    1    5    5    0    0 -0.10536710879E+03 -0.23439874288E+02 -0.80687924655E+02  0.13476719373E+03  0.00000000000E+00 0. -1.
        -12    1    5    5    0    0 -0.21463937154E+03 -0.85118024174E+02 -0.48787565771E+02  0.23599865345E+03  0.00000000000E+00 0.  1.
          5    1    4    4  501    0  0.16183293761E+03  0.39282141032E+02 -0.16869252304E+03  0.23708147551E+03  0.41800000000E+01 0.  1.
         -5    1    4    4    0  501  0.32189447800E+02  0.64921249168E+02 -0.17837716346E+03  0.19257937062E+03  0.41800000000E+01 0.  1.
</event>
<event>
11    1  0.6763327E-009  0.1363162E+03  0.7561462E-02  0.1111743E+00
         22   -1    0    0    0    0  0.00000000000E+00  0.00000000000E+00  0.11487284971E+04  0.11487284971E+04  0.00000000000E+00 0.  1.
         22   -1    0    0    0    0 -0.00000000000E+00 -0.00000000000E+00 -0.66049000103E+03  0.66049000103E+03  0.00000000000E+00 0. -1.
         24    2    1    2    0    0  0.38396493051E+02  0.37223780064E+02 -0.60120259579E+03  0.60960277147E+03  0.85504838010E+02 0.  0.
         25    2    1    2    0    0 -0.64281993881E+02 -0.34456648868E+02  0.46203688569E+02  0.15199618804E+03  0.12509446412E+03 0.  0.
        -24    2    1    2    0    0  0.25885500831E+02 -0.27671311958E+01  0.10432374032E+04  0.10476195386E+04  0.92112441644E+02 0.  0.
        -13    1    3    3    0    0 -0.19086244827E+02 -0.12055143708E+02 -0.20425799367E+03  0.20550167690E+03  0.00000000000E+00 0.  1.
         14    1    3    3    0    0  0.57482737878E+02  0.49278923771E+02 -0.39694460212E+03  0.40410109457E+03  0.00000000000E+00 0. -1.
         13    1    5    5    0    0  0.34176845427E+02 -0.13671307927E+02  0.15628646677E+03  0.16056282608E+03  0.00000000000E+00 0. -1.
        -14    1    5    5    0    0 -0.82913445960E+01  0.10904176731E+02  0.88695093648E+03  0.88705671249E+03  0.00000000000E+00 0.  1.
          5    1    4    4  501    0 -0.86443332981E+02  0.11674309576E+02  0.49786028435E+02  0.10052293444E+03  0.41800000000E+01 0. -1.
         -5    1    4    4    0  501  0.22161339100E+02 -0.46130958444E+02 -0.35823398655E+01  0.51473253604E+02  0.41800000000E+01 0. -1.
</event>
<event>
11    1  0.6763327E-009  0.1317977E+03  0.7561462E-02  0.1117080E+00
         22   -1    0    0    0    0  0.00000000000E+00  0.00000000000E+00  0.39435173200E+03  0.39435173200E+03  0.00000000000E+00 0.  1.
         22   -1    0    0    0    0 -0.00000000000E+00 -0.00000000000E+00 -0.91769666774E+03  0.91769666774E+03  0.00000000000E+00 0.  1.
         24    2    1    2    0    0  0.38424201998E+02 -0.28977435484E+01 -0.69653922763E+03  0.70357104718E+03  0.91435805786E+02 0.  0.
         25    2    1    2    0    0 -0.62373907759E+02 -0.24783978598E+02 -0.18858318654E+03  0.23604039401E+03  0.12508676745E+03 0.  0.
        -24    2    1    2    0    0  0.23949705760E+02  0.27681722147E+02  0.36177747843E+03  0.37243695855E+03  0.80538674202E+02 0.  0.
        -11    1    3    3    0    0  0.43452301016E+02 -0.11564405705E+02 -0.69031003401E+03  0.69177292589E+03  0.00000000000E+00 0.  1.
         12    1    3    3    0    0 -0.50280990179E+01  0.86666621564E+01 -0.62291936206E+01  0.11798121284E+02  0.00000000000E+00 0. -1.
         13    1    5    5    0    0 -0.33153543947E+01  0.76763318715E+01 -0.69489733275E+00  0.83905022536E+01  0.00000000000E+00 0. -1.
        -14    1    5    5    0    0  0.27265060155E+02  0.20005390275E+02  0.36247237577E+03  0.36404645629E+03  0.00000000000E+00 0.  1.
          5    1    4    4  501    0  0.25167860988E+02 -0.44695510949E+02 -0.58311536234E+02  0.77774144699E+02  0.41800000000E+01 0. -1.
         -5    1    4    4    0  501 -0.87541768747E+02  0.19911532351E+02 -0.13027165031E+03  0.15826624931E+03  0.41800000000E+01 0. -1.
</event>
<event>
11    1  0.6763327E-009  0.1856374E+03  0.7561462E-02  0.1065172E+00
         22   -1    0    0    0    0  0.00000000000E+00  0.00000000000E+00  0.32965130575E+03  0.32965130575E+03  0.00000000000E+00 0.  1.
         22   -1    0    0    0    0 -0.00000000000E+00 -0.00000000000E+00 -0.13664638384E+04  0.13664638384E+04  0.00000000000E+00 0. -1.
        -24    2    1    2    0    0 -0.65392759244E+02 -0.84561038362E+01 -0.99288421740E+03  0.99954523929E+03  0.94466383288E+02 0.  0.
         25    2    1    2    0    0  0.18606740004E+03  0.65537757863E+02 -0.30953048945E+03  0.38778142855E+03  0.12509611251E+03 0.  0.
         24    2    1    2    0    0 -0.12067464080E+03 -0.57081654027E+02  0.26560217424E+03  0.30878847627E+03  0.83577054026E+02 0.  0.
        -13    1    5    5    0    0 -0.96164154518E+02 -0.78932472416E+02  0.20278598691E+03  0.23790762136E+03  0.00000000000E+00 0.  1.
         14    1    5    5    0    0 -0.24510486281E+02  0.21850818389E+02  0.62816187329E+02  0.70880854909E+02  0.00000000000E+00 0. -1.
         13    1    3    3    0    0 -0.16823492026E+02  0.21220452812E+02 -0.73304677758E+03  0.73354680534E+03  0.00000000000E+00 0. -1.
        -14    1    3    3    0    0 -0.48569267217E+02 -0.29676556649E+02 -0.25983743982E+03  0.26599843395E+03  0.00000000000E+00 0.  1.
          5    1    4    4  501    0  0.45939746865E+02 -0.28453681748E+02 -0.31952719032E+02  0.62916778371E+02  0.41800000000E+01 0.  1.
         -5    1    4    4    0  501  0.14012765318E+03  0.93991439611E+02 -0.27757777042E+03  0.32486465018E+03  0.41800000000E+01 0.  1.
</event>
<event>
11    1  0.6763327E-009  0.1738553E+03  0.7561462E-02  0.1074725E+00
         22   -1    0    0    0    0  0.00000000000E+00  0.00000000000E+00  0.24688829897E+03  0.24688829897E+03  0.00000000000E+00 0.  1.
         22   -1    0    0    0    0 -0.00000000000E+00 -0.00000000000E+00 -0.54945427683E+03  0.54945427683E+03  0.00000000000E+00 0. -1.
         24    2    1    2    0    0  0.12251292309E+03  0.39476183589E+00 -0.41851386593E+03  0.44354476599E+03  0.81046476190E+02 0.  0.
         25    2    1    2    0    0 -0.11053581301E+03  0.32671922344E+02 -0.39126941902E+02  0.17454063782E+03  0.12509155128E+03 0.  0.
        -24    2    1    2    0    0 -0.11977110077E+02 -0.33066684180E+02  0.15507482997E+03  0.17825717199E+03  0.80564009988E+02 0.  0.
        -13    1    3    3    0    0  0.11868877127E+03  0.22548982407E+02 -0.30963917797E+03  0.33237313605E+03  0.00000000000E+00 0.  1.
         14    1    3    3    0    0  0.38241518243E+01 -0.22154220571E+02 -0.10887468795E+03  0.11117162994E+03  0.00000000000E+00 0. -1.
         11    1    5    5    0    0 -0.24772121946E+02 -0.37971356770E+02  0.34668235941E+02  0.57073361071E+02  0.00000000000E+00 0. -1.
        -12    1    5    5    0    0  0.12795011869E+02  0.49046725899E+01  0.12040659403E+03  0.12118381092E+03  0.00000000000E+00 0.  1.
          5    1    4    4  501    0 -0.67977151097E+02 -0.25981685059E+02  0.25627881609E+02  0.77267080607E+02  0.41800000000E+01 0.  1.
         -5    1    4    4    0  501 -0.42558661917E+02  0.58653607403E+02 -0.64754823511E+02  0.97273557216E+02  0.41800000000E+01 0.  1.
</event>
<event>
11    1  0.6763327E-009  0.1309362E+03  0.7561462E-02  0.1118124E+00
         22   -1    0    0    0    0  0.00000000000E+00  0.00000000000E+00  0.44823721866E+03  0.44823721866E+03  0.00000000000E+00 0. -1.
         22   -1    0    0    0    0 -0.00000000000E+00 -0.00000000000E+00 -0.37691913580E+03  0.37691913580E+03  0.00000000000E+00 0.  1.
        -24    2    1    2    0    0  0.14190357548E+02  0.20432804430E+02 -0.16819218993E+03  0.18888864590E+03  0.82288772337E+02 0.  0.
         25    2    1    2    0    0 -0.49608105824E+02 -0.51719301129E+01 -0.17007879817E+03  0.21693718668E+03  0.12508889780E+03 0.  0.
         24    2    1    2    0    0  0.35417748276E+02 -0.15260874317E+02  0.40958907096E+03  0.41933052188E+03  0.81163836457E+02 0.  0.
        -11    1    5    5    0    0  0.58375980171E+02 -0.25554026229E+02  0.31956593466E+03  0.32585756078E+03  0.00000000000E+00 0.  1.
         12    1    5    5    0    0 -0.22958231895E+02  0.10293151912E+02  0.90023136299E+02  0.93472961102E+02  0.00000000000E+00 0. -1.
         13    1    3    3    0    0 -0.19963121639E+02 -0.13895159123E+02 -0.15839890305E+02  0.29025915963E+02  0.00000000000E+00 0. -1.
        -14    1    3    3    0    0  0.34153479187E+02  0.34327963552E+02 -0.15235229963E+03  0.15986272994E+03  0.00000000000E+00 0.  1.
          5    1    4    4  501    0 -0.79017556411E+02  0.31543901846E+02 -0.89642148838E+02  0.12366074241E+03  0.41800000000E+01 0.  1.
         -5    1    4    4    0  501  0.29409450587E+02 -0.36715831959E+02 -0.80436649334E+02  0.93276444273E+02  0.41800000000E+01 0.  1.
</event>
<event>
11    1  0.6763327E-009  0.1415241E+03  0.7561462E-02  0.1105868E+00
         22   -1    0    0    0    0  0.00000000000E+00  0.00000000000E+00  0.19179625829E+04  0.19179625829E+04  0.00000000000E+00 0. -1.
         22   -1    0    0    0    0 -0.00000000000E+00 -0.00000000000E+00 -0.10511737465E+03  0.10511737465E+03  0.00000000000E+00 0.  1.
         24    2    1    2    0    0  0.64579578851E+02  0.11019923997E+02 -0.60882188589E+02  0.11887504973E+03  0.78311402941E+02 0.  0.
         25    2    1    2    0    0 -0.75126300207E+02 -0.63994094505E+01  0.36305525762E+03  0.39133169801E+03  0.12508582797E+03 0.  0.
        -24    2    1    2    0    0  0.10546721356E+02 -0.46205145463E+01  0.15106721392E+04  0.15128732098E+04  0.80761712774E+02 0.  0.
        -11    1    3    3    0    0  0.32949240466E+02  0.20832526503E+02 -0.73691116748E+02  0.83366823710E+02  0.00000000000E+00 0.  1.
         12    1    3    3    0    0  0.31630338384E+02 -0.98126025064E+01  0.12808928159E+02  0.35508226017E+02  0.00000000000E+00 0. -1.
         11    1    5    5    0    0 -0.14973150190E+02 -0.19737602930E+02  0.12875307486E+04  0.12877690775E+04  0.00000000000E+00 0. -1.
        -12    1    5    5    0    0  0.25519871546E+02  0.15117088384E+02  0.22314139057E+03  0.22510413233E+03  0.00000000000E+00 0.  1.
          5    1    4    4  501    0 -0.81426306879E+02  0.45648004894E+02  0.23513349800E+03  0.25302019303E+03  0.41800000000E+01 0. -1.
         -5    1    4    4    0  501  0.63000066724E+01 -0.52047414345E+02  0.12792175962E+03  0.13831150497E+03  0.41800000000E+01 0. -1.
</event>
<event>
11    1  0.6763327E-009  0.1450643E+03  0.7561462E-02  0.1102031E+00
         22   -1    0    0    0    0  0.00000000000E+00  0.00000000000E+00  0.22676643930E+03  0.22676643930E+03  0.00000000000E+00 0. -1.
         22   -1    0    0    0    0 -0.00000000000E+00 -0.00000000000E+00 -0.30976975728E+03  0.30976975728E+03  0.00000000000E+00 0.  1.
        -24    2    1    2    0    0 -0.10028399189E+02  0.20828281107E+02 -0.22385188943E+03  0.23916395145E+03  0.80965061536E+02 0.  0.
         25    2    1    2    0    0  0.79997177341E+02 -0.75979561695E+01  0.50170558562E+02  0.15691484741E+03  0.12509159472E+03 0.  0.
         24    2    1    2    0    0 -0.69968778152E+02 -0.13230324937E+02  0.90678012890E+02  0.14045739772E+03  0.80219119537E+02 0.  0.
        -13    1    5    5    0    0  0.12519478627E+02 -0.83118571189E+00 -0.50146140535E+01  0.13512015722E+02  0.00000000000E+00 0.  1.
         14    1    5    5    0    0 -0.82488256779E+02 -0.12399139225E+02  0.95692626944E+02  0.12694538200E+03  0.00000000000E+00 0. -1.
         13    1    3    3    0    0 -0.22233561477E+02  0.39903057249E+02 -0.69550690700E+02  0.83209878083E+02  0.00000000000E+00 0. -1.
        -14    1    3    3    0    0  0.12205162288E+02 -0.19074776143E+02 -0.15430119873E+03  0.15595407337E+03  0.00000000000E+00 0.  1.
          5    1    4    4  501    0 -0.33115567845E+02 -0.99889195884E+01  0.18009153859E+02  0.39220165361E+02  0.41800000000E+01 0. -1.
         -5    1    4    4    0  501  0.11311274519E+03  0.23909634189E+01  0.32161404703E+02  0.11769468205E+03  0.41800000000E+01 0. -1.
</event>
<event>
11    1  0.6763327E-009  0.1374829E+03  0.7561462E-02  0.1110402E+00
         22   -1    0    0    0    0  0.00000000000E+00  0.00000000000E+00  0.42292861367E+03  0.42292861367E+03  0.00000000000E+00 0.  1.
         22   -1    0    0    0    0 -0.00000000000E+00 -0.00000000000E+00 -0.51774291100E+03  0.51774291100E+03  0.00000000000E+00 0.  1.
        -24    2    1    2    0    0  0.47660334452E+02 -0.25406449154E+02 -0.35537326390E+03  0.36569684357E+03  0.67283204154E+02 0.  0.
         25    2    1    2    0    0 -0.76508841328E+02  0.22112207951E+02 -0.11646059826E+03  0.18855625925E+03  0.12509132429E+03 0.  0.
         24    2    1    2    0    0  0.28848506876E+02  0.32942412030E+01  0.37701956483E+03  0.38641842186E+03  0.79576102618E+02 0.  0.
        -11    1    5    5    0    0  0.25920478471E+02 -0.25666170506E+01  0.37874807182E+03  0.37964267494E+03  0.00000000000E+00 0.  1.
         12    1    5    5    0    0  0.29280284047E+01  0.58608582536E+01 -0.17285069905E+01  0.67757469126E+01  0.00000000000E+00 0. -1.
         11    1    3    3    0    0  0.46113176766E+02  0.79078686267E+00 -0.11512308690E+03  0.12401764210E+03  0.00000000000E+00 0. -1.
        -12    1    3    3    0    0  0.15471576862E+01 -0.26197236017E+02 -0.24025017701E+03  0.24167920147E+03  0.00000000000E+00 0.  1.
          5    1    4    4  501    0 -0.32248815633E+02  0.62321282148E+02 -0.10677285995E+03  0.12783522339E+03  0.41800000000E+01 0. -1.
         -5    1    4    4    0  501 -0.44260025695E+02 -0.40209074197E+02 -0.96877383142E+01  0.60721035860E+02  0.41800000000E+01 0. -1.
</event>
<event>
11    1  0.6763327E-009  0.1364379E+03  0.7561462E-02  0.1111603E+00
         22   -1    0    0    0    0  0.00000000000E+00  0.00000000000E+00  0.93156233715E+03  0.93156233715E+03  0.00000000000E+00 0. -1.
         22   -1    0    0    0    0 -0.00000000000E+00 -0.00000000000E+00 -0.18074817105E+03  0.18074817105E+03  0.00000000000E+00 0.  1.
         24    2    1    2    0    0 -0.13231428223E+02 -0.12905233582E+02 -0.15008300074E+03  0.17102325867E+03  0.79890125479E+02 0.  0.
         25    2    1    2    0    0  0.21893628260E+02 -0.42797453228E+02  0.25445768022E+03  0.28758212941E+03  0.12507524603E+03 0.  0.
        -24    2    1    2    0    0 -0.86622000363E+01  0.55702686810E+02  0.64643948661E+03  0.65370512012E+03  0.79174182560E+02 0.  0.
        -13    1    3    3    0    0 -0.13945991830E+02  0.12837555374E+02 -0.14308720792E+03  0.14433725295E+03  0.00000000000E+00 0.  1.
         14    1    3    3    0    0  0.71456360710E+00 -0.25742788956E+02 -0.69957928105E+01  0.26686005723E+02  0.00000000000E+00 0. -1.
         11    1    5    5    0    0 -0.34454102813E+02  0.59250356278E+02  0.52852893016E+03  0.53295451957E+03  0.00000000000E+00 0. -1.
        -12    1    5    5    0    0  0.25791902777E+02 -0.35476694685E+01  0.11791055646E+03  0.12075060054E+03  0.00000000000E+00 0.  1.
          5    1    4    4  501    0  0.47297320361E+02  0.15223566374E+02  0.19260119445E+03  0.19895096378E+03  0.41800000000E+01 0.  1.
         -5    1    4    4    0  501 -0.25403692102E+02 -0.58021019602E+02  0.61856485772E+02  0.88631165625E+02  0.41800000000E+01 0.  1.
</event>
<event>
11    1  0.6869047E-009  0.1613426E+03  0.7561462E-02  0.1085821E+00
         22   -1    0    0    0    0  0.00000000000E+00  0.00000000000E+00  0.13819476797E+04  0.13819476797E+04  0.00000000000E+00 0.  1.
         22   -1    0    0    0    0 -0.00000000000E+00 -0.00000000000E+00 -0.21225589902E+03  0.21225589902E+03  0.00000000000E+00 0.  1.
        -24    2    1    2    0    0 -0.33864097855E+02  0.67584288960E+02 -0.13946498488E+03  0.17664439242E+03  0.77706795890E+02 0.  0.
         25    2    1    2    0    0  0.93278949933E+01 -0.16269877080E+03  0.15720081421E+03  0.25867761356E+03  0.12507642514E+03 0.  0.
         24    2    1    2    0    0  0.24536202862E+02  0.95114481842E+02  0.11519559513E+04  0.11588815727E+04  0.79719482595E+02 0.  0.
        -13    1    5    5    0    0  0.28631536238E+01  0.60631314143E+02  0.99083974308E+03  0.99269720982E+03  0.00000000000E+00 0.  1.
         14    1    5    5    0    0  0.21673049238E+02  0.34483167699E+02  0.16111620825E+03  0.16618436292E+03  0.00000000000E+00 0. -1.
         11    1    3    3    0    0 -0.22148918251E+02  0.10149259427E+02  0.10570766259E+01  0.24386460539E+02  0.00000000000E+00 0. -1.
        -12    1    3    3    0    0 -0.11715179604E+02  0.57435029533E+02 -0.14052206150E+03  0.15225793188E+03  0.00000000000E+00 0.  1.
          5    1    4    4  501    0 -0.56180516966E+02 -0.99042641534E+02  0.90030496111E+02  0.14521934430E+03  0.41800000000E+01 0.  1.
         -5    1    4    4    0  501  0.65508411959E+02 -0.63656129267E+02  0.67170318099E+02  0.11345826926E+03  0.41800000000E+01 0.  1.
</event>
<event>
11    1  0.6763327E-009  0.2176249E+03  0.7561462E-02  0.1042716E+00
         22   -1    0    0    0    0  0.00000000000E+00  0.00000000000E+00  0.44875866925E+03  0.44875866925E+03  0.00000000000E+00 0.  1.
         22   -1    0    0    0    0 -0.00000000000E+00 -0.00000000000E+00 -0.45510006184E+03  0.45510006184E+03  0.00000000000E+00 0. -1.
         24    2    1    2    0    0  0.58367469910E+02 -0.51990521435E+02 -0.33922405402E+03  0.35716110430E+03  0.79883163033E+02 0.  0.
         25    2    1    2    0    0  0.12509070758E+02 -0.13778833348E+03  0.59162730733E+02  0.19567860719E+03  0.12509111444E+03 0.  0.
        -24    2    1    2    0    0 -0.70876540667E+02  0.18977885491E+03  0.27371993069E+03  0.35101901960E+03  0.85160166010E+02 0.  0.
        -13    1    3    3    0    0  0.62946065524E+02 -0.10193624052E+02 -0.14442076396E+03  0.15787170170E+03  0.00000000000E+00 0.  1.
         14    1    3    3    0    0 -0.45785956142E+01 -0.41796897383E+02 -0.19480329006E+03  0.19928940260E+03  0.00000000000E+00 0. -1.
         13    1    5    5    0    0  0.10545963486E+02  0.40332426953E+02  0.97480749148E+02  0.10602083976E+03  0.00000000000E+00 0. -1.
        -14    1    5    5    0    0 -0.81422504154E+02  0.14944642796E+03  0.17623918155E+03  0.24499817984E+03  0.00000000000E+00 0.  1.
          5    1    4    4  501    0  0.23036491448E+02 -0.81053209097E+02  0.95445725317E+02  0.12738783900E+03  0.41800000000E+01 0. -1.
         -5    1    4    4    0  501 -0.10527420690E+02 -0.56735124380E+02 -0.36282994584E+02  0.68290768196E+02  0.41800000000E+01 0. -1.
</event>
<event>
11    1  0.6763327E-009  0.1466841E+03  0.7561462E-02  0.1100316E+00
         22   -1    0    0    0    0  0.00000000000E+00  0.00000000000E+00  0.87127522592E+03  0.87127522592E+03  0.00000000000E+00 0. -1.
         22   -1    0    0    0    0 -0.00000000000E+00 -0.00000000000E+00 -0.10042997655E+04  0.10042997655E+04  0.00000000000E+00 0.  1.
        -24    2    1    2    0    0 -0.67908723371E+02  0.34078920791E+02 -0.87778097019E+03  0.88471325681E+03  0.80281676514E+02 0.  0.
         25    2    1    2    0    0  0.68635723499E+02 -0.53083671786E+02 -0.73100838800E+02  0.16887865308E+03  0.12509007986E+03 0.  0.
         24    2    1    2    0    0 -0.72700012836E+00  0.19004750995E+02  0.81785726937E+03  0.82198308157E+03  0.80024772659E+02 0.  0.
        -11    1    5    5    0    0 -0.19408500196E+01  0.43730116754E+02  0.26655189101E+03  0.27012219570E+03  0.00000000000E+00 0.  1.
         12    1    5    5    0    0  0.12138498912E+01 -0.24725365760E+02  0.55130537836E+03  0.55186088587E+03  0.00000000000E+00 0. -1.
         13    1    3    3    0    0 -0.67331963698E+00 -0.10234854332E+02 -0.14935131537E+02  0.18118050573E+02  0.00000000000E+00 0. -1.
        -14    1    3    3    0    0 -0.67235403734E+02  0.44313775123E+02 -0.86284583866E+03  0.86659520623E+03  0.00000000000E+00 0.  1.
          5    1    4    4  501    0  0.15566909751E+02  0.40029315761E+02 -0.33181792801E+02  0.54435085864E+02  0.41800000000E+01 0.  1.
         -5    1    4    4    0  501  0.53068813748E+02 -0.93112987547E+02 -0.39919045999E+02  0.11444356721E+03  0.41800000000E+01 0.  1.
</event>
<event>
11    1  0.6763327E-009  0.3162778E+03  0.7561462E-02  0.9935281E-01
         22   -1    0    0    0    0  0.00000000000E+00  0.00000000000E+00  0.24631405227E+04  0.24631405227E+04  0.00000000000E+00 0. -1.
         22   -1    0    0    0    0 -0.00000000000E+00 -0.00000000000E+00 -0.11833381806E+03  0.11833381806E+03  0.00000000000E+00 0. -1.
        -24    2    1    2    0    0 -0.44552624489E+02 -0.10296400460E+03 -0.62506885006E+02  0.15347302353E+03  0.84025803695E+02 0.  0.
         25    2    1    2    0    0  0.62803702833E+01 -0.85804739582E+01  0.50629044514E+03  0.52162310429E+03  0.12509028940E+03 0.  0.
         24    2    1    2    0    0  0.38272254205E+02  0.11154447856E+03  0.19010231446E+04  0.19063782130E+04  0.80510612178E+02 0.  0.
        -11    1    5    5    0    0  0.45640067665E+02  0.57285465929E+02  0.64193912680E+03  0.64610408055E+03  0.00000000000E+00 0.  1.
         12    1    5    5    0    0 -0.73678134597E+01  0.54259012627E+02  0.12590840178E+04  0.12602741324E+04  0.00000000000E+00 0. -1.
         13    1    3    3    0    0 -0.68227629999E+02 -0.87187720934E+02 -0.42027850211E+02  0.11841895275E+03  0.00000000000E+00 0. -1.
        -14    1    3    3    0    0  0.23675005510E+02 -0.15776283664E+02 -0.20479034794E+02  0.35054070780E+02  0.00000000000E+00 0.  1.
          5    1    4    4  501    0  0.61816846228E+02 -0.25182575044E+02  0.24650686705E+03  0.25541846540E+03  0.41800000000E+01 0. -1.
         -5    1    4    4    0  501 -0.55536475945E+02  0.16602101086E+02  0.25978357809E+03  0.26620463889E+03  0.41800000000E+01 0. -1.
</event>
<event>
11    1  0.6763327E-009  0.1344707E+03  0.7561462E-02  0.1113895E+00
         22   -1    0    0    0    0  0.00000000000E+00  0.00000000000E+00  0.94665640543E+03  0.94665640543E+03  0.00000000000E+00 0.  1.
         22   -1    0    0    0    0 -0.00000000000E+00 -0.00000000000E+00 -0.76318233154E+03  0.76318233154E+03  0.00000000000E+00 0. -1.
         24    2    1    2    0    0  0.74619686792E+01 -0.37869077122E+02 -0.74457898378E+03  0.75021984871E+03  0.83319927612E+02 0.  0.
         25    2    1    2    0    0  0.42158910874E+02  0.14508390574E+02  0.37200955869E+03  0.39500034318E+03  0.12508513977E+03 0.  0.
        -24    2    1    2    0    0 -0.49620879554E+02  0.23360686548E+02  0.55604349898E+03  0.56461854509E+03  0.81251309743E+02 0.  0.
        -11    1    3    3    0    0 -0.13004642107E+02  0.13683425858E+02 -0.50249089777E+02  0.53678001854E+02  0.00000000000E+00 0.  1.
         12    1    3    3    0    0  0.20466610786E+02 -0.51552502979E+02 -0.69432989400E+03  0.69654184686E+03  0.00000000000E+00 0. -1.
         13    1    5    5    0    0 -0.27510534601E+01  0.49524878870E+01 -0.60463126930E+00  0.56974564836E+01  0.00000000000E+00 0. -1.
        -14    1    5    5    0    0 -0.46869826093E+02  0.18408198661E+02  0.55664813025E+03  0.55892108860E+03  0.00000000000E+00 0.  1.
          5    1    4    4  501    0  0.85498419418E+02  0.46071435594E+01  0.20681675776E+03  0.22387909502E+03  0.41800000000E+01 0.  1.
         -5    1    4    4    0  501 -0.43339508544E+02  0.99012470147E+01  0.16519280093E+03  0.17112124816E+03  0.41800000000E+01 0.  1.
</event>
<event>
11    1  0.6763327E-009  0.1365684E+03  0.7561462E-02  0.1111452E+00
         22   -1    0    0    0    0  0.00000000000E+00  0.00000000000E+00  0.49558170710E+02  0.49558170710E+02  0.00000000000E+00 0. -1.
         22   -1    0    0    0    0 -0.00000000000E+00 -0.00000000000E+00 -0.10624379028E+04  0.10624379028E+04  0.00000000000E+00 0.  1.
        -24    2    1    2    0    0 -0.86721454485E+01  0.23248098309E+02 -0.74257476740E+03  0.74720719160E+03  0.79281913558E+02 0.  0.
         25    2    1    2    0    0  0.45664072722E+02  0.21377122084E+02 -0.20782535337E+03  0.24775113688E+03  0.12508820662E+03 0.  0.
         24    2    1    2    0    0 -0.36991927273E+02 -0.44625220392E+02 -0.62479611286E+02  0.11703774500E+03  0.80214206656E+02 0.  0.
        -11    1    5    5    0    0  0.13944762285E+02 -0.45903680530E+02 -0.31911095329E+02  0.57618766790E+02  0.00000000000E+00 0.  1.
         12    1    5    5    0    0 -0.50936689558E+02  0.12784601377E+01 -0.30568515958E+02  0.59418978208E+02  0.00000000000E+00 0. -1.
         11    1    3    3    0    0 -0.27899491469E+02  0.20047746568E+02 -0.13444400839E+03  0.13876413499E+03  0.00000000000E+00 0. -1.
        -12    1    3    3    0    0  0.19227346020E+02  0.32003517403E+01 -0.60813075901E+03  0.60844305661E+03  0.00000000000E+00 0.  1.
          5    1    4    4  501    0 -0.91123848961E+01  0.62591649440E+02 -0.12501804372E+03  0.14017037417E+03  0.41800000000E+01 0. -1.
         -5    1    4    4    0  501  0.54776457618E+02 -0.41214527356E+02 -0.82807309647E+02  0.10758076271E+03  0.41800000000E+01 0. -1.
</event>
<event>
11    1  0.6763327E-009  0.1361560E+03  0.7561462E-02  0.1111928E+00
         22   -1    0    0    0    0  0.00000000000E+00  0.00000000000E+00  0.87893402970E+03  0.87893402970E+03  0.00000000000E+00 0.  1.
         22   -1    0    0    0    0 -0.00000000000E+00 -0.00000000000E+00 -0.33653009366E+03  0.33653009366E+03  0.00000000000E+00 0. -1.
         24    2    1    2    0    0  0.44836666041E+02 -0.51622254288E+02 -0.18011467305E+03  0.20883900337E+03  0.80605521635E+02 0.  0.
         25    2    1    2    0    0 -0.20131412730E+02  0.14423670938E+02 -0.11049519786E+03  0.16872659769E+03  0.12508461118E+03 0.  0.
        -24    2    1    2    0    0 -0.24705253311E+02  0.37198583350E+02  0.83301380695E+03  0.83789852230E+03  0.78535641338E+02 0.  0.
        -13    1    3    3    0    0 -0.14902987846E+02 -0.42213703904E+02 -0.67143443187E+02  0.80699057040E+02  0.00000000000E+00 0.  1.
         14    1    3    3    0    0  0.59739653887E+02 -0.94085503839E+01 -0.11297122987E+03  0.12813994633E+03  0.00000000000E+00 0. -1.
         11    1    5    5    0    0  0.44840536696E+00 -0.13038696354E+02  0.27606575131E+02  0.30534106511E+02  0.00000000000E+00 0. -1.
        -12    1    5    5    0    0 -0.25153658678E+02  0.50237279704E+02  0.80540723182E+03  0.80736441579E+03  0.00000000000E+00 0.  1.
          5    1    4    4  501    0  0.18528507888E+02  0.60579466608E+02 -0.36470793734E+02  0.73217269648E+02  0.41800000000E+01 0.  1.
         -5    1    4    4    0  501 -0.38659920618E+02 -0.46155795671E+02 -0.74024404127E+02  0.95509328040E+02  0.41800000000E+01 0.  1.
</event>
<event>
11    1  0.6763327E-009  0.1482851E+03  0.7561462E-02  0.1098644E+00
         22   -1    0    0    0    0  0.00000000000E+00  0.00000000000E+00  0.79591836776E+03  0.79591836776E+03  0.00000000000E+00 0. -1.
         22   -1    0    0    0    0 -0.00000000000E+00 -0.00000000000E+00 -0.12760013305E+03  0.12760013305E+03  0.00000000000E+00 0. -1.
        -24    2    1    2    0    0 -0.78211785080E+02  0.43275373057E+02 -0.40891756453E+02  0.12699212574E+03  0.80405366837E+02 0.  0.
         25    2    1    2    0    0  0.46107509144E+02 -0.27800991091E+02  0.73137001833E+02  0.15458363942E+03  0.12509309746E+03 0.  0.
         24    2    1    2    0    0  0.32104275936E+02 -0.15474381966E+02  0.63607298933E+03  0.64194273565E+03  0.78939768617E+02 0.  0.
        -13    1    5    5    0    0  0.54835122003E+02 -0.19637546238E+02  0.33856652569E+03  0.34354012305E+03  0.00000000000E+00 0.  1.
         14    1    5    5    0    0 -0.22730846067E+02  0.41631642716E+01  0.29750646364E+03  0.29840261260E+03  0.00000000000E+00 0. -1.
         13    1    3    3    0    0 -0.94017242333E+01 -0.63003963244E+00 -0.44305638557E+02  0.45296566939E+02  0.00000000000E+00 0. -1.
        -14    1    3    3    0    0 -0.68810060847E+02  0.43905412690E+02  0.34138821045E+01  0.81695558804E+02  0.00000000000E+00 0.  1.
          5    1    4    4  501    0  0.66173952971E+02 -0.64109202126E+02  0.62942193628E+02  0.11166097791E+03  0.41800000000E+01 0.  1.
         -5    1    4    4    0  501 -0.20066443826E+02  0.36308211035E+02  0.10194808205E+02  0.42922661506E+02  0.41800000000E+01 0.  1.
</event>
<event>
11    1  0.6763327E-009  0.1425458E+03  0.7561462E-02  0.1104748E+00
         22   -1    0    0    0    0  0.00000000000E+00  0.00000000000E+00  0.59069336248E+03  0.59069336248E+03  0.00000000000E+00 0.  1.
         22   -1    0    0    0    0 -0.00000000000E+00 -0.00000000000E+00 -0.20616719562E+04  0.20616719562E+04  0.00000000000E+00 0.  1.
        -24    2    1    2    0    0 -0.40216943579E+02 -0.35433539308E+01 -0.18519812668E+04  0.18541706965E+04  0.80525781495E+02 0.  0.
         25    2    1    2    0    0  0.75432974270E+02  0.61439650827E+02 -0.17274636088E+03  0.23442394630E+03  0.12509323363E+03 0.  0.
         24    2    1    2    0    0 -0.35216030691E+02 -0.57896296896E+02  0.55374903391E+03  0.56377067588E+03  0.81284884278E+02 0.  0.
        -13    1    5    5    0    0 -0.35535680236E+00 -0.59360201793E+02  0.45860129191E+03  0.46242718862E+03  0.00000000000E+00 0.  1.
         14    1    5    5    0    0 -0.34860673889E+02  0.14639048969E+01  0.95147741998E+02  0.10134348725E+03  0.00000000000E+00 0. -1.
         11    1    3    3    0    0  0.23091931152E+02 -0.39756828379E+01 -0.30704998975E+03  0.30794275368E+03  0.00000000000E+00 0. -1.
        -12    1    3    3    0    0 -0.63308874731E+02  0.43232890704E+00 -0.15449312770E+04  0.15462279429E+04  0.00000000000E+00 0.  1.
          5    1    4    4  501    0  0.79083736301E+02  0.95346439645E+02 -0.13070570328E+03  0.18012949279E+03  0.41800000000E+01 0. -1.
         -5    1    4    4    0  501 -0.36507620314E+01 -0.33906788818E+02 -0.42040657600E+02  0.54294453518E+02  0.41800000000E+01 0. -1.
</event>
<event>
11    1  0.6763327E-009  0.1531747E+03  0.7561462E-02  0.1093678E+00
         22   -1    0    0    0    0  0.00000000000E+00  0.00000000000E+00  0.19438664412E+04  0.19438664412E+04  0.00000000000E+00 0. -1.
         22   -1    0    0    0    0 -0.00000000000E+00 -0.00000000000E+00 -0.19097079695E+03  0.19097079695E+03  0.00000000000E+00 0. -1.
         24    2    1    2    0    0 -0.95045622386E+02  0.19454527343E+02 -0.90708925999E+02  0.15495742140E+03  0.79821953256E+02 0.  0.
         25    2    1    2    0    0  0.63724795433E+02 -0.27022657344E+02  0.90867079708E+01  0.14321886788E+03  0.12505199835E+03 0.  0.
        -24    2    1    2    0    0  0.31320826952E+02  0.75681300014E+01  0.18345178622E+04  0.18366609488E+04  0.82640082833E+02 0.  0.
        -11    1    3    3    0    0 -0.25377964749E+02  0.74038749988E+00  0.13081101785E+02  0.28560540828E+02  0.00000000000E+00 0.  1.
         12    1    3    3    0    0 -0.69667657636E+02  0.18714139843E+02 -0.10379002778E+03  0.12639688057E+03  0.00000000000E+00 0. -1.
         11    1    5    5    0    0  0.31724437989E+02 -0.63575344212E+01  0.17829736284E+04  0.17832671751E+04  0.00000000000E+00 0. -1.
        -12    1    5    5    0    0 -0.40361103657E+00  0.13925664423E+02  0.51544233867E+02  0.53393773761E+02  0.00000000000E+00 0.  1.
          5    1    4    4  501    0  0.40761104575E+02  0.42612200471E+02 -0.22524499987E+02  0.63262095877E+02  0.41800000000E+01 0. -1.
         -5    1    4    4    0  501  0.22963690859E+02 -0.69634857815E+02  0.31611207958E+02  0.79956772004E+02  0.41800000000E+01 0. -1.
</event>
<event>
11    1  0.6763327E-009  0.1497599E+03  0.7561462E-02  0.1097124E+00
         22   -1    0    0    0    0  0.00000000000E+00  0.00000000000E+00  0.18861848537E+03  0.18861848537E+03  0.00000000000E+00 0. -1.
         22   -1    0    0    0    0 -0.00000000000E+00 -0.00000000000E+00 -0.98415010510E+03  0.98415010510E+03  0.00000000000E+00 0. -1.
         24    2    1    2    0    0  0.18871369061E+01 -0.36136386741E+01 -0.83282256896E+03  0.83668164713E+03  0.80163131274E+02 0.  0.
         25    2    1    2    0    0  0.80123069102E+02 -0.66439596650E+01 -0.86961880603E+02  0.17226103013E+03  0.12509054889E+03 0.  0.
        -24    2    1    2    0    0 -0.82010206008E+02  0.10257598339E+02  0.12425282983E+03  0.16382591321E+03  0.67596389737E+02 0.  0.
        -13    1    3    3    0    0  0.23063901171E+02 -0.22414585924E+02 -0.15670473917E+03  0.15997103637E+03  0.00000000000E+00 0.  1.
         14    1    3    3    0    0 -0.21176764265E+02  0.18800947250E+02 -0.67611782979E+03  0.67671061076E+03  0.00000000000E+00 0. -1.
         13    1    5    5    0    0 -0.82185934495E+02  0.63874963541E+01  0.66418341769E+02  0.10586181588E+03  0.00000000000E+00 0. -1.
        -14    1    5    5    0    0  0.17572848612E+00  0.38701019850E+01  0.57834488063E+02  0.57964097331E+02  0.00000000000E+00 0.  1.
          5    1    4    4  501    0 -0.31790254801E+02 -0.15888081059E+02 -0.14865970488E+02  0.38749463204E+02  0.41800000000E+01 0.  1.
         -5    1    4    4    0  501  0.11191332390E+03  0.92441213935E+01 -0.72095910115E+02  0.13351156693E+03  0.41800000000E+01 0.  1.
</event>
<event>
11    1  0.6763327E-009  0.1408955E+03  0.7561462E-02  0.1106562E+00
         22   -1    0    0    0    0  0.00000000000E+00  0.00000000000E+00  0.54540664860E+03  0.54540664860E+03  0.00000000000E+00 0.  1.
         22   -1    0    0    0    0 -0.00000000000E+00 -0.00000000000E+00 -0.31994730750E+04  0.31994730750E+04  0.00000000000E+00 0.  1.
         24    2    1    2    0    0  0.40191407454E+02  0.50015806541E+02 -0.29036451505E+04  0.29054799080E+04  0.80878955401E+02 0.  0.
         25    2    1    2    0    0 -0.61715497167E+02 -0.51557240283E+02 -0.27267547093E+03  0.31058897678E+03  0.12508656375E+03 0.  0.
        -24    2    1    2    0    0  0.21524089713E+02  0.15414337421E+01  0.52225419507E+03  0.52881083881E+03  0.80161066114E+02 0.  0.
        -11    1    3    3    0    0 -0.11477805774E+01  0.23259551141E+02 -0.21960185882E+04  0.21961420637E+04  0.00000000000E+00 0.  1.
         12    1    3    3    0    0  0.41339188031E+02  0.26756255400E+02 -0.70762656236E+03  0.70933784435E+03  0.00000000000E+00 0. -1.
         11    1    5    5    0    0 -0.30600653941E+02  0.10994797928E+00  0.17301982002E+03  0.17570506603E+03  0.00000000000E+00 0. -1.
        -12    1    5    5    0    0  0.52124743654E+02  0.14314857628E+01  0.34923437505E+03  0.35310577278E+03  0.00000000000E+00 0.  1.
          5    1    4    4  501    0 -0.89301354103E+01 -0.44064177165E+02 -0.15238199193E+02  0.47655788130E+02  0.41800000000E+01 0. -1.
         -5    1    4    4    0  501 -0.52785361756E+02 -0.74930631180E+01 -0.25743727174E+03  0.26293318865E+03  0.41800000000E+01 0. -1.
</event>
<event>
11    1  0.6763327E-009  0.1313868E+03  0.7561462E-02  0.1117577E+00
         22   -1    0    0    0    0  0.00000000000E+00  0.00000000000E+00  0.16871443652E+03  0.16871443652E+03  0.00000000000E+00 0. -1.
         22   -1    0    0    0    0 -0.00000000000E+00 -0.00000000000E+00 -0.73770230999E+03  0.73770230999E+03  0.00000000000E+00 0. -1.
         24    2    1    2    0    0  0.10818713018E+02 -0.19136231287E+02 -0.49918212058E+03  0.50642236365E+03  0.82447443875E+02 0.  0.
         25    2    1    2    0    0 -0.47888820827E+02  0.31954533674E+02 -0.19989472375E+03  0.24273430887E+03  0.12509041825E+03 0.  0.
        -24    2    1    2    0    0  0.37070107809E+02 -0.12818302387E+02  0.13008897086E+03  0.15726007398E+03  0.79177577388E+02 0.  0.
        -13    1    3    3    0    0  0.35392292300E+02  0.11265100001E+02 -0.13077486215E+03  0.13594698012E+03  0.00000000000E+00 0.  1.
         14    1    3    3    0    0 -0.24573579282E+02 -0.30401331288E+02 -0.36840725843E+03  0.37047538353E+03  0.00000000000E+00 0. -1.
         11    1    5    5    0    0 -0.92952394917E+01 -0.32366700853E+02  0.29420190202E+02  0.44716354870E+02  0.00000000000E+00 0. -1.
        -12    1    5    5    0    0  0.46365347301E+02  0.19548398466E+02  0.10066878066E+03  0.11254371911E+03  0.00000000000E+00 0.  1.
          5    1    4    4  501    0 -0.87000523720E+02  0.32767050866E+02 -0.16814017509E+03  0.19217534084E+03  0.41800000000E+01 0. -1.
         -5    1    4    4    0  501  0.39111702893E+02 -0.81251719203E+00 -0.31754548667E+02  0.50558968031E+02  0.41800000000E+01 0. -1.
</event>
<event>
11    1  0.6763327E-009  0.1320951E+03  0.7561462E-02  0.1116721E+00
         22   -1    0    0    0    0  0.00000000000E+00  0.00000000000E+00  0.44696667545E+03  0.44696667545E+03  0.00000000000E+00 0. -1.
         22   -1    0    0    0    0 -0.00000000000E+00 -0.00000000000E+00 -0.22650030805E+04  0.22650030805E+04  0.00000000000E+00 0.  1.
         24    2    1    2    0    0 -0.49803062089E+01  0.42194701112E+02 -0.22268276666E+04  0.22286833700E+04  0.80392231794E+02 0.  0.
         25    2    1    2    0    0  0.25529656934E+02 -0.34052185257E+02  0.10621698814E+03  0.16953021614E+03  0.12508849232E+03 0.  0.
        -24    2    1    2    0    0 -0.20549350725E+02 -0.81425158550E+01  0.30257427339E+03  0.31375616979E+03  0.80019789945E+02 0.  0.
        -13    1    3    3    0    0 -0.15587607697E+02  0.34601408112E+02 -0.21717641389E+04  0.21720956944E+04  0.00000000000E+00 0.  1.
         14    1    3    3    0    0  0.10607301488E+02  0.75932929998E+01 -0.55063527696E+02  0.56587675565E+02  0.00000000000E+00 0. -1.
         11    1    5    5    0    0  0.18393712658E+02 -0.18115198508E+02  0.22412370753E+03  0.22560568556E+03  0.00000000000E+00 0. -1.
        -12    1    5    5    0    0 -0.38943063383E+02  0.99726826527E+01  0.78450565860E+02  0.88150484223E+02  0.00000000000E+00 0.  1.
          5    1    4    4  501    0  0.35066119754E+02  0.42246325766E+02  0.41724136046E+02  0.69085170074E+02  0.41800000000E+01 0.  1.
         -5    1    4    4    0  501 -0.95364628206E+01 -0.76298511023E+02  0.64492852091E+02  0.10044504606E+03  0.41800000000E+01 0.  1.
</event>
<event>
11    1  0.6763327E-009  0.2310655E+03  0.7561462E-02  0.1034499E+00
         22   -1    0    0    0    0  0.00000000000E+00  0.00000000000E+00  0.11569720156E+04  0.11569720156E+04  0.00000000000E+00 0. -1.
         22   -1    0    0    0    0 -0.00000000000E+00 -0.00000000000E+00 -0.88419028332E+02  0.88419028332E+02  0.00000000000E+00 0.  1.
         24    2    1    2    0    0 -0.10782363363E+03 -0.24422869068E+02  0.95004719247E+02  0.16672935401E+03  0.80934345662E+02 0.  0.
         25    2    1    2    0    0 -0.95570251458E+02 -0.12379036396E+03  0.43414513793E+03  0.47810743841E+03  0.12508794789E+03 0.  0.
        -24    2    1    2    0    0  0.20339388509E+03  0.14821323303E+03  0.53940313014E+03  0.60055425155E+03  0.79833810615E+02 0.  0.
        -13    1    3    3    0    0 -0.39396680922E+02 -0.42608076900E+02  0.15087283045E+02  0.59959759793E+02  0.00000000000E+00 0.  1.
         14    1    3    3    0    0 -0.68426952708E+02  0.18185207832E+02  0.79917436202E+02  0.10676959422E+03  0.00000000000E+00 0. -1.
         11    1    5    5    0    0  0.91011715084E+02  0.11312189899E+03  0.32491208736E+03  0.35587576600E+03  0.00000000000E+00 0. -1.
        -12    1    5    5    0    0  0.11238217000E+03  0.35091334037E+02  0.21449104278E+03  0.24467848555E+03  0.00000000000E+00 0.  1.
          5    1    4    4  501    0 -0.11787782194E+03 -0.93066564051E+02  0.26430533763E+03  0.30402524591E+03  0.41800000000E+01 0.  1.
         -5    1    4    4    0  501  0.22307570486E+02 -0.30723799906E+02  0.16983980030E+03  0.17408219250E+03  0.41800000000E+01 0.  1.
</event>
<event>
11    1  0.6763327E-009  0.1522984E+03  0.7561462E-02  0.1094553E+00
         22   -1    0    0    0    0  0.00000000000E+00  0.00000000000E+00  0.58286356488E+03  0.58286356488E+03  0.00000000000E+00 0.  1.
         22   -1    0    0    0    0 -0.00000000000E+00 -0.00000000000E+00 -0.22094728872E+03  0.22094728872E+03  0.00000000000E+00 0.  1.
        -24    2    1    2    0    0  0.38019676139E+02 -0.61777107760E+02 -0.79532451911E+02  0.13521452941E+03  0.81826959130E+02 0.  0.
         25    2    1    2    0    0 -0.94069202178E+02  0.86703171925E+02 -0.33896267345E+02  0.18210620834E+03  0.12508900573E+03 0.  0.
         24    2    1    2    0    0  0.56049526038E+02 -0.24926064165E+02  0.47534499542E+03  0.48649011585E+03  0.83408093760E+02 0.  0.
        -13    1    5    5    0    0  0.60352269423E+02 -0.46323634695E+01  0.44848781450E+03  0.45255405751E+03  0.00000000000E+00 0.  1.
         14    1    5    5    0    0 -0.43027433842E+01 -0.20293700695E+02  0.26857180922E+02  0.33936058340E+02  0.00000000000E+00 0. -1.
         13    1    3    3    0    0  0.72957761075E+01 -0.11741648097E+02  0.17194003812E+02  0.22061922313E+02  0.00000000000E+00 0. -1.
        -14    1    3    3    0    0  0.30723900032E+02 -0.50035459663E+02 -0.96726455723E+02  0.11315260710E+03  0.00000000000E+00 0.  1.
          5    1    4    4  501    0  0.25887133224E+02 -0.61402853816E+01 -0.17228580898E+01  0.26986800683E+02  0.41800000000E+01 0. -1.
         -5    1    4    4    0  501 -0.11995633540E+03  0.92843457307E+02 -0.32173409256E+02  0.15511940765E+03  0.41800000000E+01 0. -1.
</event>
<event>
11    1  0.6763327E-009  0.1375948E+03  0.7561462E-02  0.1110274E+00
         22   -1    0    0    0    0  0.00000000000E+00  0.00000000000E+00  0.14207298009E+04  0.14207298009E+04  0.00000000000E+00 0. -1.
         22   -1    0    0    0    0 -0.00000000000E+00 -0.00000000000E+00 -0.28772320799E+03  0.28772320799E+03  0.00000000000E+00 0. -1.
         24    2    1    2    0    0  0.52803687529E+02  0.26235387769E+02 -0.24358045056E+03  0.26355867357E+03  0.81579492086E+02 0.  0.
         25    2    1    2    0    0 -0.44410480566E+01 -0.61136867259E+02  0.11832809048E+03  0.18276998270E+03  0.12508353263E+03 0.  0.
        -24    2    1    2    0    0 -0.48362639472E+02  0.34901479490E+02  0.12582589530E+04  0.12621243526E+04  0.78646236597E+02 0.  0.
        -11    1    3    3    0    0  0.24040406342E+02  0.29297090383E+01 -0.86305711308E+01  0.25710135943E+02  0.00000000000E+00 0.  1.
         12    1    3    3    0    0  0.28763281186E+02  0.23305678730E+02 -0.23494987943E+03  0.23784853763E+03  0.00000000000E+00 0. -1.
         11    1    5    5    0    0  0.11856491331E+02  0.25211299388E+02  0.69785873826E+03  0.69841463657E+03  0.00000000000E+00 0. -1.
        -12    1    5    5    0    0 -0.60219130803E+02  0.96901801020E+01  0.56040021476E+03  0.56370971608E+03  0.00000000000E+00 0.  1.
          5    1    4    4  501    0 -0.47447071630E+02  0.28629438059E+01  0.87417781948E+02  0.99592981952E+02  0.41800000000E+01 0. -1.
         -5    1    4    4    0  501  0.43006023574E+02 -0.63999811065E+02  0.30910308528E+02  0.83177000747E+02  0.41800000000E+01 0. -1.
</event>
<event>
11    1  0.6763327E-009  0.1400918E+03  0.7561462E-02  0.1107456E+00
         22   -1    0    0    0    0  0.00000000000E+00  0.00000000000E+00  0.59203364931E+03  0.59203364931E+03  0.00000000000E+00 0. -1.
         22   -1    0    0    0    0 -0.00000000000E+00 -0.00000000000E+00 -0.57232500443E+03  0.57232500443E+03  0.00000000000E+00 0. -1.
         24    2    1    2    0    0 -0.31721674616E+02  0.55438961459E+02 -0.53268184399E+03  0.54213425142E+03  0.77973434936E+02 0.  0.
         25    2    1    2    0    0  0.16496409239E+02 -0.36076672418E+02  0.10856451225E+03  0.17031522714E+03  0.12508942987E+03 0.  0.
        -24    2    1    2    0    0  0.15225265376E+02 -0.19362289041E+02  0.44382597661E+03  0.45190917518E+03  0.81447517773E+02 0.  0.
        -13    1    3    3    0    0  0.89059236342E+01  0.47696952721E+02 -0.16084217099E+03  0.16800154387E+03  0.00000000000E+00 0.  1.
         14    1    3    3    0    0 -0.40627598250E+02  0.77420087385E+01 -0.37183967300E+03  0.37413270755E+03  0.00000000000E+00 0. -1.
         11    1    5    5    0    0  0.41970003605E+02  0.10240839986E+02  0.27892634023E+03  0.28225212006E+03  0.00000000000E+00 0. -1.
        -12    1    5    5    0    0 -0.26744738228E+02 -0.29603129027E+02  0.16489963639E+03  0.16965705512E+03  0.00000000000E+00 0.  1.
          5    1    4    4  501    0 -0.23771869250E+02 -0.33349262350E+02 -0.12183098680E+02  0.42932218209E+02  0.41800000000E+01 0. -1.
         -5    1    4    4    0  501  0.40268278489E+02 -0.27274100678E+01  0.12074761093E+03  0.12738300893E+03  0.41800000000E+01 0. -1.
</event>
<event>
11    1  0.6763327E-009  0.1820281E+03  0.7561462E-02  0.1068014E+00
         22   -1    0    0    0    0  0.00000000000E+00  0.00000000000E+00  0.41855227632E+03  0.41855227632E+03  0.00000000000E+00 0.  1.
         22   -1    0    0    0    0 -0.00000000000E+00 -0.00000000000E+00 -0.36311557893E+03  0.36311557893E+03  0.00000000000E+00 0.  1.
         24    2    1    2    0    0 -0.13373456584E+02  0.26260023213E+02 -0.18532521242E+03  0.20407326694E+03  0.80199911230E+02 0.  0.
         25    2    1    2    0    0  0.12760050616E+03  0.40637990879E+02 -0.96533421814E+02  0.20712267703E+03  0.12509103221E+03 0.  0.
        -24    2    1    2    0    0 -0.11422704957E+03 -0.66898014092E+02  0.33729533162E+03  0.37047191128E+03  0.77188944638E+02 0.  0.
        -13    1    3    3    0    0 -0.27693523254E+02  0.76159898619E+01 -0.17672032355E+03  0.17903912223E+03  0.00000000000E+00 0.  1.
         14    1    3    3    0    0  0.14320066670E+02  0.18644033351E+02 -0.86048888666E+01  0.25034144712E+02  0.00000000000E+00 0. -1.
         11    1    5    5    0    0 -0.17418157617E+02 -0.40907273697E+02  0.16746748148E+03  0.17326902380E+03  0.00000000000E+00 0. -1.
        -12    1    5    5    0    0 -0.96808891956E+02 -0.25990740395E+02  0.16982785014E+03  0.19720288748E+03  0.00000000000E+00 0.  1.
          5    1    4    4  501    0  0.11010271528E+03 -0.16786243177E+02 -0.95759678307E+02  0.14694139737E+03  0.41800000000E+01 0.  1.
         -5    1    4    4    0  501  0.17497790878E+02  0.57424234055E+02 -0.77374350745E+00  0.60181279659E+02  0.41800000000E+01 0.  1.
</event>
<event>
11    1  0.6763327E-009  0.1630323E+03  0.7561462E-02  0.1084259E+00
         22   -1    0    0    0    0  0.00000000000E+00  0.00000000000E+00  0.55904634305E+03  0.55904634305E+03  0.00000000000E+00 0.  1.
         22   -1    0    0    0    0 -0.00000000000E+00 -0.00000000000E+00 -0.12388075831E+04  0.12388075831E+04  0.00000000000E+00 0.  1.
        -24    2    1    2    0    0 -0.86658224440E+00 -0.12088033836E+01 -0.11513751891E+04  0.11542072911E+04  0.80792527394E+02 0.  0.
         25    2    1    2    0    0  0.49018615186E+02 -0.91683076211E+02  0.96350848628E+01  0.16293799300E+03  0.12508934250E+03 0.  0.
         24    2    1    2    0    0 -0.48152032942E+02  0.92891879595E+02  0.46197886416E+03  0.48070864212E+03  0.81907314122E+02 0.  0.
        -11    1    5    5    0    0 -0.20736572750E+02  0.10156590478E+03  0.37727500259E+03  0.39125703322E+03  0.00000000000E+00 0.  1.
         12    1    5    5    0    0 -0.27415460191E+02 -0.86740251820E+01  0.84703861568E+02  0.89451608901E+02  0.00000000000E+00 0. -1.
         11    1    3    3    0    0  0.23991166679E+02 -0.58934969230E+01 -0.11973446434E+03  0.12225649813E+03  0.00000000000E+00 0. -1.
        -12    1    3    3    0    0 -0.24857748924E+02  0.46846935394E+01 -0.10316407248E+04  0.10319507929E+04  0.00000000000E+00 0.  1.
          5    1    4    4  501    0 -0.12883898942E+02 -0.62671102545E+02 -0.42445587970E+02  0.76894487997E+02  0.41800000000E+01 0. -1.
         -5    1    4    4    0  501  0.61902514128E+02 -0.29011973666E+02  0.52080672832E+02  0.86043505008E+02  0.41800000000E+01 0. -1.
</event>
<event>
11    1  0.6763327E-009  0.1594781E+03  0.7561462E-02  0.1087569E+00
         22   -1    0    0    0    0  0.00000000000E+00  0.00000000000E+00  0.11353944140E+03  0.11353944140E+03  0.00000000000E+00 0.  1.
         22   -1    0    0    0    0 -0.00000000000E+00 -0.00000000000E+00 -0.85310867226E+03  0.85310867226E+03  0.00000000000E+00 0. -1.
         24    2    1    2    0    0  0.77547729943E+02  0.68071388430E+01 -0.46912521047E+03  0.48213382911E+03  0.79464322260E+02 0.  0.
         25    2    1    2    0    0 -0.94833383010E+02 -0.10105788833E+03 -0.30288925638E+03  0.35580222613E+03  0.12508898897E+03 0.  0.
        -24    2    1    2    0    0  0.17285653067E+02  0.94250749485E+02  0.32445235986E+02  0.12871205843E+03  0.79574512671E+02 0.  0.
        -13    1    3    3    0    0  0.37586305538E+02  0.28398219324E+02 -0.10372408289E+03  0.11392047488E+03  0.00000000000E+00 0.  1.
         14    1    3    3    0    0  0.39961424405E+02 -0.21591080481E+02 -0.36540112758E+03  0.36821335423E+03  0.00000000000E+00 0. -1.
         13    1    5    5    0    0 -0.12706457544E+02 -0.97352739753E+01  0.73592394771E+01  0.17617832681E+02  0.00000000000E+00 0. -1.
        -14    1    5    5    0    0  0.29992110612E+02  0.10398602346E+03  0.25085996509E+02  0.11109422575E+03  0.00000000000E+00 0.  1.
          5    1    4    4  501    0 -0.72640901311E+02 -0.13057374064E+03 -0.23929456080E+03  0.28214457555E+03  0.41800000000E+01 0. -1.
         -5    1    4    4    0  501 -0.22192481700E+02  0.29515852313E+02 -0.63594695582E+02  0.73657650573E+02  0.41800000000E+01 0. -1.
</event>
<event>
11    1  0.6763327E-009  0.1324037E+03  0.7561462E-02  0.1116350E+00
         22   -1    0    0    0    0  0.00000000000E+00  0.00000000000E+00  0.17820013047E+04  0.17820013047E+04  0.00000000000E+00 0.  1.
         22   -1    0    0    0    0 -0.00000000000E+00 -0.00000000000E+00 -0.66555726739E+02  0.66555726739E+02  0.00000000000E+00 0. -1.
         24    2    1    2    0    0  0.68846265408E+01  0.36792932053E+02  0.67859926287E+02  0.11114089544E+03  0.79663110107E+02 0.  0.
         25    2    1    2    0    0  0.36334823496E+02 -0.30046236155E+02  0.58910813823E+02  0.14608835134E+03  0.12509327203E+03 0.  0.
        -24    2    1    2    0    0 -0.43219450037E+02 -0.67466958988E+01  0.15886748379E+04  0.15913277847E+04  0.80764713985E+02 0.  0.
        -11    1    3    3    0    0  0.23673509861E+02  0.37377361652E+02  0.79306262856E+02  0.90812915168E+02  0.00000000000E+00 0.  1.
         12    1    3    3    0    0 -0.16788883320E+02 -0.58442959864E+00 -0.11446336569E+02  0.20327980272E+02  0.00000000000E+00 0. -1.
         11    1    5    5    0    0 -0.31315355921E+02  0.10401103571E+02  0.21703395414E+03  0.21952806591E+03  0.00000000000E+00 0. -1.
        -12    1    5    5    0    0 -0.11904094116E+02 -0.17147799470E+02  0.13716408837E+04  0.13717997187E+04  0.00000000000E+00 0.  1.
          5    1    4    4  501    0 -0.16936879080E+01 -0.57210905516E+02 -0.14289789355E+02  0.59140736962E+02  0.41800000000E+01 0.  1.
         -5    1    4    4    0  501  0.38028511404E+02  0.27164669361E+02  0.73200603178E+02  0.86947614382E+02  0.41800000000E+01 0.  1.
</event>
<event>
11    1  0.6763327E-009  0.1823868E+03  0.7561462E-02  0.1067728E+00
         22   -1    0    0    0    0  0.00000000000E+00  0.00000000000E+00  0.47961891271E+03  0.47961891271E+03  0.00000000000E+00 0. -1.
         22   -1    0    0    0    0 -0.00000000000E+00 -0.00000000000E+00 -0.40476834413E+03  0.40476834413E+03  0.00000000000E+00 0. -1.
        -24    2    1    2    0    0 -0.21770422933E+02  0.19678520800E+02 -0.20005028287E+03  0.21616192845E+03  0.76450429290E+02 0.  0.
         25    2    1    2    0    0 -0.78515940861E+02  0.70406901343E+02 -0.14616564730E+03  0.21939179342E+03  0.12508588187E+03 0.  0.
         24    2    1    2    0    0  0.10028636379E+03 -0.90085422142E+02  0.42106649875E+03  0.44883353498E+03  0.77342147026E+02 0.  0.
        -13    1    5    5    0    0  0.34767349552E+00 -0.29889821686E+02  0.37727219957E+02  0.48133828468E+02  0.00000000000E+00 0.  1.
         14    1    5    5    0    0  0.99938690299E+02 -0.60195600457E+02  0.38333927879E+03  0.40069970651E+03  0.00000000000E+00 0. -1.
         13    1    3    3    0    0 -0.22862685868E+02  0.15199498543E+02 -0.20645392864E+03  0.20827134179E+03  0.00000000000E+00 0. -1.
        -14    1    3    3    0    0  0.10922629351E+01  0.44790222565E+01  0.64036457676E+01  0.78905866582E+01  0.00000000000E+00 0.  1.
          5    1    4    4  501    0 -0.98447282539E+02  0.72514840518E+02 -0.70923494023E+02  0.14141387463E+03  0.41800000000E+01 0.  1.
         -5    1    4    4    0  501  0.19931341678E+02 -0.21079391756E+01 -0.75242153274E+02  0.77977918784E+02  0.41800000000E+01 0.  1.
</event>
<event>
11    1  0.6763327E-009  0.1342658E+03  0.7561462E-02  0.1114136E+00
         22   -1    0    0    0    0  0.00000000000E+00  0.00000000000E+00  0.22409043372E+03  0.22409043372E+03  0.00000000000E+00 0.  1.
         22   -1    0    0    0    0 -0.00000000000E+00 -0.00000000000E+00 -0.23945379699E+03  0.23945379699E+03  0.00000000000E+00 0. -1.
         24    2    1    2    0    0 -0.32890353581E+02  0.24878604964E+02 -0.11184740457E+03  0.14379286655E+03  0.80410361381E+02 0.  0.
         25    2    1    2    0    0  0.50307354822E+02 -0.65394129598E+02 -0.39568479355E+02  0.15498581764E+03  0.12509083490E+03 0.  0.
        -24    2    1    2    0    0 -0.17417001240E+02  0.40515524634E+02  0.13605252066E+03  0.16476554652E+03  0.81807929150E+02 0.  0.
        -13    1    3    3    0    0  0.60072094105E+01  0.33583409715E+02 -0.11803163544E+02  0.36100507512E+02  0.00000000000E+00 0.  1.
         14    1    3    3    0    0 -0.38897562992E+02 -0.87048047508E+01 -0.10004424103E+03  0.10769235904E+03  0.00000000000E+00 0. -1.
         11    1    5    5    0    0 -0.28009368666E+02  0.41067426427E+01  0.55263337664E+01  0.28843204279E+02  0.00000000000E+00 0. -1.
        -12    1    5    5    0    0  0.10592367425E+02  0.36408781991E+02  0.13052618690E+03  0.13592234224E+03  0.00000000000E+00 0.  1.
          5    1    4    4  501    0  0.25611474656E+02 -0.77150516121E+02 -0.74554379271E+02  0.11038105653E+03  0.41800000000E+01 0.  1.
         -5    1    4    4    0  501  0.24695880166E+02  0.11756386523E+02  0.34985899916E+02  0.44604761115E+02  0.41800000000E+01 0.  1.
</event>
<event>
11    1  0.6763327E-009  0.1371665E+03  0.7561462E-02  0.1110764E+00
         22   -1    0    0    0    0  0.00000000000E+00  0.00000000000E+00  0.41048819372E+03  0.41048819372E+03  0.00000000000E+00 0.  1.
         22   -1    0    0    0    0 -0.00000000000E+00 -0.00000000000E+00 -0.37611809888E+03  0.37611809888E+03  0.00000000000E+00 0.  1.
        -24    2    1    2    0    0 -0.22047174278E+02  0.30772656590E+02 -0.31860531998E+03  0.33016443380E+03  0.77885615736E+02 0.  0.
         25    2    1    2    0    0  0.63339696952E+02 -0.59861177994E+02  0.90308836471E+02  0.17719773825E+03  0.12509226457E+03 0.  0.
         24    2    1    2    0    0 -0.41292522674E+02  0.29088521404E+02  0.26266657835E+03  0.27924412055E+03  0.80201826519E+02 0.  0.
        -13    1    5    5    0    0 -0.15208919906E+02 -0.20562789879E+02  0.16201279719E+03  0.16401916359E+03  0.00000000000E+00 0.  1.
         14    1    5    5    0    0 -0.26083602768E+02  0.49651311283E+02  0.10065378116E+03  0.11522495696E+03  0.00000000000E+00 0. -1.
         13    1    3    3    0    0 -0.19993417282E+02 -0.18410768427E+02 -0.48376495706E+02  0.55488543552E+02  0.00000000000E+00 0. -1.
        -14    1    3    3    0    0 -0.20537569951E+01  0.49183425017E+02 -0.27022882428E+03  0.27467589025E+03  0.00000000000E+00 0.  1.
          5    1    4    4  501    0  0.66632851043E+02  0.15854754630E+02  0.14932187689E+02  0.70226438837E+02  0.41800000000E+01 0. -1.
         -5    1    4    4    0  501 -0.32931540915E+01 -0.75715932625E+02  0.75376648782E+02  0.10697129942E+03  0.41800000000E+01 0. -1.
</event>
<event>
11    1  0.6763327E-009  0.1389095E+03  0.7561462E-02  0.1108782E+00
         22   -1    0    0    0    0  0.00000000000E+00  0.00000000000E+00  0.12244508231E+04  0.12244508231E+04  0.00000000000E+00 0.  1.
         22   -1    0    0    0    0 -0.00000000000E+00 -0.00000000000E+00 -0.19224664701E+03  0.19224664701E+03  0.00000000000E+00 0.  1.
        -24    2    1    2    0    0  0.43886290938E+02 -0.39951717703E+02 -0.15930963168E+03  0.18879146690E+03  0.82100626950E+02 0.  0.
         25    2    1    2    0    0 -0.63226363391E+02  0.59492661499E+02  0.35704643908E+03  0.38815937762E+03  0.12509433629E+03 0.  0.
         24    2    1    2    0    0  0.19340072453E+02 -0.19540943796E+02  0.83446736872E+03  0.83974662563E+03  0.89903942726E+02 0.  0.
        -11    1    5    5    0    0 -0.24495088831E+02 -0.38663586544E+02  0.36855250114E+03  0.37138366738E+03  0.00000000000E+00 0.  1.
         12    1    5    5    0    0  0.43835161284E+02  0.19122642749E+02  0.46591486757E+03  0.46836295824E+03  0.00000000000E+00 0. -1.
         11    1    3    3    0    0 -0.17600338160E+02 -0.29785058731E+02 -0.85227057271E+02  0.91981372669E+02  0.00000000000E+00 0. -1.
        -12    1    3    3    0    0  0.61486629099E+02 -0.10166658972E+02 -0.74082574413E+02  0.96810094227E+02  0.00000000000E+00 0.  1.
          5    1    4    4  501    0 -0.57380366523E+02  0.79631935837E+02  0.14565345993E+03  0.17568766165E+03  0.41800000000E+01 0. -1.
         -5    1    4    4    0  501 -0.58459968682E+01 -0.20139274338E+02  0.21139297915E+03  0.21247171597E+03  0.41800000000E+01 0. -1.
</event>
<event>
11    1  0.6763327E-009  0.2605905E+03  0.7561462E-02  0.1018404E+00
         22   -1    0    0    0    0  0.00000000000E+00  0.00000000000E+00  0.22619213731E+04  0.22619213731E+04  0.00000000000E+00 0.  1.
         22   -1    0    0    0    0 -0.00000000000E+00 -0.00000000000E+00 -0.91529822616E+03  0.91529822616E+03  0.00000000000E+00 0.  1.
         24    2    1    2    0    0  0.10455722764E+03  0.20359687778E+03 -0.85991272179E+03  0.89342797893E+03  0.79873412005E+02 0.  0.
         25    2    1    2    0    0 -0.80192877975E+02 -0.20776397341E+03  0.39571210412E+03  0.47099259201E+03  0.12509670681E+03 0.  0.
        -24    2    1    2    0    0 -0.24364349663E+02  0.41670956350E+01  0.18108237646E+04  0.18127990283E+04  0.80911212846E+02 0.  0.
        -11    1    3    3    0    0  0.63059943812E+02  0.18010514870E+03 -0.74417189895E+03  0.76824881145E+03  0.00000000000E+00 0.  1.
         12    1    3    3    0    0  0.41497283826E+02  0.23491729073E+02 -0.11574082284E+03  0.12517916748E+03  0.00000000000E+00 0. -1.
         11    1    5    5    0    0 -0.10615048576E+02 -0.91598950848E+01  0.51597016429E+02  0.53468074948E+02  0.00000000000E+00 0. -1.
        -12    1    5    5    0    0 -0.13749301087E+02  0.13326990720E+02  0.17592267481E+04  0.17593309533E+04  0.00000000000E+00 0.  1.
          5    1    4    4  501    0 -0.62188401738E+02 -0.65461239790E+02  0.25278445663E+03  0.26845860973E+03  0.41800000000E+01 0.  1.
         -5    1    4    4    0  501 -0.18004476237E+02 -0.14230273362E+03  0.14292764750E+03  0.20253398228E+03  0.41800000000E+01 0.  1.
</event>
<event>
11    1  0.6763327E-009  0.1896177E+03  0.7561462E-02  0.1062118E+00
         22   -1    0    0    0    0  0.00000000000E+00  0.00000000000E+00  0.63953362630E+03  0.63953362630E+03  0.00000000000E+00 0.  1.
         22   -1    0    0    0    0 -0.00000000000E+00 -0.00000000000E+00 -0.37055958994E+03  0.37055958994E+03  0.00000000000E+00 0. -1.
        -24    2    1    2    0    0  0.12788163201E+03  0.65608340944E+02 -0.32348819523E+03  0.36335513744E+03  0.82001080742E+02 0.  0.
         25    2    1    2    0    0 -0.11042720353E+03 -0.43060848329E+02  0.38079578713E+03  0.41797316459E+03  0.12509089048E+03 0.  0.
         24    2    1    2    0    0 -0.17454428476E+02 -0.22547492615E+02  0.21166644446E+03  0.22876491422E+03  0.81961306545E+02 0.  0.
        -11    1    5    5    0    0 -0.13629171445E+02  0.11164056439E+02  0.18439636412E+03  0.18523609144E+03  0.00000000000E+00 0.  1.
         12    1    5    5    0    0 -0.38252570308E+01 -0.33711549054E+02  0.27270080339E+02  0.43528822781E+02  0.00000000000E+00 0. -1.
         11    1    3    3    0    0  0.70980738462E+02  0.68443973755E+02 -0.14009689841E+03  0.17131836948E+03  0.00000000000E+00 0. -1.
        -12    1    3    3    0    0  0.56900893544E+02 -0.28356328114E+01 -0.18339129682E+03  0.19203676796E+03  0.00000000000E+00 0.  1.
          5    1    4    4  501    0 -0.12866952439E+03 -0.48376002582E+02  0.24644468916E+03  0.28222073161E+03  0.41800000000E+01 0.  1.
         -5    1    4    4    0  501  0.18242320861E+02  0.53151542531E+01  0.13435109797E+03  0.13575243298E+03  0.41800000000E+01 0.  1.
</event>
<event>
11    1  0.6763327E-009  0.1426760E+03  0.7561462E-02  0.1104607E+00
         22   -1    0    0    0    0  0.00000000000E+00  0.00000000000E+00  0.13208782451E+03  0.13208782451E+03  0.00000000000E+00 0. -1.
         22   -1    0    0    0    0 -0.00000000000E+00 -0.00000000000E+00 -0.15018325324E+04  0.15018325324E+04  0.00000000000E+00 0.  1.
         24    2    1    2    0    0  0.59385088837E+02 -0.37937881066E+02 -0.12905968250E+04  0.12950914621E+04  0.81583447318E+02 0.  0.
         25    2    1    2    0    0 -0.58656219336E+02 -0.42351707946E+01 -0.16373189598E+03  0.21427484559E+03  0.12508831661E+03 0.  0.
        -24    2    1    2    0    0 -0.72886950167E+00  0.42173051861E+02  0.84584013083E+02  0.12455404925E+03  0.81118175278E+02 0.  0.
        -13    1    3    3    0    0  0.64241913752E+02 -0.36136058171E+02 -0.12861615648E+04  0.12882718692E+04  0.00000000000E+00 0.  1.
         14    1    3    3    0    0 -0.48568249148E+01 -0.18018228957E+01 -0.44352601534E+01  0.68195928492E+01  0.00000000000E+00 0. -1.
         11    1    5    5    0    0  0.80348460841E+01  0.39696466847E+02  0.99303394087E+02  0.10724519714E+03  0.00000000000E+00 0. -1.
        -12    1    5    5    0    0 -0.87637155857E+01  0.24765850144E+01 -0.14719381004E+02  0.17308852109E+02  0.00000000000E+00 0.  1.
          5    1    4    4  501    0 -0.58563590744E+02 -0.55723613500E+02 -0.68957766975E+02  0.10633654728E+03  0.41800000000E+01 0. -1.
         -5    1    4    4    0  501 -0.92628591715E-01  0.51488442705E+02 -0.94774129008E+02  0.10793829831E+03  0.41800000000E+01 0. -1.
</event>
<event>
11    1  0.6763327E-009  0.1314133E+03  0.7561462E-02  0.1117545E+00
         22   -1    0    0    0    0  0.00000000000E+00  0.00000000000E+00  0.23410345158E+02  0.23410345158E+02  0.00000000000E+00 0. -1.
         22   -1    0    0    0    0 -0.00000000000E+00 -0.00000000000E+00 -0.10114581357E+04  0.10114581357E+04  0.00000000000E+00 0.  1.
         24    2    1    2    0    0  0.90711794455E+01 -0.43086506641E+00 -0.36286532059E+03  0.37115700669E+03  0.77484261564E+02 0.  0.
         25    2    1    2    0    0 -0.44401443428E+02 -0.86258386807E+01 -0.35157527574E+03  0.37589735037E+03  0.12509096783E+03 0.  0.
        -24    2    1    2    0    0  0.35330263983E+02  0.90567037471E+01 -0.27360719419E+03  0.28781412377E+03  0.81521909294E+02 0.  0.
        -13    1    3    3    0    0  0.21129251313E+02  0.10814751043E+02 -0.34844499665E+03  0.34925251580E+03  0.00000000000E+00 0.  1.
         14    1    3    3    0    0 -0.12058071867E+02 -0.11245616109E+02 -0.14420323937E+02  0.21904490893E+02  0.00000000000E+00 0. -1.
         13    1    5    5    0    0  0.55081178259E+02 -0.85082305010E+01 -0.12482874145E+03  0.13670603818E+03  0.00000000000E+00 0. -1.
        -14    1    5    5    0    0 -0.19750914276E+02  0.17564934248E+02 -0.14877845274E+03  0.15110808559E+03  0.00000000000E+00 0.  1.
          5    1    4    4  501    0 -0.56531821663E+02 -0.58530801650E+02 -0.21743175173E+03  0.23219763276E+03  0.41800000000E+01 0.  1.
         -5    1    4    4    0  501  0.12130378235E+02  0.49904962969E+02 -0.13414352401E+03  0.14369971761E+03  0.41800000000E+01 0.  1.
</event>
<event>
11    1  0.6763327E-009  0.1326768E+03  0.7561462E-02  0.1116023E+00
         22   -1    0    0    0    0  0.00000000000E+00  0.00000000000E+00  0.86664030271E+03  0.86664030271E+03  0.00000000000E+00 0.  1.
         22   -1    0    0    0    0 -0.00000000000E+00 -0.00000000000E+00 -0.11665979903E+03  0.11665979903E+03  0.00000000000E+00 0.  1.
         24    2    1    2    0    0 -0.29643291654E+02  0.37533555851E+02 -0.62997021573E+02  0.11126668458E+03  0.78256998508E+02 0.  0.
         25    2    1    2    0    0 -0.47012776031E+01 -0.29706214170E+02  0.12821199399E+03  0.18163046011E+03  0.12508695961E+03 0.  0.
        -24    2    1    2    0    0  0.34344569257E+02 -0.78273416816E+01  0.68476553126E+03  0.69040295706E+03  0.80694445911E+02 0.  0.
        -13    1    3    3    0    0 -0.40269132004E+02 -0.46863773476E+01 -0.52770102764E+02  0.66545089005E+02  0.00000000000E+00 0.  1.
         14    1    3    3    0    0  0.10625840349E+02  0.42219933199E+02 -0.10226918809E+02  0.44721595575E+02  0.00000000000E+00 0. -1.
         11    1    5    5    0    0  0.20174465997E+02 -0.44146431853E+01  0.36222267709E+02  0.41695933023E+02  0.00000000000E+00 0. -1.
        -12    1    5    5    0    0  0.14170103260E+02 -0.34126984964E+01  0.64854326355E+03  0.64870702403E+03  0.00000000000E+00 0.  1.
          5    1    4    4  501    0 -0.13189758624E+02 -0.65966765809E+02  0.12741820446E+03  0.14414733834E+03  0.41800000000E+01 0.  1.
         -5    1    4    4    0  501  0.84884810211E+01  0.36260551639E+02  0.79378953185E+00  0.37483121762E+02  0.41800000000E+01 0.  1.
</event>
<event>
11    1  0.6763327E-009  0.1505374E+03  0.7561462E-02  0.1096331E+00
         22   -1    0    0    0    0  0.00000000000E+00  0.00000000000E+00  0.13297181200E+04  0.13297181200E+04  0.00000000000E+00 0.  1.
         22   -1    0    0    0    0 -0.00000000000E+00 -0.00000000000E+00 -0.42896493991E+03  0.42896493991E+03  0.00000000000E+00 0. -1.
         24    2    1    2    0    0  0.18725755901E+02 -0.12746396521E+02 -0.36922172083E+03  0.37805621320E+03  0.78030100923E+02 0.  0.
         25    2    1    2    0    0 -0.57667119019E+01 -0.70789523480E+02  0.45977533353E+02  0.15101343436E+03  0.12508681859E+03 0.  0.
        -24    2    1    2    0    0 -0.12959043999E+02  0.83535920001E+02  0.12239973676E+04  0.12296134123E+04  0.81445695054E+02 0.  0.
        -11    1    3    3    0    0  0.45218496328E+02 -0.24805025031E+02 -0.25675058625E+03  0.26187948605E+03  0.00000000000E+00 0.  1.
         12    1    3    3    0    0 -0.26492740427E+02  0.12058628510E+02 -0.11247113458E+03  0.11617672715E+03  0.00000000000E+00 0. -1.
         11    1    5    5    0    0  0.10960259706E+02  0.64348084998E+02  0.42095704786E+03  0.42598783959E+03  0.00000000000E+00 0. -1.
        -12    1    5    5    0    0 -0.23919303705E+02  0.19187835003E+02  0.80304031969E+03  0.80362557273E+03  0.00000000000E+00 0.  1.
          5    1    4    4  501    0 -0.58192003505E+02 -0.15691510319E+02  0.44140813766E+02  0.74822567504E+02  0.41800000000E+01 0. -1.
         -5    1    4    4    0  501  0.52425291603E+02 -0.55098013161E+02  0.18367195867E+01  0.76190866860E+02  0.41800000000E+01 0. -1.
</event>
<event>
11    1  0.6763327E-009  0.1699180E+03  0.7561462E-02  0.1078103E+00
         22   -1    0    0    0    0  0.00000000000E+00  0.00000000000E+00  0.79879842002E+03  0.79879842002E+03  0.00000000000E+00 0. -1.
         22   -1    0    0    0    0 -0.00000000000E+00 -0.00000000000E+00 -0.14503022730E+04  0.14503022730E+04  0.00000000000E+00 0. -1.
        -24    2    1    2    0    0  0.35813935438E+02 -0.10847657607E+03 -0.13948740305E+04  0.14018358339E+04  0.80127015990E+02 0.  0.
         25    2    1    2    0    0 -0.76888959972E+02  0.14830684788E+03  0.18095236803E+03  0.27622171253E+03  0.12509133336E+03 0.  0.
         24    2    1    2    0    0  0.41075024533E+02 -0.39830271814E+02  0.56241780951E+03  0.57104314659E+03  0.80640403139E+02 0.  0.
        -11    1    5    5    0    0 -0.14731577141E+02 -0.38318261612E+02  0.29648418511E+03  0.29931284730E+03  0.00000000000E+00 0.  1.
         12    1    5    5    0    0  0.55806601674E+02 -0.15120102021E+01  0.26593362440E+03  0.27173029929E+03  0.00000000000E+00 0. -1.
         13    1    3    3    0    0  0.43892038157E+02 -0.11646917989E+03 -0.13417179868E+04  0.13474786592E+04  0.00000000000E+00 0. -1.
        -14    1    3    3    0    0 -0.80781027190E+01  0.79926038209E+01 -0.53156043709E+02  0.54357174708E+02  0.00000000000E+00 0.  1.
          5    1    4    4  501    0 -0.69182257216E+02  0.40748442954E+02  0.13872402739E+03  0.16033854338E+03  0.41800000000E+01 0. -1.
         -5    1    4    4    0  501 -0.77067027553E+01  0.10755840493E+03  0.42228340632E+02  0.11588316914E+03  0.41800000000E+01 0. -1.
</event>
<event>
11    1  0.6763327E-009  0.1822327E+03  0.7561462E-02  0.1067851E+00
         22   -1    0    0    0    0  0.00000000000E+00  0.00000000000E+00  0.15405252663E+04  0.15405252663E+04  0.00000000000E+00 0.  1.
         22   -1    0    0    0    0 -0.00000000000E+00 -0.00000000000E+00 -0.51017657301E+03  0.51017657301E+03  0.00000000000E+00 0. -1.
        -24    2    1    2    0    0  0.18556020758E+02 -0.13060516458E+03 -0.47986620493E+03  0.50463522148E+03  0.83564928103E+02 0.  0.
         25    2    1    2    0    0  0.77592632881E+01  0.17161299548E+03  0.73205843811E+03  0.76227825802E+03  0.12508940587E+03 0.  0.
         24    2    1    2    0    0 -0.26315284047E+02 -0.41007830903E+02  0.77815646016E+03  0.78378835985E+03  0.80141001848E+02 0.  0.
        -13    1    5    5    0    0 -0.38840984157E+02 -0.20487498922E+02  0.71278364486E+03  0.71413506008E+03  0.00000000000E+00 0.  1.
         14    1    5    5    0    0  0.12525700111E+02 -0.20520331981E+02  0.65372815298E+02  0.69653299763E+02  0.00000000000E+00 0. -1.
         11    1    3    3    0    0  0.45099065731E+02 -0.64434625754E+02 -0.18040105437E+03  0.19680011977E+03  0.00000000000E+00 0. -1.
        -12    1    3    3    0    0 -0.26543044972E+02 -0.66170538821E+02 -0.29946515056E+03  0.30783510171E+03  0.00000000000E+00 0.  1.
          5    1    4    4  501    0  0.25343118154E+02 -0.41577220331E+01  0.37820888338E+02  0.45906996035E+02  0.41800000000E+01 0.  1.
         -5    1    4    4    0  501 -0.17583854866E+02  0.17577071751E+03  0.69423754977E+03  0.71637126199E+03  0.41800000000E+01 0.  1.
</event>
<event>
11    1  0.6763327E-009  0.1427196E+03  0.7561462E-02  0.1104559E+00
         22   -1    0    0    0    0  0.00000000000E+00  0.00000000000E+00  0.93386486613E+03  0.93386486613E+03  0.00000000000E+00 0. -1.
         22   -1    0    0    0    0 -0.00000000000E+00 -0.00000000000E+00 -0.32083856671E+03  0.32083856671E+03  0.00000000000E+00 0.  1.
         24    2    1    2    0    0  0.11771932094E+02  0.55472886207E+01 -0.27434001813E+03  0.28629923079E+03  0.80842149955E+02 0.  0.
         25    2    1    2    0    0 -0.11395860181E+02 -0.73655904246E+02  0.10761267396E+03  0.18109214696E+03  0.12513520781E+03 0.  0.
        -24    2    1    2    0    0 -0.37607191225E+00  0.68108615626E+02  0.77975364359E+03  0.78731205509E+03  0.84885820055E+02 0.  0.
        -13    1    3    3    0    0  0.47620117674E+01  0.32534581262E+02 -0.47608700095E+02  0.57859865699E+02  0.00000000000E+00 0.  1.
         14    1    3    3    0    0  0.70099203263E+01 -0.26987292641E+02 -0.22673131804E+03  0.22843936510E+03  0.00000000000E+00 0. -1.
         13    1    5    5    0    0 -0.41285450852E+02  0.32410117428E+02  0.45956221469E+03  0.46254981714E+03  0.00000000000E+00 0. -1.
        -14    1    5    5    0    0  0.40909378940E+02  0.35698498197E+02  0.32019142890E+03  0.32476223795E+03  0.00000000000E+00 0.  1.
          5    1    4    4  501    0 -0.98946573874E+01 -0.10372275250E+03  0.49321723660E+02  0.11535345013E+03  0.41800000000E+01 0. -1.
         -5    1    4    4    0  501 -0.15012027941E+01  0.30066848257E+02  0.58290950299E+02  0.65738696829E+02  0.41800000000E+01 0. -1.
</event>
<event>
11    1  0.6763327E-009  0.1559288E+03  0.7561462E-02  0.1090970E+00
         22   -1    0    0    0    0  0.00000000000E+00  0.00000000000E+00  0.98354218190E+02  0.98354218190E+02  0.00000000000E+00 0.  1.
         22   -1    0    0    0    0 -0.00000000000E+00 -0.00000000000E+00 -0.34671886559E+04  0.34671886559E+04  0.00000000000E+00 0.  1.
         24    2    1    2    0    0  0.33944364679E+02 -0.80776258947E+01 -0.27586402591E+04  0.27600165022E+04  0.79859536092E+02 0.  0.
         25    2    1    2    0    0 -0.37519159962E+02 -0.85335907809E+02 -0.65576704735E+03  0.67406795518E+03  0.12508910137E+03 0.  0.
        -24    2    1    2    0    0  0.35747952830E+01  0.93413533703E+02  0.45572868687E+02  0.13145841674E+03  0.80408715517E+02 0.  0.
        -11    1    3    3    0    0 -0.34569316554E+01  0.27359907917E+02 -0.15922623020E+04  0.15925011000E+04  0.00000000000E+00 0.  1.
         12    1    3    3    0    0  0.37401296334E+02 -0.35437533812E+02 -0.11663779570E+04  0.11675154022E+04  0.00000000000E+00 0. -1.
         13    1    5    5    0    0 -0.31715197900E+02  0.71885759641E+02  0.44084578805E+02  0.90093652970E+02  0.00000000000E+00 0. -1.
        -14    1    5    5    0    0  0.35289993183E+02  0.21527774062E+02  0.14882898814E+01  0.41364763769E+02  0.00000000000E+00 0.  1.
          5    1    4    4  501    0  0.39342010489E+02 -0.20473300644E+00 -0.12843351100E+03  0.13438926614E+03  0.41800000000E+01 0.  1.
         -5    1    4    4    0  501 -0.76861170451E+02 -0.85131174802E+02 -0.52733353635E+03  0.53967868904E+03  0.41800000000E+01 0.  1.
</event>
<event>
11    1  0.6763327E-009  0.1482291E+03  0.7561462E-02  0.1098702E+00
         22   -1    0    0    0    0  0.00000000000E+00  0.00000000000E+00  0.79160586020E+03  0.79160586020E+03  0.00000000000E+00 0.  1.
         22   -1    0    0    0    0 -0.00000000000E+00 -0.00000000000E+00 -0.14746838669E+03  0.14746838669E+03  0.00000000000E+00 0. -1.
        -24    2    1    2    0    0 -0.47658923303E+02  0.63921610296E+02 -0.84191018909E+02  0.14084922179E+03  0.79956428020E+02 0.  0.
         25    2    1    2    0    0  0.55919584152E+02 -0.55785663517E+02  0.13791723277E+03  0.20225743502E+03  0.12509143368E+03 0.  0.
         24    2    1    2    0    0 -0.82606608495E+01 -0.81359467785E+01  0.59041125965E+03  0.59596759007E+03  0.80358451645E+02 0.  0.
        -13    1    5    5    0    0 -0.16132210056E+02 -0.40525180217E+02  0.42492832178E+03  0.42716111373E+03  0.00000000000E+00 0.  1.
         14    1    5    5    0    0  0.78715492068E+01  0.32389233439E+02  0.16548293787E+03  0.16880647634E+03  0.00000000000E+00 0. -1.
         13    1    3    3    0    0  0.50373991690E+01 -0.10524216351E+02 -0.35685467899E+02  0.37544468825E+02  0.00000000000E+00 0. -1.
        -14    1    3    3    0    0 -0.52696322472E+02  0.74445826646E+02 -0.48505551010E+02  0.10330475297E+03  0.00000000000E+00 0.  1.
          5    1    4    4  501    0 -0.35697545691E+02 -0.32954971121E+02  0.72274942074E+02  0.87186492886E+02  0.41800000000E+01 0. -1.
         -5    1    4    4    0  501  0.91617129843E+02 -0.22830692396E+02  0.65642290700E+02  0.11507094214E+03  0.41800000000E+01 0. -1.
</event>
<event>
11    1  0.6763327E-009  0.1557636E+03  0.7561462E-02  0.1091131E+00
         22   -1    0    0    0    0  0.00000000000E+00  0.00000000000E+00  0.14155669524E+04  0.14155669524E+04  0.00000000000E+00 0.  1.
         22   -1    0    0    0    0 -0.00000000000E+00 -0.00000000000E+00 -0.32178843253E+03  0.32178843253E+03  0.00000000000E+00 0.  1.
         24    2    1    2    0    0 -0.16452168303E+02 -0.91545651747E+01 -0.27793905597E+03  0.28887275558E+03  0.76438669378E+02 0.  0.
         25    2    1    2    0    0  0.10672578294E+03 -0.66256452300E+01  0.15636790718E+03  0.22700879044E+03  0.12509107330E+03 0.  0.
        -24    2    1    2    0    0 -0.90273614641E+02  0.15780210405E+02  0.12153496687E+04  0.12214738389E+04  0.80778595467E+02 0.  0.
        -11    1    3    3    0    0 -0.76243935511E+01 -0.16424753967E+01 -0.27714440434E+03  0.27725412523E+03  0.00000000000E+00 0.  1.
         12    1    3    3    0    0 -0.88277747522E+01 -0.75120897780E+01 -0.79465163269E+00  0.11618630346E+02  0.00000000000E+00 0. -1.
         11    1    5    5    0    0 -0.17559107305E+02  0.23108669607E+02  0.11176238239E+03  0.11546931618E+03  0.00000000000E+00 0. -1.
        -12    1    5    5    0    0 -0.72714507336E+02 -0.73284592020E+01  0.11035872863E+04  0.11060045228E+04  0.00000000000E+00 0.  1.
          5    1    4    4  501    0  0.12740922504E+03  0.11780008382E+02  0.15190147925E+03  0.19865399825E+03  0.41800000000E+01 0. -1.
         -5    1    4    4    0  501 -0.20683442092E+02 -0.18405653612E+02  0.44664279309E+01  0.28354792190E+02  0.41800000000E+01 0. -1.
</event>
<event>
11    1  0.6763327E-009  0.1281605E+03  0.7561462E-02  0.1121550E+00
         22   -1    0    0    0    0  0.00000000000E+00  0.00000000000E+00  0.12313364301E+03  0.12313364301E+03  0.00000000000E+00 0.  1.
         22   -1    0    0    0    0 -0.00000000000E+00 -0.00000000000E+00 -0.74371365822E+03  0.74371365822E+03  0.00000000000E+00 0.  1.
        -24    2    1    2    0    0  0.40921528868E+01 -0.11733551731E+02 -0.64278846827E+03  0.64786679555E+03  0.79999674282E+02 0.  0.
         25    2    1    2    0    0 -0.99561133057E+01  0.32529030096E+02  0.37752873435E+02  0.13501955753E+03  0.12509092482E+03 0.  0.
         24    2    1    2    0    0  0.58639604190E+01 -0.20795478365E+02 -0.15544420371E+02  0.83960948137E+02  0.79630232043E+02 0.  0.
        -11    1    5    5    0    0  0.30603812128E+02 -0.40036404087E+02 -0.15134197379E+02  0.52617021004E+02  0.00000000000E+00 0.  1.
         12    1    5    5    0    0 -0.24739851710E+02  0.19240925722E+02 -0.41022299217E+00  0.31343927133E+02  0.00000000000E+00 0. -1.
         11    1    3    3    0    0 -0.17515650987E+02  0.10372964424E+02 -0.46296177035E+02  0.50574029190E+02  0.00000000000E+00 0. -1.
        -12    1    3    3    0    0  0.21607803873E+02 -0.22106516155E+02 -0.59649229124E+03  0.59729276637E+03  0.00000000000E+00 0.  1.
          5    1    4    4  501    0  0.29376341595E+02  0.13055327055E+02  0.72151815208E+02  0.79099733551E+02  0.41800000000E+01 0.  1.
         -5    1    4    4    0  501 -0.39332454901E+02  0.19473703040E+02 -0.34398941773E+02  0.55919823978E+02  0.41800000000E+01 0.  1.
</event>
<event>
11    1  0.6763327E-009  0.1485168E+03  0.7561462E-02  0.1098404E+00
         22   -1    0    0    0    0  0.00000000000E+00  0.00000000000E+00  0.46987060498E+03  0.46987060498E+03  0.00000000000E+00 0. -1.
         22   -1    0    0    0    0 -0.00000000000E+00 -0.00000000000E+00 -0.89200788523E+03  0.89200788523E+03  0.00000000000E+00 0.  1.
        -24    2    1    2    0    0  0.70151412873E+02 -0.51345663547E+01 -0.48365595325E+03  0.49526350533E+03  0.80095406249E+02 0.  0.
         25    2    1    2    0    0  0.94695567227E+01 -0.11383767309E+02 -0.38525768692E+03  0.40532756384E+03  0.12509071114E+03 0.  0.
         24    2    1    2    0    0 -0.79620969596E+02  0.16518333664E+02  0.44677635992E+03  0.46128742104E+03  0.81022310983E+02 0.  0.
        -13    1    5    5    0    0  0.76615495569E+01 -0.17410208228E+02  0.47292761568E+02  0.50974699497E+02  0.00000000000E+00 0.  1.
         14    1    5    5    0    0 -0.87282519153E+02  0.33928541892E+02  0.39948359835E+03  0.41031272154E+03  0.00000000000E+00 0. -1.
         11    1    3    3    0    0  0.84253544349E+02 -0.51271876375E+01 -0.46033820648E+03  0.46801304697E+03  0.00000000000E+00 0. -1.
        -12    1    3    3    0    0 -0.14102131477E+02 -0.73787172176E-02 -0.23317746766E+02  0.27250458361E+02  0.00000000000E+00 0.  1.
          5    1    4    4  501    0 -0.53311088798E+02  0.18040908094E+02 -0.17934986886E+03  0.18801966497E+03  0.41800000000E+01 0.  1.
         -5    1    4    4    0  501  0.62780645520E+02 -0.29424675403E+02 -0.20590781805E+03  0.21730789887E+03  0.41800000000E+01 0.  1.
</event>
<event>
11    1  0.6763327E-009  0.1531648E+03  0.7561462E-02  0.1093688E+00
         22   -1    0    0    0    0  0.00000000000E+00  0.00000000000E+00  0.33447983371E+03  0.33447983371E+03  0.00000000000E+00 0.  1.
         22   -1    0    0    0    0 -0.00000000000E+00 -0.00000000000E+00 -0.85818784442E+03  0.85818784442E+03  0.00000000000E+00 0. -1.
         24    2    1    2    0    0  0.30373459348E+01 -0.34804307534E+02 -0.76986980787E+03  0.77502019924E+03  0.82074495829E+02 0.  0.
         25    2    1    2    0    0 -0.26232656589E+02  0.11390779387E+03  0.32552073693E+02  0.17426918353E+03  0.12508786133E+03 0.  0.
        -24    2    1    2    0    0  0.23195310654E+02 -0.79103486332E+02  0.21360972346E+03  0.24337829535E+03  0.82513615263E+02 0.  0.
        -11    1    3    3    0    0 -0.32165573214E+02 -0.19750216859E+02 -0.18030041957E+03  0.18420894783E+03  0.00000000000E+00 0.  1.
         12    1    3    3    0    0  0.35202919148E+02 -0.15054090675E+02 -0.58956938831E+03  0.59081125141E+03  0.00000000000E+00 0. -1.
         11    1    5    5    0    0 -0.18360066327E+02  0.17181355745E+01  0.11385028569E+02  0.21671707383E+02  0.00000000000E+00 0. -1.
        -12    1    5    5    0    0  0.41555376980E+02 -0.80821621907E+02  0.20222469489E+03  0.22170658797E+03  0.00000000000E+00 0.  1.
          5    1    4    4  501    0 -0.61645169818E+02  0.11801441925E+03  0.14227045909E+02  0.13396794896E+03  0.41800000000E+01 0. -1.
         -5    1    4    4    0  501  0.35412513229E+02 -0.41066253813E+01  0.18325027784E+02  0.40301234578E+02  0.41800000000E+01 0. -1.
</event>
<event>
11    1  0.6763327E-009  0.1315906E+03  0.7561462E-02  0.1117330E+00
         22   -1    0    0    0    0  0.00000000000E+00  0.00000000000E+00  0.43705607163E+03  0.43705607163E+03  0.00000000000E+00 0. -1.
         22   -1    0    0    0    0 -0.00000000000E+00 -0.00000000000E+00 -0.12817877162E+04  0.12817877162E+04  0.00000000000E+00 0. -1.
        -24    2    1    2    0    0  0.23463852135E+02 -0.33583751398E+02 -0.12263283570E+04  0.12301514218E+04  0.87822894131E+02 0.  0.
         25    2    1    2    0    0 -0.44066671331E+02  0.11576555668E+02  0.44115602116E+02  0.14024888271E+03  0.12509066547E+03 0.  0.
         24    2    1    2    0    0  0.20602819196E+02  0.22007195730E+02  0.33748111031E+03  0.34844348329E+03  0.81305402046E+02 0.  0.
        -13    1    5    5    0    0 -0.25564938419E+02  0.15771992635E+02  0.60224543394E+02  0.67300203975E+02  0.00000000000E+00 0.  1.
         14    1    5    5    0    0  0.46167757614E+02  0.62352030948E+01  0.27725656692E+03  0.28114327931E+03  0.00000000000E+00 0. -1.
         11    1    3    3    0    0  0.28404131255E+02 -0.59248051545E+02 -0.10296338546E+04  0.10317281623E+04  0.00000000000E+00 0. -1.
        -12    1    3    3    0    0 -0.49402791204E+01  0.25664300147E+02 -0.19669450241E+03  0.19842325957E+03  0.00000000000E+00 0.  1.
          5    1    4    4  501    0 -0.51945602720E+02  0.61071573265E+02  0.13614737332E+02  0.81430437648E+02  0.41800000000E+01 0.  1.
         -5    1    4    4    0  501  0.78789313890E+01 -0.49495017597E+02  0.30500864783E+02  0.58818445060E+02  0.41800000000E+01 0.  1.
</event>
<event>
11    1  0.6763327E-009  0.1416913E+03  0.7561462E-02  0.1105684E+00
         22   -1    0    0    0    0  0.00000000000E+00  0.00000000000E+00  0.28270669020E+03  0.28270669020E+03  0.00000000000E+00 0.  1.
         22   -1    0    0    0    0 -0.00000000000E+00 -0.00000000000E+00 -0.95702094760E+03  0.95702094760E+03  0.00000000000E+00 0.  1.
        -24    2    1    2    0    0  0.42409493572E+01 -0.26105118047E+02 -0.80761644398E+03  0.81203742750E+03  0.80380347291E+02 0.  0.
         25    2    1    2    0    0  0.38760600006E+02  0.75156324574E+02 -0.93967009875E+02  0.17784655838E+03  0.12509493253E+03 0.  0.
         24    2    1    2    0    0 -0.43001549364E+02 -0.49051206527E+02  0.22726919646E+03  0.24984365192E+03  0.80718081213E+02 0.  0.
        -11    1    5    5    0    0 -0.37308288730E+02  0.60707582274E+01  0.15043232131E+03  0.15510849689E+03  0.00000000000E+00 0.  1.
         12    1    5    5    0    0 -0.56932606332E+01 -0.55121964755E+02  0.76836875154E+02  0.94735155030E+02  0.00000000000E+00 0. -1.
         13    1    3    3    0    0 -0.13501599686E+02 -0.33938452369E+02 -0.15941439151E+03  0.16354528414E+03  0.00000000000E+00 0. -1.
        -14    1    3    3    0    0  0.17742549043E+02  0.78333343217E+01 -0.64820205247E+03  0.64849214336E+03  0.00000000000E+00 0.  1.
          5    1    4    4  501    0  0.72899831837E+02  0.76631951523E+01 -0.60042709319E+02  0.94845713578E+02  0.41800000000E+01 0. -1.
         -5    1    4    4    0  501 -0.34139231831E+02  0.67493129422E+02 -0.33924300556E+02  0.83000844799E+02  0.41800000000E+01 0. -1.
</event>
<event>
11    1  0.6763327E-009  0.1831759E+03  0.7561462E-02  0.1067102E+00
         22   -1    0    0    0    0  0.00000000000E+00  0.00000000000E+00  0.29318275548E+04  0.29318275548E+04  0.00000000000E+00 0.  1.
         22   -1    0    0    0    0 -0.00000000000E+00 -0.00000000000E+00 -0.84380712355E+02  0.84380712355E+02  0.00000000000E+00 0.  1.
         24    2    1    2    0    0 -0.12109340316E+02 -0.11751065517E+02 -0.45667132184E+02  0.95387538118E+02  0.82027872108E+02 0.  0.
         25    2    1    2    0    0  0.14099702990E+03 -0.15896211260E+02  0.80163276692E+03  0.82365389091E+03  0.12513107940E+03 0.  0.
        -24    2    1    2    0    0 -0.12888768958E+03  0.27647276777E+02  0.20914812077E+04  0.20971668382E+04  0.80241487517E+02 0.  0.
        -11    1    3    3    0    0 -0.31430037189E+02  0.24785830226E+02 -0.33793610262E+02  0.52385042829E+02  0.00000000000E+00 0.  1.
         12    1    3    3    0    0  0.19320696873E+02 -0.36536895743E+02 -0.11873521922E+02  0.43002495289E+02  0.00000000000E+00 0. -1.
         11    1    5    5    0    0 -0.75640465881E+02  0.55174921033E+02  0.13739030162E+04  0.13770894125E+04  0.00000000000E+00 0. -1.
        -12    1    5    5    0    0 -0.53247223701E+02 -0.27527644256E+02  0.71757819153E+03  0.72007742569E+03  0.00000000000E+00 0.  1.
          5    1    4    4  501    0 -0.19140049452E+02 -0.21156680082E+02  0.11427693111E+03  0.11785854229E+03  0.41800000000E+01 0.  1.
         -5    1    4    4    0  501  0.16013707935E+03  0.52604688224E+01  0.68735583581E+03  0.70579534862E+03  0.41800000000E+01 0.  1.
</event>
<event>
11    1  0.6763327E-009  0.1528208E+03  0.7561462E-02  0.1094031E+00
         22   -1    0    0    0    0  0.00000000000E+00  0.00000000000E+00  0.26305059766E+03  0.26305059766E+03  0.00000000000E+00 0.  1.
         22   -1    0    0    0    0 -0.00000000000E+00 -0.00000000000E+00 -0.18100219752E+03  0.18100219752E+03  0.00000000000E+00 0. -1.
         24    2    1    2    0    0  0.90582594286E+02  0.62165207984E+02  0.13639602144E+02  0.13738326195E+03  0.81353564434E+02 0.  0.
         25    2    1    2    0    0  0.26819560870E+02 -0.63895469657E+02 -0.80184508456E+01  0.14322553660E+03  0.12508932366E+03 0.  0.
        -24    2    1    2    0    0 -0.11740215516E+03  0.17302616729E+01  0.76427248848E+02  0.16344399663E+03  0.84181683434E+02 0.  0.
        -13    1    3    3    0    0  0.10302299927E+03  0.58685682019E+02  0.23821948123E+02  0.12093482900E+03  0.00000000000E+00 0.  1.
         14    1    3    3    0    0 -0.12440404980E+02  0.34795259647E+01 -0.10182345980E+02  0.16448432954E+02  0.00000000000E+00 0. -1.
         13    1    5    5    0    0 -0.28069042520E+02  0.32286473510E+02  0.13252350874E+01  0.42802380398E+02  0.00000000000E+00 0. -1.
        -14    1    5    5    0    0 -0.89333112636E+02 -0.30556211837E+02  0.75102013761E+02  0.12064161623E+03  0.00000000000E+00 0.  1.
          5    1    4    4  501    0 -0.10986968854E+02 -0.23654420755E+02  0.53981917628E+02  0.60097961169E+02  0.41800000000E+01 0. -1.
         -5    1    4    4    0  501  0.37806529724E+02 -0.40241048902E+02 -0.62000368474E+02  0.83127575433E+02  0.41800000000E+01 0. -1.
</event>
<event>
11    1  0.6763327E-009  0.1500127E+03  0.7561462E-02  0.1096866E+00
         22   -1    0    0    0    0  0.00000000000E+00  0.00000000000E+00  0.38638080927E+03  0.38638080927E+03  0.00000000000E+00 0. -1.
         22   -1    0    0    0    0 -0.00000000000E+00 -0.00000000000E+00 -0.16076982573E+04  0.16076982573E+04  0.00000000000E+00 0.  1.
        -24    2    1    2    0    0  0.75738608351E+02 -0.27283606088E+02 -0.13794737703E+04  0.13842152965E+04  0.81384103136E+02 0.  0.
         25    2    1    2    0    0 -0.10368524653E+03  0.50621175723E+02 -0.18714820136E+03  0.25295166276E+03  0.12508781173E+03 0.  0.
         24    2    1    2    0    0  0.27946638181E+02 -0.23337569635E+02  0.34530452360E+03  0.35691210730E+03  0.82615867557E+02 0.  0.
        -13    1    5    5    0    0  0.22240432038E+02  0.10599928490E+02  0.26226727260E+02  0.35983836982E+02  0.00000000000E+00 0.  1.
         14    1    5    5    0    0  0.57062061435E+01 -0.33937498125E+02  0.31907779634E+03  0.32092827031E+03  0.00000000000E+00 0. -1.
         11    1    3    3    0    0  0.35540298482E+02 -0.46374850923E+02 -0.46453889781E+03  0.46819881161E+03  0.00000000000E+00 0. -1.
        -12    1    3    3    0    0  0.40198309869E+02  0.19091244835E+02 -0.91493487247E+03  0.91601648490E+03  0.00000000000E+00 0.  1.
          5    1    4    4  501    0 -0.36112776537E+02 -0.40699306688E+02 -0.79234451031E+02  0.96208818849E+02  0.41800000000E+01 0. -1.
         -5    1    4    4    0  501 -0.67572469996E+02  0.91320482411E+02 -0.10791375032E+03  0.15674284391E+03  0.41800000000E+01 0. -1.
</event>
<event>
11    1  0.6763327E-009  0.1402887E+03  0.7561462E-02  0.1107236E+00
         22   -1    0    0    0    0  0.00000000000E+00  0.00000000000E+00  0.11532404505E+04  0.11532404505E+04  0.00000000000E+00 0. -1.
         22   -1    0    0    0    0 -0.00000000000E+00 -0.00000000000E+00 -0.12749597485E+03  0.12749597485E+03  0.00000000000E+00 0. -1.
         24    2    1    2    0    0  0.25982807012E+02  0.28448133627E+01 -0.98237660307E+02  0.12958740594E+03  0.80368268945E+02 0.  0.
         25    2    1    2    0    0 -0.20939496640E+02  0.61588396395E+02  0.76567746613E+03  0.77854932777E+03  0.12508189536E+03 0.  0.
        -24    2    1    2    0    0 -0.50433103719E+01 -0.64433209758E+02  0.35830466988E+03  0.37259969168E+03  0.79191036628E+02 0.  0.
        -11    1    3    3    0    0  0.36910157845E+02 -0.21601202072E+02 -0.20614682238E+02  0.47475644354E+02  0.00000000000E+00 0.  1.
         12    1    3    3    0    0 -0.10927350833E+02  0.24446015435E+02 -0.77622978069E+02  0.82111761589E+02  0.00000000000E+00 0. -1.
         11    1    5    5    0    0 -0.15200664712E+02 -0.12798124874E+02  0.26284920151E+03  0.26359923169E+03  0.00000000000E+00 0. -1.
        -12    1    5    5    0    0  0.10157354340E+02 -0.51635084883E+02  0.95455468368E+02  0.10900046000E+03  0.00000000000E+00 0.  1.
          5    1    4    4  501    0 -0.49106653814E+02  0.31173489330E+02  0.14236279983E+03  0.15384371636E+03  0.41800000000E+01 0. -1.
         -5    1    4    4    0  501  0.28167157174E+02  0.30414907065E+02  0.62331466629E+03  0.62470561141E+03  0.41800000000E+01 0. -1.
</event>
<event>
11    1  0.6763327E-009  0.1714525E+03  0.7561462E-02  0.1076774E+00
         22   -1    0    0    0    0  0.00000000000E+00  0.00000000000E+00  0.27784130106E+03  0.27784130106E+03  0.00000000000E+00 0.  1.
         22   -1    0    0    0    0 -0.00000000000E+00 -0.00000000000E+00 -0.55514773477E+03  0.55514773477E+03  0.00000000000E+00 0. -1.
         24    2    1    2    0    0  0.36843006079E+02 -0.30023049186E+02 -0.44377311642E+03  0.45331292051E+03  0.79367716777E+02 0.  0.
         25    2    1    2    0    0  0.82825438533E+02  0.63890365638E+02  0.97011867302E+01  0.16335084469E+03  0.12508938143E+03 0.  0.
        -24    2    1    2    0    0 -0.11966844461E+03 -0.33867316452E+02  0.15676549598E+03  0.21632527063E+03  0.82180716861E+02 0.  0.
        -13    1    3    3    0    0 -0.10798801384E+02  0.20046089887E+02 -0.13427386286E+03  0.13619078559E+03  0.00000000000E+00 0.  1.
         14    1    3    3    0    0  0.47641807462E+02 -0.50069139074E+02 -0.30949925356E+03  0.31712213492E+03  0.00000000000E+00 0. -1.
         11    1    5    5    0    0 -0.88251263096E+02 -0.55279908208E+02  0.82357498675E+02  0.13276637857E+03  0.00000000000E+00 0. -1.
        -12    1    5    5    0    0 -0.31417181516E+02  0.21412591756E+02  0.74407997303E+02  0.83558892063E+02  0.00000000000E+00 0.  1.
          5    1    4    4  501    0  0.16214686581E+02  0.32369377201E+02 -0.54475150994E+02  0.65541644144E+02  0.41800000000E+01 0. -1.
         -5    1    4    4    0  501  0.66610751952E+02  0.31520988438E+02  0.64176337724E+02  0.97809200546E+02  0.41800000000E+01 0. -1.
</event>
<event>
11    1  0.6763327E-009  0.1323052E+03  0.7561462E-02  0.1116469E+00
         22   -1    0    0    0    0  0.00000000000E+00  0.00000000000E+00  0.86326368617E+02  0.86326368617E+02  0.00000000000E+00 0.  1.
         22   -1    0    0    0    0 -0.00000000000E+00 -0.00000000000E+00 -0.18965748619E+04  0.18965748619E+04  0.00000000000E+00 0.  1.
        -24    2    1    2    0    0 -0.22119923621E+00  0.75123202422E+01 -0.15698202230E+04  0.15718509179E+04  0.79519128955E+02 0.  0.
         25    2    1    2    0    0 -0.41025704516E+02  0.57184516303E+01 -0.27994475488E+03  0.30940810495E+03  0.12509396669E+03 0.  0.
         24    2    1    2    0    0  0.41246903752E+02 -0.13230771873E+02  0.39516484573E+02  0.10164220763E+03  0.83025450471E+02 0.  0.
        -11    1    5    5    0    0  0.34934392475E+02 -0.41363426557E+02  0.47174112983E+02  0.71810457246E+02  0.00000000000E+00 0.  1.
         12    1    5    5    0    0  0.63125112771E+01  0.28132654685E+02 -0.76576284097E+01  0.29831750386E+02  0.00000000000E+00 0. -1.
         11    1    3    3    0    0  0.33792554346E+02  0.96903869060E+01 -0.40222444796E+03  0.40375778242E+03  0.00000000000E+00 0. -1.
        -12    1    3    3    0    0 -0.34013753583E+02 -0.21780666638E+01 -0.11675957750E+04  0.11680931355E+04  0.00000000000E+00 0.  1.
          5    1    4    4  501    0  0.11551094356E+02 -0.43376473138E+02 -0.45144004597E+02  0.63799684590E+02  0.41800000000E+01 0. -1.
         -5    1    4    4    0  501 -0.52576798871E+02  0.49094924768E+02 -0.23480075029E+03  0.24560842036E+03  0.41800000000E+01 0. -1.
</event>
<event>
11    1  0.6763327E-009  0.1293130E+03  0.7561462E-02  0.1120116E+00
         22   -1    0    0    0    0  0.00000000000E+00  0.00000000000E+00  0.78274113816E+02  0.78274113816E+02  0.00000000000E+00 0.  1.
         22   -1    0    0    0    0 -0.00000000000E+00 -0.00000000000E+00 -0.19303619300E+04  0.19303619300E+04  0.00000000000E+00 0.  1.
         24    2    1    2    0    0 -0.12090314753E+02  0.38206864994E+01 -0.13225137679E+04  0.13250031216E+04  0.80186236850E+02 0.  0.
         25    2    1    2    0    0 -0.36677718017E+01 -0.32678961016E+02 -0.57274349366E+03  0.58716603859E+03  0.12508988886E+03 0.  0.
        -24    2    1    2    0    0  0.15758086555E+02  0.28858274517E+02  0.43169445406E+02  0.96466883611E+02  0.79756763457E+02 0.  0.
        -13    1    3    3    0    0  0.66603381794E+00 -0.63128646709E+01 -0.12700989453E+04  0.12701148084E+04  0.00000000000E+00 0.  1.
         14    1    3    3    0    0 -0.12756348571E+02  0.10133551170E+02 -0.52414822620E+02  0.54888313132E+02  0.00000000000E+00 0. -1.
         11    1    5    5    0    0  0.27205533517E+02  0.14768834454E+02 -0.15808177125E+02  0.34758567133E+02  0.00000000000E+00 0. -1.
        -12    1    5    5    0    0 -0.11447446963E+02  0.14089440062E+02  0.58977622531E+02  0.61708316479E+02  0.00000000000E+00 0.  1.
          5    1    4    4  501    0 -0.49220783449E+02 -0.47793347079E+02 -0.45149461035E+03  0.45669655695E+03  0.41800000000E+01 0.  1.
         -5    1    4    4    0  501  0.45553011647E+02  0.15114386063E+02 -0.12124888331E+03  0.13046948164E+03  0.41800000000E+01 0.  1.
</event>
<event>
11    1  0.6763327E-009  0.2528886E+03  0.7561462E-02  0.1022372E+00
         22   -1    0    0    0    0  0.00000000000E+00  0.00000000000E+00  0.21633273418E+04  0.21633273418E+04  0.00000000000E+00 0. -1.
         22   -1    0    0    0    0 -0.00000000000E+00 -0.00000000000E+00 -0.61402479760E+03  0.61402479760E+03  0.00000000000E+00 0.  1.
         24    2    1    2    0    0  0.41017637565E+02  0.11427382019E+03 -0.33827850668E+03  0.36781871916E+03  0.78213231062E+02 0.  0.
         25    2    1    2    0    0  0.87692205420E+02 -0.29027615023E+03 -0.14862191892E+03  0.36012229628E+03  0.12509767068E+03 0.  0.
        -24    2    1    2    0    0 -0.12870984298E+03  0.17600233004E+03  0.20362029698E+04  0.20494111240E+04  0.80127254660E+02 0.  0.
        -13    1    3    3    0    0  0.28429537598E+02  0.26868476996E+02 -0.19970230945E+03  0.20349733675E+03  0.00000000000E+00 0.  1.
         14    1    3    3    0    0  0.12588099967E+02  0.87405343198E+02 -0.13857619723E+03  0.16432138241E+03  0.00000000000E+00 0. -1.
         13    1    5    5    0    0 -0.10547552952E+03  0.10498108719E+03  0.15947525886E+04  0.16016809716E+04  0.00000000000E+00 0. -1.
        -14    1    5    5    0    0 -0.23234313468E+02  0.71021242844E+02  0.44145038122E+03  0.44773015237E+03  0.00000000000E+00 0.  1.
          5    1    4    4  501    0  0.24389721176E+02 -0.12296900968E+03 -0.12930981771E+03  0.18015198360E+03  0.41800000000E+01 0. -1.
         -5    1    4    4    0  501  0.63302484244E+02 -0.16730714055E+03 -0.19312101215E+02  0.17997031268E+03  0.41800000000E+01 0. -1.
</event>
<event>
11    1  0.6763327E-009  0.1832595E+03  0.7561462E-02  0.1067036E+00
         22   -1    0    0    0    0  0.00000000000E+00  0.00000000000E+00  0.12563409362E+04  0.12563409362E+04  0.00000000000E+00 0.  1.
         22   -1    0    0    0    0 -0.00000000000E+00 -0.00000000000E+00 -0.10563642657E+04  0.10563642657E+04  0.00000000000E+00 0. -1.
        -24    2    1    2    0    0  0.56642913213E+02 -0.12601355735E+03 -0.88121372538E+03  0.89663598317E+03  0.91272231669E+02 0.  0.
         25    2    1    2    0    0  0.25678683578E+02  0.12584563144E+03 -0.11573271290E+03  0.21339710823E+03  0.12509095579E+03 0.  0.
         24    2    1    2    0    0 -0.82321596791E+02  0.16792590596E+00  0.11969231088E+04  0.12026721105E+04  0.83775912095E+02 0.  0.
        -13    1    5    5    0    0 -0.30258313994E+02 -0.55671098699E+01  0.93799147654E+03  0.93849590748E+03  0.00000000000E+00 0.  1.
         14    1    5    5    0    0 -0.52063282797E+02  0.57350357759E+01  0.25893163226E+03  0.26417620301E+03  0.00000000000E+00 0. -1.
         13    1    3    3    0    0  0.19337073141E+02 -0.76345816574E+02 -0.71269244229E+03  0.71703076880E+03  0.00000000000E+00 0. -1.
        -14    1    3    3    0    0  0.37305840072E+02 -0.49667740775E+02 -0.16852128309E+03  0.17960521437E+03  0.00000000000E+00 0.  1.
          5    1    4    4  501    0 -0.26054473212E+02  0.10150547255E+03 -0.11557920707E+03  0.15607120823E+03  0.41800000000E+01 0. -1.
         -5    1    4    4    0  501  0.51733156790E+02  0.24340158891E+02 -0.15350583369E+00  0.57325899996E+02  0.41800000000E+01 0. -1.
</event>
<event>
11    1  0.6763327E-009  0.1426135E+03  0.7561462E-02  0.1104675E+00
         22   -1    0    0    0    0  0.00000000000E+00  0.00000000000E+00  0.13776160825E+04  0.13776160825E+04  0.00000000000E+00 0. -1.
         22   -1    0    0    0    0 -0.00000000000E+00 -0.00000000000E+00 -0.18293170686E+03  0.18293170686E+03  0.00000000000E+00 0.  1.
        -24    2    1    2    0    0 -0.20263964782E+01 -0.65512940178E+02 -0.13036205657E+03  0.16664637071E+03  0.80502766807E+02 0.  0.
         25    2    1    2    0    0  0.24271690118E+02  0.10010911654E+03  0.16793212953E+03  0.23336607677E+03  0.12509026942E+03 0.  0.
         24    2    1    2    0    0 -0.22245293640E+02 -0.34596176358E+02  0.11571143027E+04  0.11605353419E+04  0.78974817481E+02 0.  0.
        -11    1    5    5    0    0 -0.39829617383E+02  0.10033425716E+02  0.53120598900E+03  0.53279158289E+03  0.00000000000E+00 0.  1.
         12    1    5    5    0    0  0.17584323742E+02 -0.44629602074E+02  0.62590831366E+03  0.62774375897E+03  0.00000000000E+00 0. -1.
         11    1    3    3    0    0 -0.64592438398E+01 -0.53596008419E+02 -0.23242266168E+02  0.58774627911E+02  0.00000000000E+00 0. -1.
        -12    1    3    3    0    0  0.44328473616E+01 -0.11916931759E+02 -0.10711979040E+03  0.10787174280E+03  0.00000000000E+00 0.  1.
          5    1    4    4  501    0 -0.94889194376E+01 -0.18736325767E+02 -0.38204464985E+01  0.21752188551E+02  0.41800000000E+01 0.  1.
         -5    1    4    4    0  501  0.33760609556E+02  0.11884544230E+03  0.17175257603E+03  0.21161388821E+03  0.41800000000E+01 0.  1.
</event>
<event>
11    1  0.6763327E-009  0.1440876E+03  0.7561462E-02  0.1103078E+00
         22   -1    0    0    0    0  0.00000000000E+00  0.00000000000E+00  0.22116992853E+03  0.22116992853E+03  0.00000000000E+00 0. -1.
         22   -1    0    0    0    0 -0.00000000000E+00 -0.00000000000E+00 -0.62410868878E+03  0.62410868878E+03  0.00000000000E+00 0.  1.
        -24    2    1    2    0    0 -0.12630420152E+02 -0.34682753486E+02 -0.47163645594E+03  0.47989396453E+03  0.80590630503E+02 0.  0.
         25    2    1    2    0    0  0.81298491441E+02  0.16531646339E+02 -0.89321098352E+02  0.17466684256E+03  0.12508999656E+03 0.  0.
         24    2    1    2    0    0 -0.68668071289E+02  0.18151107148E+02  0.15801879403E+03  0.19071781021E+03  0.79740686957E+02 0.  0.
        -13    1    5    5    0    0 -0.12846000974E+02  0.10512120570E+02 -0.57197034229E+01  0.17556748764E+02  0.00000000000E+00 0.  1.
         14    1    5    5    0    0 -0.55822070314E+02  0.76389865775E+01  0.16373849746E+03  0.17316106144E+03  0.00000000000E+00 0. -1.
         11    1    3    3    0    0  0.38389191179E+01  0.23718538719E+02 -0.78267791093E+02  0.81872788529E+02  0.00000000000E+00 0. -1.
        -12    1    3    3    0    0 -0.16469339270E+02 -0.58401292205E+02 -0.39336866484E+03  0.39802117600E+03  0.00000000000E+00 0.  1.
          5    1    4    4  501    0  0.50823900820E+02  0.64297491696E+02 -0.18950713226E+02  0.84224926623E+02  0.41800000000E+01 0.  1.
         -5    1    4    4    0  501  0.30474590621E+02 -0.47765845357E+02 -0.70370385126E+02  0.90441915940E+02  0.41800000000E+01 0.  1.
</event>
<event>
11    1  0.6763327E-009  0.1473911E+03  0.7561462E-02  0.1099575E+00
         22   -1    0    0    0    0  0.00000000000E+00  0.00000000000E+00  0.20806198277E+04  0.20806198277E+04  0.00000000000E+00 0.  1.
         22   -1    0    0    0    0 -0.00000000000E+00 -0.00000000000E+00 -0.35831030656E+03  0.35831030656E+03  0.00000000000E+00 0.  1.
         24    2    1    2    0    0  0.18682610095E+02 -0.23940047044E+02 -0.32552858705E+03  0.33662675609E+03  0.80165741787E+02 0.  0.
         25    2    1    2    0    0 -0.73291079917E+02  0.76947170602E+02  0.23795552590E+03  0.28907190256E+03  0.12508910059E+03 0.  0.
        -24    2    1    2    0    0  0.54608469822E+02 -0.53007123558E+02  0.18098825823E+04  0.18132314756E+04  0.79634052720E+02 0.  0.
        -11    1    3    3    0    0  0.40872475902E+02 -0.18712125372E+02 -0.29563087463E+03  0.29902895672E+03  0.00000000000E+00 0.  1.
         12    1    3    3    0    0 -0.22189865807E+02 -0.52279216722E+01 -0.29897712421E+02  0.37597799371E+02  0.00000000000E+00 0. -1.
         13    1    5    5    0    0  0.37508524922E+02 -0.23045649869E+02  0.32726713553E+03  0.33021473228E+03  0.00000000000E+00 0. -1.
        -14    1    5    5    0    0  0.17099944901E+02 -0.29961473689E+02  0.14826154468E+04  0.14830167434E+04  0.00000000000E+00 0.  1.
          5    1    4    4  501    0 -0.23206916351E+02 -0.22481249545E+02  0.79963608414E+01  0.33546709740E+02  0.41800000000E+01 0. -1.
         -5    1    4    4    0  501 -0.50084163566E+02  0.99428420147E+02  0.22995916506E+03  0.25552519282E+03  0.41800000000E+01 0. -1.
</event>
<event>
11    1  0.6763327E-009  0.1537607E+03  0.7561462E-02  0.1093097E+00
         22   -1    0    0    0    0  0.00000000000E+00  0.00000000000E+00  0.19382094135E+04  0.19382094135E+04  0.00000000000E+00 0.  1.
         22   -1    0    0    0    0 -0.00000000000E+00 -0.00000000000E+00 -0.81949830150E+03  0.81949830150E+03  0.00000000000E+00 0.  1.
         24    2    1    2    0    0  0.17706975787E+02  0.88260356260E+02 -0.79630179587E+03  0.80647263879E+03  0.90543578136E+02 0.  0.
         25    2    1    2    0    0 -0.23734675547E+02 -0.52746104392E+02  0.26296986098E+03  0.29689257029E+03  0.12508622690E+03 0.  0.
        -24    2    1    2    0    0  0.60276997601E+01 -0.35514251868E+02  0.16520430469E+04  0.16543425060E+04  0.79405937262E+02 0.  0.
        -13    1    3    3    0    0  0.16712989885E+02  0.99337036808E+02 -0.78146412614E+03  0.78792978834E+03  0.00000000000E+00 0.  1.
         14    1    3    3    0    0  0.99398590200E+00 -0.11076680547E+02 -0.14837669727E+02  0.18542850451E+02  0.00000000000E+00 0. -1.
         13    1    5    5    0    0  0.11495755386E+02 -0.60443031391E+02  0.12102091859E+04  0.12117721675E+04  0.00000000000E+00 0. -1.
        -14    1    5    5    0    0 -0.54680556257E+01  0.24928779522E+02  0.44183386107E+03  0.44257033845E+03  0.00000000000E+00 0.  1.
          5    1    4    4  501    0 -0.52951577984E+01 -0.86202060170E+01 -0.12876317123E+02  0.16900254156E+02  0.41800000000E+01 0.  1.
         -5    1    4    4    0  501 -0.18439517749E+02 -0.44125898375E+02  0.27584617810E+03  0.27999231613E+03  0.41800000000E+01 0.  1.
</event>
<event>
11    1  0.6763327E-009  0.1369008E+03  0.7561462E-02  0.1111069E+00
         22   -1    0    0    0    0  0.00000000000E+00  0.00000000000E+00  0.66384881796E+02  0.66384881796E+02  0.00000000000E+00 0. -1.
         22   -1    0    0    0    0 -0.00000000000E+00 -0.00000000000E+00 -0.31689611591E+04  0.31689611591E+04  0.00000000000E+00 0.  1.
         24    2    1    2    0    0 -0.91248543839E+01 -0.22407750412E+00 -0.27364801903E+04  0.27376777481E+04  0.80450650752E+02 0.  0.
         25    2    1    2    0    0 -0.37595826208E+02  0.31786014136E+02 -0.37610211602E+03  0.39940487034E+03  0.12509057494E+03 0.  0.
        -24    2    1    2    0    0  0.46720680591E+02 -0.31561936631E+02  0.10006029022E+02  0.98263422474E+02  0.79853626972E+02 0.  0.
        -11    1    3    3    0    0 -0.63190598792E+01  0.38275668560E+02 -0.17733853466E+04  0.17738096135E+04  0.00000000000E+00 0.  1.
         12    1    3    3    0    0 -0.28057945046E+01 -0.38499746064E+02 -0.96309484373E+03  0.96386813463E+03  0.00000000000E+00 0. -1.
         11    1    5    5    0    0  0.36823579896E+02  0.19926739457E+02  0.17347027214E+02  0.45320749497E+02  0.00000000000E+00 0. -1.
        -12    1    5    5    0    0  0.98971006951E+01 -0.51488676088E+02 -0.73409981925E+01  0.52942672977E+02  0.00000000000E+00 0.  1.
          5    1    4    4  501    0 -0.33971823237E+02  0.71017133682E+02 -0.14607424138E+03  0.16598998296E+03  0.41800000000E+01 0.  1.
         -5    1    4    4    0  501 -0.36240029703E+01 -0.39231119546E+02 -0.23002787464E+03  0.23341488738E+03  0.41800000000E+01 0.  1.
</event>
<event>
11    1  0.6763327E-009  0.1513635E+03  0.7561462E-02  0.1095494E+00
         22   -1    0    0    0    0  0.00000000000E+00  0.00000000000E+00  0.34963934473E+02  0.34963934473E+02  0.00000000000E+00 0. -1.
         22   -1    0    0    0    0 -0.00000000000E+00 -0.00000000000E+00 -0.16557483330E+04  0.16557483330E+04  0.00000000000E+00 0.  1.
        -24    2    1    2    0    0 -0.27531253778E+02  0.68756697234E+02 -0.83014371743E+03  0.83721203719E+03  0.79372226099E+02 0.  0.
         25    2    1    2    0    0  0.60122466937E+02 -0.10243420050E+03 -0.70913907098E+03  0.72981616821E+03  0.12508373569E+03 0.  0.
         24    2    1    2    0    0 -0.32591213159E+02  0.33677503264E+02 -0.81501610128E+02  0.12368406208E+03  0.80367116151E+02 0.  0.
        -13    1    5    5    0    0  0.29281540741E+01  0.46426117799E+02 -0.70338837041E+02  0.84329772301E+02  0.00000000000E+00 0.  1.
         14    1    5    5    0    0 -0.35519367233E+02 -0.12748614535E+02 -0.11162773087E+02  0.39354289781E+02  0.00000000000E+00 0. -1.
         11    1    3    3    0    0 -0.20940222683E+01 -0.17513380896E+02 -0.99251005360E+02  0.10080607871E+03  0.00000000000E+00 0. -1.
        -12    1    3    3    0    0 -0.25437231510E+02  0.86270078131E+02 -0.73089271207E+03  0.73640595848E+03  0.00000000000E+00 0.  1.
          5    1    4    4  501    0  0.24917504385E+02 -0.74130863883E+02 -0.65281002651E+03  0.65749119395E+03  0.41800000000E+01 0. -1.
         -5    1    4    4    0  501  0.35204962552E+02 -0.28303336615E+02 -0.56329044470E+02  0.72324974267E+02  0.41800000000E+01 0. -1.
</event>
<event>
11    1  0.6763327E-009  0.1694034E+03  0.7561462E-02  0.1078552E+00
         22   -1    0    0    0    0  0.00000000000E+00  0.00000000000E+00  0.10472610676E+04  0.10472610676E+04  0.00000000000E+00 0.  1.
         22   -1    0    0    0    0 -0.00000000000E+00 -0.00000000000E+00 -0.11519751691E+03  0.11519751691E+03  0.00000000000E+00 0.  1.
        -24    2    1    2    0    0 -0.36880868705E+02 -0.34112977669E+02 -0.58509675107E+02  0.12170990048E+03  0.94159567073E+02 0.  0.
         25    2    1    2    0    0 -0.13417132168E+02 -0.86360445031E+02  0.34800226013E+03  0.37998758976E+03  0.12508736714E+03 0.  0.
         24    2    1    2    0    0  0.50298000874E+02  0.12047342270E+03  0.64257096565E+03  0.66076109426E+03  0.81633591881E+02 0.  0.
        -13    1    5    5    0    0  0.21418334673E+02  0.12263878500E+03  0.49873497755E+03  0.51403851459E+03  0.00000000000E+00 0.  1.
         14    1    5    5    0    0  0.28879666201E+02 -0.21653622976E+01  0.14383598810E+03  0.14672257967E+03  0.00000000000E+00 0. -1.
         13    1    3    3    0    0 -0.21372116178E+02 -0.66972947109E+02 -0.36225017743E+02  0.79084732439E+02  0.00000000000E+00 0. -1.
        -14    1    3    3    0    0 -0.15508752527E+02  0.32859969440E+02 -0.22284657364E+02  0.42625168039E+02  0.00000000000E+00 0.  1.
          5    1    4    4  501    0 -0.11682661847E+02  0.29040609056E+02  0.12409612523E+03  0.12805140475E+03  0.41800000000E+01 0.  1.
         -5    1    4    4    0  501 -0.17344703214E+01 -0.11540105409E+03  0.22390613490E+03  0.25193618501E+03  0.41800000000E+01 0.  1.
</event>
<event>
11    1  0.6763327E-009  0.1905012E+03  0.7561462E-02  0.1061452E+00
         22   -1    0    0    0    0  0.00000000000E+00  0.00000000000E+00  0.15858581714E+04  0.15858581714E+04  0.00000000000E+00 0. -1.
         22   -1    0    0    0    0 -0.00000000000E+00 -0.00000000000E+00 -0.22114509355E+03  0.22114509355E+03  0.00000000000E+00 0.  1.
        -24    2    1    2    0    0  0.56956090669E+02 -0.13116740371E+03 -0.13309875128E+03  0.21142375169E+03  0.80844549152E+02 0.  0.
         25    2    1    2    0    0 -0.58272194407E+02  0.13505269864E+03  0.14885810089E+03  0.24380426953E+03  0.12508759965E+03 0.  0.
         24    2    1    2    0    0  0.13161037378E+01 -0.38852949377E+01  0.13489537282E+04  0.13517752437E+04  0.87197023853E+02 0.  0.
        -13    1    5    5    0    0 -0.30723605556E+02  0.24218888317E+02  0.41215013682E+03  0.41400269295E+03  0.00000000000E+00 0.  1.
         14    1    5    5    0    0  0.32039709294E+02 -0.28104183254E+02  0.93680359138E+03  0.93777255073E+03  0.00000000000E+00 0. -1.
         13    1    3    3    0    0 -0.93155694168E+01 -0.50010976854E+02 -0.13931327927E+02  0.52744284404E+02  0.00000000000E+00 0. -1.
        -14    1    3    3    0    0  0.66271660086E+02 -0.81156426852E+02 -0.11916742336E+03  0.15867946729E+03  0.00000000000E+00 0.  1.
          5    1    4    4  501    0 -0.56603636464E+02  0.15839017018E+03  0.12133545862E+03  0.20743959022E+03  0.41800000000E+01 0. -1.
         -5    1    4    4    0  501 -0.16685579430E+01 -0.23337471539E+02  0.27522642271E+02  0.36364679306E+02  0.41800000000E+01 0. -1.
</event>
<event>
11    1  0.6763327E-009  0.2015393E+03  0.7561462E-02  0.1053440E+00
         22   -1    0    0    0    0  0.00000000000E+00  0.00000000000E+00  0.10913016963E+04  0.10913016963E+04  0.00000000000E+00 0.  1.
         22   -1    0    0    0    0 -0.00000000000E+00 -0.00000000000E+00 -0.48650951982E+03  0.48650951982E+03  0.00000000000E+00 0.  1.
         24    2    1    2    0    0  0.15933289531E+03 -0.51827076729E+01 -0.42000284621E+03  0.45678444884E+03  0.82678956761E+02 0.  0.
         25    2    1    2    0    0 -0.14112045823E+03  0.39410216839E+02  0.15692870197E+03  0.24847913646E+03  0.12508842806E+03 0.  0.
        -24    2    1    2    0    0 -0.18212437087E+02 -0.34227509167E+02  0.86786632068E+03  0.87254763078E+03  0.81511975585E+02 0.  0.
        -13    1    3    3    0    0  0.16149595960E+03 -0.14143906957E+02 -0.41647425535E+03  0.44691363869E+03  0.00000000000E+00 0.  1.
         14    1    3    3    0    0 -0.21630642835E+01  0.89611992837E+01 -0.35285908547E+01  0.98708101550E+01  0.00000000000E+00 0. -1.
         13    1    5    5    0    0  0.29129525015E+02 -0.26713333417E+00  0.19504704482E+03  0.19721042133E+03  0.00000000000E+00 0. -1.
        -14    1    5    5    0    0 -0.47341962102E+02 -0.33960375832E+02  0.67281927586E+03  0.67533720945E+03  0.00000000000E+00 0.  1.
          5    1    4    4  501    0 -0.34012879336E+02  0.71740587490E+02  0.51741061145E+02  0.94858830177E+02  0.41800000000E+01 0. -1.
         -5    1    4    4    0  501 -0.10710757889E+03 -0.32330370650E+02  0.10518764082E+03  0.15362030629E+03  0.41800000000E+01 0. -1.
</event>
<event>
11    1  0.6763327E-009  0.1671327E+03  0.7561462E-02  0.1080554E+00
         22   -1    0    0    0    0  0.00000000000E+00  0.00000000000E+00  0.37482669920E+04  0.37482669920E+04  0.00000000000E+00 0. -1.
         22   -1    0    0    0    0 -0.00000000000E+00 -0.00000000000E+00 -0.47704153578E+02  0.47704153578E+02  0.00000000000E+00 0. -1.
         24    2    1    2    0    0  0.58935026595E+02  0.94119705115E+02  0.65976913169E+02  0.15105300601E+03  0.78308373131E+02 0.  0.
         25    2    1    2    0    0 -0.36487082268E+02 -0.10412368504E+03  0.16026581387E+04  0.16113142083E+04  0.12508924620E+03 0.  0.
        -24    2    1    2    0    0 -0.22447944328E+02  0.10003979921E+02  0.20319277866E+04  0.20336039313E+04  0.78806278341E+02 0.  0.
        -11    1    3    3    0    0  0.17147541500E+02  0.52604017400E+02  0.73145180341E+02  0.91713893349E+02  0.00000000000E+00 0.  1.
         12    1    3    3    0    0  0.41787485096E+02  0.41515687715E+02 -0.71682671718E+01  0.59339112660E+02  0.00000000000E+00 0. -1.
         13    1    5    5    0    0 -0.83218996460E+01  0.99605792326E+01  0.19716620290E+04  0.19717047507E+04  0.00000000000E+00 0. -1.
        -14    1    5    5    0    0 -0.14126044682E+02  0.43400688074E-01  0.60265757608E+02  0.61899180625E+02  0.00000000000E+00 0.  1.
          5    1    4    4  501    0 -0.49472163778E+02 -0.12901057424E+03  0.13566773544E+04  0.13637016315E+04  0.41800000000E+01 0.  1.
         -5    1    4    4    0  501  0.12985081511E+02  0.24886889202E+02  0.24598078422E+03  0.24761257683E+03  0.41800000000E+01 0.  1.
</event>
<event>
11    1  0.6763327E-009  0.1265716E+03  0.7561462E-02  0.1123555E+00
         22   -1    0    0    0    0  0.00000000000E+00  0.00000000000E+00  0.85902371994E+03  0.85902371994E+03  0.00000000000E+00 0. -1.
         22   -1    0    0    0    0 -0.00000000000E+00 -0.00000000000E+00 -0.84645408196E+02  0.84645408196E+02  0.00000000000E+00 0. -1.
         24    2    1    2    0    0 -0.18994521589E+01  0.29670458179E-02 -0.34726747780E+02  0.90726261690E+02  0.83795582351E+02 0.  0.
         25    2    1    2    0    0 -0.17017354404E+02 -0.49180255795E+01  0.19075894586E+03  0.22880241680E+03  0.12509113950E+03 0.  0.
        -24    2    1    2    0    0  0.18916806563E+02  0.49150585337E+01  0.61834611367E+03  0.62414044965E+03  0.82567434434E+02 0.  0.
        -13    1    3    3    0    0 -0.34203746317E+02  0.19511254571E+02  0.94879689584E-01  0.39377586508E+02  0.00000000000E+00 0.  1.
         14    1    3    3    0    0  0.32304294158E+02 -0.19508287526E+02 -0.34821627470E+02  0.51348675181E+02  0.00000000000E+00 0. -1.
         11    1    5    5    0    0 -0.47226860912E+01  0.78331425345E+01  0.57162403342E+03  0.57169720785E+03  0.00000000000E+00 0. -1.
        -12    1    5    5    0    0  0.23639492654E+02 -0.29180840008E+01  0.46722080248E+02  0.52443241795E+02  0.00000000000E+00 0.  1.
          5    1    4    4  501    0 -0.84622519111E+01  0.59988374950E+02  0.93254595964E+02  0.11128390227E+03  0.41800000000E+01 0. -1.
         -5    1    4    4    0  501 -0.85551024929E+01 -0.64906400529E+02  0.97504349892E+02  0.11751851453E+03  0.41800000000E+01 0. -1.
</event>
<event>
11    1  0.6763327E-009  0.1607539E+03  0.7561462E-02  0.1086370E+00
         22   -1    0    0    0    0  0.00000000000E+00  0.00000000000E+00  0.41309877120E+03  0.41309877120E+03  0.00000000000E+00 0.  1.
         22   -1    0    0    0    0 -0.00000000000E+00 -0.00000000000E+00 -0.19204128554E+04  0.19204128554E+04  0.00000000000E+00 0.  1.
         24    2    1    2    0    0  0.42334655743E+02  0.44709907085E+01 -0.17373923692E+04  0.17397240027E+04  0.79341968541E+02 0.  0.
         25    2    1    2    0    0  0.52819802454E+02 -0.44588759452E+02 -0.14069252825E+03  0.20054714354E+03  0.12508669104E+03 0.  0.
        -24    2    1    2    0    0 -0.95154458197E+02  0.40117768744E+02  0.37077081330E+03  0.39324048037E+03  0.80642873952E+02 0.  0.
        -11    1    3    3    0    0 -0.21474609715E+01  0.91237052079E+00 -0.13111535386E+04  0.13111556146E+04  0.00000000000E+00 0.  1.
         12    1    3    3    0    0  0.44482116715E+02  0.35586201877E+01 -0.42623883065E+03  0.42856838806E+03  0.00000000000E+00 0. -1.
         13    1    5    5    0    0 -0.33792322298E+02 -0.37061774724E+01  0.33809091143E+02  0.47944879202E+02  0.00000000000E+00 0. -1.
        -14    1    5    5    0    0 -0.61362135899E+02  0.43823946216E+02  0.33696172216E+03  0.34529560117E+03  0.00000000000E+00 0.  1.
          5    1    4    4  501    0  0.87239477914E+02 -0.35626105623E+02 -0.13438282113E+03  0.16418331499E+03  0.41800000000E+01 0. -1.
         -5    1    4    4    0  501 -0.34419675460E+02 -0.89626538296E+01 -0.63097071276E+01  0.36363828545E+02  0.41800000000E+01 0. -1.
</event>
<event>
11    1  0.6763327E-009  0.1627424E+03  0.7561462E-02  0.1084526E+00
         22   -1    0    0    0    0  0.00000000000E+00  0.00000000000E+00  0.13333903414E+03  0.13333903414E+03  0.00000000000E+00 0.  1.
         22   -1    0    0    0    0 -0.00000000000E+00 -0.00000000000E+00 -0.12678559248E+04  0.12678559248E+04  0.00000000000E+00 0. -1.
        -24    2    1    2    0    0 -0.97454151420E+02  0.19730248109E+02 -0.99791710135E+03  0.10059776137E+04  0.79156957203E+02 0.  0.
         25    2    1    2    0    0  0.16505886864E+03  0.18163380108E+02 -0.17988816916E+03  0.27492281736E+03  0.12509381922E+03 0.  0.
         24    2    1    2    0    0 -0.67604717218E+02 -0.37893628217E+02  0.43288379897E+02  0.12029452779E+03  0.81182293217E+02 0.  0.
        -13    1    5    5    0    0 -0.33475524154E+02 -0.60506525473E+02  0.38309037701E+02  0.79052088598E+02  0.00000000000E+00 0.  1.
         14    1    5    5    0    0 -0.34129193064E+02  0.22612897256E+02  0.49793421957E+01  0.41242439189E+02  0.00000000000E+00 0. -1.
         13    1    3    3    0    0 -0.10125626341E+03  0.54339185730E+01 -0.95896031445E+03  0.96430661257E+03  0.00000000000E+00 0. -1.
        -14    1    3    3    0    0  0.38021119868E+01  0.14296329536E+02 -0.38956786898E+02  0.41671001178E+02  0.00000000000E+00 0.  1.
          5    1    4    4  501    0  0.25761761521E+02  0.37776424573E+02 -0.10699830165E+03  0.11643382484E+03  0.41800000000E+01 0. -1.
         -5    1    4    4    0  501  0.13929710712E+03 -0.19613044465E+02 -0.72889867510E+02  0.15848899252E+03  0.41800000000E+01 0. -1.
</event>
<event>
11    1  0.6763327E-009  0.1375287E+03  0.7561462E-02  0.1110350E+00
         22   -1    0    0    0    0  0.00000000000E+00  0.00000000000E+00  0.16065036617E+04  0.16065036617E+04  0.00000000000E+00 0.  1.
         22   -1    0    0    0    0 -0.00000000000E+00 -0.00000000000E+00 -0.53821459873E+03  0.53821459873E+03  0.00000000000E+00 0. -1.
        -24    2    1    2    0    0 -0.33448684484E+02 -0.46263111429E+02 -0.52440853862E+03  0.53460947354E+03  0.86855534310E+02 0.  0.
         25    2    1    2    0    0  0.16508807294E+02  0.71076638426E+02  0.75711535122E+03  0.77084070729E+03  0.12508921503E+03 0.  0.
         24    2    1    2    0    0  0.16939877190E+02 -0.24813526997E+02  0.83558225034E+03  0.83926807958E+03  0.72598496877E+02 0.  0.
        -11    1    5    5    0    0 -0.16969848904E+02 -0.27641429875E+02  0.63438872108E+03  0.63521734379E+03  0.00000000000E+00 0.  1.
         12    1    5    5    0    0  0.33909726094E+02  0.28279028784E+01  0.20119352926E+03  0.20405073578E+03  0.00000000000E+00 0. -1.
         11    1    3    3    0    0  0.12739672504E+02 -0.16257221584E+02 -0.37166717184E+03  0.37224062531E+03  0.00000000000E+00 0. -1.
        -12    1    3    3    0    0 -0.46188356988E+02 -0.30005889845E+02 -0.15274136679E+03  0.16236884823E+03  0.00000000000E+00 0.  1.
          5    1    4    4  501    0  0.50301071625E+02  0.71803714852E+01  0.53040810346E+03  0.53285268523E+03  0.41800000000E+01 0. -1.
         -5    1    4    4    0  501 -0.33792264331E+02  0.63896266941E+02  0.22670724776E+03  0.23798802206E+03  0.41800000000E+01 0. -1.
</event>
<event>
11    1  0.6763327E-009  0.1592401E+03  0.7561462E-02  0.1087794E+00
         22   -1    0    0    0    0  0.00000000000E+00  0.00000000000E+00  0.25546968227E+03  0.25546968227E+03  0.00000000000E+00 0.  1.
         22   -1    0    0    0    0 -0.00000000000E+00 -0.00000000000E+00 -0.17954221357E+04  0.17954221357E+04  0.00000000000E+00 0.  1.
         24    2    1    2    0    0  0.12118533444E+02  0.81601103840E+01 -0.16341036106E+04  0.16361839581E+04  0.81178127562E+02 0.  0.
         25    2    1    2    0    0  0.71332404945E+02  0.47352555820E+02 -0.10111987802E+03  0.18222135115E+03  0.12509522192E+03 0.  0.
        -24    2    1    2    0    0 -0.83450938389E+02 -0.55512666204E+02  0.19527103512E+03  0.23248650877E+03  0.76638661082E+02 0.  0.
        -13    1    3    3    0    0  0.32892575819E+02 -0.20705122886E+02 -0.11988487809E+04  0.11994786463E+04  0.00000000000E+00 0.  1.
         14    1    3    3    0    0 -0.20774042375E+02  0.28865233270E+02 -0.43525482969E+03  0.43670531173E+03  0.00000000000E+00 0. -1.
         11    1    5    5    0    0 -0.10567331060E+02  0.17795777807E+02  0.50678987858E+02  0.54742287162E+02  0.00000000000E+00 0. -1.
        -12    1    5    5    0    0 -0.72883607329E+02 -0.73308444011E+02  0.14459204727E+03  0.17774422160E+03  0.00000000000E+00 0.  1.
          5    1    4    4  501    0 -0.63871047077E+01 -0.35768249963E+02 -0.15363503757E+02  0.39669540704E+02  0.41800000000E+01 0.  1.
         -5    1    4    4    0  501  0.77719509653E+02  0.83120805783E+02 -0.85756374259E+02  0.14255181044E+03  0.41800000000E+01 0.  1.
</event>
<event>
11    1  0.6763327E-009  0.1474259E+03  0.7561462E-02  0.1099538E+00
         22   -1    0    0    0    0  0.00000000000E+00  0.00000000000E+00  0.18009577075E+03  0.18009577075E+03  0.00000000000E+00 0. -1.
         22   -1    0    0    0    0 -0.00000000000E+00 -0.00000000000E+00 -0.53567663728E+03  0.53567663728E+03  0.00000000000E+00 0.  1.
         24    2    1    2    0    0 -0.21390879213E+02 -0.49797566684E+02 -0.42046006350E+03  0.43103268059E+03  0.77879004685E+02 0.  0.
         25    2    1    2    0    0  0.63216319664E+02  0.99396072880E+02  0.74114770342E+01  0.17198209541E+03  0.12508808407E+03 0.  0.
        -24    2    1    2    0    0 -0.41825440451E+02 -0.49598506196E+02  0.57467719934E+02  0.11275763203E+03  0.72127425158E+02 0.  0.
        -11    1    3    3    0    0 -0.23892486873E+02 -0.70126660804E+02 -0.34306091159E+03  0.35096921310E+03  0.00000000000E+00 0.  1.
         12    1    3    3    0    0  0.25016076605E+01  0.20329094120E+02 -0.77399151915E+02  0.80063467485E+02  0.00000000000E+00 0. -1.
         11    1    5    5    0    0  0.10912019099E+02 -0.38444560467E+02  0.10643538791E+02  0.41356272901E+02  0.00000000000E+00 0. -1.
        -12    1    5    5    0    0 -0.52737459550E+02 -0.11153945730E+02  0.46824181143E+02  0.71401359125E+02  0.00000000000E+00 0.  1.
          5    1    4    4  501    0  0.69391400813E+02  0.12613405416E+03  0.76068387964E+01  0.14422309982E+03  0.41800000000E+01 0. -1.
         -5    1    4    4    0  501 -0.61750811485E+01 -0.26737981280E+02 -0.19536176215E+00  0.27758995593E+02  0.41800000000E+01 0. -1.
</event>
<event>
11    1  0.6763327E-009  0.1345437E+03  0.7561462E-02  0.1113809E+00
         22   -1    0    0    0    0  0.00000000000E+00  0.00000000000E+00  0.46314601797E+03  0.46314601797E+03  0.00000000000E+00 0.  1.
         22   -1    0    0    0    0 -0.00000000000E+00 -0.00000000000E+00 -0.41568388846E+03  0.41568388846E+03  0.00000000000E+00 0.  1.
        -24    2    1    2    0    0  0.72093974488E+01 -0.46170486773E+01 -0.28934917599E+03  0.30045323443E+03  0.80473025797E+02 0.  0.
         25    2    1    2    0    0  0.36281743466E+02  0.28730188836E+02 -0.76541756913E+02  0.15377964274E+03  0.12509096415E+03 0.  0.
         24    2    1    2    0    0 -0.43491140915E+02 -0.24113140159E+02  0.41335306242E+03  0.42459702926E+03  0.83360423324E+02 0.  0.
        -13    1    5    5    0    0  0.10048496495E+01  0.13326090406E+02  0.26376731243E+03  0.26410564083E+03  0.00000000000E+00 0.  1.
         14    1    5    5    0    0 -0.44495990564E+02 -0.37439230565E+02  0.14958574999E+03  0.16049138843E+03  0.00000000000E+00 0. -1.
         11    1    3    3    0    0 -0.15544101216E+02  0.24043494072E+02 -0.44704209572E+02  0.53086486447E+02  0.00000000000E+00 0. -1.
        -12    1    3    3    0    0  0.22753498665E+02 -0.28660542749E+02 -0.24464496642E+03  0.24736674798E+03  0.00000000000E+00 0.  1.
          5    1    4    4  501    0  0.57495881469E+01  0.25666817152E+02 -0.10704658311E+03  0.11030995703E+03  0.41800000000E+01 0.  1.
         -5    1    4    4    0  501  0.30532155319E+02  0.30633716849E+01  0.30504826193E+02  0.43469685708E+02  0.41800000000E+01 0.  1.
</event>
<event>
11    1  0.6763327E-009  0.1543206E+03  0.7561462E-02  0.1092544E+00
         22   -1    0    0    0    0  0.00000000000E+00  0.00000000000E+00  0.62107256393E+03  0.62107256393E+03  0.00000000000E+00 0.  1.
         22   -1    0    0    0    0 -0.00000000000E+00 -0.00000000000E+00 -0.56604090813E+03  0.56604090813E+03  0.00000000000E+00 0.  1.
        -24    2    1    2    0    0  0.10847836103E+02  0.12636045722E+01 -0.30440131038E+03  0.31478362091E+03  0.79431089568E+02 0.  0.
         25    2    1    2    0    0  0.72339318473E+02 -0.37154245386E+02 -0.22799688586E+03  0.27247762662E+03  0.12509221439E+03 0.  0.
         24    2    1    2    0    0 -0.83187154576E+02  0.35890640814E+02  0.58742985204E+03  0.59985222452E+03  0.80874096051E+02 0.  0.
        -13    1    5    5    0    0 -0.86332116941E+02  0.92799397121E+00  0.41981789522E+03  0.42860373393E+03  0.00000000000E+00 0.  1.
         14    1    5    5    0    0  0.31449623645E+01  0.34962646842E+02  0.16761195682E+03  0.17124849059E+03  0.00000000000E+00 0. -1.
         13    1    3    3    0    0 -0.29656579243E+02  0.15997567611E+02 -0.90188450350E+02  0.96277678817E+02  0.00000000000E+00 0. -1.
        -14    1    3    3    0    0  0.40504415346E+02 -0.14733963038E+02 -0.21421286003E+03  0.21850594210E+03  0.00000000000E+00 0.  1.
          5    1    4    4  501    0  0.42886238263E+02 -0.80914127445E+02 -0.11022156802E+03  0.14336175191E+03  0.41800000000E+01 0. -1.
         -5    1    4    4    0  501  0.29453080211E+02  0.43759882059E+02 -0.11777531784E+03  0.12911587472E+03  0.41800000000E+01 0. -1.
</event>
<event>
11    1  0.6763327E-009  0.1354586E+03  0.7561462E-02  0.1112738E+00
         22   -1    0    0    0    0  0.00000000000E+00  0.00000000000E+00  0.61361879889E+03  0.61361879889E+03  0.00000000000E+00 0.  1.
         22   -1    0    0    0    0 -0.00000000000E+00 -0.00000000000E+00 -0.18806675205E+03  0.18806675205E+03  0.00000000000E+00 0.  1.
        -24    2    1    2    0    0  0.40622669202E+01 -0.23492206855E+02 -0.10097076483E+03  0.13045600934E+03  0.79090386437E+02 0.  0.
         25    2    1    2    0    0  0.20417617794E+02 -0.23915869358E+02 -0.67648181029E+01  0.12915891723E+03  0.12508962872E+03 0.  0.
         24    2    1    2    0    0 -0.24479884715E+02  0.47408076213E+02  0.53328762978E+03  0.54207062437E+03  0.81228537370E+02 0.  0.
        -11    1    5    5    0    0  0.12085486967E+02  0.55646786273E+02  0.38134545407E+03  0.38557357166E+03  0.00000000000E+00 0.  1.
         12    1    5    5    0    0 -0.36565371681E+02 -0.82387100602E+01  0.15194217571E+03  0.15649705271E+03  0.00000000000E+00 0. -1.
         11    1    3    3    0    0 -0.11123211114E+02 -0.20563136657E+02  0.45419456506E+01  0.23815912431E+02  0.00000000000E+00 0. -1.
        -12    1    3    3    0    0  0.15185478034E+02 -0.29290701987E+01 -0.10551271048E+03  0.10664009691E+03  0.00000000000E+00 0.  1.
          5    1    4    4  501    0 -0.37707760820E+02 -0.28160172514E+02  0.33744002315E+02  0.58060318930E+02  0.41800000000E+01 0.  1.
         -5    1    4    4    0  501  0.58125378614E+02  0.42443031568E+01 -0.40508820418E+02  0.71098598298E+02  0.41800000000E+01 0.  1.
</event>
<event>
11    1  0.6763327E-009  0.1449784E+03  0.7561462E-02  0.1102123E+00
         22   -1    0    0    0    0  0.00000000000E+00  0.00000000000E+00  0.89634210707E+03  0.89634210707E+03  0.00000000000E+00 0.  1.
         22   -1    0    0    0    0 -0.00000000000E+00 -0.00000000000E+00 -0.57103456398E+03  0.57103456398E+03  0.00000000000E+00 0.  1.
        -24    2    1    2    0    0  0.12252946111E+02  0.72096650304E+02 -0.53140962661E+03  0.54242503020E+03  0.80502549448E+02 0.  0.
         25    2    1    2    0    0 -0.58353269870E+02 -0.69929542193E+02  0.16185157267E+03  0.22391407354E+03  0.12508531400E+03 0.  0.
         24    2    1    2    0    0  0.46100323759E+02 -0.21671081112E+01  0.69486559703E+03  0.70103756730E+03  0.80532829511E+02 0.  0.
        -13    1    5    5    0    0  0.15527211324E+02 -0.35885497611E+02  0.46927635530E+03  0.47090249614E+03  0.00000000000E+00 0.  1.
         14    1    5    5    0    0  0.30573112435E+02  0.33718389499E+02  0.22558924173E+03  0.23013507116E+03  0.00000000000E+00 0. -1.
         13    1    3    3    0    0 -0.28530960129E+02  0.24666350929E+02 -0.10748115223E+03  0.11390628884E+03  0.00000000000E+00 0. -1.
        -14    1    3    3    0    0  0.40783906240E+02  0.47430299375E+02 -0.42392847438E+03  0.42851874136E+03  0.00000000000E+00 0.  1.
          5    1    4    4  501    0  0.63040081928E+01 -0.29428866946E+02 -0.13035720827E+02  0.33063592462E+02  0.41800000000E+01 0.  1.
         -5    1    4    4    0  501 -0.64657278063E+02 -0.40500675247E+02  0.17488729350E+03  0.19085048108E+03  0.41800000000E+01 0.  1.
</event>
<event>
11    1  0.6763327E-009  0.1641362E+03  0.7561462E-02  0.1083250E+00
         22   -1    0    0    0    0  0.00000000000E+00  0.00000000000E+00  0.30025456258E+04  0.30025456258E+04  0.00000000000E+00 0.  1.
         22   -1    0    0    0    0 -0.00000000000E+00 -0.00000000000E+00 -0.58393915331E+03  0.58393915331E+03  0.00000000000E+00 0.  1.
         24    2    1    2    0    0 -0.18196272710E+02 -0.10939110654E+03 -0.42892025357E+03  0.45037909973E+03  0.81063129829E+02 0.  0.
         25    2    1    2    0    0  0.10063320465E+02  0.88141863130E+02 -0.10278476756E+03  0.18461614000E+03  0.12509257472E+03 0.  0.
        -24    2    1    2    0    0  0.81329522454E+01  0.21249243405E+02  0.29503114937E+04  0.29514895394E+04  0.80217930644E+02 0.  0.
        -13    1    3    3    0    0 -0.21481279232E+02 -0.11573118785E+03 -0.42708177768E+03  0.44300564108E+03  0.00000000000E+00 0.  1.
         14    1    3    3    0    0  0.32850065220E+01  0.63400813124E+01 -0.18384758922E+01  0.73734586527E+01  0.00000000000E+00 0. -1.
         11    1    5    5    0    0 -0.26353804467E+02  0.12160911882E+02  0.45582825846E+03  0.45675136781E+03  0.00000000000E+00 0. -1.
        -12    1    5    5    0    0  0.34486756712E+02  0.90883315231E+01  0.24944832352E+04  0.24947381716E+04  0.00000000000E+00 0.  1.
          5    1    4    4  501    0 -0.21338175267E+02  0.97639132376E+02 -0.11211568353E+03  0.15025350841E+03  0.41800000000E+01 0. -1.
         -5    1    4    4    0  501  0.31401495732E+02 -0.94972692455E+01  0.93309159675E+01  0.34362631595E+02  0.41800000000E+01 0. -1.
</event>
<event>
11    1  0.6763327E-009  0.1494608E+03  0.7561462E-02  0.1097431E+00
         22   -1    0    0    0    0  0.00000000000E+00  0.00000000000E+00  0.52060951933E+03  0.52060951933E+03  0.00000000000E+00 0. -1.
         22   -1    0    0    0    0 -0.00000000000E+00 -0.00000000000E+00 -0.64813641284E+03  0.64813641284E+03  0.00000000000E+00 0.  1.
        -24    2    1    2    0    0 -0.81798459903E+02 -0.10185750067E+02 -0.60652592538E+03  0.61692582757E+03  0.77000266350E+02 0.  0.
         25    2    1    2    0    0  0.56039065496E+02  0.44509102672E+02  0.14078028020E+03  0.20146062700E+03  0.12508341159E+03 0.  0.
         24    2    1    2    0    0  0.25759394407E+02 -0.34323352606E+02  0.33821875167E+03  0.35035947760E+03  0.80735374095E+02 0.  0.
        -11    1    5    5    0    0  0.21261504256E+02 -0.14988929569E+02  0.23626580997E+02  0.35141640578E+02  0.00000000000E+00 0.  1.
         12    1    5    5    0    0  0.44978901504E+01 -0.19334423036E+02  0.31459217067E+03  0.31521783702E+03  0.00000000000E+00 0. -1.
         11    1    3    3    0    0 -0.59929252679E+02  0.24528985825E+02 -0.46777651679E+03  0.47223728795E+03  0.00000000000E+00 0. -1.
        -12    1    3    3    0    0 -0.21869207224E+02 -0.34714735892E+02 -0.13874940859E+03  0.14468853962E+03  0.00000000000E+00 0.  1.
          5    1    4    4  501    0  0.22916352599E+02  0.19994311485E+02 -0.19198113507E+02  0.36207342769E+02  0.41800000000E+01 0.  1.
         -5    1    4    4    0  501  0.33122712897E+02  0.24514791187E+02  0.15997839370E+03  0.16525328423E+03  0.41800000000E+01 0.  1.
</event>
<event>
11    1  0.6763327E-009  0.1852623E+03  0.7561462E-02  0.1065464E+00
         22   -1    0    0    0    0  0.00000000000E+00  0.00000000000E+00  0.49571134186E+03  0.49571134186E+03  0.00000000000E+00 0.  1.
         22   -1    0    0    0    0 -0.00000000000E+00 -0.00000000000E+00 -0.63020932608E+03  0.63020932608E+03  0.00000000000E+00 0.  1.
         24    2    1    2    0    0  0.57375921048E+02  0.79065261207E+01 -0.56458568554E+03  0.57294599544E+03  0.78457682227E+02 0.  0.
         25    2    1    2    0    0 -0.15056596244E+03 -0.74362418876E+02  0.27397251157E+03  0.34483091678E+03  0.12509015022E+03 0.  0.
        -24    2    1    2    0    0  0.93190041395E+02  0.66455892755E+02  0.15611518975E+03  0.20814375571E+03  0.76492490313E+02 0.  0.
        -11    1    3    3    0    0  0.45062407999E+02  0.16583316632E+02 -0.54961502012E+03  0.55170852571E+03  0.00000000000E+00 0.  1.
         12    1    3    3    0    0  0.12313513049E+02 -0.86767905112E+01 -0.14970665425E+02  0.21237469728E+02  0.00000000000E+00 0. -1.
         13    1    5    5    0    0 -0.13793509661E+01  0.18873437566E+02 -0.70256285099E+00  0.18936812012E+02  0.00000000000E+00 0. -1.
        -14    1    5    5    0    0  0.94569392362E+02  0.47582455190E+02  0.15681775260E+03  0.18920694370E+03  0.00000000000E+00 0.  1.
          5    1    4    4  501    0 -0.10698860980E+03 -0.91960412648E+01  0.75328028216E+02  0.13123610036E+03  0.41800000000E+01 0.  1.
         -5    1    4    4    0  501 -0.43577352643E+02 -0.65166377611E+02  0.19864448336E+03  0.21359481642E+03  0.41800000000E+01 0.  1.
</event>
<event>
11    1  0.6763327E-009  0.1317653E+03  0.7561462E-02  0.1117119E+00
         22   -1    0    0    0    0  0.00000000000E+00  0.00000000000E+00  0.35028461358E+03  0.35028461358E+03  0.00000000000E+00 0. -1.
         22   -1    0    0    0    0 -0.00000000000E+00 -0.00000000000E+00 -0.44844140616E+03  0.44844140616E+03  0.00000000000E+00 0. -1.
        -24    2    1    2    0    0  0.47208532313E+02 -0.13861035741E+02 -0.40332120087E+03  0.41232097413E+03  0.70141434220E+02 0.  0.
         25    2    1    2    0    0 -0.44972005296E+02 -0.29933340541E+02  0.12906775229E+03  0.18768402257E+03  0.12509325126E+03 0.  0.
         24    2    1    2    0    0 -0.22365270169E+01  0.43794376281E+02  0.17609665601E+03  0.19872102304E+03  0.80975695692E+02 0.  0.
        -13    1    5    5    0    0 -0.90944989715E+01  0.55363584424E+02  0.61144771137E+02  0.82985055457E+02  0.00000000000E+00 0.  1.
         14    1    5    5    0    0  0.68579719546E+01 -0.11569208142E+02  0.11495188487E+03  0.11573596758E+03  0.00000000000E+00 0. -1.
         13    1    3    3    0    0  0.41115855331E+02  0.22672948238E+02 -0.18411497575E+03  0.19000763257E+03  0.00000000000E+00 0. -1.
        -14    1    3    3    0    0  0.60926769820E+01 -0.36533983979E+02 -0.21920622513E+03  0.22231334155E+03  0.00000000000E+00 0.  1.
          5    1    4    4  501    0 -0.24667069254E+02 -0.47458069470E+02 -0.21459468840E+01  0.53691807116E+02  0.41800000000E+01 0.  1.
         -5    1    4    4    0  501 -0.20304936042E+02  0.17524728929E+02  0.13121369918E+03  0.13399221546E+03  0.41800000000E+01 0.  1.
</event>
<event>
11    1  0.6763327E-009  0.1348993E+03  0.7561462E-02  0.1113392E+00
         22   -1    0    0    0    0  0.00000000000E+00  0.00000000000E+00  0.11367187614E+03  0.11367187614E+03  0.00000000000E+00 0. -1.
         22   -1    0    0    0    0 -0.00000000000E+00 -0.00000000000E+00 -0.18845321907E+04  0.18845321907E+04  0.00000000000E+00 0.  1.
         24    2    1    2    0    0  0.28415049741E+02  0.11269527642E+02 -0.14226706431E+04  0.14252590888E+04  0.80232748612E+02 0.  0.
         25    2    1    2    0    0 -0.35008427409E+02  0.39126892247E+02 -0.42873360043E+03  0.44968527785E+03  0.12509134778E+03 0.  0.
        -24    2    1    2    0    0  0.65933776686E+01 -0.50396419889E+02  0.80543928974E+02  0.12325970027E+03  0.78245494756E+02 0.  0.
        -11    1    3    3    0    0  0.23707177630E+02 -0.15089642266E+02 -0.12663488460E+04  0.12666606204E+04  0.00000000000E+00 0.  1.
         12    1    3    3    0    0  0.47078721110E+01  0.26359169909E+02 -0.15632179714E+03  0.15859846833E+03  0.00000000000E+00 0. -1.
         13    1    5    5    0    0 -0.26207497365E+02 -0.37030002478E+02  0.74648806299E+02  0.87352723389E+02  0.00000000000E+00 0. -1.
        -14    1    5    5    0    0  0.32800875034E+02 -0.13366417412E+02  0.58951226740E+01  0.35906976881E+02  0.00000000000E+00 0.  1.
          5    1    4    4  501    0 -0.27996824286E+02 -0.41252740499E+02 -0.22545584710E+03  0.23094030000E+03  0.41800000000E+01 0.  1.
         -5    1    4    4    0  501 -0.70116031237E+01  0.80379632746E+02 -0.20327775332E+03  0.21874497785E+03  0.41800000000E+01 0.  1.
</event>
<event>
11    1  0.6763327E-009  0.1372961E+03  0.7561462E-02  0.1110616E+00
         22   -1    0    0    0    0  0.00000000000E+00  0.00000000000E+00  0.34602204120E+03  0.34602204120E+03  0.00000000000E+00 0.  1.
         22   -1    0    0    0    0 -0.00000000000E+00 -0.00000000000E+00 -0.36364913559E+03  0.36364913559E+03  0.00000000000E+00 0. -1.
         24    2    1    2    0    0  0.33866705592E+02 -0.54243105273E+02 -0.27334161278E+03  0.29224033770E+03  0.81237365066E+02 0.  0.
         25    2    1    2    0    0  0.92834651676E+01  0.56682446378E+01 -0.13842470266E+02  0.12632410031E+03  0.12509137706E+03 0.  0.
        -24    2    1    2    0    0 -0.43150170760E+02  0.48574860635E+02  0.26955698865E+03  0.29110673877E+03  0.88660638991E+02 0.  0.
        -13    1    3    3    0    0  0.44534211186E+01 -0.46444646140E+02 -0.56503240529E+02  0.73277242750E+02  0.00000000000E+00 0.  1.
         14    1    3    3    0    0  0.29413284474E+02 -0.77984591329E+01 -0.21683837226E+03  0.21896309495E+03  0.00000000000E+00 0. -1.
         13    1    5    5    0    0  0.12886089616E+02  0.15786077489E+02  0.84690133427E+01  0.22067526710E+02  0.00000000000E+00 0. -1.
        -14    1    5    5    0    0 -0.56036260376E+02  0.32788783146E+02  0.26108797531E+03  0.26903921206E+03  0.00000000000E+00 0.  1.
          5    1    4    4  501    0 -0.52735542664E+02  0.12541058516E+02 -0.29500479463E+02  0.61855204287E+02  0.41800000000E+01 0.  1.
         -5    1    4    4    0  501  0.62019007832E+02 -0.68728138780E+01  0.15658009197E+02  0.64468896028E+02  0.41800000000E+01 0.  1.
</event>
<event>
11    1  0.6763327E-009  0.1485505E+03  0.7561462E-02  0.1098369E+00
         22   -1    0    0    0    0  0.00000000000E+00  0.00000000000E+00  0.14787061625E+04  0.14787061625E+04  0.00000000000E+00 0.  1.
         22   -1    0    0    0    0 -0.00000000000E+00 -0.00000000000E+00 -0.34619665679E+02  0.34619665679E+02  0.00000000000E+00 0. -1.
        -24    2    1    2    0    0  0.41707694435E+02  0.63646965148E+02  0.13941148581E+03  0.17817824442E+03  0.80755535173E+02 0.  0.
         25    2    1    2    0    0 -0.81052720841E+02 -0.55092004248E+02  0.48231081050E+03  0.50781586762E+03  0.12509422443E+03 0.  0.
         24    2    1    2    0    0  0.39345026406E+02 -0.85549608999E+01  0.82236420053E+03  0.82733171616E+03  0.81078183264E+02 0.  0.
        -13    1    5    5    0    0  0.56170119075E+02 -0.58988087334E+01  0.33939723785E+03  0.34406447547E+03  0.00000000000E+00 0.  1.
         14    1    5    5    0    0 -0.16825092670E+02 -0.26561521665E+01  0.48296696267E+03  0.48326724069E+03  0.00000000000E+00 0. -1.
         11    1    3    3    0    0  0.21797320039E+02 -0.51981481158E+01  0.11396605944E+01  0.22437529521E+02  0.00000000000E+00 0. -1.
        -12    1    3    3    0    0  0.19910374396E+02  0.68845113263E+02  0.13827182521E+03  0.15574071490E+03  0.00000000000E+00 0.  1.
          5    1    4    4  501    0 -0.81313901726E+02 -0.53017100116E+02  0.17258730346E+03  0.19805709590E+03  0.41800000000E+01 0. -1.
         -5    1    4    4    0  501  0.26118088490E+00 -0.20749041320E+01  0.30972350704E+03  0.30975877172E+03  0.41800000000E+01 0. -1.
</event>
<event>
11    1  0.6763327E-009  0.1650515E+03  0.7561462E-02  0.1082420E+00
         22   -1    0    0    0    0  0.00000000000E+00  0.00000000000E+00  0.24762185350E+04  0.24762185350E+04  0.00000000000E+00 0. -1.
         22   -1    0    0    0    0 -0.00000000000E+00 -0.00000000000E+00 -0.17799472511E+03  0.17799472511E+03  0.00000000000E+00 0. -1.
        -24    2    1    2    0    0  0.17612202932E+02 -0.41983403712E+02 -0.12176805067E+03  0.15306138778E+03  0.80793158036E+02 0.  0.
         25    2    1    2    0    0 -0.12324959277E+03  0.53960705998E+02  0.18308389540E+03  0.25936364037E+03  0.12509022855E+03 0.  0.
         24    2    1    2    0    0  0.10563738984E+03 -0.11977302286E+02  0.22369079651E+04  0.22417882320E+04  0.10273518644E+03 0.  0.
        -13    1    5    5    0    0 -0.15082776898E+02  0.67638128386E+01  0.97196713822E+02  0.98592294328E+02  0.00000000000E+00 0.  1.
         14    1    5    5    0    0  0.12072016674E+03 -0.18741115125E+02  0.21397112513E+04  0.21431959376E+04  0.00000000000E+00 0. -1.
         11    1    3    3    0    0  0.30872205366E+02 -0.16488767133E+02 -0.11917467930E+03  0.12420779642E+03  0.00000000000E+00 0. -1.
        -12    1    3    3    0    0 -0.13260002434E+02 -0.25494636579E+02 -0.25933713636E+01  0.28853591352E+02  0.00000000000E+00 0.  1.
          5    1    4    4  501    0 -0.25789126652E+01 -0.30327146416E+02  0.60145677105E+02  0.67537852162E+02  0.41800000000E+01 0. -1.
         -5    1    4    4    0  501 -0.12067068011E+03  0.84287852414E+02  0.12293821830E+03  0.19182578821E+03  0.41800000000E+01 0. -1.
</event>
<event>
11    1  0.6763327E-009  0.2216391E+03  0.7561462E-02  0.1040196E+00
         22   -1    0    0    0    0  0.00000000000E+00  0.00000000000E+00  0.15581518406E+04  0.15581518406E+04  0.00000000000E+00 0. -1.
         22   -1    0    0    0    0 -0.00000000000E+00 -0.00000000000E+00 -0.32203744410E+03  0.32203744410E+03  0.00000000000E+00 0.  1.
         24    2    1    2    0    0  0.67122200511E+02 -0.68355009328E+02 -0.26923762196E+03  0.29719478501E+03  0.81596850752E+02 0.  0.
         25    2    1    2    0    0 -0.94619292253E+02 -0.12577909446E+03  0.31333551433E+03  0.37229007286E+03  0.12509021838E+03 0.  0.
        -24    2    1    2    0    0  0.27497091742E+02  0.19413410379E+03  0.11920165041E+04  0.12107044269E+04  0.80359957396E+02 0.  0.
        -11    1    3    3    0    0  0.47474789075E+02 -0.65435872112E+02 -0.26476758474E+03  0.27683493798E+03  0.00000000000E+00 0.  1.
         12    1    3    3    0    0  0.19647411436E+02 -0.29191372150E+01 -0.44700372243E+01  0.20359847028E+02  0.00000000000E+00 0. -1.
         11    1    5    5    0    0  0.40410410685E+02  0.14965173439E+03  0.10485498959E+04  0.10599460020E+04  0.00000000000E+00 0. -1.
        -12    1    5    5    0    0 -0.12913318943E+02  0.44482369402E+02  0.14346660822E+03  0.15075842486E+03  0.00000000000E+00 0.  1.
          5    1    4    4  501    0  0.15824042654E+02 -0.73729425423E+02  0.15389282306E+03  0.17142608287E+03  0.41800000000E+01 0. -1.
         -5    1    4    4    0  501 -0.11044333491E+03 -0.52049669041E+02  0.15944269128E+03  0.20086398999E+03  0.41800000000E+01 0. -1.
</event>
<event>
11    1  0.6763327E-009  0.1622504E+03  0.7561462E-02  0.1084980E+00
         22   -1    0    0    0    0  0.00000000000E+00  0.00000000000E+00  0.15627686767E+04  0.15627686767E+04  0.00000000000E+00 0. -1.
         22   -1    0    0    0    0 -0.00000000000E+00 -0.00000000000E+00 -0.13568097144E+04  0.13568097144E+04  0.00000000000E+00 0.  1.
        -24    2    1    2    0    0  0.48779673118E+02  0.58474959559E+02 -0.13382361936E+04  0.13432662194E+04  0.87688362459E+02 0.  0.
         25    2    1    2    0    0 -0.13165646422E+03 -0.76727322856E+01  0.73560647482E+03  0.75773120909E+03  0.12508958409E+03 0.  0.
         24    2    1    2    0    0  0.82876791103E+02 -0.50802227274E+02  0.80858868101E+03  0.81858096267E+03  0.82520958550E+02 0.  0.
        -11    1    5    5    0    0  0.53135337265E+02 -0.58657195821E+02  0.34452844657E+03  0.35350230718E+03  0.00000000000E+00 0.  1.
         12    1    5    5    0    0  0.29741453838E+02  0.78549685477E+01  0.46406023444E+03  0.46507865549E+03  0.00000000000E+00 0. -1.
         11    1    3    3    0    0 -0.11926141860E+02  0.21333823313E+01 -0.29214962715E+02  0.31627491622E+02  0.00000000000E+00 0. -1.
        -12    1    3    3    0    0  0.60705814978E+02  0.56341577228E+02 -0.13090212308E+04  0.13116387277E+04  0.00000000000E+00 0.  1.
          5    1    4    4  501    0 -0.85984530469E+02  0.37714205535E+02  0.23680994423E+03  0.25477857615E+03  0.41800000000E+01 0. -1.
         -5    1    4    4    0  501 -0.45671933752E+02 -0.45386937821E+02  0.49879653059E+03  0.50295263294E+03  0.41800000000E+01 0. -1.
</event>
<event>
11    1  0.6763327E-009  0.1292628E+03  0.7561462E-02  0.1120178E+00
         22   -1    0    0    0    0  0.00000000000E+00  0.00000000000E+00  0.14959184101E+03  0.14959184101E+03  0.00000000000E+00 0. -1.
         22   -1    0    0    0    0 -0.00000000000E+00 -0.00000000000E+00 -0.66459654280E+03  0.66459654280E+03  0.00000000000E+00 0. -1.
         24    2    1    2    0    0  0.26951921476E+02  0.42836731291E+01 -0.37140548868E+03  0.38576988819E+03  0.10065591731E+03 0.  0.
         25    2    1    2    0    0 -0.44496879158E+02  0.27552746391E+02 -0.25300933951E+03  0.28705562723E+03  0.12509229055E+03 0.  0.
        -24    2    1    2    0    0  0.17544957681E+02 -0.31836419520E+02  0.10941012640E+03  0.14136286839E+03  0.81801599329E+02 0.  0.
        -11    1    3    3    0    0  0.10025118430E+02  0.28025955393E+02 -0.27167722120E+02  0.40299408189E+02  0.00000000000E+00 0.  1.
         12    1    3    3    0    0  0.16926803046E+02 -0.23742282264E+02 -0.34423776656E+03  0.34547048000E+03  0.00000000000E+00 0. -1.
         13    1    5    5    0    0  0.91762817972E+01 -0.61334244643E+01  0.11349016635E+03  0.11402561511E+03  0.00000000000E+00 0. -1.
        -14    1    5    5    0    0  0.83686758841E+01 -0.25702995056E+02 -0.40800399496E+01  0.27337253280E+02  0.00000000000E+00 0.  1.
          5    1    4    4  501    0  0.40858409562E+02 -0.90705278616E+01 -0.67088013638E+02  0.79183066887E+02  0.41800000000E+01 0.  1.
         -5    1    4    4    0  501 -0.85355288720E+02  0.36623274253E+02 -0.18592132587E+03  0.20787256034E+03  0.41800000000E+01 0.  1.
</event>
<event>
11    1  0.6763327E-009  0.1531632E+03  0.7561462E-02  0.1093690E+00
         22   -1    0    0    0    0  0.00000000000E+00  0.00000000000E+00  0.41601697326E+03  0.41601697326E+03  0.00000000000E+00 0.  1.
         22   -1    0    0    0    0 -0.00000000000E+00 -0.00000000000E+00 -0.11581565862E+04  0.11581565862E+04  0.00000000000E+00 0. -1.
         24    2    1    2    0    0 -0.36825787449E+02  0.80826672487E+02 -0.10255362245E+04  0.10324457614E+04  0.79565148002E+02 0.  0.
         25    2    1    2    0    0 -0.69856958969E+01 -0.92582608730E+02 -0.74143132056E+02  0.17252713818E+03  0.12509224593E+03 0.  0.
        -24    2    1    2    0    0  0.43811483346E+02  0.11755936242E+02  0.35753974358E+03  0.36920065995E+03  0.80104999604E+02 0.  0.
        -11    1    3    3    0    0  0.14365106626E+02  0.22390436091E+02 -0.94471003928E+02  0.98145089026E+02  0.00000000000E+00 0.  1.
         12    1    3    3    0    0 -0.51190894076E+02  0.58436236397E+02 -0.93106522058E+03  0.93430067234E+03  0.00000000000E+00 0. -1.
         13    1    5    5    0    0  0.24799004816E+02 -0.13497539092E+02  0.34331239641E+02  0.44450064304E+02  0.00000000000E+00 0. -1.
        -14    1    5    5    0    0  0.19012478531E+02  0.25253475334E+02  0.32320850394E+03  0.32475059565E+03  0.00000000000E+00 0.  1.
          5    1    4    4  501    0  0.38966669852E+02  0.12380917181E+02 -0.18183014929E+02  0.44941994855E+02  0.41800000000E+01 0. -1.
         -5    1    4    4    0  501 -0.45952365749E+02 -0.10496352591E+03 -0.55960117127E+02  0.12758514333E+03  0.41800000000E+01 0. -1.
</event>
<event>
11    1  0.6763327E-009  0.1659439E+03  0.7561462E-02  0.1081616E+00
         22   -1    0    0    0    0  0.00000000000E+00  0.00000000000E+00  0.14993323089E+04  0.14993323089E+04  0.00000000000E+00 0. -1.
         22   -1    0    0    0    0 -0.00000000000E+00 -0.00000000000E+00 -0.11028217907E+03  0.11028217907E+03  0.00000000000E+00 0. -1.
         24    2    1    2    0    0  0.25758873701E+02 -0.10532869913E+03 -0.24518563133E+02  0.13743740120E+03  0.80809806813E+02 0.  0.
         25    2    1    2    0    0 -0.18276901396E+02  0.11052157132E+03  0.22446897133E+03  0.28032627533E+03  0.12508972261E+03 0.  0.
        -24    2    1    2    0    0 -0.74819723049E+01 -0.51928721929E+01  0.11890997217E+04  0.11918508115E+04  0.80419294221E+02 0.  0.
        -13    1    3    3    0    0  0.10404902882E+02 -0.64874007536E+02  0.26230528273E+02  0.70745596833E+02  0.00000000000E+00 0.  1.
         14    1    3    3    0    0  0.15353970819E+02 -0.40454691593E+02 -0.50749091406E+02  0.66691804372E+02  0.00000000000E+00 0. -1.
         11    1    5    5    0    0  0.21274432733E+02  0.14568288022E+02  0.93625339266E+03  0.93660837695E+03  0.00000000000E+00 0. -1.
        -12    1    5    5    0    0 -0.28756405038E+02 -0.19761160215E+02  0.25284632900E+03  0.25524243451E+03  0.00000000000E+00 0.  1.
          5    1    4    4  501    0  0.17985300479E+02  0.62832872622E+02  0.20798188596E+03  0.21804902706E+03  0.41800000000E+01 0.  1.
         -5    1    4    4    0  501 -0.36262201875E+02  0.47688698701E+02  0.16487085368E+02  0.62277248274E+02  0.41800000000E+01 0.  1.
</event>
<event>
11    1  0.6763327E-009  0.1310399E+03  0.7561462E-02  0.1117998E+00
         22   -1    0    0    0    0  0.00000000000E+00  0.00000000000E+00  0.11459272312E+04  0.11459272312E+04  0.00000000000E+00 0.  1.
         22   -1    0    0    0    0 -0.00000000000E+00 -0.00000000000E+00 -0.65414523904E+02  0.65414523904E+02  0.00000000000E+00 0. -1.
         24    2    1    2    0    0  0.42016313284E+02  0.63444374103E+01 -0.75501017080E+01  0.88858991607E+02  0.77674280721E+02 0.  0.
         25    2    1    2    0    0 -0.17139589891E+02  0.43960756505E+01  0.25152040298E+03  0.28146633552E+03  0.12509074264E+03 0.  0.
        -24    2    1    2    0    0 -0.24876723393E+02 -0.10740513061E+02  0.83654240599E+03  0.84101642794E+03  0.82287453843E+02 0.  0.
        -13    1    3    3    0    0  0.43638791503E+02 -0.22632889553E+02  0.15771746016E+02  0.51626928882E+02  0.00000000000E+00 0.  1.
         14    1    3    3    0    0 -0.16224782195E+01  0.28977326963E+02 -0.23321847724E+02  0.37232062725E+02  0.00000000000E+00 0. -1.
         11    1    5    5    0    0 -0.93771238340E+01  0.23556252273E+02  0.89373717376E+02  0.92900424273E+02  0.00000000000E+00 0. -1.
        -12    1    5    5    0    0 -0.15499599559E+02 -0.34296765334E+02  0.74716868861E+03  0.74811600367E+03  0.00000000000E+00 0.  1.
          5    1    4    4  501    0 -0.72697606057E+01  0.59143471517E+02  0.18629629797E+03  0.19563890891E+03  0.41800000000E+01 0.  1.
         -5    1    4    4    0  501 -0.98698292851E+01 -0.54747395867E+02  0.65224105012E+02  0.85827426612E+02  0.41800000000E+01 0.  1.
</event>
<event>
11    1  0.6763327E-009  0.1322281E+03  0.7561462E-02  0.1116561E+00
         22   -1    0    0    0    0  0.00000000000E+00  0.00000000000E+00  0.10101743400E+03  0.10101743400E+03  0.00000000000E+00 0.  1.
         22   -1    0    0    0    0 -0.00000000000E+00 -0.00000000000E+00 -0.20228951727E+04  0.20228951727E+04  0.00000000000E+00 0.  1.
        -24    2    1    2    0    0 -0.18373045523E+02 -0.40371796472E+02 -0.18049352144E+04  0.18072839077E+04  0.80725112841E+02 0.  0.
         25    2    1    2    0    0 -0.23880080003E+02  0.25899835180E+02 -0.16714971272E+03  0.21172646059E+03  0.12509199802E+03 0.  0.
         24    2    1    2    0    0  0.42253125526E+02  0.14471961292E+02  0.50207188442E+02  0.10490223845E+03  0.80554041368E+02 0.  0.
        -13    1    5    5    0    0  0.66160538870E+02  0.52315722065E+01  0.38481145241E+02  0.76716261577E+02  0.00000000000E+00 0.  1.
         14    1    5    5    0    0 -0.23907413344E+02  0.92403890857E+01  0.11726043201E+02  0.28185976875E+02  0.00000000000E+00 0. -1.
         11    1    3    3    0    0 -0.84900145190E+01 -0.47695839969E+02 -0.51124704734E+03  0.51353725951E+03  0.00000000000E+00 0. -1.
        -12    1    3    3    0    0 -0.98830310042E+01  0.73240434963E+01 -0.12936881671E+04  0.12937466481E+04  0.00000000000E+00 0.  1.
          5    1    4    4  501    0 -0.40859703333E+02  0.91644453237E+01 -0.17963018474E+03  0.18449384295E+03  0.41800000000E+01 0. -1.
         -5    1    4    4    0  501  0.16979623330E+02  0.16735389856E+02  0.12480472019E+02  0.27232617647E+02  0.41800000000E+01 0. -1.
</event>
<event>
11    1  0.6763327E-009  0.1344885E+03  0.7561462E-02  0.1113874E+00
         22   -1    0    0    0    0  0.00000000000E+00  0.00000000000E+00  0.24633409204E+03  0.24633409204E+03  0.00000000000E+00 0.  1.
         22   -1    0    0    0    0 -0.00000000000E+00 -0.00000000000E+00 -0.64409867905E+03  0.64409867905E+03  0.00000000000E+00 0. -1.
         24    2    1    2    0    0  0.25211290608E+02 -0.43341677013E+02 -0.58357890525E+03  0.59256808903E+03  0.89769100160E+02 0.  0.
         25    2    1    2    0    0 -0.14212817307E+02  0.30911371928E+02  0.48790123008E+02  0.13851061650E+03  0.12508875925E+03 0.  0.
        -24    2    1    2    0    0 -0.10998473301E+02  0.12430305086E+02  0.13702419524E+03  0.15935406555E+03  0.79640499920E+02 0.  0.
        -13    1    3    3    0    0  0.17624770321E+02 -0.28228339316E+02 -0.59168302633E+02  0.67884900426E+02  0.00000000000E+00 0.  1.
         14    1    3    3    0    0  0.75865202874E+01 -0.15113337698E+02 -0.52441060262E+03  0.52468318861E+03  0.00000000000E+00 0. -1.
         11    1    5    5    0    0  0.26110573091E+02  0.13202914735E+02  0.17260638802E+02  0.33970702619E+02  0.00000000000E+00 0. -1.
        -12    1    5    5    0    0 -0.37109046392E+02 -0.77260964882E+00  0.11976355644E+03  0.12538336293E+03  0.00000000000E+00 0.  1.
          5    1    4    4  501    0  0.35499170601E+02 -0.32357324289E+02  0.26000956256E+02  0.54778733782E+02  0.41800000000E+01 0.  1.
         -5    1    4    4    0  501 -0.49711987909E+02  0.63268696217E+02  0.22789166752E+02  0.83731882722E+02  0.41800000000E+01 0.  1.
</event>
<event>
11    1  0.6763327E-009  0.1421086E+03  0.7561462E-02  0.1105226E+00
         22   -1    0    0    0    0  0.00000000000E+00  0.00000000000E+00  0.23316250422E+03  0.23316250422E+03  0.00000000000E+00 0. -1.
         22   -1    0    0    0    0 -0.00000000000E+00 -0.00000000000E+00 -0.84162250654E+03  0.84162250654E+03  0.00000000000E+00 0. -1.
        -24    2    1    2    0    0  0.45278805574E+02  0.30386759779E+02 -0.30740510164E+03  0.32226696431E+03  0.79903531640E+02 0.  0.
         25    2    1    2    0    0 -0.70184117098E+02 -0.51288012500E+02 -0.50659878351E+03  0.52900457676E+03  0.12508894538E+03 0.  0.
         24    2    1    2    0    0  0.24905311524E+02  0.20901252722E+02  0.20554388283E+03  0.22351346969E+03  0.81564983025E+02 0.  0.
        -11    1    5    5    0    0  0.23865588877E+02 -0.12294397839E+02  0.16363988827E+02  0.31440398868E+02  0.00000000000E+00 0.  1.
         12    1    5    5    0    0  0.10397226473E+01  0.33195650560E+02  0.18917989401E+03  0.19207307082E+03  0.00000000000E+00 0. -1.
         13    1    3    3    0    0  0.57971948575E+02  0.47719084484E+02 -0.24663409329E+03  0.25781046103E+03  0.00000000000E+00 0. -1.
        -14    1    3    3    0    0 -0.12693143002E+02 -0.17332324705E+02 -0.60771008347E+02  0.64456503275E+02  0.00000000000E+00 0.  1.
          5    1    4    4  501    0 -0.19233690409E+02 -0.21176171744E+02 -0.43525484360E+03  0.43621395710E+03  0.41800000000E+01 0. -1.
         -5    1    4    4    0  501 -0.50950426689E+02 -0.30111840756E+02 -0.71343939916E+02  0.92790619656E+02  0.41800000000E+01 0. -1.
</event>
<event>
11    1  0.6763327E-009  0.1472015E+03  0.7561462E-02  0.1099773E+00
         22   -1    0    0    0    0  0.00000000000E+00  0.00000000000E+00  0.41974919084E+03  0.41974919084E+03  0.00000000000E+00 0. -1.
         22   -1    0    0    0    0 -0.00000000000E+00 -0.00000000000E+00 -0.10686905155E+04  0.10686905155E+04  0.00000000000E+00 0. -1.
        -24    2    1    2    0    0 -0.61440141063E+02 -0.34615687371E+02 -0.77526059176E+03  0.78264437400E+03  0.80808998695E+02 0.  0.
         25    2    1    2    0    0  0.11430702122E+03  0.72764508279E+02 -0.25260244209E+03  0.31275241184E+03  0.12508120799E+03 0.  0.
         24    2    1    2    0    0 -0.52866880158E+02 -0.38148820908E+02  0.37892170922E+03  0.39304292047E+03  0.81552658195E+02 0.  0.
        -11    1    5    5    0    0 -0.94291410893E+01  0.26843758317E+01  0.25836449215E+03  0.25855043102E+03  0.00000000000E+00 0.  1.
         12    1    5    5    0    0 -0.43437739069E+02 -0.40833196740E+02  0.12055721707E+03  0.13449248945E+03  0.00000000000E+00 0. -1.
         11    1    3    3    0    0 -0.95750787431E+01 -0.47845336266E+02 -0.48851845973E+03  0.49094922735E+03  0.00000000000E+00 0. -1.
        -12    1    3    3    0    0 -0.51865062320E+02  0.13229648895E+02 -0.28674213203E+03  0.29169514665E+03  0.00000000000E+00 0.  1.
          5    1    4    4  501    0  0.67843241561E+02  0.95969183977E+02 -0.11038963802E+03  0.16129517749E+03  0.41800000000E+01 0.  1.
         -5    1    4    4    0  501  0.46463779661E+02 -0.23204675697E+02 -0.14221280407E+03  0.15145723435E+03  0.41800000000E+01 0.  1.
</event>
<event>
11    1  0.6763327E-009  0.1503754E+03  0.7561462E-02  0.1096496E+00
         22   -1    0    0    0    0  0.00000000000E+00  0.00000000000E+00  0.19494711015E+04  0.19494711015E+04  0.00000000000E+00 0.  1.
         22   -1    0    0    0    0 -0.00000000000E+00 -0.00000000000E+00 -0.17013827595E+03  0.17013827595E+03  0.00000000000E+00 0. -1.
        -24    2    1    2    0    0 -0.55276321957E+00  0.84087666301E+02 -0.13480364778E+03  0.17767797687E+03  0.79538662540E+02 0.  0.
         25    2    1    2    0    0 -0.38387091870E+02 -0.70393943739E+02  0.42736687143E+03  0.45245813064E+03  0.12508813310E+03 0.  0.
         24    2    1    2    0    0  0.38939855089E+02 -0.13693722563E+02  0.14867696019E+04  0.14894732699E+04  0.79642591551E+02 0.  0.
        -13    1    5    5    0    0  0.45485063263E+02  0.22838899421E+02  0.71317383069E+03  0.71498770555E+03  0.00000000000E+00 0.  1.
         14    1    5    5    0    0 -0.65452081733E+01 -0.36532621984E+02  0.77359577121E+03  0.77448556440E+03  0.00000000000E+00 0. -1.
         11    1    3    3    0    0 -0.22196843816E+02  0.84521661753E+02 -0.12799953050E+03  0.15498545412E+03  0.00000000000E+00 0. -1.
        -12    1    3    3    0    0  0.21644080596E+02 -0.43399545148E+00 -0.68041172869E+01  0.22692522755E+02  0.00000000000E+00 0.  1.
          5    1    4    4  501    0 -0.81566838676E+02 -0.35815835807E+02  0.31116614592E+03  0.32369393883E+03  0.41800000000E+01 0. -1.
         -5    1    4    4    0  501  0.43179746806E+02 -0.34578107931E+02  0.11620072551E+03  0.12876419181E+03  0.41800000000E+01 0. -1.
</event>
<event>
11    1  0.6763327E-009  0.1361013E+03  0.7561462E-02  0.1111992E+00
         22   -1    0    0    0    0  0.00000000000E+00  0.00000000000E+00  0.13854337818E+04  0.13854337818E+04  0.00000000000E+00 0. -1.
         22   -1    0    0    0    0 -0.00000000000E+00 -0.00000000000E+00 -0.78719653183E+02  0.78719653183E+02  0.00000000000E+00 0. -1.
         24    2    1    2    0    0  0.20321790312E+02  0.15051960018E+02 -0.22962466575E+02  0.92458568105E+02  0.85917258353E+02 0.  0.
         25    2    1    2    0    0  0.13809466646E+02  0.29400485287E+02  0.20186608216E+03  0.23969369737E+03  0.12509222009E+03 0.  0.
        -24    2    1    2    0    0 -0.34131256958E+02 -0.44452445305E+02  0.11278105131E+04  0.11320011695E+04  0.79555841236E+02 0.  0.
        -11    1    3    3    0    0 -0.54860445072E+01 -0.33080940723E+02 -0.86939786049E+00  0.33544018484E+02  0.00000000000E+00 0.  1.
         12    1    3    3    0    0  0.25807834819E+02  0.48132900741E+02 -0.22093068715E+02  0.58914549620E+02  0.00000000000E+00 0. -1.
         11    1    5    5    0    0 -0.41481386345E+02 -0.41710388417E+02  0.11174913328E+04  0.11190385788E+04  0.00000000000E+00 0. -1.
        -12    1    5    5    0    0  0.73501293870E+01 -0.27420568882E+01  0.10319180265E+02  0.12962590765E+02  0.00000000000E+00 0.  1.
          5    1    4    4  501    0  0.62397607313E+02  0.18787679739E+02  0.16557250007E+03  0.17798360455E+03  0.41800000000E+01 0.  1.
         -5    1    4    4    0  501 -0.48588140667E+02  0.10612805548E+02  0.36293582094E+02  0.61710092824E+02  0.41800000000E+01 0.  1.
</event>
<event>
11    1  0.6763327E-009  0.1913894E+03  0.7561462E-02  0.1060785E+00
         22   -1    0    0    0    0  0.00000000000E+00  0.00000000000E+00  0.18305302936E+03  0.18305302936E+03  0.00000000000E+00 0. -1.
         22   -1    0    0    0    0 -0.00000000000E+00 -0.00000000000E+00 -0.32545421945E+03  0.32545421945E+03  0.00000000000E+00 0.  1.
         24    2    1    2    0    0  0.75061460054E+02 -0.11345070788E+03 -0.13046045022E+03  0.20478138983E+03  0.80063741146E+02 0.  0.
         25    2    1    2    0    0 -0.11534418309E+03  0.12214915303E+03 -0.30640816267E+02  0.21168341366E+03  0.12508521831E+03 0.  0.
        -24    2    1    2    0    0  0.40282723038E+02 -0.86984451490E+01  0.18700076393E+02  0.92042445320E+02  0.80148350949E+02 0.  0.
        -11    1    3    3    0    0  0.66575667706E+02 -0.10830191680E+03 -0.14130816229E+03  0.19007793518E+03  0.00000000000E+00 0.  1.
         12    1    3    3    0    0  0.84857923483E+01 -0.51487910784E+01  0.10847712074E+02  0.14703454648E+02  0.00000000000E+00 0. -1.
         13    1    5    5    0    0  0.60726148728E+02 -0.17408543708E+02  0.27020384462E+00  0.63172743676E+02  0.00000000000E+00 0. -1.
        -14    1    5    5    0    0 -0.20443425690E+02  0.87100985589E+01  0.18429872549E+02  0.28869701644E+02  0.00000000000E+00 0.  1.
          5    1    4    4  501    0 -0.11374730360E+03  0.34533851020E+02 -0.34559865255E+02  0.12386643059E+03  0.41800000000E+01 0.  1.
         -5    1    4    4    0  501 -0.15968794955E+01  0.87615302006E+02  0.39190489884E+01  0.87816983065E+02  0.41800000000E+01 0.  1.
</event>
<event>
11    1  0.6763327E-009  0.1483592E+03  0.7561462E-02  0.1098567E+00
         22   -1    0    0    0    0  0.00000000000E+00  0.00000000000E+00  0.38946401785E+03  0.38946401785E+03  0.00000000000E+00 0.  1.
         22   -1    0    0    0    0 -0.00000000000E+00 -0.00000000000E+00 -0.55805845083E+03  0.55805845083E+03  0.00000000000E+00 0. -1.
         24    2    1    2    0    0  0.80099688027E+02 -0.24551221819E+00 -0.51926376258E+03  0.52994262764E+03  0.69197638400E+02 0.  0.
         25    2    1    2    0    0 -0.64969343000E+02  0.13385783010E+02  0.21192873077E+03  0.25487701485E+03  0.12509320947E+03 0.  0.
        -24    2    1    2    0    0 -0.15130345027E+02 -0.13140270791E+02  0.13874059883E+03  0.16270282620E+03  0.82593352219E+02 0.  0.
        -13    1    3    3    0    0  0.39152321083E+01 -0.20715483148E+02 -0.52763913903E+02  0.56819810761E+02  0.00000000000E+00 0.  1.
         14    1    3    3    0    0  0.76184455919E+02  0.20469970930E+02 -0.46649984868E+03  0.47312281687E+03  0.00000000000E+00 0. -1.
         13    1    5    5    0    0  0.22186377592E+02  0.18908705291E+02  0.84946802841E+02  0.89809430459E+02  0.00000000000E+00 0. -1.
        -14    1    5    5    0    0 -0.37316722619E+02 -0.32048976083E+02  0.53793795994E+02  0.72893395739E+02  0.00000000000E+00 0.  1.
          5    1    4    4  501    0  0.21094013919E+02  0.76164574861E+01 -0.32242366450E+01  0.23039877382E+02  0.41800000000E+01 0.  1.
         -5    1    4    4    0  501 -0.86063356919E+02  0.57693255234E+01  0.21515296741E+03  0.23183713747E+03  0.41800000000E+01 0.  1.
</event>
<event>
11    1  0.6763327E-009  0.3277622E+03  0.7561462E-02  0.9890812E-01
         22   -1    0    0    0    0  0.00000000000E+00  0.00000000000E+00  0.97633921929E+03  0.97633921929E+03  0.00000000000E+00 0.  1.
         22   -1    0    0    0    0 -0.00000000000E+00 -0.00000000000E+00 -0.28269824725E+03  0.28269824725E+03  0.00000000000E+00 0. -1.
        -24    2    1    2    0    0  0.88401518789E+02  0.20958656983E+03 -0.53857794674E+02  0.24676774124E+03  0.79071469506E+02 0.  0.
         25    2    1    2    0    0  0.25344593180E+03 -0.10743621817E+03  0.23532149804E+03  0.38314635859E+03  0.12509014085E+03 0.  0.
         24    2    1    2    0    0 -0.34184745058E+03 -0.10215035166E+03  0.51217726866E+03  0.62912336672E+03  0.78589326236E+02 0.  0.
        -11    1    5    5    0    0 -0.31138206874E+02 -0.34458699158E+02  0.51480490991E+02  0.69334196668E+02  0.00000000000E+00 0.  1.
         12    1    5    5    0    0 -0.31070924371E+03 -0.67691652504E+02  0.46069677767E+03  0.55978917005E+03  0.00000000000E+00 0. -1.
         13    1    3    3    0    0  0.67095748115E+02  0.12636502001E+03 -0.70126760184E+02  0.15933524466E+03  0.00000000000E+00 0. -1.
        -14    1    3    3    0    0  0.21305770674E+02  0.83221549820E+02  0.16268965510E+02  0.87432496574E+02  0.00000000000E+00 0.  1.
          5    1    4    4  501    0  0.16611102658E+03 -0.76402861345E+02  0.22476217210E+03  0.28976848824E+03  0.41800000000E+01 0. -1.
         -5    1    4    4    0  501  0.87334905219E+02 -0.31033356824E+02  0.10559325945E+02  0.93377870343E+02  0.41800000000E+01 0. -1.
</event>
<event>
11    1  0.6763327E-009  0.1532794E+03  0.7561462E-02  0.1093574E+00
         22   -1    0    0    0    0  0.00000000000E+00  0.00000000000E+00  0.17317907561E+04  0.17317907561E+04  0.00000000000E+00 0.  1.
         22   -1    0    0    0    0 -0.00000000000E+00 -0.00000000000E+00 -0.79646344482E+03  0.79646344482E+03  0.00000000000E+00 0.  1.
         24    2    1    2    0    0  0.31315841759E+02 -0.10853506018E+02 -0.77490161929E+03  0.77968551030E+03  0.79614664889E+02 0.  0.
         25    2    1    2    0    0 -0.10532117048E+03 -0.33200486144E+02  0.39236988107E+03  0.42637549747E+03  0.12508844886E+03 0.  0.
        -24    2    1    2    0    0  0.74005328720E+02  0.44053992162E+02  0.13178590495E+04  0.13221931931E+04  0.63441490932E+02 0.  0.
        -13    1    3    3    0    0 -0.18998242634E+02 -0.56647450619E+01 -0.64319448589E+02  0.67305378883E+02  0.00000000000E+00 0.  1.
         14    1    3    3    0    0  0.50314084393E+02 -0.51887609566E+01 -0.71058217070E+03  0.71238013142E+03  0.00000000000E+00 0. -1.
         13    1    5    5    0    0  0.22061376493E+02  0.59865352885E+01  0.97810927754E+02  0.10044660535E+03  0.00000000000E+00 0. -1.
        -14    1    5    5    0    0  0.51943952227E+02  0.38067456874E+02  0.12200481217E+04  0.12217465878E+04  0.00000000000E+00 0.  1.
          5    1    4    4  501    0 -0.34608613411E+01 -0.83447835219E+00 -0.92498792557E+01  0.10756699382E+02  0.41800000000E+01 0. -1.
         -5    1    4    4    0  501 -0.10186030914E+03 -0.32366007792E+02  0.40161976033E+03  0.41561879809E+03  0.41800000000E+01 0. -1.
</event>
<event>
11    1  0.6763327E-009  0.2923699E+03  0.7561462E-02  0.1003473E+00
         22   -1    0    0    0    0  0.00000000000E+00  0.00000000000E+00  0.38966741800E+04  0.38966741800E+04  0.00000000000E+00 0.  1.
         22   -1    0    0    0    0 -0.00000000000E+00 -0.00000000000E+00 -0.22555910857E+04  0.22555910857E+04  0.00000000000E+00 0.  1.
         24    2    1    2    0    0 -0.45574092526E+02  0.86083093433E+02 -0.75377618802E+03  0.76427248244E+03  0.80290652695E+02 0.  0.
         25    2    1    2    0    0 -0.11408315349E+03 -0.29649055133E+03 -0.14721067070E+04  0.15111806039E+04  0.12508816096E+03 0.  0.
        -24    2    1    2    0    0  0.15965724601E+03  0.21040745790E+03  0.38669659892E+04  0.38768121794E+04  0.80529359809E+02 0.  0.
        -11    1    3    3    0    0  0.21044185372E+02  0.38365333923E+02 -0.23011252168E+03  0.23423605448E+03  0.00000000000E+00 0.  1.
         12    1    3    3    0    0 -0.66618277898E+02  0.47717759510E+02 -0.52366366633E+03  0.53003642795E+03  0.00000000000E+00 0. -1.
         11    1    5    5    0    0  0.18201379740E+02 -0.23485762196E+01  0.41429629628E+03  0.41470257673E+03  0.00000000000E+00 0. -1.
        -12    1    5    5    0    0  0.14145586627E+03  0.21275603412E+03  0.34526696930E+04  0.34621096027E+04  0.00000000000E+00 0.  1.
          5    1    4    4  501    0 -0.69649108940E+02 -0.40211182014E+02 -0.30705175510E+03  0.31743690750E+03  0.41800000000E+01 0.  1.
         -5    1    4    4    0  501 -0.44434044545E+02 -0.25627936931E+03 -0.11650549519E+04  0.11937436964E+04  0.41800000000E+01 0.  1.
</event>
<event>
11    1  0.6763327E-009  0.2688368E+03  0.7561462E-02  0.1014317E+00
         22   -1    0    0    0    0  0.00000000000E+00  0.00000000000E+00  0.17841851902E+04  0.17841851902E+04  0.00000000000E+00 0. -1.
         22   -1    0    0    0    0 -0.00000000000E+00 -0.00000000000E+00 -0.10723111987E+04  0.10723111987E+04  0.00000000000E+00 0. -1.
        -24    2    1    2    0    0  0.54419769351E+02  0.24278571819E+02 -0.99351355384E+03  0.99827559809E+03  0.77032640686E+02 0.  0.
         25    2    1    2    0    0  0.12653705594E+03  0.14204040866E+03  0.13104543443E+03  0.26269248606E+03  0.12508929662E+03 0.  0.
         24    2    1    2    0    0 -0.18095682529E+03 -0.16631898048E+03  0.15743421109E+04  0.15955283048E+04  0.82159074023E+02 0.  0.
        -11    1    5    5    0    0  0.41093481389E+01 -0.26381499809E+02  0.13649299274E+03  0.13907985958E+03  0.00000000000E+00 0.  1.
         12    1    5    5    0    0 -0.18506617343E+03 -0.13993748067E+03  0.14378491182E+04  0.14564484453E+04  0.00000000000E+00 0. -1.
         13    1    3    3    0    0  0.67227413449E+02  0.32129533976E+02 -0.93122328796E+03  0.93419946699E+03  0.00000000000E+00 0. -1.
        -14    1    3    3    0    0 -0.12807644098E+02 -0.78509621568E+01 -0.62290265879E+02  0.64076131105E+02  0.00000000000E+00 0.  1.
          5    1    4    4  501    0  0.46650094112E+02 -0.10852293264E+02  0.36728685098E+01  0.48217900337E+02  0.41800000000E+01 0.  1.
         -5    1    4    4    0  501  0.79886961829E+02  0.15289270193E+03  0.12737256592E+03  0.21447458573E+03  0.41800000000E+01 0.  1.
</event>
<event>
11    1  0.6763327E-009  0.1393858E+03  0.7561462E-02  0.1108246E+00
         22   -1    0    0    0    0  0.00000000000E+00  0.00000000000E+00  0.71001949307E+03  0.71001949307E+03  0.00000000000E+00 0.  1.
         22   -1    0    0    0    0 -0.00000000000E+00 -0.00000000000E+00 -0.13773965354E+04  0.13773965354E+04  0.00000000000E+00 0.  1.
        -24    2    1    2    0    0 -0.82011801577E+01 -0.14618769411E+02 -0.12824441028E+04  0.12850119414E+04  0.79447120179E+02 0.  0.
         25    2    1    2    0    0 -0.10116983781E+02  0.72849656044E+02 -0.31564978831E+02  0.14850237503E+03  0.12508869555E+03 0.  0.
         24    2    1    2    0    0  0.18318163939E+02 -0.58230886633E+02  0.64663203935E+03  0.65390171201E+03  0.75683970371E+02 0.  0.
        -11    1    5    5    0    0  0.20167658511E+02 -0.51428983862E+02  0.64401930750E+03  0.64638420716E+03  0.00000000000E+00 0.  1.
         12    1    5    5    0    0 -0.18494945719E+01 -0.68019027702E+01  0.26127318449E+01  0.75175048493E+01  0.00000000000E+00 0. -1.
         13    1    3    3    0    0 -0.20155494985E+02  0.98889960783E+01 -0.11085479494E+03  0.11310535700E+03  0.00000000000E+00 0. -1.
        -14    1    3    3    0    0  0.11954314827E+02 -0.24507765490E+02 -0.11715893079E+04  0.11719065844E+04  0.00000000000E+00 0.  1.
          5    1    4    4  501    0  0.56640782071E+02  0.21309570681E+02 -0.12529101353E+02  0.61941317204E+02  0.41800000000E+01 0.  1.
         -5    1    4    4    0  501 -0.66757765853E+02  0.51540085363E+02 -0.19035877478E+02  0.86561057827E+02  0.41800000000E+01 0.  1.
</event>
<event>
11    1  0.6763327E-009  0.1514937E+03  0.7561462E-02  0.1095362E+00
         22   -1    0    0    0    0  0.00000000000E+00  0.00000000000E+00  0.49025879078E+02  0.49025879078E+02  0.00000000000E+00 0. -1.
         22   -1    0    0    0    0 -0.00000000000E+00 -0.00000000000E+00 -0.16558619228E+04  0.16558619228E+04  0.00000000000E+00 0.  1.
         24    2    1    2    0    0 -0.29450921039E+02 -0.76903132735E+02 -0.12832637514E+04  0.12884341039E+04  0.80716392993E+02 0.  0.
         25    2    1    2    0    0  0.53318532701E+02  0.10839982539E+03 -0.23187615724E+03  0.28983871734E+03  0.12508613712E+03 0.  0.
        -24    2    1    2    0    0 -0.23867611662E+02 -0.31496692653E+02 -0.91696135167E+02  0.12661498063E+03  0.77855427435E+02 0.  0.
        -13    1    3    3    0    0 -0.39272832001E+02 -0.90344379120E+02 -0.11198506467E+04  0.11241752235E+04  0.00000000000E+00 0.  1.
         14    1    3    3    0    0  0.98219109621E+01  0.13441246385E+02 -0.16341310468E+03  0.16425888049E+03  0.00000000000E+00 0. -1.
         11    1    5    5    0    0 -0.16770399605E+02 -0.56697154592E+02 -0.75241333647E+02  0.95692590782E+02  0.00000000000E+00 0. -1.
        -12    1    5    5    0    0 -0.70972120562E+01  0.25200461938E+02 -0.16454801521E+02  0.30922389849E+02  0.00000000000E+00 0.  1.
          5    1    4    4  501    0  0.55902094501E+02  0.33735826272E+01 -0.13760422124E+03  0.14862307806E+03  0.41800000000E+01 0.  1.
         -5    1    4    4    0  501 -0.25835618000E+01  0.10502624276E+03 -0.94271936002E+02  0.14121563928E+03  0.41800000000E+01 0.  1.
</event>
<event>
11    1  0.9972418E-009  0.1960177E+03  0.7561462E-02  0.1057376E+00
         22   -1    0    0    0    0  0.00000000000E+00  0.00000000000E+00  0.53278123857E+03  0.53278123857E+03  0.00000000000E+00 0. -1.
         22   -1    0    0    0    0 -0.00000000000E+00 -0.00000000000E+00 -0.10261934553E+04  0.10261934553E+04  0.00000000000E+00 0.  1.
         24    2    1    2    0    0 -0.10237330448E+02  0.34402909176E+02 -0.57954495717E+03  0.58598824447E+03  0.78876499484E+02 0.  0.
         25    2    1    2    0    0  0.17751250041E+02 -0.18399852857E+03 -0.39996433514E+03  0.45802652097E+03  0.12508500762E+03 0.  0.
        -24    2    1    2    0    0 -0.75139195930E+01  0.14959561940E+03  0.48609707557E+03  0.51495992845E+03  0.80362010326E+02 0.  0.
        -13    1    3    3    0    0 -0.11261248675E+02  0.16499642343E+02 -0.55616213023E+03  0.55652077142E+03  0.00000000000E+00 0.  1.
         14    1    3    3    0    0  0.10239182269E+01  0.17903266833E+02 -0.23382826947E+02  0.29467473048E+02  0.00000000000E+00 0. -1.
         13    1    5    5    0    0  0.32232762336E+02  0.10541961861E+03  0.30053628960E+03  0.32011608569E+03  0.00000000000E+00 0. -1.
        -14    1    5    5    0    0 -0.39746681929E+02  0.44176000789E+02  0.18556078597E+03  0.19484384276E+03  0.00000000000E+00 0.  1.
          5    1    4    4  501    0  0.49005724979E+02 -0.42107416494E+02 -0.59916943698E+02  0.88216257837E+02  0.41800000000E+01 0.  1.
         -5    1    4    4    0  501 -0.31254474938E+02 -0.14189111208E+03 -0.34004739145E+03  0.36981026313E+03  0.41800000000E+01 0.  1.
</event>
<event>
11    1  0.6763327E-009  0.1769268E+03  0.7561462E-02  0.1072156E+00
         22   -1    0    0    0    0  0.00000000000E+00  0.00000000000E+00  0.11944200448E+04  0.11944200448E+04  0.00000000000E+00 0.  1.
         22   -1    0    0    0    0 -0.00000000000E+00 -0.00000000000E+00 -0.20275489594E+04  0.20275489594E+04  0.00000000000E+00 0. -1.
         24    2    1    2    0    0  0.57246542532E+02 -0.45531261415E+02 -0.18817695701E+04  0.18848419080E+04  0.78879913446E+02 0.  0.
         25    2    1    2    0    0  0.29427346869E+02  0.13605286033E+03 -0.76497168490E+02  0.20217739737E+03  0.12509010221E+03 0.  0.
        -24    2    1    2    0    0 -0.86673889401E+02 -0.90521598920E+02  0.11251378239E+04  0.11349496989E+04  0.80431170735E+02 0.  0.
        -13    1    3    3    0    0  0.71886998778E+02 -0.51776009198E+02 -0.13936945670E+04  0.13965074442E+04  0.00000000000E+00 0.  1.
         14    1    3    3    0    0 -0.14640456245E+02  0.62447477835E+01 -0.48807500313E+03  0.48833446378E+03  0.00000000000E+00 0. -1.
         13    1    5    5    0    0 -0.10713036851E+02 -0.19671264104E+02  0.49787846629E+02  0.54594481973E+02  0.00000000000E+00 0. -1.
        -14    1    5    5    0    0 -0.75960852550E+02 -0.70850334816E+02  0.10753499773E+04  0.10803552169E+04  0.00000000000E+00 0.  1.
          5    1    4    4  501    0  0.36799322342E+02  0.69306770751E+00  0.13481136067E+02  0.39419334055E+02  0.41800000000E+01 0. -1.
         -5    1    4    4    0  501 -0.73719754735E+01  0.13535979263E+03 -0.89978304558E+02  0.16275806331E+03  0.41800000000E+01 0. -1.
</event>
<event>
11    1  0.6763327E-009  0.1599174E+03  0.7561462E-02  0.1087155E+00
         22   -1    0    0    0    0  0.00000000000E+00  0.00000000000E+00  0.16191639611E+03  0.16191639611E+03  0.00000000000E+00 0.  1.
         22   -1    0    0    0    0 -0.00000000000E+00 -0.00000000000E+00 -0.15126681651E+04  0.15126681651E+04  0.00000000000E+00 0. -1.
         24    2    1    2    0    0  0.45897020578E+02  0.55685299576E+02 -0.11192976266E+04  0.11243799922E+04  0.78713409350E+02 0.  0.
         25    2    1    2    0    0 -0.24183868210E+02 -0.14942609284E+03 -0.33467866685E+03  0.38803482007E+03  0.12509274496E+03 0.  0.
        -24    2    1    2    0    0 -0.21713152368E+02  0.93740793262E+02  0.10322452446E+03  0.16216974896E+03  0.79905742719E+02 0.  0.
        -13    1    3    3    0    0  0.98709946864E+01 -0.15513903904E+02 -0.82886360873E+02  0.84901510995E+02  0.00000000000E+00 0.  1.
         14    1    3    3    0    0  0.36026025891E+02  0.71199203480E+02 -0.10364112657E+04  0.10394784812E+04  0.00000000000E+00 0. -1.
         13    1    5    5    0    0 -0.33193617382E+02  0.98195415056E+01  0.96139382752E+01  0.35925860316E+02  0.00000000000E+00 0. -1.
        -14    1    5    5    0    0  0.11480465014E+02  0.83921251757E+02  0.93610586184E+02  0.12624388864E+03  0.00000000000E+00 0.  1.
          5    1    4    4  501    0  0.31687978483E+02 -0.12330663872E+03 -0.27014230018E+03  0.29866869585E+03  0.41800000000E+01 0.  1.
         -5    1    4    4    0  501 -0.55871846693E+02 -0.26119454123E+02 -0.64536366670E+02  0.89366124228E+02  0.41800000000E+01 0.  1.
</event>
<event>
11    1  0.6763327E-009  0.1537840E+03  0.7561462E-02  0.1093074E+00
         22   -1    0    0    0    0  0.00000000000E+00  0.00000000000E+00  0.13667139557E+04  0.13667139557E+04  0.00000000000E+00 0.  1.
         22   -1    0    0    0    0 -0.00000000000E+00 -0.00000000000E+00 -0.22418575558E+04  0.22418575558E+04  0.00000000000E+00 0.  1.
         24    2    1    2    0    0 -0.50750582244E+02 -0.71423837776E+02 -0.20303795238E+04  0.20338615026E+04  0.80464991372E+02 0.  0.
         25    2    1    2    0    0  0.34554696498E+02  0.14223033886E+03 -0.16281804283E+03  0.25215183636E+03  0.12508931676E+03 0.  0.
        -24    2    1    2    0    0  0.16195885745E+02 -0.70806501083E+02  0.13180539666E+04  0.13225581726E+04  0.81351053039E+02 0.  0.
        -11    1    3    3    0    0 -0.48325319796E+02 -0.88451766602E+02 -0.18148886455E+04  0.18176852993E+04  0.00000000000E+00 0.  1.
         12    1    3    3    0    0 -0.24252624475E+01  0.17027928826E+02 -0.21549087826E+03  0.21617620330E+03  0.00000000000E+00 0. -1.
         11    1    5    5    0    0  0.14927101960E+02  0.13717053716E+02  0.43361340588E+03  0.43408704392E+03  0.00000000000E+00 0. -1.
        -12    1    5    5    0    0  0.12687837856E+01 -0.84523554799E+02  0.88444056069E+03  0.88847112869E+03  0.00000000000E+00 0.  1.
          5    1    4    4  501    0  0.40567234645E+02  0.14424951786E+02 -0.10124436831E+03  0.11009847535E+03  0.41800000000E+01 0.  1.
         -5    1    4    4    0  501 -0.60125381464E+01  0.12780538707E+03 -0.61573674520E+02  0.14205336101E+03  0.41800000000E+01 0.  1.
</event>
<event>
11    1  0.6763327E-009  0.1630856E+03  0.7561462E-02  0.1084211E+00
         22   -1    0    0    0    0  0.00000000000E+00  0.00000000000E+00  0.28188942721E+04  0.28188942721E+04  0.00000000000E+00 0.  1.
         22   -1    0    0    0    0 -0.00000000000E+00 -0.00000000000E+00 -0.12345067817E+03  0.12345067817E+03  0.00000000000E+00 0. -1.
        -24    2    1    2    0    0 -0.63328201300E+01  0.25694306366E+02 -0.84840722299E+02  0.12006692776E+03  0.80732998155E+02 0.  0.
         25    2    1    2    0    0  0.64942217027E+02 -0.10983115339E+03  0.39618954716E+03  0.43461990319E+03  0.12509168303E+03 0.  0.
         24    2    1    2    0    0 -0.58609396897E+02  0.84136847020E+02  0.23840947691E+04  0.23876581193E+04  0.80556541772E+02 0.  0.
        -11    1    5    5    0    0 -0.52811242529E+02  0.27267577793E+02  0.17450039092E+04  0.17460158050E+04  0.00000000000E+00 0.  1.
         12    1    5    5    0    0 -0.57981543680E+01  0.56869269227E+02  0.63909085985E+03  0.64164231432E+03  0.00000000000E+00 0. -1.
         11    1    3    3    0    0  0.30939856082E+01 -0.28920533240E+02 -0.23463627629E+02  0.37369931916E+02  0.00000000000E+00 0. -1.
        -12    1    3    3    0    0 -0.94268057383E+01  0.54614839606E+02 -0.61377094670E+02  0.82696995845E+02  0.00000000000E+00 0.  1.
          5    1    4    4  501    0  0.13130926136E+02 -0.91578880558E+02  0.35205010927E+03  0.36402728528E+03  0.41800000000E+01 0. -1.
         -5    1    4    4    0  501  0.51811290891E+02 -0.18252272828E+02  0.44139437886E+02  0.70592617915E+02  0.41800000000E+01 0. -1.
</event>
<event>
11    1  0.6763327E-009  0.1324448E+03  0.7561462E-02  0.1116301E+00
         22   -1    0    0    0    0  0.00000000000E+00  0.00000000000E+00  0.12094387051E+03  0.12094387051E+03  0.00000000000E+00 0. -1.
         22   -1    0    0    0    0 -0.00000000000E+00 -0.00000000000E+00 -0.12429772423E+04  0.12429772423E+04  0.00000000000E+00 0.  1.
         24    2    1    2    0    0 -0.12488881003E+02 -0.36690455347E+01 -0.10931203457E+04  0.10960544325E+04  0.79080937342E+02 0.  0.
         25    2    1    2    0    0 -0.23416183846E+02  0.30529964174E+02 -0.87718004305E+02  0.15755044249E+03  0.12508915729E+03 0.  0.
        -24    2    1    2    0    0  0.35905064849E+02 -0.26860918639E+02  0.58804978283E+02  0.11031623781E+03  0.81859417426E+02 0.  0.
        -13    1    3    3    0    0 -0.23842946834E+02 -0.22076889101E+02 -0.99706386559E+03  0.99759321731E+03  0.00000000000E+00 0.  1.
         14    1    3    3    0    0  0.11354065831E+02  0.18407843567E+02 -0.96056480151E+02  0.98461215179E+02  0.00000000000E+00 0. -1.
         11    1    5    5    0    0  0.10049299202E+02  0.86475195640E+01  0.64658161735E+02  0.66003377853E+02  0.00000000000E+00 0. -1.
        -12    1    5    5    0    0  0.25855765647E+02 -0.35508438203E+02 -0.58531834524E+01  0.44312859954E+02  0.00000000000E+00 0.  1.
          5    1    4    4  501    0 -0.58296087448E+02 -0.14227187490E+02 -0.80061134166E+02  0.10014042280E+03  0.41800000000E+01 0. -1.
         -5    1    4    4    0  501  0.34879903603E+02  0.44757151663E+02 -0.76568701392E+01  0.57410019689E+02  0.41800000000E+01 0. -1.
</event>
<event>
11    1  0.6763327E-009  0.1433500E+03  0.7561462E-02  0.1103874E+00
         22   -1    0    0    0    0  0.00000000000E+00  0.00000000000E+00  0.32239993069E+03  0.32239993069E+03  0.00000000000E+00 0.  1.
         22   -1    0    0    0    0 -0.00000000000E+00 -0.00000000000E+00 -0.64621948737E+03  0.64621948737E+03  0.00000000000E+00 0. -1.
        -24    2    1    2    0    0 -0.38757759119E+02  0.28725727602E+02 -0.57678957862E+03  0.58411450398E+03  0.78588831553E+02 0.  0.
         25    2    1    2    0    0  0.47514015355E+02  0.45090257979E+02  0.42461887820E+02  0.14745032099E+03  0.12509145544E+03 0.  0.
         24    2    1    2    0    0 -0.87562562356E+01 -0.73815985581E+02  0.21050813411E+03  0.23705459309E+03  0.79722856363E+02 0.  0.
        -13    1    5    5    0    0  0.23769038849E+02 -0.82765817845E+01  0.10935269011E+03  0.11221176341E+03  0.00000000000E+00 0.  1.
         14    1    5    5    0    0 -0.32525295085E+02 -0.65539403797E+02  0.10115544400E+03  0.12484282968E+03  0.00000000000E+00 0. -1.
         11    1    3    3    0    0 -0.26651948941E+02  0.33125415054E+02 -0.56517140559E+03  0.56676832762E+03  0.00000000000E+00 0. -1.
        -12    1    3    3    0    0 -0.12105810178E+02 -0.43996874515E+01 -0.11618173030E+02  0.17346176360E+02  0.00000000000E+00 0.  1.
          5    1    4    4  501    0  0.83907387058E+02  0.53246949530E+02  0.14207768743E+02  0.10047397837E+03  0.41800000000E+01 0. -1.
         -5    1    4    4    0  501 -0.36393371704E+02 -0.81566915506E+01  0.28254119077E+02  0.46976342619E+02  0.41800000000E+01 0. -1.
</event>
<event>
11    1  0.6763327E-009  0.1437221E+03  0.7561462E-02  0.1103472E+00
         22   -1    0    0    0    0  0.00000000000E+00  0.00000000000E+00  0.21845841742E+03  0.21845841742E+03  0.00000000000E+00 0.  1.
         22   -1    0    0    0    0 -0.00000000000E+00 -0.00000000000E+00 -0.28994767856E+03  0.28994767856E+03  0.00000000000E+00 0.  1.
        -24    2    1    2    0    0 -0.78630010637E+02 -0.12053536182E+02 -0.14851970072E+03  0.18625024242E+03  0.79391970590E+02 0.  0.
         25    2    1    2    0    0  0.51416727540E+02  0.21762412336E+01 -0.66740893779E+02  0.15082999393E+03  0.12508766633E+03 0.  0.
         24    2    1    2    0    0  0.27213283097E+02  0.98772949480E+01  0.14377133335E+03  0.17132585963E+03  0.88567658615E+02 0.  0.
        -11    1    5    5    0    0  0.16920451764E+02 -0.21427271624E+02  0.13428768509E+03  0.13703507589E+03  0.00000000000E+00 0.  1.
         12    1    5    5    0    0  0.10292831333E+02  0.31304566572E+02  0.94836482561E+01  0.34290783738E+02  0.00000000000E+00 0. -1.
         11    1    3    3    0    0 -0.31918262190E+02  0.76573546944E+01 -0.39653843168E+01  0.33062589356E+02  0.00000000000E+00 0. -1.
        -12    1    3    3    0    0 -0.46711748447E+02 -0.19710890876E+02 -0.14455431640E+03  0.15318765306E+03  0.00000000000E+00 0.  1.
          5    1    4    4  501    0  0.14284258137E+02 -0.47418433466E+02 -0.73115502191E+02  0.88407561461E+02  0.41800000000E+01 0. -1.
         -5    1    4    4    0  501  0.37132469404E+02  0.49594674699E+02  0.63746084120E+01  0.62422432466E+02  0.41800000000E+01 0. -1.
</event>
<event>
11    1  0.6763327E-009  0.1871687E+03  0.7561462E-02  0.1063987E+00
         22   -1    0    0    0    0  0.00000000000E+00  0.00000000000E+00  0.26484756064E+04  0.26484756064E+04  0.00000000000E+00 0. -1.
         22   -1    0    0    0    0 -0.00000000000E+00 -0.00000000000E+00 -0.35864781660E+03  0.35864781660E+03  0.00000000000E+00 0. -1.
        -24    2    1    2    0    0 -0.47703379674E+02 -0.17576367828E+02 -0.11765741356E+03  0.15122727447E+03  0.80261325931E+02 0.  0.
         25    2    1    2    0    0 -0.46633600268E+02  0.12026753105E+03 -0.18527326330E+03  0.25809426852E+03  0.12508995824E+03 0.  0.
         24    2    1    2    0    0  0.94336979942E+02 -0.10269116323E+03  0.25927584667E+04  0.25978018800E+04  0.82056082013E+02 0.  0.
        -13    1    5    5    0    0  0.31171492487E+02 -0.15594173680E+02  0.23305888960E+03  0.23565077174E+03  0.00000000000E+00 0.  1.
         14    1    5    5    0    0  0.63165487455E+02 -0.87096989547E+02  0.23596995771E+04  0.23621511083E+04  0.00000000000E+00 0. -1.
         13    1    3    3    0    0  0.11099545807E+02 -0.57952914245E-01 -0.76601143772E+02  0.77401153110E+02  0.00000000000E+00 0. -1.
        -14    1    3    3    0    0 -0.58802925481E+02 -0.17518414913E+02 -0.41056269786E+02  0.73826121360E+02  0.00000000000E+00 0.  1.
          5    1    4    4  501    0  0.17402549779E+02  0.91511689353E+02 -0.15637860806E+03  0.18206861203E+03  0.41800000000E+01 0. -1.
         -5    1    4    4    0  501 -0.64036150046E+02  0.28755841701E+02 -0.28894655241E+02  0.76025656500E+02  0.41800000000E+01 0. -1.
</event>
<event>
11    1  0.6763327E-009  0.1413879E+03  0.7561462E-02  0.1106018E+00
         22   -1    0    0    0    0  0.00000000000E+00  0.00000000000E+00  0.11888310716E+04  0.11888310716E+04  0.00000000000E+00 0.  1.
         22   -1    0    0    0    0 -0.00000000000E+00 -0.00000000000E+00 -0.92088578589E+02  0.92088578589E+02  0.00000000000E+00 0. -1.
         24    2    1    2    0    0  0.39747258325E+02 -0.55789721326E+02 -0.38005291636E+02  0.11284778516E+03  0.81227352981E+02 0.  0.
         25    2    1    2    0    0 -0.50888144387E+01 -0.17891977741E+02  0.29933279649E+03  0.32495169478E+03  0.12508981567E+03 0.  0.
        -24    2    1    2    0    0 -0.34658443887E+02  0.73681699067E+02  0.83541498820E+03  0.84312017030E+03  0.79392811677E+02 0.  0.
        -13    1    3    3    0    0  0.40135806581E+02 -0.24347376486E+02  0.16636537670E+02  0.49804137351E+02  0.00000000000E+00 0.  1.
         14    1    3    3    0    0 -0.38854825508E+00 -0.31442344840E+02 -0.54641829305E+02  0.63043647805E+02  0.00000000000E+00 0. -1.
         11    1    5    5    0    0  0.36613500699E+01  0.11901597171E+02  0.15019984390E+02  0.19510341633E+02  0.00000000000E+00 0. -1.
        -12    1    5    5    0    0 -0.38319793957E+02  0.61780101896E+02  0.82039500381E+03  0.82360982866E+03  0.00000000000E+00 0.  1.
          5    1    4    4  501    0  0.29442230811E+02  0.59380987672E+01  0.27418829185E+03  0.27586010542E+03  0.41800000000E+01 0. -1.
         -5    1    4    4    0  501 -0.34531045250E+02 -0.23830076508E+02  0.25144504637E+02  0.49091589360E+02  0.41800000000E+01 0. -1.
</event>
<event>
11    1  0.6763327E-009  0.1350713E+03  0.7561462E-02  0.1113190E+00
         22   -1    0    0    0    0  0.00000000000E+00  0.00000000000E+00  0.26476866498E+04  0.26476866498E+04  0.00000000000E+00 0.  1.
         22   -1    0    0    0    0 -0.00000000000E+00 -0.00000000000E+00 -0.67155240562E+02  0.67155240562E+02  0.00000000000E+00 0.  1.
         24    2    1    2    0    0 -0.46266727543E+02  0.28068756141E+02 -0.20802730917E+02  0.97628826051E+02  0.78550422747E+02 0.  0.
         25    2    1    2    0    0  0.84348465107E+01  0.78274354434E+01  0.57067824652E+03  0.58434175597E+03  0.12509680788E+03 0.  0.
        -24    2    1    2    0    0  0.37831881032E+02 -0.35896191584E+02  0.20306558936E+04  0.20328713083E+04  0.79262917618E+02 0.  0.
        -11    1    3    3    0    0 -0.34950645520E+02 -0.16645294859E+02 -0.31930904114E+02  0.50181631109E+02  0.00000000000E+00 0.  1.
         12    1    3    3    0    0 -0.11316082023E+02  0.44714051000E+02  0.11128173196E+02  0.47447194942E+02  0.00000000000E+00 0. -1.
         11    1    5    5    0    0 -0.53198584023E+01 -0.51340849602E+01  0.17243408145E+02  0.18761525691E+02  0.00000000000E+00 0. -1.
        -12    1    5    5    0    0  0.43151739434E+02 -0.30762106624E+02  0.20134124854E+04  0.20141097826E+04  0.00000000000E+00 0.  1.
          5    1    4    4  501    0  0.60012285586E+02  0.32413529908E+02  0.31103075701E+03  0.31844892142E+03  0.41800000000E+01 0.  1.
         -5    1    4    4    0  501 -0.51577439075E+02 -0.24586094465E+02  0.25964748950E+03  0.26589283456E+03  0.41800000000E+01 0.  1.
</event>
<event>
11    1  0.6763327E-009  0.1528010E+03  0.7561462E-02  0.1094051E+00
         22   -1    0    0    0    0  0.00000000000E+00  0.00000000000E+00  0.21697060459E+03  0.21697060459E+03  0.00000000000E+00 0.  1.
         22   -1    0    0    0    0 -0.00000000000E+00 -0.00000000000E+00 -0.99580653247E+03  0.99580653247E+03  0.00000000000E+00 0.  1.
        -24    2    1    2    0    0  0.20012118027E+02 -0.60377324474E+02 -0.75949877167E+03  0.76497164781E+03  0.65554035799E+02 0.  0.
         25    2    1    2    0    0 -0.51283043914E+02 -0.25899250309E+02 -0.19244062164E+03  0.23660394070E+03  0.12508920872E+03 0.  0.
         24    2    1    2    0    0  0.31270925888E+02  0.86276574783E+02  0.17310346543E+03  0.21120154854E+03  0.78865494369E+02 0.  0.
        -11    1    5    5    0    0 -0.10257626905E+02  0.43569367644E+02  0.13050599396E+03  0.13796855861E+03  0.00000000000E+00 0.  1.
         12    1    5    5    0    0  0.41528552793E+02  0.42707207139E+02  0.42597471469E+02  0.73232989931E+02  0.00000000000E+00 0. -1.
         11    1    3    3    0    0 -0.15030182102E+01  0.52582237346E+00 -0.38084051766E+03  0.38084384654E+03  0.00000000000E+00 0. -1.
        -12    1    3    3    0    0  0.21515136237E+02 -0.60903146847E+02 -0.37865825401E+03  0.38412780128E+03  0.00000000000E+00 0.  1.
          5    1    4    4  501    0 -0.51923749909E+02 -0.73361736861E+02 -0.12359572350E+03  0.15287706011E+03  0.41800000000E+01 0. -1.
         -5    1    4    4    0  501  0.64070599408E+00  0.47462486552E+02 -0.68844898136E+02  0.83726880589E+02  0.41800000000E+01 0. -1.
</event>
<event>
11    1  0.6763327E-009  0.2414643E+03  0.7561462E-02  0.1028547E+00
         22   -1    0    0    0    0  0.00000000000E+00  0.00000000000E+00  0.22938229045E+04  0.22938229045E+04  0.00000000000E+00 0.  1.
         22   -1    0    0    0    0 -0.00000000000E+00 -0.00000000000E+00 -0.20105465055E+04  0.20105465055E+04  0.00000000000E+00 0.  1.
        -24    2    1    2    0    0 -0.13301991423E+03  0.15875790925E+03 -0.19305260960E+04  0.19432586218E+04  0.80154179277E+02 0.  0.
         25    2    1    2    0    0  0.92715594311E+02 -0.16972365466E+03  0.10970745227E+03  0.25512128240E+03  0.12509533672E+03 0.  0.
         24    2    1    2    0    0  0.40304319921E+02  0.10965745415E+02  0.21040950428E+04  0.21059895058E+04  0.78937721560E+02 0.  0.
        -11    1    5    5    0    0 -0.16733576909E+02 -0.18297555405E+02  0.68106447822E+03  0.68151569066E+03  0.00000000000E+00 0.  1.
         12    1    5    5    0    0  0.57037896830E+02  0.29263300820E+02  0.14230305645E+04  0.14244738152E+04  0.00000000000E+00 0. -1.
         13    1    3    3    0    0 -0.25049289373E+02  0.11217804656E+02 -0.10244352383E+03  0.10605650199E+03  0.00000000000E+00 0. -1.
        -14    1    3    3    0    0 -0.10797062486E+03  0.14754010459E+03 -0.18280825721E+04  0.18372021198E+04  0.00000000000E+00 0.  1.
          5    1    4    4  501    0 -0.24445168806E+02 -0.36917340551E+02 -0.39459955721E+01  0.44648623633E+02  0.41800000000E+01 0. -1.
         -5    1    4    4    0  501  0.11716076312E+03 -0.13280631411E+03  0.11365344784E+03  0.21047265877E+03  0.41800000000E+01 0. -1.
</event>
<event>
11    1  0.6763327E-009  0.4017891E+03  0.7561462E-02  0.9644494E-01
         22   -1    0    0    0    0  0.00000000000E+00  0.00000000000E+00  0.13285473366E+04  0.13285473366E+04  0.00000000000E+00 0. -1.
         22   -1    0    0    0    0 -0.00000000000E+00 -0.00000000000E+00 -0.61375340268E+03  0.61375340268E+03  0.00000000000E+00 0.  1.
        -24    2    1    2    0    0  0.10400926010E+03 -0.36697496523E+02 -0.19406509975E+03  0.23736153100E+03  0.80713078373E+02 0.  0.
         25    2    1    2    0    0 -0.38476383387E+03 -0.21565045955E+03 -0.22249584193E+03  0.50960874154E+03  0.12509333006E+03 0.  0.
         24    2    1    2    0    0  0.28075457377E+03  0.25234795608E+03  0.11313548756E+04  0.11953304667E+04  0.79677151911E+02 0.  0.
        -13    1    5    5    0    0  0.22378004951E+03  0.15521010832E+03  0.76301510510E+03  0.81016031679E+03  0.00000000000E+00 0.  1.
         14    1    5    5    0    0  0.56974524261E+02  0.97137847759E+02  0.36833977051E+03  0.38517014996E+03  0.00000000000E+00 0. -1.
         11    1    3    3    0    0  0.11714064991E+02 -0.71942496962E+01 -0.10453647525E+03  0.10543647948E+03  0.00000000000E+00 0. -1.
        -12    1    3    3    0    0  0.92295195110E+02 -0.29503246827E+02 -0.89528624495E+02  0.13192505152E+03  0.00000000000E+00 0.  1.
          5    1    4    4  501    0 -0.48629069744E+02 -0.67239163376E+02 -0.80428444270E+02  0.11563779038E+03  0.41800000000E+01 0.  1.
         -5    1    4    4    0  501 -0.33613476412E+03 -0.14841129618E+03 -0.14206739766E+03  0.39397095117E+03  0.41800000000E+01 0.  1.
</event>
<event>
11    1  0.6763327E-009  0.3090488E+03  0.7561462E-02  0.9964327E-01
         22   -1    0    0    0    0  0.00000000000E+00  0.00000000000E+00  0.22668783758E+04  0.22668783758E+04  0.00000000000E+00 0. -1.
         22   -1    0    0    0    0 -0.00000000000E+00 -0.00000000000E+00 -0.11249828399E+04  0.11249828399E+04  0.00000000000E+00 0.  1.
         24    2    1    2    0    0 -0.28736247669E+03 -0.78908845072E+02 -0.99424805930E+03  0.10409155930E+04  0.78563791889E+02 0.  0.
         25    2    1    2    0    0  0.20504796724E+03 -0.64673504310E+02  0.46276878548E+02  0.25301392918E+03  0.12508863995E+03 0.  0.
        -24    2    1    2    0    0  0.82314509451E+02  0.14358234938E+03  0.20898667167E+04  0.20979316935E+04  0.79893226801E+02 0.  0.
        -11    1    3    3    0    0 -0.26473043554E+03 -0.52085322799E+02 -0.82261969309E+03  0.86573566624E+03  0.00000000000E+00 0.  1.
         12    1    3    3    0    0 -0.22632041149E+02 -0.26823522272E+02 -0.17162836621E+03  0.17517992671E+03  0.00000000000E+00 0. -1.
         13    1    5    5    0    0  0.16536683852E+02  0.90950292115E+02  0.13780957060E+04  0.13811926703E+04  0.00000000000E+00 0. -1.
        -14    1    5    5    0    0  0.65777825599E+02  0.52632057267E+02  0.71177101067E+03  0.71673902323E+03  0.00000000000E+00 0.  1.
          5    1    4    4  501    0  0.59617785982E+02 -0.21894054592E+02  0.75317115383E+02  0.98609179601E+02  0.41800000000E+01 0.  1.
         -5    1    4    4    0  501  0.14543018126E+03 -0.42779449718E+02 -0.29040236836E+02  0.15440474958E+03  0.41800000000E+01 0.  1.
</event>
<event>
11    1  0.6763327E-009  0.1866727E+03  0.7561462E-02  0.1064370E+00
         22   -1    0    0    0    0  0.00000000000E+00  0.00000000000E+00  0.57480922242E+03  0.57480922242E+03  0.00000000000E+00 0.  1.
         22   -1    0    0    0    0 -0.00000000000E+00 -0.00000000000E+00 -0.15073491464E+04  0.15073491464E+04  0.00000000000E+00 0. -1.
         24    2    1    2    0    0  0.85257501791E+02  0.10855053260E+03 -0.14572971274E+04  0.14660637085E+04  0.81091431146E+02 0.  0.
         25    2    1    2    0    0 -0.87616067474E+02 -0.16764971721E+03  0.35852113007E+03  0.42422640801E+03  0.12509053359E+03 0.  0.
        -24    2    1    2    0    0  0.23585656830E+01  0.59099184603E+02  0.16623607335E+03  0.19186825229E+03  0.75370536022E+02 0.  0.
        -11    1    3    3    0    0  0.12544890741E+02  0.65788359227E+02 -0.41613864048E+03  0.42149359497E+03  0.00000000000E+00 0.  1.
         12    1    3    3    0    0  0.72712611050E+02  0.42762173378E+02 -0.10411584869E+04  0.10445701136E+04  0.00000000000E+00 0. -1.
         11    1    5    5    0    0 -0.35531212614E+02  0.24734675657E+02  0.60332483600E+02  0.74258197036E+02  0.00000000000E+00 0. -1.
        -12    1    5    5    0    0  0.37889778297E+02  0.34364508946E+02  0.10590358975E+03  0.11761005525E+03  0.00000000000E+00 0.  1.
          5    1    4    4  501    0 -0.10114520216E+03 -0.15069050727E+03  0.35882270239E+03  0.40213080590E+03  0.41800000000E+01 0.  1.
         -5    1    4    4    0  501  0.13529134681E+02 -0.16959209942E+02 -0.30157232747E+00  0.22095602118E+02  0.41800000000E+01 0.  1.
</event>
<event>
11    1  0.6763327E-009  0.1405355E+03  0.7561462E-02  0.1106962E+00
         22   -1    0    0    0    0  0.00000000000E+00  0.00000000000E+00  0.25617566842E+04  0.25617566842E+04  0.00000000000E+00 0.  1.
         22   -1    0    0    0    0 -0.00000000000E+00 -0.00000000000E+00 -0.35305784641E+02  0.35305784641E+02  0.00000000000E+00 0.  1.
        -24    2    1    2    0    0 -0.55619405215E+02  0.31295867281E+02  0.81530507313E+02  0.13528033195E+03  0.87066612679E+02 0.  0.
         25    2    1    2    0    0  0.71701703011E+02 -0.40448558368E+01  0.70010321994E+03  0.71480805030E+03  0.12509410512E+03 0.  0.
         24    2    1    2    0    0 -0.16082297797E+02 -0.27251011444E+02  0.17448171723E+04  0.17469740866E+04  0.80809878868E+02 0.  0.
        -11    1    5    5    0    0 -0.19578773160E+02 -0.49366017759E+02  0.15439230565E+04  0.15448361519E+04  0.00000000000E+00 0.  1.
         12    1    5    5    0    0  0.34964753632E+01  0.22115006315E+02  0.20089411581E+03  0.20213793462E+03  0.00000000000E+00 0. -1.
         13    1    3    3    0    0  0.79657945156E+01  0.42621907982E+02  0.32072074187E+02  0.53932354528E+02  0.00000000000E+00 0. -1.
        -14    1    3    3    0    0 -0.63585199730E+02 -0.11326040701E+02  0.49458433126E+02  0.81347977418E+02  0.00000000000E+00 0.  1.
          5    1    4    4  501    0  0.15890929718E+02  0.53971283736E+02  0.18423771635E+03  0.19268219856E+03  0.41800000000E+01 0. -1.
         -5    1    4    4    0  501  0.55810773293E+02 -0.58016139573E+02  0.51586550359E+03  0.52212585175E+03  0.41800000000E+01 0. -1.
</event>
<event>
11    1  0.6763327E-009  0.1472655E+03  0.7561462E-02  0.1099706E+00
         22   -1    0    0    0    0  0.00000000000E+00  0.00000000000E+00  0.10838611083E+03  0.10838611083E+03  0.00000000000E+00 0.  1.
         22   -1    0    0    0    0 -0.00000000000E+00 -0.00000000000E+00 -0.78138982399E+03  0.78138982399E+03  0.00000000000E+00 0. -1.
         24    2    1    2    0    0 -0.73401500343E+01 -0.38081042856E+01 -0.59219865891E+03  0.59770153495E+03  0.80495302974E+02 0.  0.
         25    2    1    2    0    0 -0.39922624577E+02 -0.60240658822E+02 -0.10095663140E+03  0.17625205822E+03  0.12509913539E+03 0.  0.
        -24    2    1    2    0    0  0.47262774611E+02  0.64048763108E+02  0.20151577146E+02  0.11582234164E+03  0.81686687059E+02 0.  0.
        -11    1    3    3    0    0 -0.11226268380E+02  0.18528105842E+02 -0.44096256960E+02  0.49130435431E+02  0.00000000000E+00 0.  1.
         12    1    3    3    0    0  0.38861183459E+01 -0.22336210127E+02 -0.54810240195E+03  0.54857109952E+03  0.00000000000E+00 0. -1.
         11    1    5    5    0    0  0.67434948219E+01 -0.36662585348E-01 -0.26134265008E+02  0.26990292219E+02  0.00000000000E+00 0. -1.
        -12    1    5    5    0    0  0.40519279789E+02  0.64085425693E+02  0.46285842155E+02  0.88832049424E+02  0.00000000000E+00 0.  1.
          5    1    4    4  501    0  0.41998065121E+02 -0.39665514036E+02 -0.26984964418E+02  0.63897192288E+02  0.41800000000E+01 0.  1.
         -5    1    4    4    0  501 -0.81920689697E+02 -0.20575144786E+02 -0.73971666979E+02  0.11235486593E+03  0.41800000000E+01 0.  1.
</event>
<event>
11    1  0.6763327E-009  0.2524324E+03  0.7561462E-02  0.1022611E+00
         22   -1    0    0    0    0  0.00000000000E+00  0.00000000000E+00  0.25349531887E+03  0.25349531887E+03  0.00000000000E+00 0.  1.
         22   -1    0    0    0    0 -0.00000000000E+00 -0.00000000000E+00 -0.98706751817E+03  0.98706751817E+03  0.00000000000E+00 0.  1.
        -24    2    1    2    0    0 -0.14867450619E+03 -0.20424167215E+03 -0.81525387343E+03  0.85728139845E+03  0.80459608266E+02 0.  0.
         25    2    1    2    0    0  0.83524491806E+02  0.84731022693E+02 -0.52779885026E+02  0.18052661374E+03  0.12509378509E+03 0.  0.
         24    2    1    2    0    0  0.65150014380E+02  0.11951064945E+03  0.13446155915E+03  0.20275482484E+03  0.67099093904E+02 0.  0.
        -13    1    5    5    0    0 -0.60423025554E+01  0.50793491866E+02  0.32107725328E+02  0.60393660775E+02  0.00000000000E+00 0.  1.
         14    1    5    5    0    0  0.71192316936E+02  0.68717157587E+02  0.10235383382E+03  0.14236116407E+03  0.00000000000E+00 0. -1.
         11    1    3    3    0    0 -0.47558897860E+02 -0.14433499059E+02 -0.17131052779E+03  0.17837452619E+03  0.00000000000E+00 0. -1.
        -12    1    3    3    0    0 -0.10111560833E+03 -0.18980817309E+03 -0.64394334564E+03  0.67890687227E+03  0.00000000000E+00 0.  1.
          5    1    4    4  501    0 -0.19934683961E+02  0.19544292898E+02  0.23167035187E+02  0.36517871363E+02  0.41800000000E+01 0. -1.
         -5    1    4    4    0  501  0.10345917577E+03  0.65186729795E+02 -0.75946920213E+02  0.14400874238E+03  0.41800000000E+01 0. -1.
</event>
<event>
11    1  0.6763327E-009  0.1942686E+03  0.7561462E-02  0.1058652E+00
         22   -1    0    0    0    0  0.00000000000E+00  0.00000000000E+00  0.11730120180E+04  0.11730120180E+04  0.00000000000E+00 0.  1.
         22   -1    0    0    0    0 -0.00000000000E+00 -0.00000000000E+00 -0.79717885903E+03  0.79717885903E+03  0.00000000000E+00 0. -1.
         24    2    1    2    0    0  0.69641551094E+02  0.36397219625E+01 -0.69535597628E+03  0.70355119313E+03  0.81247488573E+02 0.  0.
         25    2    1    2    0    0 -0.17509713282E+03 -0.10309392529E+03  0.65391006167E+02  0.24740468809E+03  0.12508290311E+03 0.  0.
        -24    2    1    2    0    0  0.10545558172E+03  0.99454203327E+02  0.10057981291E+04  0.10192349958E+04  0.78727897966E+02 0.  0.
        -11    1    3    3    0    0  0.17118132904E+02  0.32172478345E+02 -0.12897324877E+03  0.13402312388E+03  0.00000000000E+00 0.  1.
         12    1    3    3    0    0  0.52523418190E+02 -0.28532756383E+02 -0.56638272751E+03  0.56952806925E+03  0.00000000000E+00 0. -1.
         13    1    5    5    0    0 -0.52246438849E+01 -0.87296185136E+01  0.64911247955E+02  0.65703677630E+02  0.00000000000E+00 0. -1.
        -14    1    5    5    0    0  0.11068022561E+03  0.10818382184E+03  0.94088688110E+03  0.95353131814E+03  0.00000000000E+00 0.  1.
          5    1    4    4  501    0 -0.16606556505E+03 -0.93759672314E+02  0.10715283924E+02  0.19105218595E+03  0.41800000000E+01 0. -1.
         -5    1    4    4    0  501 -0.90315677699E+01 -0.93342529757E+01  0.54675722243E+02  0.56352502143E+02  0.41800000000E+01 0. -1.
</event>
<event>
11    1  0.6763327E-009  0.2179128E+03  0.7561462E-02  0.1042533E+00
         22   -1    0    0    0    0  0.00000000000E+00  0.00000000000E+00  0.52175480617E+03  0.52175480617E+03  0.00000000000E+00 0. -1.
         22   -1    0    0    0    0 -0.00000000000E+00 -0.00000000000E+00 -0.46002479005E+03  0.46002479005E+03  0.00000000000E+00 0. -1.
        -24    2    1    2    0    0  0.61009270022E+02  0.67507479623E+02 -0.26382829301E+03  0.29098333523E+03  0.82380473132E+02 0.  0.
         25    2    1    2    0    0 -0.21632486454E+03 -0.13168756960E+03 -0.34786880153E+02  0.28459506068E+03  0.12508460548E+03 0.  0.
         24    2    1    2    0    0  0.15531559452E+03  0.64180089975E+02  0.36034518928E+03  0.40620120031E+03  0.83118841679E+02 0.  0.
        -13    1    5    5    0    0  0.67891128856E+02  0.68519265892E+02  0.14959841127E+03  0.17799938155E+03  0.00000000000E+00 0.  1.
         14    1    5    5    0    0  0.87424465663E+02 -0.43391759169E+01  0.21074677801E+03  0.22820181876E+03  0.00000000000E+00 0. -1.
         13    1    3    3    0    0  0.38047135414E+02  0.77154022664E+02 -0.24528345644E+03  0.25993134041E+03  0.00000000000E+00 0. -1.
        -14    1    3    3    0    0  0.22962134608E+02 -0.96465430411E+01 -0.18544836570E+02  0.31051994812E+02  0.00000000000E+00 0.  1.
          5    1    4    4  501    0 -0.13761344245E+03 -0.11619110995E+03  0.28416251795E+02  0.18238089084E+03  0.41800000000E+01 0.  1.
         -5    1    4    4    0  501 -0.78711422087E+02 -0.15496459644E+02 -0.63203131948E+02  0.10221416984E+03  0.41800000000E+01 0.  1.
</event>
<event>
11    1  0.6763327E-009  0.1446768E+03  0.7561462E-02  0.1102446E+00
         22   -1    0    0    0    0  0.00000000000E+00  0.00000000000E+00  0.94684685086E+03  0.94684685086E+03  0.00000000000E+00 0.  1.
         22   -1    0    0    0    0 -0.00000000000E+00 -0.00000000000E+00 -0.10467120554E+04  0.10467120554E+04  0.00000000000E+00 0.  1.
         24    2    1    2    0    0  0.26598786971E+02  0.68233048440E+02 -0.98903178446E+03  0.99505302805E+03  0.81138237555E+02 0.  0.
         25    2    1    2    0    0  0.33572216593E+02 -0.71603175547E+02  0.54575750758E+02  0.15771363343E+03  0.12506386019E+03 0.  0.
        -24    2    1    2    0    0 -0.60171003564E+02  0.33701271071E+01  0.83459082918E+03  0.84079224476E+03  0.82206078026E+02 0.  0.
        -11    1    3    3    0    0  0.97501108506E+01  0.81670858122E+02 -0.88490924339E+03  0.88872355812E+03  0.00000000000E+00 0.  1.
         12    1    3    3    0    0  0.16848676120E+02 -0.13437809681E+02 -0.10412254107E+03  0.10632946993E+03  0.00000000000E+00 0. -1.
         11    1    5    5    0    0 -0.27307736581E+02 -0.34320925043E+02  0.23053032472E+03  0.23466544055E+03  0.00000000000E+00 0. -1.
        -12    1    5    5    0    0 -0.32863266983E+02  0.37691052150E+02  0.60406050446E+03  0.60612680421E+03  0.00000000000E+00 0.  1.
          5    1    4    4  501    0  0.48794908320E+02 -0.10196588643E+03  0.47932448918E+02  0.12285347831E+03  0.41800000000E+01 0.  1.
         -5    1    4    4    0  501 -0.15222691727E+02  0.30362710887E+02  0.66433018404E+01  0.34860155122E+02  0.41800000000E+01 0.  1.
</event>
<event>
11    1  0.6763327E-009  0.1325895E+03  0.7561462E-02  0.1116128E+00
         22   -1    0    0    0    0  0.00000000000E+00  0.00000000000E+00  0.18026058938E+03  0.18026058938E+03  0.00000000000E+00 0.  1.
         22   -1    0    0    0    0 -0.00000000000E+00 -0.00000000000E+00 -0.55643676479E+03  0.55643676479E+03  0.00000000000E+00 0.  1.
        -24    2    1    2    0    0 -0.60006090392E+01  0.11176636524E+02 -0.36841420740E+03  0.37722057982E+03  0.80033824799E+02 0.  0.
         25    2    1    2    0    0  0.29635378805E+02 -0.47110586226E+02 -0.14212438102E+03  0.19734236019E+03  0.12508798677E+03 0.  0.
         24    2    1    2    0    0 -0.23634769766E+02  0.35933949702E+02  0.13436241301E+03  0.16213441415E+03  0.79902810585E+02 0.  0.
        -13    1    5    5    0    0  0.67159288639E+01  0.49800943201E+02  0.10963344086E+03  0.12060152984E+03  0.00000000000E+00 0.  1.
         14    1    5    5    0    0 -0.30350698629E+02 -0.13866993500E+02  0.24728972155E+02  0.41532884319E+02  0.00000000000E+00 0. -1.
         13    1    3    3    0    0 -0.99633128846E+01 -0.25160016079E+02 -0.51236938905E+02  0.57944093065E+02  0.00000000000E+00 0. -1.
        -14    1    3    3    0    0  0.39627038454E+01  0.36336652604E+02 -0.31717726849E+03  0.31927648675E+03  0.00000000000E+00 0.  1.
          5    1    4    4  501    0  0.70390505371E+02  0.23406257487E+01 -0.91660009881E+02  0.11566906063E+03  0.41800000000E+01 0.  1.
         -5    1    4    4    0  501 -0.40755126566E+02 -0.49451211975E+02 -0.50464371143E+02  0.81673299567E+02  0.41800000000E+01 0.  1.
</event>
<event>
11    1  0.6763327E-009  0.1305095E+03  0.7561462E-02  0.1118644E+00
         22   -1    0    0    0    0  0.00000000000E+00  0.00000000000E+00  0.64968507270E+02  0.64968507270E+02  0.00000000000E+00 0. -1.
         22   -1    0    0    0    0 -0.00000000000E+00 -0.00000000000E+00 -0.81731542000E+03  0.81731542000E+03  0.00000000000E+00 0. -1.
         24    2    1    2    0    0  0.29284427243E+02 -0.10272555751E+02 -0.42869279193E+03  0.43715278824E+03  0.79761816226E+02 0.  0.
         25    2    1    2    0    0 -0.58480144638E+02  0.46034549365E+01 -0.33188643295E+03  0.35949540294E+03  0.12508885340E+03 0.  0.
        -24    2    1    2    0    0  0.29195717395E+02  0.56691008144E+01  0.82323121517E+01  0.85635736094E+02  0.79882286614E+02 0.  0.
        -11    1    3    3    0    0 -0.29313874549E+01  0.16569854987E+02 -0.19248107066E+02  0.25566438006E+02  0.00000000000E+00 0.  1.
         12    1    3    3    0    0  0.32215814698E+02 -0.26842410738E+02 -0.40944468487E+03  0.41158635023E+03  0.00000000000E+00 0. -1.
         13    1    5    5    0    0  0.34933616323E+02  0.75071315269E+01  0.39807057995E+02  0.53491274423E+02  0.00000000000E+00 0. -1.
        -14    1    5    5    0    0 -0.57378989285E+01 -0.18380307125E+01 -0.31574745843E+02  0.32144461671E+02  0.00000000000E+00 0.  1.
          5    1    4    4  501    0  0.31301099872E+02  0.12903613876E+02 -0.33719506870E+02  0.47966025975E+02  0.41800000000E+01 0. -1.
         -5    1    4    4    0  501 -0.89781244510E+02 -0.83001589394E+01 -0.29816692608E+03  0.31152937696E+03  0.41800000000E+01 0. -1.
</event>
<event>
11    1  0.6763327E-009  0.1548639E+03  0.7561462E-02  0.1092010E+00
         22   -1    0    0    0    0  0.00000000000E+00  0.00000000000E+00  0.83606166926E+02  0.83606166926E+02  0.00000000000E+00 0.  1.
         22   -1    0    0    0    0 -0.00000000000E+00 -0.00000000000E+00 -0.13259701355E+04  0.13259701355E+04  0.00000000000E+00 0.  1.
        -24    2    1    2    0    0  0.67643974220E+02  0.63549282878E+02 -0.76331501149E+03  0.77303454531E+03  0.79488256200E+02 0.  0.
         25    2    1    2    0    0 -0.99295425335E+02 -0.14535865476E+02 -0.50817212517E+03  0.53287603268E+03  0.12508830691E+03 0.  0.
         24    2    1    2    0    0  0.31651451115E+02 -0.49013417403E+02  0.29123168126E+02  0.10366572440E+03  0.80587182915E+02 0.  0.
        -13    1    5    5    0    0  0.14235669573E+02  0.16592544615E+02  0.28327467639E+02  0.35782848515E+02  0.00000000000E+00 0.  1.
         14    1    5    5    0    0  0.17415781542E+02 -0.65605962017E+02  0.79570048682E+00  0.67882875884E+02  0.00000000000E+00 0. -1.
         11    1    3    3    0    0  0.27054172742E+02 -0.16774443793E+02 -0.22696510845E+03  0.22918654123E+03  0.00000000000E+00 0. -1.
        -12    1    3    3    0    0  0.40589801478E+02  0.80323726671E+02 -0.53634990304E+03  0.54384800408E+03  0.00000000000E+00 0.  1.
          5    1    4    4  501    0 -0.67259122742E+02  0.24399502914E+02 -0.45046381746E+03  0.45612964010E+03  0.41800000000E+01 0. -1.
         -5    1    4    4    0  501 -0.32036302593E+02 -0.38935368390E+02 -0.57708307713E+02  0.76746392583E+02  0.41800000000E+01 0. -1.
</event>
<event>
11    1  0.6763327E-009  0.1353274E+03  0.7561462E-02  0.1112891E+00
         22   -1    0    0    0    0  0.00000000000E+00  0.00000000000E+00  0.63895812150E+03  0.63895812150E+03  0.00000000000E+00 0. -1.
         22   -1    0    0    0    0 -0.00000000000E+00 -0.00000000000E+00 -0.13379188457E+03  0.13379188457E+03  0.00000000000E+00 0.  1.
        -24    2    1    2    0    0 -0.27550762720E+02 -0.37018993381E+02 -0.46270723004E+02  0.10382070320E+03  0.80674086350E+02 0.  0.
         25    2    1    2    0    0  0.42111811716E+02  0.54985507002E+02  0.36575448691E+02  0.14758239459E+03  0.12508392814E+03 0.  0.
         24    2    1    2    0    0 -0.14561048996E+02 -0.17966513622E+02  0.51486151124E+03  0.52134690827E+03  0.78647334666E+02 0.  0.
        -13    1    5    5    0    0 -0.27112447568E+02 -0.30255935624E+01  0.58284483269E+02  0.64353088655E+02  0.00000000000E+00 0.  1.
         14    1    5    5    0    0  0.12551398572E+02 -0.14940920059E+02  0.45657702797E+03  0.45699381962E+03  0.00000000000E+00 0. -1.
         11    1    3    3    0    0  0.18698966964E+02 -0.26113155244E+02  0.65421366302E+01  0.32777245064E+02  0.00000000000E+00 0. -1.
        -12    1    3    3    0    0 -0.46249729684E+02 -0.10905838137E+02 -0.52812859634E+02  0.71043458137E+02  0.00000000000E+00 0.  1.
          5    1    4    4  501    0  0.45862665483E+02  0.25948469093E+02 -0.39481841697E+02  0.65977233628E+02  0.41800000000E+01 0.  1.
         -5    1    4    4    0  501 -0.37508537674E+01  0.29037037910E+02  0.76057290387E+02  0.81605160962E+02  0.41800000000E+01 0.  1.
</event>
<event>
11    1  0.6763327E-009  0.2083494E+03  0.7561462E-02  0.1048771E+00
         22   -1    0    0    0    0  0.00000000000E+00  0.00000000000E+00  0.45217261256E+03  0.45217261256E+03  0.00000000000E+00 0.  1.
         22   -1    0    0    0    0 -0.00000000000E+00 -0.00000000000E+00 -0.15149182418E+04  0.15149182418E+04  0.00000000000E+00 0. -1.
         24    2    1    2    0    0 -0.34516960824E+02 -0.32320878249E+02 -0.13559213073E+04  0.13598380780E+04  0.91656680599E+02 0.  0.
         25    2    1    2    0    0 -0.17446392864E+02 -0.13239285395E+03 -0.71063961778E+02  0.19628852214E+03  0.12508738090E+03 0.  0.
        -24    2    1    2    0    0  0.51963353687E+02  0.16471373220E+03  0.36423963982E+03  0.41096425421E+03  0.79939347748E+02 0.  0.
        -11    1    3    3    0    0  0.26853073183E+02 -0.96625640246E+01 -0.19525384843E+03  0.19732845210E+03  0.00000000000E+00 0.  1.
         12    1    3    3    0    0 -0.61370034007E+02 -0.22658314224E+02 -0.11606674589E+04  0.11625096259E+04  0.00000000000E+00 0. -1.
         11    1    5    5    0    0  0.62115395583E+02  0.86103252809E+02  0.16141436596E+03  0.19320116472E+03  0.00000000000E+00 0. -1.
        -12    1    5    5    0    0 -0.10152041895E+02  0.78610479389E+02  0.20282527386E+03  0.21776308948E+03  0.00000000000E+00 0.  1.
          5    1    4    4  501    0 -0.20868054491E+02 -0.12598119533E+03 -0.30942461708E+01  0.12780369335E+03  0.41800000000E+01 0. -1.
         -5    1    4    4    0  501  0.34216616270E+01 -0.64116586181E+01 -0.67969715608E+02  0.68484828789E+02  0.41800000000E+01 0. -1.
</event>
<event>
11    1  0.6763327E-009  0.1416013E+03  0.7561462E-02  0.1105783E+00
         22   -1    0    0    0    0  0.00000000000E+00  0.00000000000E+00  0.13080855181E+04  0.13080855181E+04  0.00000000000E+00 0.  1.
         22   -1    0    0    0    0 -0.00000000000E+00 -0.00000000000E+00 -0.19418720174E+03  0.19418720174E+03  0.00000000000E+00 0.  1.
        -24    2    1    2    0    0 -0.46277438524E+02  0.49333865138E+02 -0.14205596729E+03  0.17507997431E+03  0.76796275907E+02 0.  0.
         25    2    1    2    0    0  0.47092959820E+02 -0.31853990374E+02  0.10449862470E+03  0.17262679698E+03  0.12509046688E+03 0.  0.
         24    2    1    2    0    0 -0.81552129639E+00 -0.17479874764E+02  0.11514556589E+04  0.11545659485E+04  0.82862439868E+02 0.  0.
        -13    1    5    5    0    0  0.23288167018E+02  0.23611403172E+02  0.31149818199E+03  0.31325860637E+03  0.00000000000E+00 0.  1.
         14    1    5    5    0    0 -0.24103688314E+02 -0.41091277935E+02  0.83995747695E+03  0.84130734218E+03  0.00000000000E+00 0. -1.
         11    1    3    3    0    0 -0.30232225665E+02  0.47115261546E+02 -0.33324743879E+02  0.65148859498E+02  0.00000000000E+00 0. -1.
        -12    1    3    3    0    0 -0.16045212859E+02  0.22186035915E+01 -0.10873122341E+03  0.10993111481E+03  0.00000000000E+00 0.  1.
          5    1    4    4  501    0  0.76715575769E+02 -0.26571113827E+02  0.21275330733E+02  0.84032230444E+02  0.41800000000E+01 0.  1.
         -5    1    4    4    0  501 -0.29622615949E+02 -0.52828765478E+01  0.83223293971E+02  0.88594566536E+02  0.41800000000E+01 0.  1.
</event>
<event>
11    1  0.6763327E-009  0.1546945E+03  0.7561462E-02  0.1092176E+00
         22   -1    0    0    0    0  0.00000000000E+00  0.00000000000E+00  0.56403527842E+03  0.56403527842E+03  0.00000000000E+00 0. -1.
         22   -1    0    0    0    0 -0.00000000000E+00 -0.00000000000E+00 -0.80538156762E+03  0.80538156762E+03  0.00000000000E+00 0.  1.
        -24    2    1    2    0    0 -0.85698215624E+01  0.68107553647E+01 -0.55714383012E+03  0.56225974589E+03  0.74879544471E+02 0.  0.
         25    2    1    2    0    0  0.95230709076E+02 -0.33560243095E+02 -0.21061955614E+03  0.26495464846E+03  0.12508073571E+03 0.  0.
         24    2    1    2    0    0 -0.86660887514E+02  0.26749487730E+02  0.52641709706E+03  0.54220245168E+03  0.92967166323E+02 0.  0.
        -13    1    5    5    0    0 -0.27508002303E+02 -0.13899216359E+01  0.27213498400E+02  0.38719459811E+02  0.00000000000E+00 0.  1.
         14    1    5    5    0    0 -0.59152885210E+02  0.28139409366E+02  0.49920359866E+03  0.50348299187E+03  0.00000000000E+00 0. -1.
         11    1    3    3    0    0 -0.29771847984E+02 -0.77887160482E+01 -0.10586006678E+03  0.11024237284E+03  0.00000000000E+00 0. -1.
        -12    1    3    3    0    0  0.21202026421E+02  0.14599471413E+02 -0.45128376334E+03  0.45201737305E+03  0.00000000000E+00 0.  1.
          5    1    4    4  501    0  0.46166909118E+01  0.28797986586E+02 -0.11636749982E+03  0.12003959881E+03  0.41800000000E+01 0. -1.
         -5    1    4    4    0  501  0.90614018164E+02 -0.62358229680E+02 -0.94252056317E+02  0.14491504966E+03  0.41800000000E+01 0. -1.
</event>
<event>
11    1  0.6763327E-009  0.2161438E+03  0.7561462E-02  0.1043660E+00
         22   -1    0    0    0    0  0.00000000000E+00  0.00000000000E+00  0.10524454872E+03  0.10524454872E+03  0.00000000000E+00 0. -1.
         22   -1    0    0    0    0 -0.00000000000E+00 -0.00000000000E+00 -0.20863541961E+04  0.20863541961E+04  0.00000000000E+00 0. -1.
         24    2    1    2    0    0 -0.66953700705E+02 -0.16558482290E+03 -0.15223006477E+04  0.15347859277E+04  0.79167230337E+02 0.  0.
         25    2    1    2    0    0 -0.47754269860E+01  0.17934488292E+03 -0.49247102813E+03  0.53885324397E+03  0.12509082006E+03 0.  0.
        -24    2    1    2    0    0  0.71729127691E+02 -0.13760060014E+02  0.33662028396E+02  0.11795957317E+03  0.86295548765E+02 0.  0.
        -11    1    3    3    0    0 -0.38028225360E+02 -0.14748996519E+02 -0.26077074552E+03  0.26394139603E+03  0.00000000000E+00 0.  1.
         12    1    3    3    0    0 -0.28925475346E+02 -0.15083582639E+03 -0.12615299022E+04  0.12708445317E+04  0.00000000000E+00 0. -1.
         11    1    5    5    0    0  0.66223704319E+02 -0.41513873616E+02  0.41642387470E+02  0.88561104049E+02  0.00000000000E+00 0. -1.
        -12    1    5    5    0    0  0.55054233725E+01  0.27753813601E+02 -0.79803590733E+01  0.29398469125E+02  0.00000000000E+00 0.  1.
          5    1    4    4  501    0  0.21233762399E+02  0.97140810024E+02 -0.11707137886E+03  0.15365672711E+03  0.41800000000E+01 0.  1.
         -5    1    4    4    0  501 -0.26009189385E+02  0.82204072894E+02 -0.37539964927E+03  0.38519651687E+03  0.41800000000E+01 0.  1.
</event>
<event>
11    1  0.6763327E-009  0.1351742E+03  0.7561462E-02  0.1113070E+00
         22   -1    0    0    0    0  0.00000000000E+00  0.00000000000E+00  0.13255858623E+04  0.13255858623E+04  0.00000000000E+00 0. -1.
         22   -1    0    0    0    0 -0.00000000000E+00 -0.00000000000E+00 -0.89976910488E+03  0.89976910488E+03  0.00000000000E+00 0.  1.
        -24    2    1    2    0    0  0.43706963243E+01  0.51304313833E+02 -0.77474361247E+03  0.78225876765E+03  0.95130851487E+02 0.  0.
         25    2    1    2    0    0  0.70127032999E+02 -0.50147550441E+02 -0.70570656966E+02  0.16751205398E+03  0.12508993977E+03 0.  0.
         24    2    1    2    0    0 -0.74497729323E+02 -0.11567633924E+01  0.12711310268E+04  0.12755841455E+04  0.76089257751E+02 0.  0.
        -11    1    5    5    0    0  0.11387441463E+02 -0.15545885891E+02  0.25666253392E+03  0.25738493490E+03  0.00000000000E+00 0.  1.
         12    1    5    5    0    0 -0.85885170786E+02  0.14389122498E+02  0.10144684929E+04  0.10181992106E+04  0.00000000000E+00 0. -1.
         13    1    3    3    0    0 -0.14952830713E+02  0.71104542107E+02 -0.40382267211E+03  0.41030743786E+03  0.00000000000E+00 0. -1.
        -14    1    3    3    0    0  0.19323527037E+02 -0.19800228274E+02 -0.37092094036E+03  0.37195132979E+03  0.00000000000E+00 0.  1.
          5    1    4    4  501    0 -0.27291440963E+02  0.12224368662E+02  0.30256430469E+01  0.30346084672E+02  0.41800000000E+01 0.  1.
         -5    1    4    4    0  501  0.97418473962E+02 -0.62371919103E+02 -0.73596300013E+02  0.13716596931E+03  0.41800000000E+01 0.  1.
</event>
<event>
11    1  0.6763327E-009  0.2192372E+03  0.7561462E-02  0.1041696E+00
         22   -1    0    0    0    0  0.00000000000E+00  0.00000000000E+00  0.10700326933E+04  0.10700326933E+04  0.00000000000E+00 0.  1.
         22   -1    0    0    0    0 -0.00000000000E+00 -0.00000000000E+00 -0.23331194834E+03  0.23331194834E+03  0.00000000000E+00 0.  1.
         24    2    1    2    0    0 -0.16685919908E+03  0.66960441909E+02 -0.14792095275E+03  0.24574844465E+03  0.78651107374E+02 0.  0.
         25    2    1    2    0    0  0.18096139151E+03 -0.36401670843E+02  0.33629599899E+03  0.40350864233E+03  0.12510842752E+03 0.  0.
        -24    2    1    2    0    0 -0.14102192436E+02 -0.30558771067E+02  0.64834569868E+03  0.65408755463E+03  0.79659737636E+02 0.  0.
        -13    1    3    3    0    0 -0.11973085790E+03  0.80720174892E+02 -0.91461604855E+02  0.17092820168E+03  0.00000000000E+00 0.  1.
         14    1    3    3    0    0 -0.47128341180E+02 -0.13759732983E+02 -0.56459347891E+02  0.74820242972E+02  0.00000000000E+00 0. -1.
         11    1    5    5    0    0  0.15936692391E+02 -0.64616235768E+00  0.27457941243E+02  0.31754278884E+02  0.00000000000E+00 0. -1.
        -12    1    5    5    0    0 -0.30038884826E+02 -0.29912608709E+02  0.62088775744E+03  0.62233327574E+03  0.00000000000E+00 0.  1.
          5    1    4    4  501    0  0.61700836879E+02  0.21286394800E+02  0.34624967594E+02  0.74003139501E+02  0.41800000000E+01 0.  1.
         -5    1    4    4    0  501  0.11926055464E+03 -0.57688065642E+02  0.30167103139E+03  0.32950550282E+03  0.41800000000E+01 0.  1.
</event>
<event>
11    1  0.6763327E-009  0.1942155E+03  0.7561462E-02  0.1058691E+00
         22   -1    0    0    0    0  0.00000000000E+00  0.00000000000E+00  0.18324423525E+04  0.18324423525E+04  0.00000000000E+00 0. -1.
         22   -1    0    0    0    0 -0.00000000000E+00 -0.00000000000E+00 -0.40712293066E+03  0.40712293066E+03  0.00000000000E+00 0. -1.
        -24    2    1    2    0    0 -0.14349288310E+03 -0.20556375141E+02 -0.32798245307E+03  0.36744940946E+03  0.80211015045E+02 0.  0.
         25    2    1    2    0    0  0.18295539313E+03  0.56647587090E+02  0.16672262411E+03  0.28307788624E+03  0.12512006750E+03 0.  0.
         24    2    1    2    0    0 -0.39462510026E+02 -0.36091211949E+02  0.15865792508E+04  0.15890379874E+04  0.70343025597E+02 0.  0.
        -11    1    5    5    0    0 -0.61809200464E+01  0.97575929002E+00  0.10877294525E+02  0.12548761492E+02  0.00000000000E+00 0.  1.
         12    1    5    5    0    0 -0.33281589980E+02 -0.37066971239E+02  0.15757019562E+04  0.15764892259E+04  0.00000000000E+00 0. -1.
         11    1    3    3    0    0 -0.83931504417E+02 -0.97443134453E+01 -0.96880244537E+02  0.12855049926E+03  0.00000000000E+00 0. -1.
        -12    1    3    3    0    0 -0.59561378685E+02 -0.10812061696E+02 -0.23110220853E+03  0.23889891020E+03  0.00000000000E+00 0.  1.
          5    1    4    4  501    0  0.18102525050E+03  0.15886911792E+02  0.15865878306E+03  0.24127291006E+03  0.41800000000E+01 0.  1.
         -5    1    4    4    0  501  0.19301426322E+01  0.40760675298E+02  0.80638410405E+01  0.41804976183E+02  0.41800000000E+01 0.  1.
</event>
<event>
11    1  0.6763327E-009  0.1597097E+03  0.7561462E-02  0.1087351E+00
         22   -1    0    0    0    0  0.00000000000E+00  0.00000000000E+00  0.20119239698E+04  0.20119239698E+04  0.00000000000E+00 0.  1.
         22   -1    0    0    0    0 -0.00000000000E+00 -0.00000000000E+00 -0.56731349686E+03  0.56731349686E+03  0.00000000000E+00 0. -1.
        -24    2    1    2    0    0  0.17734176513E+02 -0.15075162152E+02 -0.55000553043E+03  0.55606618809E+03  0.78496882129E+02 0.  0.
         25    2    1    2    0    0 -0.80363255243E+02 -0.61961190331E+02  0.56510286020E+03  0.58761042787E+03  0.12508928985E+03 0.  0.
         24    2    1    2    0    0  0.62629078730E+02  0.77036352484E+02  0.14295131432E+04  0.14355608507E+04  0.86429904716E+02 0.  0.
        -13    1    5    5    0    0  0.11797635166E+02  0.64136085471E+02  0.10970926860E+04  0.10990291094E+04  0.00000000000E+00 0.  1.
         14    1    5    5    0    0  0.50831443564E+02  0.12900267013E+02  0.33242045721E+03  0.33653174132E+03  0.00000000000E+00 0. -1.
         11    1    3    3    0    0  0.43359140343E+02 -0.28819066745E+02 -0.38716453567E+03  0.39064937136E+03  0.00000000000E+00 0. -1.
        -12    1    3    3    0    0 -0.25624963830E+02  0.13743904593E+02 -0.16284099476E+03  0.16541681674E+03  0.00000000000E+00 0.  1.
          5    1    4    4  501    0 -0.32787166913E+00  0.33346883050E+02  0.17208924683E+03  0.17534053549E+03  0.41800000000E+01 0.  1.
         -5    1    4    4    0  501 -0.80035383573E+02 -0.95308073381E+02  0.39301361336E+03  0.41226989238E+03  0.41800000000E+01 0.  1.
</event>
<event>
11    1  0.6763327E-009  0.1553949E+03  0.7561462E-02  0.1091490E+00
         22   -1    0    0    0    0  0.00000000000E+00  0.00000000000E+00  0.28367568368E+03  0.28367568368E+03  0.00000000000E+00 0. -1.
         22   -1    0    0    0    0 -0.00000000000E+00 -0.00000000000E+00 -0.18809299214E+04  0.18809299214E+04  0.00000000000E+00 0. -1.
        -24    2    1    2    0    0  0.58222811267E+02 -0.39161439103E+02 -0.16011220660E+04  0.16046716707E+04  0.80347909160E+02 0.  0.
         25    2    1    2    0    0 -0.11867600090E+03  0.10395680954E+03 -0.22502803320E+03  0.30195373723E+03  0.12508969685E+03 0.  0.
         24    2    1    2    0    0  0.60453189631E+02 -0.64795370442E+02  0.22889586148E+03  0.25798019714E+03  0.79419383933E+02 0.  0.
        -11    1    5    5    0    0  0.26417583545E+02 -0.36076872183E+02  0.29259871709E+02  0.53437529127E+02  0.00000000000E+00 0.  1.
         12    1    5    5    0    0  0.34035606086E+02 -0.28718498259E+02  0.19963598977E+03  0.20454266801E+03  0.00000000000E+00 0. -1.
         11    1    3    3    0    0  0.43804483655E+02 -0.20196602817E+02 -0.15002231431E+04  0.15009984059E+04  0.00000000000E+00 0. -1.
        -12    1    3    3    0    0  0.14418327612E+02 -0.18964836287E+02 -0.10089892292E+03  0.10367326479E+03  0.00000000000E+00 0.  1.
          5    1    4    4  501    0 -0.61875586503E+02  0.10801358196E+03 -0.20787876553E+03  0.24233566732E+03  0.41800000000E+01 0.  1.
         -5    1    4    4    0  501 -0.56800414395E+02 -0.40567724198E+01 -0.17149267669E+02  0.59618069908E+02  0.41800000000E+01 0.  1.
</event>
<event>
11    1  0.6763327E-009  0.1364364E+03  0.7561462E-02  0.1111604E+00
         22   -1    0    0    0    0  0.00000000000E+00  0.00000000000E+00  0.55390687548E+03  0.55390687548E+03  0.00000000000E+00 0. -1.
         22   -1    0    0    0    0 -0.00000000000E+00 -0.00000000000E+00 -0.34503450798E+03  0.34503450798E+03  0.00000000000E+00 0. -1.
        -24    2    1    2    0    0 -0.53886506333E+02 -0.52886703845E+01 -0.30866159612E+03  0.32386506521E+03  0.81761078441E+02 0.  0.
         25    2    1    2    0    0  0.60591732264E+02  0.34793577160E+02  0.19550229148E+03  0.24238503731E+03  0.12508960510E+03 0.  0.
         24    2    1    2    0    0 -0.67052259310E+01 -0.29504906775E+02  0.32203167213E+03  0.33269128094E+03  0.77869063020E+02 0.  0.
        -13    1    5    5    0    0  0.81201190567E+01  0.75055874694E+01  0.33907947467E+01  0.11565797239E+02  0.00000000000E+00 0.  1.
         14    1    5    5    0    0 -0.14825344988E+02 -0.37010494245E+02  0.31864087739E+03  0.32112548370E+03  0.00000000000E+00 0. -1.
         13    1    3    3    0    0 -0.39859735492E+02  0.16126553045E+02 -0.28736697180E+03  0.29056606944E+03  0.00000000000E+00 0. -1.
        -14    1    3    3    0    0 -0.14026770841E+02 -0.21415223430E+02 -0.21294624316E+02  0.33298995774E+02  0.00000000000E+00 0.  1.
          5    1    4    4  501    0  0.84637393681E+02  0.23498855216E+02  0.19670304095E+03  0.21546517891E+03  0.41800000000E+01 0.  1.
         -5    1    4    4    0  501 -0.24045661417E+02  0.11294721944E+02 -0.12007494635E+01  0.26919858396E+02  0.41800000000E+01 0.  1.
</event>
<event>
11    1  0.6763327E-009  0.1431398E+03  0.7561462E-02  0.1104102E+00
         22   -1    0    0    0    0  0.00000000000E+00  0.00000000000E+00  0.22877823219E+04  0.22877823219E+04  0.00000000000E+00 0. -1.
         22   -1    0    0    0    0 -0.00000000000E+00 -0.00000000000E+00 -0.15129862653E+03  0.15129862653E+03  0.00000000000E+00 0. -1.
        -24    2    1    2    0    0  0.65281861674E+02 -0.10647317386E+02 -0.67891011367E+02  0.12429058131E+03  0.80398211093E+02 0.  0.
         25    2    1    2    0    0 -0.72216198742E+02  0.55828515532E+02  0.56335575820E+02  0.16478407978E+03  0.12509233925E+03 0.  0.
         24    2    1    2    0    0  0.69343370679E+01 -0.45181198146E+02  0.21480391310E+04  0.21500062874E+04  0.79784095807E+02 0.  0.
        -13    1    5    5    0    0  0.18727933301E+02 -0.31821633962E+02  0.36199102864E+03  0.36386928517E+03  0.00000000000E+00 0.  1.
         14    1    5    5    0    0 -0.11793596233E+02 -0.13359564184E+02  0.17860481023E+04  0.17861370022E+04  0.00000000000E+00 0. -1.
         11    1    3    3    0    0  0.76938368854E+02 -0.28993471046E+02 -0.50884891341E+02  0.96692327162E+02  0.00000000000E+00 0. -1.
        -12    1    3    3    0    0 -0.11656507179E+02  0.18346153660E+02 -0.17006120026E+02  0.27598254149E+02  0.00000000000E+00 0.  1.
          5    1    4    4  501    0 -0.41198805400E+01  0.44835877207E+02 -0.29949766348E+02  0.54237350644E+02  0.41800000000E+01 0. -1.
         -5    1    4    4    0  501 -0.68096318202E+02  0.10992638325E+02  0.86285342168E+02  0.11054672914E+03  0.41800000000E+01 0. -1.
</event>
<event>
11    1  0.6763327E-009  0.1585185E+03  0.7561462E-02  0.1088479E+00
         22   -1    0    0    0    0  0.00000000000E+00  0.00000000000E+00  0.15441932847E+03  0.15441932847E+03  0.00000000000E+00 0.  1.
         22   -1    0    0    0    0 -0.00000000000E+00 -0.00000000000E+00 -0.13487552405E+04  0.13487552405E+04  0.00000000000E+00 0.  1.
        -24    2    1    2    0    0 -0.74318483982E+02 -0.57919095919E+02 -0.10972289585E+04  0.11042793388E+04  0.81508354685E+02 0.  0.
         25    2    1    2    0    0  0.91777945590E+02  0.91212920374E+02 -0.19636696508E+03  0.26636631147E+03  0.12509212113E+03 0.  0.
         24    2    1    2    0    0 -0.17459461608E+02 -0.33293824455E+02  0.99260011564E+02  0.13252891874E+03  0.79360272561E+02 0.  0.
        -11    1    5    5    0    0 -0.15314716717E+02 -0.10156525514E+01  0.98995747617E+02  0.10017849143E+03  0.00000000000E+00 0.  1.
         12    1    5    5    0    0 -0.21447448911E+01 -0.32278171904E+02  0.26426394700E+00  0.32350427316E+02  0.00000000000E+00 0. -1.
         13    1    3    3    0    0 -0.99175234674E+01 -0.50289219156E+02 -0.29384665574E+03  0.29828379092E+03  0.00000000000E+00 0. -1.
        -14    1    3    3    0    0 -0.64400960514E+02 -0.76298767623E+01 -0.80338230278E+03  0.80599554785E+03  0.00000000000E+00 0.  1.
          5    1    4    4  501    0  0.84351248892E+02  0.97499563506E+02 -0.84959731357E+02  0.15445687562E+03  0.41800000000E+01 0.  1.
         -5    1    4    4    0  501  0.74266966980E+01 -0.62866431316E+01 -0.11140723372E+03  0.11190943585E+03  0.41800000000E+01 0.  1.
</event>
<event>
11    1  0.6763327E-009  0.1306206E+03  0.7561462E-02  0.1118509E+00
         22   -1    0    0    0    0  0.00000000000E+00  0.00000000000E+00  0.15034093093E+03  0.15034093093E+03  0.00000000000E+00 0. -1.
         22   -1    0    0    0    0 -0.00000000000E+00 -0.00000000000E+00 -0.57429386999E+03  0.57429386999E+03  0.00000000000E+00 0. -1.
        -24    2    1    2    0    0 -0.48652765079E+01  0.39681641203E+00 -0.33397003590E+03  0.34475740652E+03  0.85427490283E+02 0.  0.
         25    2    1    2    0    0 -0.31880603104E+02  0.90603237698E+01 -0.19932650062E+03  0.23764888960E+03  0.12508988192E+03 0.  0.
         24    2    1    2    0    0  0.36745879612E+02 -0.94571401819E+01  0.10934359745E+03  0.14222850480E+03  0.82663341963E+02 0.  0.
        -13    1    5    5    0    0 -0.98416729015E+01  0.25241480377E+02  0.60663623740E+02  0.66438438441E+02  0.00000000000E+00 0.  1.
         14    1    5    5    0    0  0.46587552514E+02 -0.34698620559E+02  0.48679973710E+02  0.75790066357E+02  0.00000000000E+00 0. -1.
         13    1    3    3    0    0  0.10701864240E+01 -0.19330184057E+01 -0.33747432877E+03  0.33748156162E+03  0.00000000000E+00 0. -1.
        -14    1    3    3    0    0 -0.59354629320E+01  0.23298348177E+01  0.35042928688E+01  0.72758448998E+01  0.00000000000E+00 0.  1.
          5    1    4    4  501    0  0.26241185466E+02 -0.41031323390E+02 -0.10621234035E+03  0.11692178136E+03  0.41800000000E+01 0.  1.
         -5    1    4    4    0  501 -0.58121788570E+02  0.50091647160E+02 -0.93114160273E+02  0.12072710824E+03  0.41800000000E+01 0.  1.
</event>
<event>
11    1  0.6763327E-009  0.1381073E+03  0.7561462E-02  0.1109690E+00
         22   -1    0    0    0    0  0.00000000000E+00  0.00000000000E+00  0.15129501782E+04  0.15129501782E+04  0.00000000000E+00 0.  1.
         22   -1    0    0    0    0 -0.00000000000E+00 -0.00000000000E+00 -0.82110336972E+02  0.82110336972E+02  0.00000000000E+00 0. -1.
        -24    2    1    2    0    0 -0.67532981522E+00 -0.33629718068E+02 -0.46402249782E+02  0.96856143340E+02  0.78080277344E+02 0.  0.
         25    2    1    2    0    0 -0.42426013430E+02 -0.15792642421E+02  0.58378770157E+03  0.59875350566E+03  0.12509318870E+03 0.  0.
         24    2    1    2    0    0  0.43101343245E+02  0.49422360489E+02  0.89345438944E+03  0.89945086617E+03  0.80316991671E+02 0.  0.
        -11    1    5    5    0    0  0.51254376029E+02  0.56012103383E+02  0.87450838947E+03  0.87779797792E+03  0.00000000000E+00 0.  1.
         12    1    5    5    0    0 -0.81530327839E+01 -0.65897428935E+01  0.18945999967E+02  0.21652888254E+02  0.00000000000E+00 0. -1.
         13    1    3    3    0    0 -0.35225503294E+01 -0.41780058960E+02 -0.64427942792E+02  0.76869639650E+02  0.00000000000E+00 0. -1.
        -14    1    3    3    0    0  0.28472205142E+01  0.81503408915E+01  0.18025693009E+02  0.19986503690E+02  0.00000000000E+00 0.  1.
          5    1    4    4  501    0  0.44514162712E+02 -0.86767106479E+00  0.19823517709E+03  0.20321643971E+03  0.41800000000E+01 0. -1.
         -5    1    4    4    0  501 -0.86940176142E+02 -0.14924971357E+02  0.38555252449E+03  0.39553706594E+03  0.41800000000E+01 0. -1.
</event>
<event>
11    1  0.6763327E-009  0.2009021E+03  0.7561462E-02  0.1053888E+00
         22   -1    0    0    0    0  0.00000000000E+00  0.00000000000E+00  0.20432423197E+03  0.20432423197E+03  0.00000000000E+00 0. -1.
         22   -1    0    0    0    0 -0.00000000000E+00 -0.00000000000E+00 -0.13508780973E+04  0.13508780973E+04  0.00000000000E+00 0. -1.
         24    2    1    2    0    0  0.15946523591E+03  0.72030743270E+02 -0.10948553825E+04  0.11118879836E+04  0.83480477667E+02 0.  0.
         25    2    1    2    0    0 -0.84021709363E+02 -0.53927353494E+02 -0.20139985714E+03  0.25725003059E+03  0.12509144127E+03 0.  0.
        -24    2    1    2    0    0 -0.75443526542E+02 -0.18103389777E+02  0.14970137426E+03  0.18606431509E+03  0.78676359060E+02 0.  0.
        -11    1    3    3    0    0  0.23520085775E+02  0.37566224377E+02 -0.43744926050E+03  0.43968883448E+03  0.00000000000E+00 0.  1.
         12    1    3    3    0    0  0.13594515013E+03  0.34464518893E+02 -0.65740612199E+03  0.67219914916E+03  0.00000000000E+00 0. -1.
         11    1    5    5    0    0 -0.28206289574E+02 -0.56961671493E+01  0.13041957088E+03  0.13355637596E+03  0.00000000000E+00 0. -1.
        -12    1    5    5    0    0 -0.47237236968E+02 -0.12407222627E+02  0.19281803383E+02  0.52507939127E+02  0.00000000000E+00 0.  1.
          5    1    4    4  501    0  0.31503481657E+02 -0.21588379595E+02 -0.34293300845E+02  0.51497867654E+02  0.41800000000E+01 0.  1.
         -5    1    4    4    0  501 -0.11552519102E+03 -0.32338973899E+02 -0.16710655630E+03  0.20575216293E+03  0.41800000000E+01 0.  1.
</event>
<event>
11    1  0.6763327E-009  0.1489689E+03  0.7561462E-02  0.1097937E+00
         22   -1    0    0    0    0  0.00000000000E+00  0.00000000000E+00  0.77288630230E+03  0.77288630230E+03  0.00000000000E+00 0. -1.
         22   -1    0    0    0    0 -0.00000000000E+00 -0.00000000000E+00 -0.63668830723E+03  0.63668830723E+03  0.00000000000E+00 0. -1.
         24    2    1    2    0    0  0.17372681487E+02  0.60977959968E+02 -0.60825614376E+03  0.61628647753E+03  0.76245421459E+02 0.  0.
         25    2    1    2    0    0  0.66991323579E+02 -0.60002593338E+02  0.35475370484E+03  0.38676288425E+03  0.12508872411E+03 0.  0.
        -24    2    1    2    0    0 -0.84364005066E+02 -0.97536663032E+00  0.38970043399E+03  0.40652524775E+03  0.79234538623E+02 0.  0.
        -11    1    3    3    0    0  0.25561510098E+02 -0.19195326787E+01 -0.74748726831E+02  0.79021817032E+02  0.00000000000E+00 0.  1.
         12    1    3    3    0    0 -0.81888286116E+01  0.62897492647E+02 -0.53350741693E+03  0.53726466050E+03  0.00000000000E+00 0. -1.
         13    1    5    5    0    0 -0.24718971804E+02  0.18373726665E+02  0.26661239419E+03  0.26838552520E+03  0.00000000000E+00 0. -1.
        -14    1    5    5    0    0 -0.59645033262E+02 -0.19349093296E+02  0.12308803980E+03  0.13813972255E+03  0.00000000000E+00 0.  1.
          5    1    4    4  501    0  0.48508592940E+02 -0.78340554382E+02  0.34732896209E+03  0.35936778703E+03  0.41800000000E+01 0.  1.
         -5    1    4    4    0  501  0.18482730639E+02  0.18337961044E+02  0.74247427494E+01  0.27395097226E+02  0.41800000000E+01 0.  1.
</event>
<event>
11    1  0.6763327E-009  0.1377468E+03  0.7561462E-02  0.1110101E+00
         22   -1    0    0    0    0  0.00000000000E+00  0.00000000000E+00  0.11665895063E+03  0.11665895063E+03  0.00000000000E+00 0. -1.
         22   -1    0    0    0    0 -0.00000000000E+00 -0.00000000000E+00 -0.20407052950E+04  0.20407052950E+04  0.00000000000E+00 0.  1.
         24    2    1    2    0    0  0.13151309326E+02  0.55166855962E+02 -0.18675361234E+04  0.18700543734E+04  0.78713712119E+02 0.  0.
         25    2    1    2    0    0 -0.24737665132E+02 -0.84173956109E+02 -0.11117124029E+03  0.18895289650E+03  0.12508775106E+03 0.  0.
        -24    2    1    2    0    0  0.11586355807E+02  0.29007100147E+02  0.54661019280E+02  0.98356975724E+02  0.75568592319E+02 0.  0.
        -11    1    3    3    0    0  0.14517971643E+02  0.73783792136E+02 -0.16522913974E+04  0.16540017174E+04  0.00000000000E+00 0.  1.
         12    1    3    3    0    0 -0.13666623174E+01 -0.18616936175E+02 -0.21524472600E+03  0.21605265596E+03  0.00000000000E+00 0. -1.
         11    1    5    5    0    0 -0.78142519573E+01  0.49543853257E+02  0.20904594686E+02  0.54338365895E+02  0.00000000000E+00 0. -1.
        -12    1    5    5    0    0  0.19400607764E+02 -0.20536753110E+02  0.33756424594E+02  0.44018609829E+02  0.00000000000E+00 0.  1.
          5    1    4    4  501    0 -0.55178804720E+02  0.57884090741E+01 -0.26413137647E+02  0.61590034992E+02  0.41800000000E+01 0.  1.
         -5    1    4    4    0  501  0.30441139588E+02 -0.89962365183E+02 -0.84758102639E+02  0.12736286151E+03  0.41800000000E+01 0.  1.
</event>
<event>
11    1  0.6763327E-009  0.1389481E+03  0.7561462E-02  0.1108739E+00
         22   -1    0    0    0    0  0.00000000000E+00  0.00000000000E+00  0.20160015500E+03  0.20160015500E+03  0.00000000000E+00 0.  1.
         22   -1    0    0    0    0 -0.00000000000E+00 -0.00000000000E+00 -0.10913425384E+04  0.10913425384E+04  0.00000000000E+00 0. -1.
        -24    2    1    2    0    0  0.16683365278E+02 -0.18637916507E+02 -0.10198003669E+04  0.10230996589E+04  0.78194737859E+02 0.  0.
         25    2    1    2    0    0 -0.71408698455E+02  0.12221264042E+02  0.68340595332E+02  0.15989871238E+03  0.12509436334E+03 0.  0.
         24    2    1    2    0    0  0.54725333177E+02  0.64166524652E+01  0.61717388202E+02  0.10994432212E+03  0.72406370160E+02 0.  0.
        -11    1    5    5    0    0  0.44476633989E+01 -0.13611397370E+02  0.53279878787E+02  0.55170620185E+02  0.00000000000E+00 0.  1.
         12    1    5    5    0    0  0.50277669778E+02  0.20028049835E+02  0.84375094152E+01  0.54773701935E+02  0.00000000000E+00 0. -1.
         13    1    3    3    0    0 -0.14303043498E+02  0.38012198411E+01 -0.78983465385E+03  0.78997329496E+03  0.00000000000E+00 0. -1.
        -14    1    3    3    0    0  0.30986408776E+02 -0.22439136348E+02 -0.22996571305E+03  0.23312636390E+03  0.00000000000E+00 0.  1.
          5    1    4    4  501    0 -0.38848906174E+01  0.60258501084E+02  0.38439074183E+02  0.71702260439E+02  0.41800000000E+01 0.  1.
         -5    1    4    4    0  501 -0.67523807838E+02 -0.48037237042E+02  0.29901521150E+02  0.88196451939E+02  0.41800000000E+01 0.  1.
</event>
<event>
11    1  0.6763327E-009  0.1347198E+03  0.7561462E-02  0.1113602E+00
         22   -1    0    0    0    0  0.00000000000E+00  0.00000000000E+00  0.53153896273E+03  0.53153896273E+03  0.00000000000E+00 0. -1.
         22   -1    0    0    0    0 -0.00000000000E+00 -0.00000000000E+00 -0.82775155140E+03  0.82775155140E+03  0.00000000000E+00 0. -1.
        -24    2    1    2    0    0  0.84469478970E+01 -0.49885397674E+02 -0.75218806074E+03  0.75861926002E+03  0.84595502961E+02 0.  0.
         25    2    1    2    0    0 -0.42056886786E+02  0.30855540782E+02  0.17655080638E+00  0.13552695949E+03  0.12508668776E+03 0.  0.
         24    2    1    2    0    0  0.33609938889E+02  0.19029856892E+02  0.45579892127E+03  0.46514429462E+03  0.84349242685E+02 0.  0.
        -13    1    5    5    0    0 -0.95905643471E+01  0.18405136581E+02  0.26418245158E+02  0.33595411209E+02  0.00000000000E+00 0.  1.
         14    1    5    5    0    0  0.43200503236E+02  0.62472031079E+00  0.42938067611E+03  0.43154888341E+03  0.00000000000E+00 0. -1.
         11    1    3    3    0    0  0.22841782115E+02 -0.57631524743E+02 -0.71855359278E+03  0.72122285415E+03  0.00000000000E+00 0. -1.
        -12    1    3    3    0    0 -0.14394834218E+02  0.77461270696E+01 -0.33634467960E+02  0.37396405866E+02  0.00000000000E+00 0.  1.
          5    1    4    4  501    0 -0.34537386656E+02  0.33566814339E+01  0.59823610648E+02  0.69285172860E+02  0.41800000000E+01 0. -1.
         -5    1    4    4    0  501 -0.75195001304E+01  0.27498859348E+02 -0.59647059842E+02  0.66241786626E+02  0.41800000000E+01 0. -1.
</event>
<event>
11    1  0.6763327E-009  0.1393749E+03  0.7561462E-02  0.1108258E+00
         22   -1    0    0    0    0  0.00000000000E+00  0.00000000000E+00  0.85170996622E+03  0.85170996622E+03  0.00000000000E+00 0.  1.
         22   -1    0    0    0    0 -0.00000000000E+00 -0.00000000000E+00 -0.10337643737E+03  0.10337643737E+03  0.00000000000E+00 0.  1.
         24    2    1    2    0    0 -0.59206977240E+02  0.21248682332E+02 -0.59717652994E+02  0.11867869270E+03  0.81002847888E+02 0.  0.
         25    2    1    2    0    0  0.33055290838E+02 -0.12981694077E+02  0.52274128467E+03  0.53867186974E+03  0.12509099052E+03 0.  0.
        -24    2    1    2    0    0  0.26151686403E+02 -0.82669882550E+01  0.28530989717E+03  0.29773584116E+03  0.80576919088E+02 0.  0.
        -11    1    3    3    0    0 -0.59520165703E+02  0.17200084238E+02 -0.78192686843E+02  0.99762664855E+02  0.00000000000E+00 0.  1.
         12    1    3    3    0    0  0.31318846306E+00  0.40485980936E+01  0.18475033849E+02  0.18916027841E+02  0.00000000000E+00 0. -1.
         13    1    5    5    0    0 -0.13739520418E+02  0.26153929400E+02  0.68196735475E+02  0.74320906708E+02  0.00000000000E+00 0. -1.
        -14    1    5    5    0    0  0.39891206821E+02 -0.34420917655E+02  0.21711316169E+03  0.22341493445E+03  0.00000000000E+00 0.  1.
          5    1    4    4  501    0  0.82221984550E+01 -0.40563464146E+02  0.52656432501E+02  0.67105673789E+02  0.41800000000E+01 0. -1.
         -5    1    4    4    0  501  0.24833092383E+02  0.27581770069E+02  0.47008485217E+03  0.47156619595E+03  0.41800000000E+01 0. -1.
</event>
<event>
11    1  0.6763327E-009  0.1630609E+03  0.7561462E-02  0.1084233E+00
         22   -1    0    0    0    0  0.00000000000E+00  0.00000000000E+00  0.69910170390E+03  0.69910170390E+03  0.00000000000E+00 0. -1.
         22   -1    0    0    0    0 -0.00000000000E+00 -0.00000000000E+00 -0.20641340991E+03  0.20641340991E+03  0.00000000000E+00 0.  1.
        -24    2    1    2    0    0 -0.67875411899E+02  0.76935233855E+02 -0.13223030039E+03  0.18424866575E+03  0.77049443479E+02 0.  0.
         25    2    1    2    0    0  0.51615646171E+02 -0.11069498592E+03  0.12864136134E+03  0.21705795664E+03  0.12509197358E+03 0.  0.
         24    2    1    2    0    0  0.16259765728E+02  0.33759752066E+02  0.49627723304E+03  0.50420849142E+03  0.80814664218E+02 0.  0.
        -11    1    5    5    0    0 -0.20867183464E+02 -0.73206003893E+01  0.28292853338E+03  0.28379144726E+03  0.00000000000E+00 0.  1.
         12    1    5    5    0    0  0.37126949192E+02  0.41080352455E+02  0.21334869966E+03  0.22041704417E+03  0.00000000000E+00 0. -1.
         11    1    3    3    0    0  0.65397803223E+01 -0.10890756329E+02 -0.86977264229E+01  0.15395705408E+02  0.00000000000E+00 0. -1.
        -12    1    3    3    0    0 -0.74415192221E+02  0.87825990184E+02 -0.12353257396E+03  0.16885296034E+03  0.00000000000E+00 0.  1.
          5    1    4    4  501    0 -0.19897029911E+02 -0.71927569015E+02  0.11083255654E+03  0.13368169274E+03  0.41800000000E+01 0.  1.
         -5    1    4    4    0  501  0.71512676082E+02 -0.38767416906E+02  0.17808804800E+02  0.83376263903E+02  0.41800000000E+01 0.  1.
</event>
<event>
11    1  0.6763327E-009  0.1376697E+03  0.7561462E-02  0.1110189E+00
         22   -1    0    0    0    0  0.00000000000E+00  0.00000000000E+00  0.30256741083E+03  0.30256741083E+03  0.00000000000E+00 0. -1.
         22   -1    0    0    0    0 -0.00000000000E+00 -0.00000000000E+00 -0.32371277782E+04  0.32371277782E+04  0.00000000000E+00 0.  1.
        -24    2    1    2    0    0  0.38287735651E+02 -0.24723830436E+02 -0.29090925789E+04  0.29105769328E+04  0.81001422477E+02 0.  0.
         25    2    1    2    0    0 -0.13749443424E+01  0.68966836369E+02 -0.30269693877E+03  0.33471187910E+03  0.12509312643E+03 0.  0.
         24    2    1    2    0    0 -0.36912791309E+02 -0.44243005933E+02  0.27722915031E+03  0.29440637716E+03  0.80617091208E+02 0.  0.
        -11    1    5    5    0    0 -0.53936586171E+02 -0.52256471617E+02  0.17458796773E+03  0.19005486742E+03  0.00000000000E+00 0.  1.
         12    1    5    5    0    0  0.17023794863E+02  0.80134656839E+01  0.10264118258E+03  0.10435150974E+03  0.00000000000E+00 0. -1.
         13    1    3    3    0    0 -0.15780211599E+02 -0.89306815001E+01 -0.18163715462E+03  0.18253993559E+03  0.00000000000E+00 0. -1.
        -14    1    3    3    0    0  0.54067947250E+02 -0.15793148936E+02 -0.27274554243E+04  0.27280369972E+04  0.00000000000E+00 0.  1.
          5    1    4    4  501    0 -0.31294429821E+02  0.57404127565E+02 -0.29400687470E+03  0.30121767871E+03  0.41800000000E+01 0.  1.
         -5    1    4    4    0  501  0.29919485478E+02  0.11562708804E+02 -0.86900640760E+01  0.33494200391E+02  0.41800000000E+01 0.  1.
</event>
<event>
11    1  0.6763327E-009  0.4167848E+03  0.7561462E-02  0.9601492E-01
         22   -1    0    0    0    0  0.00000000000E+00  0.00000000000E+00  0.14033083209E+04  0.14033083209E+04  0.00000000000E+00 0.  1.
         22   -1    0    0    0    0 -0.00000000000E+00 -0.00000000000E+00 -0.23815308427E+04  0.23815308427E+04  0.00000000000E+00 0.  1.
        -24    2    1    2    0    0 -0.27659896491E+03  0.28805442164E+03 -0.23210092737E+04  0.23564807797E+04  0.80220191356E+02 0.  0.
         25    2    1    2    0    0  0.26620345843E+03 -0.17309267052E+03  0.84760661663E+03  0.91373158129E+03  0.12507226799E+03 0.  0.
         24    2    1    2    0    0  0.10395506477E+02 -0.11496175112E+03  0.49518013523E+03  0.51462680264E+03  0.79455074688E+02 0.  0.
        -11    1    5    5    0    0  0.37427003282E+02 -0.82015949664E+02  0.24972170259E+03  0.26549637534E+03  0.00000000000E+00 0.  1.
         12    1    5    5    0    0 -0.27031496805E+02 -0.32945801459E+02  0.24545843264E+03  0.24913042730E+03  0.00000000000E+00 0. -1.
         13    1    3    3    0    0 -0.46635076068E+02  0.13954832697E+02 -0.33156067528E+03  0.33511497887E+03  0.00000000000E+00 0. -1.
        -14    1    3    3    0    0 -0.22996388884E+03  0.27409958895E+03 -0.19894485984E+04  0.20213658008E+04  0.00000000000E+00 0.  1.
          5    1    4    4  501    0  0.10050480293E+03 -0.99396201593E+02  0.52405265097E+03  0.54279782027E+03  0.41800000000E+01 0.  1.
         -5    1    4    4    0  501  0.16569865550E+03 -0.73696468925E+02  0.32355396566E+03  0.37093376102E+03  0.41800000000E+01 0.  1.
</event>
<event>
11    1  0.6763327E-009  0.1415061E+03  0.7561462E-02  0.1105888E+00
         22   -1    0    0    0    0  0.00000000000E+00  0.00000000000E+00  0.18366755145E+04  0.18366755145E+04  0.00000000000E+00 0. -1.
         22   -1    0    0    0    0 -0.00000000000E+00 -0.00000000000E+00 -0.29244115260E+03  0.29244115260E+03  0.00000000000E+00 0. -1.
        -24    2    1    2    0    0 -0.53559502456E+02 -0.38926796309E+02 -0.27526065847E+03  0.29262172644E+03  0.73994114019E+02 0.  0.
         25    2    1    2    0    0  0.73882088875E+02  0.21239486457E+01  0.85943574661E+03  0.87163042873E+03  0.12508687992E+03 0.  0.
         24    2    1    2    0    0 -0.20322586419E+02  0.36802847663E+02  0.96005927375E+03  0.96486451190E+03  0.86500058431E+02 0.  0.
        -13    1    5    5    0    0  0.31401119231E+02  0.54936862357E+01  0.21426107162E+03  0.21661952287E+03  0.00000000000E+00 0.  1.
         14    1    5    5    0    0 -0.51723705650E+02  0.31309161428E+02  0.74579820213E+03  0.74824498903E+03  0.00000000000E+00 0. -1.
         13    1    3    3    0    0 -0.22412832945E+02 -0.18536047430E+02 -0.23862448913E+03  0.24039044687E+03  0.00000000000E+00 0. -1.
        -14    1    3    3    0    0 -0.31146669511E+02 -0.20390748879E+02 -0.36636169344E+02  0.52231279572E+02  0.00000000000E+00 0.  1.
          5    1    4    4  501    0  0.16500057383E+02 -0.33489474038E+02  0.71263507818E+02  0.80559026257E+02  0.41800000000E+01 0.  1.
         -5    1    4    4    0  501  0.57382031493E+02  0.35613422684E+02  0.78817223879E+03  0.79107140248E+03  0.41800000000E+01 0.  1.
</event>
<event>
11    1  0.6763327E-009  0.1609734E+03  0.7561462E-02  0.1086165E+00
         22   -1    0    0    0    0  0.00000000000E+00  0.00000000000E+00  0.15153917880E+04  0.15153917880E+04  0.00000000000E+00 0.  1.
         22   -1    0    0    0    0 -0.00000000000E+00 -0.00000000000E+00 -0.18434572806E+03  0.18434572806E+03  0.00000000000E+00 0.  1.
         24    2    1    2    0    0 -0.23078649377E+02 -0.73189096734E+02 -0.11536907870E+03  0.16035259272E+03  0.80707259487E+02 0.  0.
         25    2    1    2    0    0  0.10052774374E+03  0.13153843287E+03  0.20539611123E+03  0.29196393910E+03  0.12508873907E+03 0.  0.
        -24    2    1    2    0    0 -0.77449094359E+02 -0.58349336136E+02  0.12410190275E+04  0.12474209843E+04  0.80795286274E+02 0.  0.
        -11    1    3    3    0    0 -0.28527092195E+02 -0.86100235583E+02 -0.11482574777E+03  0.14632839064E+03  0.00000000000E+00 0.  1.
         12    1    3    3    0    0  0.54484428172E+01  0.12911138848E+02 -0.54333093255E+00  0.14024202081E+02  0.00000000000E+00 0. -1.
         13    1    5    5    0    0 -0.74123852984E+01 -0.29554389959E+02  0.11863627850E+03  0.12248661967E+03  0.00000000000E+00 0. -1.
        -14    1    5    5    0    0 -0.70036709061E+02 -0.28794946177E+02  0.11223827490E+04  0.11249343646E+04  0.00000000000E+00 0.  1.
          5    1    4    4  501    0 -0.99498844130E+01  0.58771169469E+02  0.12111342066E+03  0.13505178127E+03  0.41800000000E+01 0. -1.
         -5    1    4    4    0  501  0.11047762815E+03  0.72767263401E+02  0.84282690570E+02  0.15691215783E+03  0.41800000000E+01 0. -1.
</event>
<event>
11    1  0.6763327E-009  0.2128827E+03  0.7561462E-02  0.1045770E+00
         22   -1    0    0    0    0  0.00000000000E+00  0.00000000000E+00  0.23375216323E+04  0.23375216323E+04  0.00000000000E+00 0. -1.
         22   -1    0    0    0    0 -0.00000000000E+00 -0.00000000000E+00 -0.25681384316E+04  0.25681384316E+04  0.00000000000E+00 0. -1.
        -24    2    1    2    0    0 -0.15708806648E+02 -0.56345762982E+02 -0.25012579838E+04  0.25032386551E+04  0.80564578360E+02 0.  0.
         25    2    1    2    0    0  0.12204472482E+03  0.18745676289E+03  0.20458102589E+03  0.32792769780E+03  0.12509286960E+03 0.  0.
         24    2    1    2    0    0 -0.10633591817E+03 -0.13111099990E+03  0.20660601586E+04  0.20744937111E+04  0.80138360158E+02 0.  0.
        -11    1    5    5    0    0 -0.80570832300E+02 -0.36212448575E+02  0.92999655477E+03  0.93418231215E+03  0.00000000000E+00 0.  1.
         12    1    5    5    0    0 -0.25765085875E+02 -0.94898551329E+02  0.11360636038E+04  0.11403113989E+04  0.00000000000E+00 0. -1.
         11    1    3    3    0    0  0.16934652002E+01 -0.67768883930E+02 -0.22789921849E+04  0.22800001904E+04  0.00000000000E+00 0. -1.
        -12    1    3    3    0    0 -0.17402271848E+02  0.11423120948E+02 -0.22226579886E+03  0.22323846465E+03  0.00000000000E+00 0.  1.
          5    1    4    4  501    0  0.99107641565E+01  0.10567760799E+03  0.13741805666E+03  0.17368700231E+03  0.41800000000E+01 0.  1.
         -5    1    4    4    0  501  0.11213396067E+03  0.81779154891E+02  0.67162969234E+02  0.15424069549E+03  0.41800000000E+01 0.  1.
</event>
<event>
11    1  0.6763327E-009  0.1433654E+03  0.7561462E-02  0.1103857E+00
         22   -1    0    0    0    0  0.00000000000E+00  0.00000000000E+00  0.50292509485E+02  0.50292509485E+02  0.00000000000E+00 0. -1.
         22   -1    0    0    0    0 -0.00000000000E+00 -0.00000000000E+00 -0.19340723169E+04  0.19340723169E+04  0.00000000000E+00 0.  1.
        -24    2    1    2    0    0  0.62461101264E+02 -0.16585000983E+02 -0.12990493757E+04  0.13035048396E+04  0.86134400073E+02 0.  0.
         25    2    1    2    0    0 -0.10168946383E+03 -0.57161901363E+01 -0.55501624812E+03  0.57798258373E+03  0.12508960602E+03 0.  0.
         24    2    1    2    0    0  0.39228362569E+02  0.22301191119E+02 -0.29714183587E+02  0.10287740307E+03  0.87547814365E+02 0.  0.
        -11    1    5    5    0    0 -0.27234947941E+02 -0.29498463176E+01 -0.81935002413E+01  0.28593310911E+02  0.00000000000E+00 0.  1.
         12    1    5    5    0    0  0.66463310510E+02  0.25251037437E+02 -0.21520683346E+02  0.74284092154E+02  0.00000000000E+00 0. -1.
         11    1    3    3    0    0 -0.19083511821E+02  0.77368881953E+01 -0.16765025277E+03  0.16891017470E+03  0.00000000000E+00 0. -1.
        -12    1    3    3    0    0  0.81544613085E+02 -0.24321889178E+02 -0.11313991229E+04  0.11345946649E+04  0.00000000000E+00 0.  1.
          5    1    4    4  501    0 -0.44069245488E+02  0.22591587982E+02 -0.46326819993E+03  0.46592636297E+03  0.41800000000E+01 0. -1.
         -5    1    4    4    0  501 -0.57620218345E+02 -0.28307778119E+02 -0.91748048191E+02  0.11205622076E+03  0.41800000000E+01 0. -1.
</event>
<event>
11    1  0.6763327E-009  0.1809193E+03  0.7561462E-02  0.1068902E+00
         22   -1    0    0    0    0  0.00000000000E+00  0.00000000000E+00  0.30711928848E+03  0.30711928848E+03  0.00000000000E+00 0.  1.
         22   -1    0    0    0    0 -0.00000000000E+00 -0.00000000000E+00 -0.19252329320E+03  0.19252329320E+03  0.00000000000E+00 0.  1.
        -24    2    1    2    0    0 -0.11838097397E+03  0.11560168243E+03 -0.36986934950E+02  0.18781539712E+03  0.80800903835E+02 0.  0.
         25    2    1    2    0    0  0.32610647852E+02 -0.68709427484E+02  0.84276944900E+02  0.16893025954E+03  0.12510151625E+03 0.  0.
         24    2    1    2    0    0  0.85770326115E+02 -0.46892254948E+02  0.67305985326E+02  0.14289692503E+03  0.79586450513E+02 0.  0.
        -13    1    5    5    0    0  0.65992289986E+02 -0.37004380813E+02  0.39153409137E+01  0.75760388274E+02  0.00000000000E+00 0.  1.
         14    1    5    5    0    0  0.19778036128E+02 -0.98878741351E+01  0.63390644412E+02  0.67136536752E+02  0.00000000000E+00 0. -1.
         13    1    3    3    0    0 -0.68235197544E+02  0.22661333289E+02  0.93240731115E+01  0.72501838251E+02  0.00000000000E+00 0. -1.
        -14    1    3    3    0    0 -0.50145776422E+02  0.92940349142E+02 -0.46311008062E+02  0.11531355887E+03  0.00000000000E+00 0.  1.
          5    1    4    4  501    0  0.14935005781E+01  0.19805512104E+02 -0.20068381192E+02  0.28542970717E+02  0.41800000000E+01 0. -1.
         -5    1    4    4    0  501  0.31117147273E+02 -0.88514939588E+02  0.10434532609E+03  0.14038728882E+03  0.41800000000E+01 0. -1.
</event>
<event>
11    1  0.6763327E-009  0.2285085E+03  0.7561462E-02  0.1036015E+00
         22   -1    0    0    0    0  0.00000000000E+00  0.00000000000E+00  0.11160359326E+04  0.11160359326E+04  0.00000000000E+00 0.  1.
         22   -1    0    0    0    0 -0.00000000000E+00 -0.00000000000E+00 -0.39985550957E+03  0.39985550957E+03  0.00000000000E+00 0. -1.
         24    2    1    2    0    0  0.32737576860E+02  0.65700899075E+02 -0.27476657927E+03  0.29595678839E+03  0.81886448391E+02 0.  0.
         25    2    1    2    0    0 -0.21498784279E+03 -0.12586042824E+02  0.46672001658E+02  0.25338390011E+03  0.12508774550E+03 0.  0.
        -24    2    1    2    0    0  0.18225026593E+03 -0.53114856251E+02  0.94427500066E+03  0.96655075369E+03  0.80800589015E+02 0.  0.
        -13    1    3    3    0    0  0.51463336124E+02  0.18936642629E+02 -0.99684235884E+02  0.11377178158E+03  0.00000000000E+00 0.  1.
         14    1    3    3    0    0 -0.18725759264E+02  0.46764256446E+02 -0.17508234339E+03  0.18218500681E+03  0.00000000000E+00 0. -1.
         11    1    5    5    0    0  0.78792435267E+01  0.94075139185E+01  0.17072439595E+02  0.21025032471E+02  0.00000000000E+00 0. -1.
        -12    1    5    5    0    0  0.17437102241E+03 -0.62522370170E+02  0.92720256107E+03  0.94552572121E+03  0.00000000000E+00 0.  1.
          5    1    4    4  501    0 -0.66280206901E+02 -0.42021719683E+02 -0.29166521683E+02  0.83827496318E+02  0.41800000000E+01 0. -1.
         -5    1    4    4    0  501 -0.14870763589E+03  0.29435676859E+02  0.75838523341E+02  0.16955640379E+03  0.41800000000E+01 0. -1.
</event>
<event>
11    1  0.6763327E-009  0.1743555E+03  0.7561462E-02  0.1074302E+00
         22   -1    0    0    0    0  0.00000000000E+00  0.00000000000E+00  0.71310718216E+03  0.71310718216E+03  0.00000000000E+00 0. -1.
         22   -1    0    0    0    0 -0.00000000000E+00 -0.00000000000E+00 -0.44455131475E+03  0.44455131475E+03  0.00000000000E+00 0. -1.
         24    2    1    2    0    0  0.69272757125E+01 -0.50540217106E+02 -0.36888450499E+03  0.38116624522E+03  0.81299617358E+02 0.  0.
         25    2    1    2    0    0 -0.14091997904E+02  0.16515164245E+03  0.11776996740E+03  0.23872963998E+03  0.12509367040E+03 0.  0.
        -24    2    1    2    0    0  0.71647221912E+01 -0.11461142535E+03  0.51967040501E+03  0.53776261171E+03  0.77098538534E+02 0.  0.
        -11    1    3    3    0    0 -0.54872903429E+01 -0.34193025827E+02 -0.45742324709E+02  0.57372760439E+02  0.00000000000E+00 0.  1.
         12    1    3    3    0    0  0.12414566055E+02 -0.16347191279E+02 -0.32314218028E+03  0.32379348479E+03  0.00000000000E+00 0. -1.
         11    1    5    5    0    0 -0.10048534064E+02 -0.11735238104E+03  0.40513976626E+03  0.42191324295E+03  0.00000000000E+00 0. -1.
        -12    1    5    5    0    0  0.17213256255E+02  0.27409556924E+01  0.11453063875E+03  0.11584936875E+03  0.00000000000E+00 0.  1.
          5    1    4    4  501    0  0.20264494657E+01  0.58076497783E+02  0.11661739347E+03  0.13036132460E+03  0.41800000000E+01 0. -1.
         -5    1    4    4    0  501 -0.16118447369E+02  0.10707514467E+03  0.11525739279E+01  0.10836831538E+03  0.41800000000E+01 0. -1.
</event>
<event>
11    1  0.6763327E-009  0.2198437E+03  0.7561462E-02  0.1041315E+00
         22   -1    0    0    0    0  0.00000000000E+00  0.00000000000E+00  0.13609080246E+04  0.13609080246E+04  0.00000000000E+00 0.  1.
         22   -1    0    0    0    0 -0.00000000000E+00 -0.00000000000E+00 -0.18620947801E+03  0.18620947801E+03  0.00000000000E+00 0. -1.
         24    2    1    2    0    0 -0.39401019056E+02  0.16981892237E+03 -0.82687450681E+02  0.20769285716E+03  0.76864827579E+02 0.  0.
         25    2    1    2    0    0  0.14699441128E+03 -0.21460653687E+03  0.58308803485E+03  0.65061568941E+03  0.12508315756E+03 0.  0.
        -24    2    1    2    0    0 -0.10759339223E+03  0.44787614497E+02  0.67429796244E+03  0.68880895607E+03  0.78725900068E+02 0.  0.
        -13    1    3    3    0    0  0.19432914639E+02  0.17220677850E+02 -0.19037373438E+02  0.32196451736E+02  0.00000000000E+00 0.  1.
         14    1    3    3    0    0 -0.58833933695E+02  0.15259824452E+03 -0.63650077242E+02  0.17549640543E+03  0.00000000000E+00 0. -1.
         11    1    5    5    0    0 -0.33984293438E+02  0.23726786187E+02  0.85093341684E+02  0.94650775919E+02  0.00000000000E+00 0. -1.
        -12    1    5    5    0    0 -0.73609098789E+02  0.21060828310E+02  0.58920462076E+03  0.59415818015E+03  0.00000000000E+00 0.  1.
          5    1    4    4  501    0 -0.73826102078E+01  0.11799601806E+02  0.27088502273E+02  0.30740736681E+02  0.41800000000E+01 0. -1.
         -5    1    4    4    0  501  0.15437702149E+03 -0.22640613867E+03  0.55599953258E+03  0.61987495273E+03  0.41800000000E+01 0. -1.
</event>
<event>
11    1  0.6763327E-009  0.1962495E+03  0.7561462E-02  0.1057208E+00
         22   -1    0    0    0    0  0.00000000000E+00  0.00000000000E+00  0.47077735325E+03  0.47077735325E+03  0.00000000000E+00 0. -1.
         22   -1    0    0    0    0 -0.00000000000E+00 -0.00000000000E+00 -0.46587197230E+03  0.46587197230E+03  0.00000000000E+00 0.  1.
         24    2    1    2    0    0  0.78360367220E+01 -0.46061818238E+02 -0.36220079755E+03  0.37415322054E+03  0.81351829252E+02 0.  0.
         25    2    1    2    0    0  0.23093456789E+01  0.18590424739E+03  0.95465058100E+02  0.24357226331E+03  0.12509255718E+03 0.  0.
        -24    2    1    2    0    0 -0.10145382401E+02 -0.13984242915E+03  0.27164112040E+03  0.31892384170E+03  0.90910311520E+02 0.  0.
        -11    1    3    3    0    0 -0.22406256338E+02  0.13934067533E+02 -0.11463584661E+03  0.11763322613E+03  0.00000000000E+00 0.  1.
         12    1    3    3    0    0  0.30242293060E+02 -0.59995885771E+02 -0.24756495094E+03  0.25651999441E+03  0.00000000000E+00 0. -1.
         13    1    5    5    0    0 -0.35744597029E+02 -0.12745558511E+03  0.18317642451E+03  0.22600045330E+03  0.00000000000E+00 0. -1.
        -14    1    5    5    0    0  0.25599214628E+02 -0.12386844038E+02  0.88464695882E+02  0.92923388403E+02  0.00000000000E+00 0.  1.
          5    1    4    4  501    0  0.18420401067E+02  0.21542339447E+02 -0.25867575160E+02  0.38600355037E+02  0.41800000000E+01 0.  1.
         -5    1    4    4    0  501 -0.16111055388E+02  0.16436190794E+03  0.12133263326E+03  0.20497190827E+03  0.41800000000E+01 0.  1.
</event>
<event>
11    1  0.6763327E-009  0.1771016E+03  0.7561462E-02  0.1072012E+00
         22   -1    0    0    0    0  0.00000000000E+00  0.00000000000E+00  0.31321887334E+04  0.31321887334E+04  0.00000000000E+00 0. -1.
         22   -1    0    0    0    0 -0.00000000000E+00 -0.00000000000E+00 -0.10775508698E+03  0.10775508698E+03  0.00000000000E+00 0.  1.
        -24    2    1    2    0    0  0.13702911261E+02  0.55101064569E+02 -0.66625111900E+02  0.11487709553E+03  0.74390486278E+02 0.  0.
         25    2    1    2    0    0 -0.85717213282E+02 -0.14960154376E+03  0.74767327937E+03  0.77742625531E+03  0.12509271444E+03 0.  0.
         24    2    1    2    0    0  0.72014302022E+02  0.94500479190E+02  0.23433854790E+04  0.23476404696E+04  0.76445215674E+02 0.  0.
        -13    1    5    5    0    0  0.33806070663E+00 -0.45263349528E+01  0.58213968387E+03  0.58215737866E+03  0.00000000000E+00 0.  1.
         14    1    5    5    0    0  0.71676241315E+02  0.99026814143E+02  0.17612457951E+04  0.17654830909E+04  0.00000000000E+00 0. -1.
         13    1    3    3    0    0 -0.66005334014E+01 -0.15020803426E+02 -0.55552463963E+00  0.16416460775E+02  0.00000000000E+00 0. -1.
        -14    1    3    3    0    0  0.20303444662E+02  0.70121867994E+02 -0.66069587261E+02  0.98460634758E+02  0.00000000000E+00 0.  1.
          5    1    4    4  501    0 -0.67480709803E+02 -0.93102717205E+02  0.23869657746E+03  0.26498167981E+03  0.41800000000E+01 0. -1.
         -5    1    4    4    0  501 -0.18236503479E+02 -0.56498826554E+02  0.50897670192E+03  0.51244457550E+03  0.41800000000E+01 0. -1.
</event>
<event>
11    1  0.6763327E-009  0.1527146E+03  0.7561462E-02  0.1094137E+00
         22   -1    0    0    0    0  0.00000000000E+00  0.00000000000E+00  0.27320515077E+03  0.27320515077E+03  0.00000000000E+00 0. -1.
         22   -1    0    0    0    0 -0.00000000000E+00 -0.00000000000E+00 -0.27925302291E+03  0.27925302291E+03  0.00000000000E+00 0. -1.
         24    2    1    2    0    0 -0.11008832220E+02 -0.25920856181E+02 -0.17512660041E+03  0.19513711718E+03  0.81339308797E+02 0.  0.
         25    2    1    2    0    0 -0.78875083858E+02  0.17180473130E+02  0.67063691353E+00  0.14887757494E+03  0.12509050746E+03 0.  0.
        -24    2    1    2    0    0  0.89883916078E+02  0.87403830506E+01  0.16840809136E+03  0.20844348155E+03  0.83257955177E+02 0.  0.
        -13    1    3    3    0    0  0.14267413196E+02  0.70014002634E+01 -0.77337422297E+00  0.15911530179E+02  0.00000000000E+00 0.  1.
         14    1    3    3    0    0 -0.25276245416E+02 -0.32922256444E+02 -0.17435322619E+03  0.17922558700E+03  0.00000000000E+00 0. -1.
         11    1    5    5    0    0  0.34709886084E+02 -0.24632305469E+02  0.12140278649E+03  0.12864743773E+03  0.00000000000E+00 0. -1.
        -12    1    5    5    0    0  0.55174029995E+02  0.33372688520E+02  0.47005304868E+02  0.79796043828E+02  0.00000000000E+00 0.  1.
          5    1    4    4  501    0 -0.22431709034E+01  0.11729499830E+02 -0.53374453740E+02  0.54853602380E+02  0.41800000000E+01 0.  1.
         -5    1    4    4    0  501 -0.76631912955E+02  0.54509732997E+01  0.54045090654E+02  0.94023972565E+02  0.41800000000E+01 0.  1.
</event>
<event>
11    1  0.6763327E-009  0.1886932E+03  0.7561462E-02  0.1062820E+00
         22   -1    0    0    0    0  0.00000000000E+00  0.00000000000E+00  0.60438814245E+03  0.60438814245E+03  0.00000000000E+00 0. -1.
         22   -1    0    0    0    0 -0.00000000000E+00 -0.00000000000E+00 -0.68663124374E+03  0.68663124374E+03  0.00000000000E+00 0. -1.
         24    2    1    2    0    0 -0.11526783829E+03 -0.10681343240E+03 -0.42226646557E+03  0.46043181185E+03  0.94829855732E+02 0.  0.
         25    2    1    2    0    0  0.88966214496E+02  0.74836069593E+02 -0.21144655790E+03  0.27179520331E+03  0.12509021169E+03 0.  0.
        -24    2    1    2    0    0  0.26301623798E+02  0.31977362811E+02  0.55146992218E+03  0.55879237103E+03  0.80096889532E+02 0.  0.
        -11    1    3    3    0    0  0.16935918503E+02 -0.14469979389E+02 -0.49908622550E+02  0.54654151205E+02  0.00000000000E+00 0.  1.
         12    1    3    3    0    0 -0.13220375680E+03 -0.92343453015E+02 -0.37235784302E+03  0.40577766065E+03  0.00000000000E+00 0. -1.
         13    1    5    5    0    0 -0.17017029134E+02  0.40304172052E+02  0.33741970963E+03  0.34024412708E+03  0.00000000000E+00 0. -1.
        -14    1    5    5    0    0  0.43318652932E+02 -0.83268092416E+01  0.21405021255E+03  0.21854824395E+03  0.00000000000E+00 0.  1.
          5    1    4    4  501    0  0.43520217161E+01 -0.28971637722E+01 -0.13170050281E+03  0.13187049895E+03  0.41800000000E+01 0. -1.
         -5    1    4    4    0  501  0.84614192780E+02  0.77733233365E+02 -0.79746055084E+02  0.13992470436E+03  0.41800000000E+01 0. -1.
</event>
<event>
11    1  0.6763327E-009  0.1288715E+03  0.7561462E-02  0.1120663E+00
         22   -1    0    0    0    0  0.00000000000E+00  0.00000000000E+00  0.19162458241E+04  0.19162458241E+04  0.00000000000E+00 0.  1.
         22   -1    0    0    0    0 -0.00000000000E+00 -0.00000000000E+00 -0.30041512492E+03  0.30041512492E+03  0.00000000000E+00 0.  1.
         24    2    1    2    0    0  0.27327854457E+01  0.32456718238E+02 -0.26726924791E+03  0.28201381769E+03  0.83893002183E+02 0.  0.
         25    2    1    2    0    0  0.86657856281E+01  0.21678980205E+01  0.13478292966E+03  0.18409962389E+03  0.12508572166E+03 0.  0.
        -24    2    1    2    0    0 -0.11398571074E+02 -0.34624616259E+02  0.17483170174E+04  0.17505475074E+04  0.80469813595E+02 0.  0.
        -11    1    3    3    0    0  0.37984129293E+02  0.11098625719E+02 -0.19355613911E+03  0.19755999736E+03  0.00000000000E+00 0.  1.
         12    1    3    3    0    0 -0.35251343847E+02  0.21358092519E+02 -0.73713108804E+02  0.84453820332E+02  0.00000000000E+00 0. -1.
         11    1    5    5    0    0 -0.18037553513E+02 -0.24718674746E+02  0.21326059128E+03  0.21544476325E+03  0.00000000000E+00 0. -1.
        -12    1    5    5    0    0  0.66389824393E+01 -0.99059415125E+01  0.15350564261E+04  0.15351027442E+04  0.00000000000E+00 0.  1.
          5    1    4    4  501    0  0.27769773403E+01  0.63403930249E+02  0.72807685899E+02  0.96675754459E+02  0.41800000000E+01 0. -1.
         -5    1    4    4    0  501  0.58888082878E+01 -0.61236032229E+02  0.61975243763E+02  0.87423869427E+02  0.41800000000E+01 0. -1.
</event>
<event>
11    1  0.6763327E-009  0.1537528E+03  0.7561462E-02  0.1093105E+00
         22   -1    0    0    0    0  0.00000000000E+00  0.00000000000E+00  0.15588062850E+04  0.15588062850E+04  0.00000000000E+00 0. -1.
         22   -1    0    0    0    0 -0.00000000000E+00 -0.00000000000E+00 -0.12656520695E+04  0.12656520695E+04  0.00000000000E+00 0.  1.
         24    2    1    2    0    0  0.52157907920E+02  0.49507871170E+01 -0.87014480488E+03  0.87536234001E+03  0.79763946684E+02 0.  0.
         25    2    1    2    0    0 -0.62512127812E+02  0.83838845834E+02 -0.37347803557E+03  0.40751728989E+03  0.12509108806E+03 0.  0.
        -24    2    1    2    0    0  0.10354219892E+02 -0.88789632951E+02  0.15367770559E+04  0.15415787246E+04  0.82404100153E+02 0.  0.
        -13    1    3    3    0    0  0.54355753605E+02  0.31746838854E+02 -0.72658286065E+03  0.72930450644E+03  0.00000000000E+00 0.  1.
         14    1    3    3    0    0 -0.21978456845E+01 -0.26796051737E+02 -0.14356194423E+03  0.14605783357E+03  0.00000000000E+00 0. -1.
         11    1    5    5    0    0 -0.22557902958E+02 -0.99593794485E+01  0.70400850861E+03  0.70444022346E+03  0.00000000000E+00 0. -1.
        -12    1    5    5    0    0  0.32912122849E+02 -0.78830253502E+02  0.83276854729E+03  0.83713850111E+03  0.00000000000E+00 0.  1.
          5    1    4    4  501    0  0.14276617893E+02  0.68537257590E+02 -0.94198349620E+02  0.11743925650E+03  0.41800000000E+01 0. -1.
         -5    1    4    4    0  501 -0.76788745705E+02  0.15301588244E+02 -0.27927968595E+03  0.29007803339E+03  0.41800000000E+01 0. -1.
</event>
<event>
11    1  0.6763327E-009  0.1730840E+03  0.7561462E-02  0.1075379E+00
         22   -1    0    0    0    0  0.00000000000E+00  0.00000000000E+00  0.21954473226E+03  0.21954473226E+03  0.00000000000E+00 0.  1.
         22   -1    0    0    0    0 -0.00000000000E+00 -0.00000000000E+00 -0.19237875226E+04  0.19237875226E+04  0.00000000000E+00 0.  1.
        -24    2    1    2    0    0 -0.27290200252E+02  0.88642228172E+01 -0.16426900824E+04  0.16449157085E+04  0.80583197879E+02 0.  0.
         25    2    1    2    0    0 -0.63722182866E+02  0.72622131793E+02 -0.22818920265E+03  0.27758328519E+03  0.12509067669E+03 0.  0.
         24    2    1    2    0    0  0.91012383119E+02 -0.81486354610E+02  0.16663649461E+03  0.22083326126E+03  0.77950805486E+02 0.  0.
        -13    1    5    5    0    0  0.49611424246E+02  0.38797013029E+01  0.63876570728E+02  0.80972598982E+02  0.00000000000E+00 0.  1.
         14    1    5    5    0    0  0.41400958872E+02 -0.85366055913E+02  0.10275992388E+03  0.13986066228E+03  0.00000000000E+00 0. -1.
         11    1    3    3    0    0 -0.38867036433E+02  0.37862007380E+02 -0.10138033398E+04  0.10152543474E+04  0.00000000000E+00 0. -1.
        -12    1    3    3    0    0  0.11576836180E+02 -0.28997784563E+02 -0.62888674259E+03  0.62966136109E+03  0.00000000000E+00 0.  1.
          5    1    4    4  501    0  0.52212157489E+01  0.59336223582E+02 -0.29081377315E+02  0.66417222386E+02  0.41800000000E+01 0. -1.
         -5    1    4    4    0  501 -0.68943398615E+02  0.13285908210E+02 -0.19910782533E+03  0.21116606280E+03  0.41800000000E+01 0. -1.
</event>
<event>
11    1  0.6763327E-009  0.1626129E+03  0.7561462E-02  0.1084645E+00
         22   -1    0    0    0    0  0.00000000000E+00  0.00000000000E+00  0.13347928690E+04  0.13347928690E+04  0.00000000000E+00 0. -1.
         22   -1    0    0    0    0 -0.00000000000E+00 -0.00000000000E+00 -0.40660547775E+03  0.40660547775E+03  0.00000000000E+00 0.  1.
         24    2    1    2    0    0 -0.99638505466E+02 -0.34667183602E+02 -0.34234796200E+03  0.36711189169E+03  0.80245676151E+02 0.  0.
         25    2    1    2    0    0  0.74757992387E+02  0.53434494942E+02  0.69271249627E+02  0.16997142968E+03  0.12509107965E+03 0.  0.
        -24    2    1    2    0    0  0.24880513079E+02 -0.18767311340E+02  0.12012641036E+04  0.12043150254E+04  0.79799635178E+02 0.  0.
        -13    1    3    3    0    0 -0.11174796867E+03 -0.39091193505E+02 -0.32144268175E+03  0.34255091237E+03  0.00000000000E+00 0.  1.
         14    1    3    3    0    0  0.12109463207E+02  0.44240099036E+01 -0.20905280248E+02  0.24560979317E+02  0.00000000000E+00 0. -1.
         11    1    5    5    0    0  0.37158795470E+02 -0.36998712406E+02  0.10649436825E+04  0.10662338991E+04  0.00000000000E+00 0. -1.
        -12    1    5    5    0    0 -0.12278282392E+02  0.18231401066E+02  0.13632042117E+03  0.13808112627E+03  0.00000000000E+00 0.  1.
          5    1    4    4  501    0  0.97140782766E+02  0.36270616095E+00  0.47941919756E+02  0.10840831750E+03  0.41800000000E+01 0. -1.
         -5    1    4    4    0  501 -0.22382790379E+02  0.53071788781E+02  0.21329329870E+02  0.61563112188E+02  0.41800000000E+01 0. -1.
</event>
<event>
11    1  0.6763327E-009  0.1769266E+03  0.7561462E-02  0.1072156E+00
         22   -1    0    0    0    0  0.00000000000E+00  0.00000000000E+00  0.61842882587E+03  0.61842882587E+03  0.00000000000E+00 0. -1.
         22   -1    0    0    0    0 -0.00000000000E+00 -0.00000000000E+00 -0.37680966154E+03  0.37680966154E+03  0.00000000000E+00 0. -1.
        -24    2    1    2    0    0  0.37492367088E+00  0.12438520813E+03 -0.32351402554E+03  0.35559655367E+03  0.79471779216E+02 0.  0.
         25    2    1    2    0    0 -0.55219938221E+02 -0.14055624607E+03  0.32480988034E+03  0.37941357018E+03  0.12509156238E+03 0.  0.
         24    2    1    2    0    0  0.54845014550E+02  0.16171037944E+02  0.24032330953E+03  0.26022836356E+03  0.81817052089E+02 0.  0.
        -13    1    5    5    0    0  0.37967319503E+02  0.41288619580E+02  0.84022026849E+02  0.10102459331E+03  0.00000000000E+00 0.  1.
         14    1    5    5    0    0  0.16877695046E+02 -0.25117581637E+02  0.15630128268E+03  0.15920377026E+03  0.00000000000E+00 0. -1.
         13    1    3    3    0    0 -0.18935693707E+00  0.39598896537E+01 -0.11300989957E+03  0.11307941449E+03  0.00000000000E+00 0. -1.
        -14    1    3    3    0    0  0.56428060795E+00  0.12042531848E+03 -0.21050412597E+03  0.24251713918E+03  0.00000000000E+00 0.  1.
          5    1    4    4  501    0  0.29287920624E+02 -0.11695264834E+01  0.79698896223E+02  0.85020800666E+02  0.41800000000E+01 0.  1.
         -5    1    4    4    0  501 -0.84507858845E+02 -0.13938671959E+03  0.24511098412E+03  0.29439276951E+03  0.41800000000E+01 0.  1.
</event>
<event>
11    1  0.6763327E-009  0.1350077E+03  0.7561462E-02  0.1113265E+00
         22   -1    0    0    0    0  0.00000000000E+00  0.00000000000E+00  0.58558304384E+03  0.58558304384E+03  0.00000000000E+00 0. -1.
         22   -1    0    0    0    0 -0.00000000000E+00 -0.00000000000E+00 -0.21358721766E+03  0.21358721766E+03  0.00000000000E+00 0.  1.
        -24    2    1    2    0    0 -0.46112462330E+02  0.15090535288E+02 -0.16633563490E+03  0.19079477595E+03  0.79881284759E+02 0.  0.
         25    2    1    2    0    0  0.80584016202E+02 -0.34682608662E+02  0.16414907170E+03  0.22424469310E+03  0.12507636721E+03 0.  0.
         24    2    1    2    0    0 -0.34471553873E+02  0.19592073374E+02  0.37418238939E+03  0.38413079245E+03  0.77277861080E+02 0.  0.
        -13    1    5    5    0    0 -0.43501523343E+01  0.15957814688E+01 -0.28692568708E+01  0.54500439282E+01  0.00000000000E+00 0.  1.
         14    1    5    5    0    0 -0.30121401538E+02  0.17996291905E+02  0.37705164626E+03  0.37868074852E+03  0.00000000000E+00 0. -1.
         11    1    3    3    0    0 -0.17907295170E+02  0.47028983567E+02 -0.79891195333E+02  0.94419275614E+02  0.00000000000E+00 0. -1.
        -12    1    3    3    0    0 -0.28205167160E+02 -0.31938448279E+02 -0.86444439572E+02  0.96375500340E+02  0.00000000000E+00 0.  1.
          5    1    4    4  501    0 -0.33132299500E+02  0.12369210144E+01  0.34052827679E+02  0.47711075409E+02  0.41800000000E+01 0.  1.
         -5    1    4    4    0  501  0.11371631570E+03 -0.35919529676E+02  0.13009624402E+03  0.17653361769E+03  0.41800000000E+01 0.  1.
</event>
<event>
11    1  0.6763327E-009  0.1589401E+03  0.7561462E-02  0.1088078E+00
         22   -1    0    0    0    0  0.00000000000E+00  0.00000000000E+00  0.77493414865E+03  0.77493414865E+03  0.00000000000E+00 0.  1.
         22   -1    0    0    0    0 -0.00000000000E+00 -0.00000000000E+00 -0.92488400124E+03  0.92488400124E+03  0.00000000000E+00 0. -1.
         24    2    1    2    0    0  0.36206646773E+02  0.94052858720E+02 -0.85140967440E+03  0.86116621744E+03  0.80944171437E+02 0.  0.
         25    2    1    2    0    0 -0.44070705486E+02 -0.43256445562E+02  0.91954093929E+01  0.13980431406E+03  0.12508934212E+03 0.  0.
        -24    2    1    2    0    0  0.78640587131E+01 -0.50796413158E+02  0.69226441242E+03  0.69884761839E+03  0.80720864817E+02 0.  0.
        -11    1    3    3    0    0 -0.59182940253E+01  0.64792973777E+02 -0.65304050029E+03  0.65627360961E+03  0.00000000000E+00 0.  1.
         12    1    3    3    0    0  0.42124940798E+02  0.29259884944E+02 -0.19836917411E+03  0.20489260782E+03  0.00000000000E+00 0. -1.
         13    1    5    5    0    0 -0.28979376202E+02  0.15462362400E+00  0.13680092783E+03  0.13983676916E+03  0.00000000000E+00 0. -1.
        -14    1    5    5    0    0  0.36843434915E+02 -0.50951036782E+02  0.55546348459E+03  0.55901084923E+03  0.00000000000E+00 0.  1.
          5    1    4    4  501    0  0.19069720450E+02  0.34259530962E+02  0.20377720391E+01  0.39484105849E+02  0.41800000000E+01 0.  1.
         -5    1    4    4    0  501 -0.63140425936E+02 -0.77515976524E+02  0.71576373539E+01  0.10032020822E+03  0.41800000000E+01 0.  1.
</event>
<event>
11    1  0.6763327E-009  0.2202856E+03  0.7561462E-02  0.1041039E+00
         22   -1    0    0    0    0  0.00000000000E+00  0.00000000000E+00  0.27091069232E+03  0.27091069232E+03  0.00000000000E+00 0.  1.
         22   -1    0    0    0    0 -0.00000000000E+00 -0.00000000000E+00 -0.23680608491E+04  0.23680608491E+04  0.00000000000E+00 0.  1.
         24    2    1    2    0    0  0.13838476683E+03  0.12115151448E+03 -0.22118255035E+04  0.22206560805E+04  0.72892638249E+02 0.  0.
         25    2    1    2    0    0 -0.14431786804E+03 -0.46364024801E+02 -0.65746072632E+02  0.20723455324E+03  0.12508534751E+03 0.  0.
        -24    2    1    2    0    0  0.59331012106E+01 -0.74787489683E+02  0.18042141934E+03  0.21108090771E+03  0.79842912897E+02 0.  0.
        -11    1    3    3    0    0  0.10364373400E+03  0.10929816716E+03 -0.14169564311E+04  0.14249398726E+04  0.00000000000E+00 0.  1.
         12    1    3    3    0    0  0.34741032832E+02  0.11853347327E+02 -0.79486907234E+03  0.79571620780E+03  0.00000000000E+00 0. -1.
         13    1    5    5    0    0  0.31499674351E+02 -0.29880840053E+02  0.32042245246E+02  0.53961093085E+02  0.00000000000E+00 0. -1.
        -14    1    5    5    0    0 -0.25566573140E+02 -0.44906649630E+02  0.14837917409E+03  0.15711981462E+03  0.00000000000E+00 0.  1.
          5    1    4    4  501    0 -0.13950264341E+03 -0.10922381512E+02 -0.87571839031E+02  0.16512596806E+03  0.41800000000E+01 0. -1.
         -5    1    4    4    0  501 -0.48152246280E+01 -0.35441643289E+02  0.21825766400E+02  0.42108585184E+02  0.41800000000E+01 0. -1.
</event>
<event>
11    1  0.6763327E-009  0.1891295E+03  0.7561462E-02  0.1062488E+00
         22   -1    0    0    0    0  0.00000000000E+00  0.00000000000E+00  0.49093590750E+04  0.49093590750E+04  0.00000000000E+00 0. -1.
         22   -1    0    0    0    0 -0.00000000000E+00 -0.00000000000E+00 -0.45136830058E+02  0.45136830058E+02  0.00000000000E+00 0.  1.
         24    2    1    2    0    0  0.14254406555E+02 -0.14785437529E+03  0.15516056106E+03  0.23408959952E+03  0.93053944016E+02 0.  0.
         25    2    1    2    0    0 -0.79516827592E+01  0.98111078358E+02  0.12581087969E+04  0.12681386689E+04  0.12509566658E+03 0.  0.
        -24    2    1    2    0    0 -0.63027237958E+01  0.49743296933E+02  0.34509528870E+04  0.34522676366E+04  0.81005473882E+02 0.  0.
        -13    1    3    3    0    0 -0.13963715318E+02 -0.43632740625E+02  0.93276620268E+00  0.45822172065E+02  0.00000000000E+00 0.  1.
         14    1    3    3    0    0  0.28218121873E+02 -0.10422163467E+03  0.15422779486E+03  0.18826742746E+03  0.00000000000E+00 0. -1.
         11    1    5    5    0    0  0.25892442868E+01  0.58123322132E+02  0.33593119913E+04  0.33598157806E+04  0.00000000000E+00 0. -1.
        -12    1    5    5    0    0 -0.88919680827E+01 -0.83800251984E+01  0.91640895719E+02  0.92451856048E+02  0.00000000000E+00 0.  1.
          5    1    4    4  501    0 -0.50766649376E+02  0.17250862919E+02  0.24167747135E+03  0.24758900928E+03  0.41800000000E+01 0.  1.
         -5    1    4    4    0  501  0.42814966617E+02  0.80860215439E+02  0.10164313255E+04  0.10205496596E+04  0.41800000000E+01 0.  1.
</event>
<event>
11    1  0.6763327E-009  0.1905528E+03  0.7561462E-02  0.1061413E+00
         22   -1    0    0    0    0  0.00000000000E+00  0.00000000000E+00  0.58605625471E+03  0.58605625471E+03  0.00000000000E+00 0.  1.
         22   -1    0    0    0    0 -0.00000000000E+00 -0.00000000000E+00 -0.41806656259E+03  0.41806656259E+03  0.00000000000E+00 0. -1.
         24    2    1    2    0    0  0.35008126194E+02 -0.13976957949E+01 -0.32954255132E+03  0.34100213151E+03  0.80353208486E+02 0.  0.
         25    2    1    2    0    0 -0.15272757703E+03  0.73383156950E+02  0.97488805694E+02  0.23208182537E+03  0.12508839244E+03 0.  0.
        -24    2    1    2    0    0  0.11771945084E+03 -0.71985461155E+02  0.40004343775E+03  0.43103886042E+03  0.81975431569E+02 0.  0.
        -11    1    3    3    0    0  0.60239768415E+02  0.29225054937E+01 -0.19758888562E+03  0.20658833089E+03  0.00000000000E+00 0.  1.
         12    1    3    3    0    0 -0.25231642221E+02 -0.43202012886E+01 -0.13195366569E+03  0.13441380063E+03  0.00000000000E+00 0. -1.
         11    1    5    5    0    0  0.16647722488E+02  0.65834230521E+01  0.99607143565E+01  0.20486677466E+02  0.00000000000E+00 0. -1.
        -12    1    5    5    0    0  0.10107172835E+03 -0.78568884207E+02  0.39008272339E+03  0.41055218295E+03  0.00000000000E+00 0.  1.
          5    1    4    4  501    0 -0.56483927949E+02  0.64414421487E+02 -0.11276512566E+02  0.86511756124E+02  0.41800000000E+01 0.  1.
         -5    1    4    4    0  501 -0.96243649085E+02  0.89687354622E+01  0.10876531826E+03  0.14557006925E+03  0.41800000000E+01 0.  1.
</event>
<event>
11    1  0.6763327E-009  0.1625325E+03  0.7561462E-02  0.1084719E+00
         22   -1    0    0    0    0  0.00000000000E+00  0.00000000000E+00  0.17891969268E+04  0.17891969268E+04  0.00000000000E+00 0. -1.
         22   -1    0    0    0    0 -0.00000000000E+00 -0.00000000000E+00 -0.95310116904E+02  0.95310116904E+02  0.00000000000E+00 0. -1.
         24    2    1    2    0    0 -0.56579428505E+02  0.70451455100E+02  0.69909807083E+02  0.13986054203E+03  0.80678069105E+02 0.  0.
         25    2    1    2    0    0  0.88918647771E+02 -0.81750422217E+02  0.68784557891E+02  0.18699904344E+03  0.12509064469E+03 0.  0.
        -24    2    1    2    0    0 -0.32339219267E+02  0.11298967117E+02  0.15551924450E+04  0.15576474583E+04  0.80427430981E+02 0.  0.
        -11    1    3    3    0    0  0.17938906246E+01 -0.12735153357E+02  0.26296763366E+02  0.29273229035E+02  0.00000000000E+00 0.  1.
         12    1    3    3    0    0 -0.58373319129E+02  0.83186608457E+02  0.43613043717E+02  0.11058731299E+03  0.00000000000E+00 0. -1.
         11    1    5    5    0    0 -0.35103659219E+02  0.32262128239E+02  0.14209782070E+04  0.14217778225E+04  0.00000000000E+00 0. -1.
        -12    1    5    5    0    0  0.27644399522E+01 -0.20963161123E+02  0.13421423796E+03  0.13586963577E+03  0.00000000000E+00 0.  1.
          5    1    4    4  501    0  0.12008762059E+03 -0.67350092087E+02  0.64648781070E+02  0.15216441377E+03  0.41800000000E+01 0.  1.
         -5    1    4    4    0  501 -0.31168972818E+02 -0.14400330129E+02  0.41357768208E+01  0.34834629671E+02  0.41800000000E+01 0.  1.
</event>
<event>
11    1  0.6763327E-009  0.2162698E+03  0.7561462E-02  0.1043580E+00
         22   -1    0    0    0    0  0.00000000000E+00  0.00000000000E+00  0.21036622465E+04  0.21036622465E+04  0.00000000000E+00 0.  1.
         22   -1    0    0    0    0 -0.00000000000E+00 -0.00000000000E+00 -0.13721224814E+03  0.13721224814E+03  0.00000000000E+00 0.  1.
         24    2    1    2    0    0 -0.14936766154E+03  0.99642345409E+02 -0.44007356416E+02  0.20038256400E+03  0.77312542484E+02 0.  0.
         25    2    1    2    0    0  0.14966384426E+03 -0.37047884451E+02  0.75208562683E+03  0.77785138310E+03  0.12509265398E+03 0.  0.
        -24    2    1    2    0    0 -0.29618272193E+00 -0.62594460958E+02  0.12583717280E+04  0.12626405476E+04  0.82726007655E+02 0.  0.
        -11    1    3    3    0    0 -0.14041775325E+03  0.56522411909E+02 -0.31614789388E+02  0.15463318979E+03  0.00000000000E+00 0.  1.
         12    1    3    3    0    0 -0.89499082867E+01  0.43119933500E+02 -0.12392567028E+02  0.45749374213E+02  0.00000000000E+00 0. -1.
         13    1    5    5    0    0 -0.82789021129E+00 -0.65932296063E+02  0.50802447727E+03  0.51228568453E+03  0.00000000000E+00 0. -1.
        -14    1    5    5    0    0  0.53170748937E+00  0.33378351049E+01  0.75034725068E+03  0.75035486303E+03  0.00000000000E+00 0.  1.
          5    1    4    4  501    0  0.76400357350E+02  0.26629476509E+02  0.51963493651E+03  0.52591261942E+03  0.41800000000E+01 0. -1.
         -5    1    4    4    0  501  0.73263486909E+02 -0.63677360960E+02  0.23245069031E+03  0.25193876367E+03  0.41800000000E+01 0. -1.
</event>
<event>
11    1  0.6763327E-009  0.1377912E+03  0.7561462E-02  0.1110050E+00
         22   -1    0    0    0    0  0.00000000000E+00  0.00000000000E+00  0.10380825214E+03  0.10380825214E+03  0.00000000000E+00 0. -1.
         22   -1    0    0    0    0 -0.00000000000E+00 -0.00000000000E+00 -0.65850474248E+03  0.65850474248E+03  0.00000000000E+00 0. -1.
         24    2    1    2    0    0  0.11571202761E+02  0.35765374492E+02 -0.26897489253E+03  0.28420256504E+03  0.83729029733E+02 0.  0.
         25    2    1    2    0    0  0.36002679678E+02 -0.67121814574E+02 -0.33850702639E+03  0.36883093341E+03  0.12509084535E+03 0.  0.
        -24    2    1    2    0    0 -0.47573882439E+02  0.31356440082E+02  0.52785428573E+02  0.10927949616E+03  0.76871361292E+02 0.  0.
        -13    1    3    3    0    0 -0.46769039812E-01 -0.25298139350E+02 -0.12248861726E+03  0.12507381580E+03  0.00000000000E+00 0.  1.
         14    1    3    3    0    0  0.11617971801E+02  0.61063513843E+02 -0.14648627527E+03  0.15912874924E+03  0.00000000000E+00 0. -1.
         11    1    5    5    0    0 -0.50824407375E+02  0.46085968867E+02  0.61260563810E+02  0.91977679845E+02  0.00000000000E+00 0. -1.
        -12    1    5    5    0    0  0.32505249356E+01 -0.14729528785E+02 -0.84751352369E+01  0.17301816317E+02  0.00000000000E+00 0.  1.
          5    1    4    4  501    0  0.55515370378E+02 -0.71907194026E+02 -0.33608043581E+03  0.34816681725E+03  0.41800000000E+01 0. -1.
         -5    1    4    4    0  501 -0.19512690700E+02  0.47853794517E+01 -0.24265905806E+01  0.20664116161E+02  0.41800000000E+01 0. -1.
</event>
<event>
11    1  0.6763327E-009  0.1480877E+03  0.7561462E-02  0.1098849E+00
         22   -1    0    0    0    0  0.00000000000E+00  0.00000000000E+00  0.50256913366E+03  0.50256913366E+03  0.00000000000E+00 0.  1.
         22   -1    0    0    0    0 -0.00000000000E+00 -0.00000000000E+00 -0.19322962014E+03  0.19322962014E+03  0.00000000000E+00 0. -1.
         24    2    1    2    0    0  0.30047194596E+01 -0.84861502125E+01 -0.12793459471E+03  0.15128323904E+03  0.80239110216E+02 0.  0.
         25    2    1    2    0    0 -0.77895125578E+02 -0.17392615406E+02  0.77821327008E+02  0.16755318680E+03  0.12509099811E+03 0.  0.
        -24    2    1    2    0    0  0.74890406118E+02  0.25878765618E+02  0.35945278122E+03  0.37696232796E+03  0.81338867313E+02 0.  0.
        -13    1    3    3    0    0 -0.20016299215E+02 -0.38074872636E+02 -0.74115194571E+02  0.85693700042E+02  0.00000000000E+00 0.  1.
         14    1    3    3    0    0  0.23021018675E+02  0.29588722424E+02 -0.53819400134E+02  0.65589539001E+02  0.00000000000E+00 0. -1.
         13    1    5    5    0    0  0.39577567872E+01 -0.66577024194E+01 -0.13102234896E+01  0.78552864929E+01  0.00000000000E+00 0. -1.
        -14    1    5    5    0    0  0.70932649331E+02  0.32536468038E+02  0.36076300471E+03  0.36910704147E+03  0.00000000000E+00 0.  1.
          5    1    4    4  501    0 -0.19870935369E+02 -0.79633014133E+01  0.10166522431E+03  0.10397864433E+03  0.41800000000E+01 0. -1.
         -5    1    4    4    0  501 -0.58024190209E+02 -0.94293139923E+01 -0.23843897302E+02  0.63574542470E+02  0.41800000000E+01 0. -1.
</event>
<event>
11    1  0.6763327E-009  0.1421903E+03  0.7561462E-02  0.1105137E+00
         22   -1    0    0    0    0  0.00000000000E+00  0.00000000000E+00  0.17193682777E+04  0.17193682777E+04  0.00000000000E+00 0. -1.
         22   -1    0    0    0    0 -0.00000000000E+00 -0.00000000000E+00 -0.37588059761E+03  0.37588059761E+03  0.00000000000E+00 0. -1.
         24    2    1    2    0    0  0.10011262503E+02 -0.32113791264E+02 -0.34903036860E+03  0.35923956246E+03  0.78098297467E+02 0.  0.
         25    2    1    2    0    0  0.52242690909E+02  0.96435910358E+00  0.21158575380E+03  0.25128736303E+03  0.12508628568E+03 0.  0.
        -24    2    1    2    0    0 -0.62253953412E+02  0.31149432161E+02  0.14809322948E+04  0.14847219498E+04  0.79956015310E+02 0.  0.
        -13    1    3    3    0    0  0.35174445014E+02 -0.21916210820E+02 -0.93530230369E+02  0.10230085958E+03  0.00000000000E+00 0.  1.
         14    1    3    3    0    0 -0.25163182511E+02 -0.10197580444E+02 -0.25550013823E+03  0.25693870288E+03  0.00000000000E+00 0. -1.
         11    1    5    5    0    0 -0.51999139333E+02  0.15064141902E+02  0.14162747819E+04  0.14173091042E+04  0.00000000000E+00 0. -1.
        -12    1    5    5    0    0 -0.10254814079E+02  0.16085290259E+02  0.64657512908E+02  0.67412845586E+02  0.00000000000E+00 0.  1.
          5    1    4    4  501    0 -0.75300237164E+01  0.45539853610E+02  0.30703137474E+02  0.55594375388E+02  0.41800000000E+01 0. -1.
         -5    1    4    4    0  501  0.59772714625E+02 -0.44575494506E+02  0.18088261632E+03  0.19569298764E+03  0.41800000000E+01 0. -1.
</event>
<event>
11    1  0.6763327E-009  0.1850090E+03  0.7561462E-02  0.1065662E+00
         22   -1    0    0    0    0  0.00000000000E+00  0.00000000000E+00  0.23214086322E+04  0.23214086322E+04  0.00000000000E+00 0.  1.
         22   -1    0    0    0    0 -0.00000000000E+00 -0.00000000000E+00 -0.47442066768E+02  0.47442066768E+02  0.00000000000E+00 0.  1.
         24    2    1    2    0    0 -0.22320761400E+02 -0.72242949448E+02  0.59278358421E+02  0.12621358950E+03  0.81845502397E+02 0.  0.
         25    2    1    2    0    0  0.14796502770E+03  0.50920353774E+02  0.13118842713E+04  0.13270920875E+04  0.12508611342E+03 0.  0.
        -24    2    1    2    0    0 -0.12564426630E+03  0.21322595674E+02  0.90280393571E+03  0.91554502189E+03  0.83226234070E+02 0.  0.
        -13    1    3    3    0    0  0.19563276642E+02 -0.60919371509E+02  0.51498289053E+02  0.82133826121E+02  0.00000000000E+00 0.  1.
         14    1    3    3    0    0 -0.41884038042E+02 -0.11323577940E+02  0.77800693681E+01  0.44079763377E+02  0.00000000000E+00 0. -1.
         13    1    5    5    0    0 -0.12103447462E+02  0.32879227231E+02  0.14368496328E+03  0.14789491437E+03  0.00000000000E+00 0. -1.
        -14    1    5    5    0    0 -0.11354081884E+03 -0.11556631557E+02  0.75911897243E+03  0.76765010752E+03  0.00000000000E+00 0.  1.
          5    1    4    4  501    0  0.16872342895E+03  0.34476486966E+02  0.10780574199E+04  0.10917332534E+04  0.41800000000E+01 0.  1.
         -5    1    4    4    0  501 -0.20758401248E+02  0.16443866809E+02  0.23382685135E+03  0.23535883410E+03  0.41800000000E+01 0.  1.
</event>
<event>
11    1  0.6763327E-009  0.1801275E+03  0.7561462E-02  0.1069540E+00
         22   -1    0    0    0    0  0.00000000000E+00  0.00000000000E+00  0.25764635854E+04  0.25764635854E+04  0.00000000000E+00 0. -1.
         22   -1    0    0    0    0 -0.00000000000E+00 -0.00000000000E+00 -0.13378672662E+03  0.13378672662E+03  0.00000000000E+00 0.  1.
        -24    2    1    2    0    0 -0.42520183602E+02 -0.57602962961E+02 -0.64664453836E+02  0.12738103098E+03  0.83176728162E+02 0.  0.
         25    2    1    2    0    0  0.14749346334E+03  0.12577549024E+03  0.34200632609E+03  0.41253976779E+03  0.12508771822E+03 0.  0.
         24    2    1    2    0    0 -0.10497327974E+03 -0.68172527281E+02  0.21653349866E+04  0.21703295133E+04  0.77380289836E+02 0.  0.
        -13    1    5    5    0    0  0.46442746733E+01 -0.28948045485E+02  0.56885386223E+03  0.56960887914E+03  0.00000000000E+00 0.  1.
         14    1    5    5    0    0 -0.10961755441E+03 -0.39224481796E+02  0.15964811243E+04  0.16007206341E+04  0.00000000000E+00 0. -1.
         13    1    3    3    0    0  0.21836405463E+02 -0.29142027501E+02 -0.86215875113E+01  0.37422161103E+02  0.00000000000E+00 0. -1.
        -14    1    3    3    0    0 -0.64356589065E+02 -0.28460935460E+02 -0.56042866325E+02  0.89958869875E+02  0.00000000000E+00 0.  1.
          5    1    4    4  501    0  0.10762588288E+03  0.57079219573E+02  0.99584398715E+02  0.15740359856E+03  0.41800000000E+01 0.  1.
         -5    1    4    4    0  501  0.39867580456E+02  0.68696270669E+02  0.24242192737E+03  0.25513616922E+03  0.41800000000E+01 0.  1.
</event>
<event>
11    1  0.8723726E-009  0.1733234E+03  0.7561462E-02  0.1075175E+00
         22   -1    0    0    0    0  0.00000000000E+00  0.00000000000E+00  0.49638480169E+03  0.49638480169E+03  0.00000000000E+00 0.  1.
         22   -1    0    0    0    0 -0.00000000000E+00 -0.00000000000E+00 -0.65082593665E+03  0.65082593665E+03  0.00000000000E+00 0. -1.
         24    2    1    2    0    0 -0.10115124706E+03  0.46355780285E+01 -0.44788676730E+03  0.46681523639E+03  0.84028835776E+02 0.  0.
         25    2    1    2    0    0  0.14658253906E+03 -0.11273373491E+03 -0.11344997594E+03  0.25042721647E+03  0.12509019932E+03 0.  0.
        -24    2    1    2    0    0 -0.45431292004E+02  0.10809815688E+03  0.40689560828E+03  0.42996828547E+03  0.74561898213E+02 0.  0.
        -13    1    3    3    0    0  0.12796788859E+02 -0.51877989776E+01 -0.23206558698E+02  0.27003989148E+02  0.00000000000E+00 0.  1.
         14    1    3    3    0    0 -0.11394803592E+03  0.98233770060E+01 -0.42468020860E+03  0.43981124724E+03  0.00000000000E+00 0. -1.
         11    1    5    5    0    0  0.18625454223E+02  0.29781797673E+02  0.14536975009E+03  0.14955342610E+03  0.00000000000E+00 0. -1.
        -12    1    5    5    0    0 -0.64056746227E+02  0.78316359208E+02  0.26152585818E+03  0.28041485937E+03  0.00000000000E+00 0.  1.
          5    1    4    4  501    0  0.13366134597E+03 -0.29746210429E+02 -0.86950852492E+02  0.16225940833E+03  0.41800000000E+01 0.  1.
         -5    1    4    4    0  501  0.12921193091E+02 -0.82987524480E+02 -0.26499123444E+02  0.88167808147E+02  0.41800000000E+01 0.  1.
</event>
<event>
11    1  0.6763327E-009  0.1345434E+03  0.7561462E-02  0.1113809E+00
         22   -1    0    0    0    0  0.00000000000E+00  0.00000000000E+00  0.15473404955E+03  0.15473404955E+03  0.00000000000E+00 0. -1.
         22   -1    0    0    0    0 -0.00000000000E+00 -0.00000000000E+00 -0.32322023611E+04  0.32322023611E+04  0.00000000000E+00 0. -1.
        -24    2    1    2    0    0 -0.47373219738E+02  0.30708057205E+02 -0.14816123030E+04  0.14848212431E+04  0.79573242929E+02 0.  0.
         25    2    1    2    0    0  0.36393130524E+02 -0.14981992833E+02 -0.17350564414E+04  0.17400048143E+04  0.12508788465E+03 0.  0.
         24    2    1    2    0    0  0.10980089214E+02 -0.15726064373E+02  0.13920043289E+03  0.16211035316E+03  0.80840179525E+02 0.  0.
        -11    1    5    5    0    0  0.84967829881E+01  0.12893798414E+02 -0.40855127828E+01  0.15973001390E+02  0.00000000000E+00 0.  1.
         12    1    5    5    0    0  0.24833062258E+01 -0.28619862787E+02  0.14328594567E+03  0.14613735177E+03  0.00000000000E+00 0. -1.
         13    1    3    3    0    0 -0.23595708500E+02  0.34357824031E+02 -0.13705467074E+04  0.13711803290E+04  0.00000000000E+00 0. -1.
        -14    1    3    3    0    0 -0.23777511237E+02 -0.36497668257E+01 -0.11106559562E+03  0.11364091415E+03  0.00000000000E+00 0.  1.
          5    1    4    4  501    0  0.40606071946E+02  0.30122344157E+02 -0.14835423883E+04  0.14844095456E+04  0.41800000000E+01 0. -1.
         -5    1    4    4    0  501 -0.42129414228E+01 -0.45104336989E+02 -0.25151405312E+03  0.25559526875E+03  0.41800000000E+01 0. -1.
</event>
<event>
11    1  0.6763327E-009  0.1294139E+03  0.7561462E-02  0.1119991E+00
         22   -1    0    0    0    0  0.00000000000E+00  0.00000000000E+00  0.11382147573E+04  0.11382147573E+04  0.00000000000E+00 0.  1.
         22   -1    0    0    0    0 -0.00000000000E+00 -0.00000000000E+00 -0.13327152339E+03  0.13327152339E+03  0.00000000000E+00 0.  1.
        -24    2    1    2    0    0  0.29641024509E+02  0.16775319476E+02 -0.77939806995E+02  0.11820141686E+03  0.82078984857E+02 0.  0.
         25    2    1    2    0    0 -0.34327361548E+02  0.65551129769E+01  0.92766162648E+02  0.15960454643E+03  0.12508682205E+03 0.  0.
         24    2    1    2    0    0  0.46863370393E+01 -0.23330432453E+02  0.99011687825E+03  0.99368031740E+03  0.80640373047E+02 0.  0.
        -13    1    5    5    0    0  0.10663441489E+02 -0.32094651947E+01  0.92886574037E+03  0.92893249124E+03  0.00000000000E+00 0.  1.
         14    1    5    5    0    0 -0.59771044492E+01 -0.20120967259E+02  0.61251137880E+02  0.64747826161E+02  0.00000000000E+00 0. -1.
         11    1    3    3    0    0  0.31109873351E+02  0.24947546081E+02 -0.57152904192E-01  0.39877406408E+02  0.00000000000E+00 0. -1.
        -12    1    3    3    0    0 -0.14688488417E+01 -0.81722266046E+01 -0.77882654091E+02  0.78324010449E+02  0.00000000000E+00 0.  1.
          5    1    4    4  501    0  0.92585747725E+01 -0.14561996628E+02 -0.25880435365E+02  0.31385383339E+02  0.41800000000E+01 0. -1.
         -5    1    4    4    0  501 -0.43585936321E+02  0.21117109605E+02  0.11864659801E+03  0.12821916309E+03  0.41800000000E+01 0. -1.
</event>
<event>
11    1  0.6763327E-009  0.1686126E+03  0.7561462E-02  0.1079245E+00
         22   -1    0    0    0    0  0.00000000000E+00  0.00000000000E+00  0.76960676411E+03  0.76960676411E+03  0.00000000000E+00 0. -1.
         22   -1    0    0    0    0 -0.00000000000E+00 -0.00000000000E+00 -0.59687920158E+03  0.59687920158E+03  0.00000000000E+00 0.  1.
        -24    2    1    2    0    0 -0.10069011853E+02  0.11188218328E+03 -0.54368043620E+03  0.56106652659E+03  0.81167866884E+02 0.  0.
         25    2    1    2    0    0 -0.79559096889E+02 -0.14444449749E+03  0.26029568695E+03  0.33255880763E+03  0.12509057973E+03 0.  0.
         24    2    1    2    0    0  0.89628108742E+02  0.32562314205E+02  0.45611231178E+03  0.47286063148E+03  0.80406676713E+02 0.  0.
        -13    1    5    5    0    0  0.90538489600E+01 -0.23772052851E+02  0.11989441713E+03  0.12256326504E+03  0.00000000000E+00 0.  1.
         14    1    5    5    0    0  0.80574259782E+02  0.56334367057E+02  0.33621789465E+03  0.35029736644E+03  0.00000000000E+00 0. -1.
         11    1    3    3    0    0 -0.15873643141E+02  0.13325315338E+02 -0.25754411983E+03  0.25837668284E+03  0.00000000000E+00 0. -1.
        -12    1    3    3    0    0  0.58046312879E+01  0.98556867942E+02 -0.28613631637E+03  0.30268984375E+03  0.00000000000E+00 0.  1.
          5    1    4    4  501    0 -0.10335827766E+03 -0.14147806898E+03  0.25176902739E+03  0.30676390452E+03  0.41800000000E+01 0. -1.
         -5    1    4    4    0  501  0.23799180767E+02 -0.29664285063E+01  0.85266595572E+01  0.25794903110E+02  0.41800000000E+01 0. -1.
</event>
<event>
11    1  0.6763327E-009  0.1335902E+03  0.7561462E-02  0.1114935E+00
         22   -1    0    0    0    0  0.00000000000E+00  0.00000000000E+00  0.33389656533E+03  0.33389656533E+03  0.00000000000E+00 0.  1.
         22   -1    0    0    0    0 -0.00000000000E+00 -0.00000000000E+00 -0.72068793658E+03  0.72068793658E+03  0.00000000000E+00 0. -1.
        -24    2    1    2    0    0 -0.43923437283E+02  0.13996837293E+02 -0.65988768672E+03  0.66641145430E+03  0.80791630415E+02 0.  0.
         25    2    1    2    0    0  0.67290664026E+02 -0.27667747629E+02  0.55877413618E+02  0.15512343572E+03  0.12508979668E+03 0.  0.
         24    2    1    2    0    0 -0.23367226744E+02  0.13670910335E+02  0.21721890184E+03  0.23304961190E+03  0.79969676823E+02 0.  0.
        -11    1    5    5    0    0 -0.73660863609E+01 -0.26972113854E+02  0.15203194402E+03  0.15458158414E+03  0.00000000000E+00 0.  1.
         12    1    5    5    0    0 -0.16001140383E+02  0.40643024189E+02  0.65186957823E+02  0.78468027750E+02  0.00000000000E+00 0. -1.
         13    1    3    3    0    0 -0.18572513401E+02  0.10535388642E+02 -0.60973909414E+03  0.61011285480E+03  0.00000000000E+00 0. -1.
        -14    1    3    3    0    0 -0.25350923882E+02  0.34614486516E+01 -0.50148592578E+02  0.56298599503E+02  0.00000000000E+00 0.  1.
          5    1    4    4  501    0  0.27491913694E+01 -0.33891357489E+02  0.79038262901E+02  0.86143494055E+02  0.41800000000E+01 0. -1.
         -5    1    4    4    0  501  0.64541472657E+02  0.62236098605E+01 -0.23160849283E+02  0.68979941663E+02  0.41800000000E+01 0. -1.
</event>
<event>
11    1  0.6763327E-009  0.1789266E+03  0.7561462E-02  0.1070514E+00
         22   -1    0    0    0    0  0.00000000000E+00  0.00000000000E+00  0.12712692412E+04  0.12712692412E+04  0.00000000000E+00 0.  1.
         22   -1    0    0    0    0 -0.00000000000E+00 -0.00000000000E+00 -0.30862673631E+03  0.30862673631E+03  0.00000000000E+00 0.  1.
         24    2    1    2    0    0 -0.10731364732E+03  0.74209106354E+02 -0.21092937530E+03  0.26166120344E+03  0.83379695717E+02 0.  0.
         25    2    1    2    0    0  0.75499418779E+02 -0.95182055529E+02  0.37161538697E+02  0.17829091491E+03  0.12508750718E+03 0.  0.
        -24    2    1    2    0    0  0.31814228539E+02  0.20972949176E+02  0.11364103415E+04  0.11399438592E+04  0.81188226040E+02 0.  0.
        -11    1    3    3    0    0 -0.10891313987E+03  0.35652986499E+02 -0.17328289087E+03  0.20775025331E+03  0.00000000000E+00 0.  1.
         12    1    3    3    0    0  0.15994925479E+01  0.38556119854E+02 -0.37646484424E+02  0.53910950132E+02  0.00000000000E+00 0. -1.
         13    1    5    5    0    0  0.24572493612E+02 -0.22469747999E+02  0.22298229426E+03  0.22545465302E+03  0.00000000000E+00 0. -1.
        -14    1    5    5    0    0  0.72417349276E+01  0.43442697175E+02  0.91342804724E+03  0.91448920614E+03  0.00000000000E+00 0.  1.
          5    1    4    4  501    0  0.28702355675E+02 -0.28145859197E+02 -0.46249368629E+02  0.61420608185E+02  0.41800000000E+01 0.  1.
         -5    1    4    4    0  501  0.46797063104E+02 -0.67036196333E+02  0.83410907326E+02  0.11687030673E+03  0.41800000000E+01 0.  1.
</event>
<event>
11    1  0.6763327E-009  0.1515774E+03  0.7561462E-02  0.1095278E+00
         22   -1    0    0    0    0  0.00000000000E+00  0.00000000000E+00  0.34512321101E+03  0.34512321101E+03  0.00000000000E+00 0. -1.
         22   -1    0    0    0    0 -0.00000000000E+00 -0.00000000000E+00 -0.21397952071E+03  0.21397952071E+03  0.00000000000E+00 0. -1.
         24    2    1    2    0    0 -0.22787722341E+02  0.75773583212E+02 -0.91982506238E+02  0.14571647647E+03  0.80694447501E+02 0.  0.
         25    2    1    2    0    0  0.11890198944E+02 -0.10441977935E+03 -0.11445063596E+02  0.16378121471E+03  0.12509368354E+03 0.  0.
        -24    2    1    2    0    0  0.10897523397E+02  0.28646196137E+02  0.23457126013E+03  0.24960504054E+03  0.79621853869E+02 0.  0.
        -13    1    3    3    0    0  0.27916563116E+02  0.43205856810E+02 -0.53481957469E+02  0.74205123365E+02  0.00000000000E+00 0.  1.
         14    1    3    3    0    0 -0.50704285458E+02  0.32567726402E+02 -0.38500548769E+02  0.71511353100E+02  0.00000000000E+00 0. -1.
         11    1    5    5    0    0  0.37887058276E+02  0.37794106672E+02  0.18323070701E+03  0.19088560888E+03  0.00000000000E+00 0. -1.
        -12    1    5    5    0    0 -0.26989534879E+02 -0.91479105356E+01  0.51340553117E+02  0.58719431660E+02  0.00000000000E+00 0.  1.
          5    1    4    4  501    0  0.58522929043E+02 -0.17247523039E+02 -0.20300184235E+02  0.64435860782E+02  0.41800000000E+01 0. -1.
         -5    1    4    4    0  501 -0.46632730099E+02 -0.87172256310E+02  0.88551206394E+01  0.99345353933E+02  0.41800000000E+01 0. -1.
</event>
<event>
11    1  0.6763327E-009  0.1418443E+03  0.7561462E-02  0.1105516E+00
         22   -1    0    0    0    0  0.00000000000E+00  0.00000000000E+00  0.10085834765E+04  0.10085834765E+04  0.00000000000E+00 0.  1.
         22   -1    0    0    0    0 -0.00000000000E+00 -0.00000000000E+00 -0.25171429024E+03  0.25171429024E+03  0.00000000000E+00 0. -1.
         24    2    1    2    0    0  0.67630152219E+02 -0.86690731552E+01 -0.22086765595E+03  0.24545144111E+03  0.82552396569E+02 0.  0.
         25    2    1    2    0    0 -0.38383549281E+02  0.36933608320E+01  0.25053149294E+03  0.28266627082E+03  0.12508898406E+03 0.  0.
        -24    2    1    2    0    0 -0.29246602938E+02  0.49757123232E+01  0.72720534926E+03  0.73218005479E+03  0.79874220770E+02 0.  0.
        -11    1    3    3    0    0  0.15683831392E+02 -0.33826521183E+02 -0.36175516768E+02  0.51950785518E+02  0.00000000000E+00 0.  1.
         12    1    3    3    0    0  0.51946320827E+02  0.25157448028E+02 -0.18469213919E+03  0.19350065559E+03  0.00000000000E+00 0. -1.
         11    1    5    5    0    0  0.50897729343E+01  0.28467014774E+02  0.11563182011E+03  0.11919309770E+03  0.00000000000E+00 0. -1.
        -12    1    5    5    0    0 -0.34336375872E+02 -0.23491302451E+02  0.61157352915E+03  0.61298695708E+03  0.00000000000E+00 0.  1.
          5    1    4    4  501    0  0.11181112727E+02 -0.48033304629E+02  0.53064624927E+02  0.72564057591E+02  0.41800000000E+01 0. -1.
         -5    1    4    4    0  501 -0.49564662007E+02  0.51726665461E+02  0.19746686802E+03  0.21010221323E+03  0.41800000000E+01 0. -1.
</event>
<event>
11    1  0.6763327E-009  0.1608885E+03  0.7561462E-02  0.1086245E+00
         22   -1    0    0    0    0  0.00000000000E+00  0.00000000000E+00  0.35240856949E+03  0.35240856949E+03  0.00000000000E+00 0. -1.
         22   -1    0    0    0    0 -0.00000000000E+00 -0.00000000000E+00 -0.26501736613E+03  0.26501736613E+03  0.00000000000E+00 0.  1.
        -24    2    1    2    0    0 -0.85749961815E+02  0.49177309541E+02 -0.17924625754E+03  0.21981430337E+03  0.80110195333E+02 0.  0.
         25    2    1    2    0    0  0.71774365205E+02 -0.11598653120E+03  0.13508954199E+03  0.22913344959E+03  0.12509403840E+03 0.  0.
         24    2    1    2    0    0  0.13975596610E+02  0.66809221657E+02  0.13154791891E+03  0.16847818267E+03  0.80132725314E+02 0.  0.
        -13    1    5    5    0    0  0.52228775535E+01 -0.17724661209E+02  0.36941891997E+02  0.41305513545E+02  0.00000000000E+00 0.  1.
         14    1    5    5    0    0  0.87527190563E+01  0.84533882866E+02  0.94606026912E+02  0.12717266912E+03  0.00000000000E+00 0. -1.
         13    1    3    3    0    0 -0.69639644635E+02 -0.18504502727E+01 -0.73312932138E+02  0.10113303263E+03  0.00000000000E+00 0. -1.
        -14    1    3    3    0    0 -0.16110317180E+02  0.51027759813E+02 -0.10593332541E+03  0.11868127073E+03  0.00000000000E+00 0.  1.
          5    1    4    4  501    0  0.10629023981E+03 -0.98536526610E+02  0.95455425219E+02  0.17359802061E+03  0.41800000000E+01 0.  1.
         -5    1    4    4    0  501 -0.34515874602E+02 -0.17450004588E+02  0.39634116772E+02  0.55535428980E+02  0.41800000000E+01 0.  1.
</event>
<event>
11    1  0.6763327E-009  0.1754979E+03  0.7561462E-02  0.1073344E+00
         22   -1    0    0    0    0  0.00000000000E+00  0.00000000000E+00  0.10261849925E+04  0.10261849925E+04  0.00000000000E+00 0.  1.
         22   -1    0    0    0    0 -0.00000000000E+00 -0.00000000000E+00 -0.27305713302E+03  0.27305713302E+03  0.00000000000E+00 0.  1.
         24    2    1    2    0    0 -0.39339863339E+02  0.25187011018E+02 -0.22529025568E+03  0.24514071580E+03  0.84594685804E+02 0.  0.
         25    2    1    2    0    0  0.12828169163E+03 -0.97076997686E+02  0.30713400360E+03  0.36859027619E+03  0.12508940661E+03 0.  0.
        -24    2    1    2    0    0 -0.88941828292E+02  0.71889986667E+02  0.67128411160E+03  0.68551113358E+03  0.78894465971E+02 0.  0.
        -13    1    3    3    0    0 -0.28045092369E+02  0.47571411389E+02 -0.20664156891E+03  0.21389320791E+03  0.00000000000E+00 0.  1.
         14    1    3    3    0    0 -0.11294770970E+02 -0.22384400370E+02 -0.18648686772E+02  0.31247507893E+02  0.00000000000E+00 0. -1.
         11    1    5    5    0    0 -0.13187493491E+02  0.14588242862E+02  0.22807296901E+02  0.30114773887E+02  0.00000000000E+00 0. -1.
        -12    1    5    5    0    0 -0.75754334801E+02  0.57301743805E+02  0.64847681470E+03  0.65539635969E+03  0.00000000000E+00 0.  1.
          5    1    4    4  501    0  0.61683942822E+02 -0.11330203101E+03  0.24026115161E+03  0.27273641562E+03  0.41800000000E+01 0. -1.
         -5    1    4    4    0  501  0.66597748809E+02  0.16225033321E+02  0.66872851996E+02  0.95853860573E+02  0.41800000000E+01 0. -1.
</event>
<event>
11    1  0.6763327E-009  0.1579713E+03  0.7561462E-02  0.1089001E+00
         22   -1    0    0    0    0  0.00000000000E+00  0.00000000000E+00  0.74760116415E+03  0.74760116415E+03  0.00000000000E+00 0. -1.
         22   -1    0    0    0    0 -0.00000000000E+00 -0.00000000000E+00 -0.87147986472E+03  0.87147986472E+03  0.00000000000E+00 0.  1.
         24    2    1    2    0    0 -0.89990074114E+02 -0.30211741384E+02 -0.79949770363E+03  0.80987925318E+03  0.87731772274E+02 0.  0.
         25    2    1    2    0    0  0.12216176904E+03  0.71175888928E+02  0.77982459393E+02  0.20424999416E+03  0.12508913287E+03 0.  0.
        -24    2    1    2    0    0 -0.32171694930E+02 -0.40964147543E+02  0.59763654366E+03  0.60495178153E+03  0.78000899452E+02 0.  0.
        -11    1    3    3    0    0 -0.69055251623E+02 -0.60289286883E+02 -0.61284787786E+03  0.61966599656E+03  0.00000000000E+00 0.  1.
         12    1    3    3    0    0 -0.20934822491E+02  0.30077545499E+02 -0.18664982577E+03  0.19021325662E+03  0.00000000000E+00 0. -1.
         13    1    5    5    0    0 -0.30820446351E+02 -0.50502866724E+02  0.23998356841E+03  0.24716907688E+03  0.00000000000E+00 0. -1.
        -14    1    5    5    0    0 -0.13512485793E+01  0.95387191809E+01  0.35765297525E+03  0.35778270464E+03  0.00000000000E+00 0.  1.
          5    1    4    4  501    0  0.63378554211E+02  0.33604663466E+02 -0.28147940824E+02  0.77174435619E+02  0.41800000000E+01 0. -1.
         -5    1    4    4    0  501  0.58783214833E+02  0.37571225462E+02  0.10613040022E+03  0.12707555854E+03  0.41800000000E+01 0. -1.
</event>
<event>
11    1  0.6763327E-009  0.1491575E+03  0.7561462E-02  0.1097743E+00
         22   -1    0    0    0    0  0.00000000000E+00  0.00000000000E+00  0.86482981925E+03  0.86482981925E+03  0.00000000000E+00 0. -1.
         22   -1    0    0    0    0 -0.00000000000E+00 -0.00000000000E+00 -0.17166572103E+03  0.17166572103E+03  0.00000000000E+00 0. -1.
        -24    2    1    2    0    0  0.85178514340E+02  0.30745254422E+02 -0.10486303884E+03  0.16011061778E+03  0.80240283120E+02 0.  0.
         25    2    1    2    0    0 -0.46714265452E+02  0.28676935807E+02  0.98570333433E+02  0.16843563557E+03  0.12509941427E+03 0.  0.
         24    2    1    2    0    0 -0.38464248888E+02 -0.59422190229E+02  0.69945680362E+03  0.70794928693E+03  0.83317930859E+02 0.  0.
        -13    1    5    5    0    0  0.13861344370E+01 -0.22427179949E+02  0.37169311562E+02  0.43433368406E+02  0.00000000000E+00 0.  1.
         14    1    5    5    0    0 -0.39850383325E+02 -0.36995010280E+02  0.66228749206E+03  0.66451591853E+03  0.00000000000E+00 0. -1.
         13    1    3    3    0    0  0.39203924964E+02  0.51104850403E+02 -0.83559399325E+02  0.10550273306E+03  0.00000000000E+00 0. -1.
        -14    1    3    3    0    0  0.45974589376E+02 -0.20359595981E+02 -0.21303639518E+02  0.54607884719E+02  0.00000000000E+00 0.  1.
          5    1    4    4  501    0  0.74005739918E+01  0.20400254170E+02  0.11013243801E+03  0.11232793583E+03  0.41800000000E+01 0.  1.
         -5    1    4    4    0  501 -0.54114839444E+02  0.82766816376E+01 -0.11562104582E+02  0.56107699733E+02  0.41800000000E+01 0.  1.
</event>
<event>
11    1  0.6763327E-009  0.1484974E+03  0.7561462E-02  0.1098424E+00
         22   -1    0    0    0    0  0.00000000000E+00  0.00000000000E+00  0.28722858793E+03  0.28722858793E+03  0.00000000000E+00 0.  1.
         22   -1    0    0    0    0 -0.00000000000E+00 -0.00000000000E+00 -0.15525226095E+04  0.15525226095E+04  0.00000000000E+00 0. -1.
        -24    2    1    2    0    0 -0.70526128741E+02  0.37149396737E+02 -0.14792616288E+04  0.14836089416E+04  0.80786834885E+02 0.  0.
         25    2    1    2    0    0  0.73011560808E+02 -0.64748940245E+02  0.41885660372E+02  0.16408846811E+03  0.12508998180E+03 0.  0.
         24    2    1    2    0    0 -0.24854320669E+01  0.27599543509E+02  0.17208194683E+03  0.19205378772E+03  0.80650782877E+02 0.  0.
        -11    1    5    5    0    0  0.27328478226E+02  0.26132012509E+02  0.15060840777E+03  0.15528238886E+03  0.00000000000E+00 0.  1.
         12    1    5    5    0    0 -0.29813910293E+02  0.14675309999E+01  0.21473539060E+02  0.36771398858E+02  0.00000000000E+00 0. -1.
         11    1    3    3    0    0 -0.49043762784E+01  0.23406744035E+01 -0.84423400137E+03  0.84425149140E+03  0.00000000000E+00 0. -1.
        -12    1    3    3    0    0 -0.65621752463E+02  0.34808722333E+02 -0.63502762744E+03  0.63935745023E+03  0.00000000000E+00 0.  1.
          5    1    4    4  501    0  0.29558428753E+02 -0.97234620475E+02  0.13174495129E+02  0.10256369656E+03  0.41800000000E+01 0.  1.
         -5    1    4    4    0  501  0.43453132055E+02  0.32485680230E+02  0.28711165243E+02  0.61524771556E+02  0.41800000000E+01 0.  1.
</event>
<event>
11    1  0.6763327E-009  0.1744504E+03  0.7561462E-02  0.1074222E+00
         22   -1    0    0    0    0  0.00000000000E+00  0.00000000000E+00  0.55570052363E+03  0.55570052363E+03  0.00000000000E+00 0. -1.
         22   -1    0    0    0    0 -0.00000000000E+00 -0.00000000000E+00 -0.64370551726E+03  0.64370551726E+03  0.00000000000E+00 0. -1.
         24    2    1    2    0    0  0.45407631687E+02 -0.45462949756E+01 -0.59062185239E+03  0.59792717535E+03  0.81241693067E+02 0.  0.
         25    2    1    2    0    0  0.88331217523E+02  0.34545409366E+02  0.16301833225E+03  0.22631655079E+03  0.12509362580E+03 0.  0.
        -24    2    1    2    0    0 -0.13373884921E+03 -0.29999114390E+02  0.33959852650E+03  0.37516231475E+03  0.81446771276E+02 0.  0.
        -11    1    3    3    0    0  0.23930591785E+02  0.35383314825E+02 -0.38520881642E+03  0.38756997360E+03  0.00000000000E+00 0.  1.
         12    1    3    3    0    0  0.21477039903E+02 -0.39929609801E+02 -0.20541303597E+03  0.21035720175E+03  0.00000000000E+00 0. -1.
         11    1    5    5    0    0 -0.12054919801E+03  0.59402398590E+01  0.24517338395E+03  0.27327163004E+03  0.00000000000E+00 0. -1.
        -12    1    5    5    0    0 -0.13189651199E+02 -0.35939354249E+02  0.94425142554E+02  0.10189068470E+03  0.00000000000E+00 0.  1.
          5    1    4    4  501    0  0.65183847120E+02  0.81494058361E+02  0.10626172286E+03  0.14899409927E+03  0.41800000000E+01 0. -1.
         -5    1    4    4    0  501  0.23147370403E+02 -0.46948648995E+02  0.56756609392E+02  0.77322451518E+02  0.41800000000E+01 0. -1.
</event>
<event>
11    1  0.6763327E-009  0.1371525E+03  0.7561462E-02  0.1110780E+00
         22   -1    0    0    0    0  0.00000000000E+00  0.00000000000E+00  0.89103774192E+03  0.89103774192E+03  0.00000000000E+00 0. -1.
         22   -1    0    0    0    0 -0.00000000000E+00 -0.00000000000E+00 -0.20360208728E+03  0.20360208728E+03  0.00000000000E+00 0.  1.
        -24    2    1    2    0    0  0.43622961220E+02 -0.35446492187E+02 -0.16014309549E+03  0.18793565147E+03  0.80712957493E+02 0.  0.
         25    2    1    2    0    0 -0.19502542671E+02  0.64354347213E+02  0.16171918150E+03  0.21522877441E+03  0.12509396666E+03 0.  0.
         24    2    1    2    0    0 -0.24120418549E+02 -0.28907855026E+02  0.68585956863E+03  0.69147540332E+03  0.79482242250E+02 0.  0.
        -13    1    5    5    0    0  0.28687737417E+02 -0.48735934877E+01  0.18649155961E+03  0.18874808607E+03  0.00000000000E+00 0.  1.
         14    1    5    5    0    0 -0.52808155966E+02 -0.24034261538E+02  0.49936800902E+03  0.50272731724E+03  0.00000000000E+00 0. -1.
         13    1    3    3    0    0 -0.12600645777E+02  0.90243041683E+01 -0.75228824245E+02  0.76808790753E+02  0.00000000000E+00 0. -1.
        -14    1    3    3    0    0  0.56223606997E+02 -0.44470796355E+02 -0.84914271247E+02  0.11112686072E+03  0.00000000000E+00 0.  1.
          5    1    4    4  501    0 -0.39177904165E+02  0.92076722925E+02  0.85563929893E+02  0.13172581212E+03  0.41800000000E+01 0.  1.
         -5    1    4    4    0  501  0.19675361494E+02 -0.27722375712E+02  0.76155251604E+02  0.83502962294E+02  0.41800000000E+01 0.  1.
</event>
<event>
11    1  0.6763327E-009  0.1641085E+03  0.7561462E-02  0.1083276E+00
         22   -1    0    0    0    0  0.00000000000E+00  0.00000000000E+00  0.16670626758E+04  0.16670626758E+04  0.00000000000E+00 0.  1.
         22   -1    0    0    0    0 -0.00000000000E+00 -0.00000000000E+00 -0.38783151213E+02  0.38783151213E+02  0.00000000000E+00 0.  1.
        -24    2    1    2    0    0  0.62557900002E+02  0.86816460144E+02  0.17578683126E+03  0.22183035966E+03  0.82807667633E+02 0.  0.
         25    2    1    2    0    0 -0.74255303797E+02 -0.74639290464E+02  0.46221177849E+03  0.49027802719E+03  0.12509173414E+03 0.  0.
         24    2    1    2    0    0  0.11697403794E+02 -0.12177169680E+02  0.99028091484E+03  0.99373744016E+03  0.81072171359E+02 0.  0.
        -11    1    5    5    0    0  0.10595878319E+02  0.11981533881E+02  0.90372464377E+03  0.90386617458E+03  0.00000000000E+00 0.  1.
         12    1    5    5    0    0  0.11015254757E+01 -0.24158703561E+02  0.86556271073E+02  0.89871265587E+02  0.00000000000E+00 0. -1.
         11    1    3    3    0    0  0.10160350392E+02 -0.29003220585E+01  0.79428102619E+02  0.80127823343E+02  0.00000000000E+00 0. -1.
        -12    1    3    3    0    0  0.52397549610E+02  0.89716782203E+02  0.96358728644E+02  0.14170253632E+03  0.00000000000E+00 0.  1.
          5    1    4    4  501    0 -0.21675553649E+02  0.12356285185E+02  0.28358284281E+03  0.28470898923E+03  0.41800000000E+01 0. -1.
         -5    1    4    4    0  501 -0.52579750148E+02 -0.86995575649E+02  0.17862893568E+03  0.20556903796E+03  0.41800000000E+01 0. -1.
</event>
<event>
11    1  0.6763327E-009  0.1792712E+03  0.7561462E-02  0.1070234E+00
         22   -1    0    0    0    0  0.00000000000E+00  0.00000000000E+00  0.13080829969E+04  0.13080829969E+04  0.00000000000E+00 0. -1.
         22   -1    0    0    0    0 -0.00000000000E+00 -0.00000000000E+00 -0.79370831934E+03  0.79370831934E+03  0.00000000000E+00 0. -1.
        -24    2    1    2    0    0 -0.27240586180E+02  0.15055059834E+03 -0.52858339643E+03  0.55627577016E+03  0.81454240456E+02 0.  0.
         25    2    1    2    0    0  0.54021841735E+02 -0.74672971058E+02 -0.22456115611E+03  0.27307480005E+03  0.12509085337E+03 0.  0.
         24    2    1    2    0    0 -0.26781255556E+02 -0.75877627281E+02  0.12675192301E+04  0.12724407461E+04  0.77626049328E+02 0.  0.
        -13    1    5    5    0    0  0.26399849718E+02 -0.15642542869E+02  0.28751361692E+03  0.28914653919E+03  0.00000000000E+00 0.  1.
         14    1    5    5    0    0 -0.53181105274E+02 -0.60235084412E+02  0.98000561322E+03  0.98329420689E+03  0.00000000000E+00 0. -1.
         13    1    3    3    0    0 -0.45378215922E+02  0.72451943527E+02 -0.35377029852E+03  0.36395314357E+03  0.00000000000E+00 0. -1.
        -14    1    3    3    0    0  0.18137629742E+02  0.78098654813E+02 -0.17481309791E+03  0.19232262658E+03  0.00000000000E+00 0.  1.
          5    1    4    4  501    0 -0.40656982162E+02 -0.29312761899E+02 -0.74428517399E+02  0.89829309309E+02  0.41800000000E+01 0. -1.
         -5    1    4    4    0  501  0.94678823897E+02 -0.45360209159E+02 -0.15013263872E+03  0.18324549074E+03  0.41800000000E+01 0. -1.
</event>
<event>
11    1  0.6763327E-009  0.2440093E+03  0.7561462E-02  0.1027140E+00
         22   -1    0    0    0    0  0.00000000000E+00  0.00000000000E+00  0.36901039864E+03  0.36901039864E+03  0.00000000000E+00 0. -1.
         22   -1    0    0    0    0 -0.00000000000E+00 -0.00000000000E+00 -0.11634981351E+04  0.11634981351E+04  0.00000000000E+00 0.  1.
        -24    2    1    2    0    0 -0.19331896738E+03  0.32958158076E+02 -0.79558352031E+03  0.82315182935E+03  0.78532369412E+02 0.  0.
         25    2    1    2    0    0  0.26749214136E+03 -0.59272357770E+02 -0.27743764012E+03  0.40948938853E+03  0.12507860360E+03 0.  0.
         24    2    1    2    0    0 -0.74173173989E+02  0.26314199695E+02  0.27853342396E+03  0.29986731586E+03  0.78392869642E+02 0.  0.
        -13    1    5    5    0    0 -0.15365417036E+02  0.14917669968E+02  0.81277290477E+01  0.22906175967E+02  0.00000000000E+00 0.  1.
         14    1    5    5    0    0 -0.58807756953E+02  0.11396529727E+02  0.27040569491E+03  0.27696113989E+03  0.00000000000E+00 0. -1.
         11    1    3    3    0    0 -0.11570700287E+03  0.44796903037E+02 -0.36617202950E+03  0.38662233281E+03  0.00000000000E+00 0. -1.
        -12    1    3    3    0    0 -0.77611964507E+02 -0.11838744961E+02 -0.42941149081E+03  0.43652949655E+03  0.00000000000E+00 0.  1.
          5    1    4    4  501    0  0.72187679400E+02  0.38660721205E+02 -0.63871426530E+02  0.10393624944E+03  0.41800000000E+01 0. -1.
         -5    1    4    4    0  501  0.19530446196E+03 -0.97933078975E+02 -0.21356621359E+03  0.30555313909E+03  0.41800000000E+01 0. -1.
</event>
<event>
11    1  0.6763327E-009  0.1702913E+03  0.7561462E-02  0.1077778E+00
         22   -1    0    0    0    0  0.00000000000E+00  0.00000000000E+00  0.15097554130E+04  0.15097554130E+04  0.00000000000E+00 0. -1.
         22   -1    0    0    0    0 -0.00000000000E+00 -0.00000000000E+00 -0.12501482207E+03  0.12501482207E+03  0.00000000000E+00 0.  1.
        -24    2    1    2    0    0 -0.68369681149E+02  0.68846322685E+02 -0.64822015039E+02  0.14198462844E+03  0.80891975077E+02 0.  0.
         25    2    1    2    0    0  0.10184189881E+03  0.53816412369E+02  0.45949425370E+03  0.48995010918E+03  0.12509261249E+03 0.  0.
         24    2    1    2    0    0 -0.33472217663E+02 -0.12266273505E+03  0.99006835226E+03  0.10028354974E+04  0.96317998595E+02 0.  0.
        -13    1    5    5    0    0  0.30614073905E+02 -0.56197663005E+02  0.50699433007E+03  0.51101726935E+03  0.00000000000E+00 0.  1.
         14    1    5    5    0    0 -0.64086291568E+02 -0.66465072049E+02  0.48307402219E+03  0.49181822809E+03  0.00000000000E+00 0. -1.
         11    1    3    3    0    0 -0.17237429142E+02  0.69387045985E+02 -0.54299199072E+02  0.89778027011E+02  0.00000000000E+00 0. -1.
        -12    1    3    3    0    0 -0.51132252006E+02 -0.54072330021E+00 -0.10522815967E+02  0.52206601429E+02  0.00000000000E+00 0.  1.
          5    1    4    4  501    0  0.10845321739E+03 -0.39506521211E+01  0.34127934607E+03  0.35814350821E+03  0.41800000000E+01 0.  1.
         -5    1    4    4    0  501 -0.66113185761E+01  0.57767064490E+02  0.11821490763E+03  0.13180660097E+03  0.41800000000E+01 0.  1.
</event>
<event>
11    1  0.6763327E-009  0.2403398E+03  0.7561462E-02  0.1029175E+00
         22   -1    0    0    0    0  0.00000000000E+00  0.00000000000E+00  0.12759404530E+04  0.12759404530E+04  0.00000000000E+00 0.  1.
         22   -1    0    0    0    0 -0.00000000000E+00 -0.00000000000E+00 -0.54130146413E+03  0.54130146413E+03  0.00000000000E+00 0.  1.
         24    2    1    2    0    0  0.20732337117E+03  0.39617427919E+02 -0.44557202275E+03  0.50207423062E+03  0.94823967244E+02 0.  0.
         25    2    1    2    0    0 -0.17323138776E+03  0.10678073041E+02  0.11059307049E+03  0.24083975639E+03  0.12509926486E+03 0.  0.
        -24    2    1    2    0    0 -0.34091983409E+02 -0.50295500960E+02  0.10696179411E+04  0.10743279301E+04  0.80037870508E+02 0.  0.
        -13    1    3    3    0    0  0.18960592228E+03  0.42334712114E+02 -0.31367118458E+03  0.36896103541E+03  0.00000000000E+00 0.  1.
         14    1    3    3    0    0  0.17717448888E+02 -0.27172841950E+01 -0.13190083817E+03  0.13311319521E+03  0.00000000000E+00 0. -1.
         13    1    5    5    0    0 -0.38650916481E+02 -0.24741490734E+02  0.24258062240E+03  0.24688335924E+03  0.00000000000E+00 0. -1.
        -14    1    5    5    0    0  0.45589330717E+01 -0.25554010226E+02  0.82703731874E+03  0.82744457089E+03  0.00000000000E+00 0.  1.
          5    1    4    4  501    0 -0.25641289582E+02  0.34968960057E+01  0.87351387200E+02  0.91200006902E+02  0.41800000000E+01 0. -1.
         -5    1    4    4    0  501 -0.14759009818E+03  0.71811770351E+01  0.23241683290E+02  0.14963974949E+03  0.41800000000E+01 0. -1.
</event>
<event>
11    1  0.9427853E-009  0.2088440E+03  0.7561462E-02  0.1048440E+00
         22   -1    0    0    0    0  0.00000000000E+00  0.00000000000E+00  0.69088253836E+03  0.69088253836E+03  0.00000000000E+00 0.  1.
         22   -1    0    0    0    0 -0.00000000000E+00 -0.00000000000E+00 -0.11692780809E+04  0.11692780809E+04  0.00000000000E+00 0. -1.
        -24    2    1    2    0    0  0.90110862721E+02 -0.64337064764E+02 -0.58232674058E+03  0.59828630939E+03  0.81134762760E+02 0.  0.
         25    2    1    2    0    0 -0.32285961710E+01  0.20699786867E+03 -0.54001466350E+03  0.59171122069E+03  0.12509112853E+03 0.  0.
         24    2    1    2    0    0 -0.86882266550E+02 -0.14266080390E+03  0.64394586158E+03  0.67016308914E+03  0.80942326236E+02 0.  0.
        -11    1    5    5    0    0 -0.40705769451E+02 -0.85993315506E+02  0.49717211898E+03  0.50619356562E+03  0.00000000000E+00 0.  1.
         12    1    5    5    0    0 -0.46176497099E+02 -0.56667488396E+02  0.14677374260E+03  0.16396952352E+03  0.00000000000E+00 0. -1.
         13    1    3    3    0    0  0.45795093244E+02 -0.59794592179E+02 -0.49022239611E+03  0.49597437582E+03  0.00000000000E+00 0. -1.
        -14    1    3    3    0    0  0.44315769477E+02 -0.45424725850E+01 -0.92104344466E+02  0.10231193357E+03  0.00000000000E+00 0.  1.
          5    1    4    4  501    0  0.10197388792E+02  0.25655512219E+02 -0.23446989224E+03  0.23612664994E+03  0.41800000000E+01 0.  1.
         -5    1    4    4    0  501 -0.13425984963E+02  0.18134235645E+03 -0.30554477126E+03  0.35558457075E+03  0.41800000000E+01 0.  1.
</event>
<event>
11    1  0.6763327E-009  0.1427965E+03  0.7561462E-02  0.1104475E+00
         22   -1    0    0    0    0  0.00000000000E+00  0.00000000000E+00  0.87505304650E+03  0.87505304650E+03  0.00000000000E+00 0. -1.
         22   -1    0    0    0    0 -0.00000000000E+00 -0.00000000000E+00 -0.31016734157E+03  0.31016734157E+03  0.00000000000E+00 0.  1.
        -24    2    1    2    0    0  0.15923129360E+02  0.13102600247E+02 -0.25500805423E+03  0.26729163211E+03  0.77398221518E+02 0.  0.
         25    2    1    2    0    0 -0.44984173021E+02 -0.73957736347E+02  0.82540763899E+02  0.17307184178E+03  0.12509021594E+03 0.  0.
         24    2    1    2    0    0  0.29061043661E+02  0.60855136101E+02  0.73735299526E+03  0.74485691417E+03  0.81083235748E+02 0.  0.
        -13    1    5    5    0    0 -0.71559426761E+00 -0.11082062989E+02  0.16981040596E+02  0.20289897362E+02  0.00000000000E+00 0.  1.
         14    1    5    5    0    0  0.29776637929E+02  0.71937199090E+02  0.72037195467E+03  0.72456701681E+03  0.00000000000E+00 0. -1.
         11    1    3    3    0    0  0.20093727376E+02 -0.14651584310E+02 -0.23918200352E+02  0.34503726041E+02  0.00000000000E+00 0. -1.
        -12    1    3    3    0    0 -0.41705980163E+01  0.27754184557E+02 -0.23108985388E+03  0.23278790607E+03  0.00000000000E+00 0.  1.
          5    1    4    4  501    0 -0.69916561368E+02 -0.29041857362E+02  0.74594306915E-01  0.75823696803E+02  0.41800000000E+01 0. -1.
         -5    1    4    4    0  501  0.24932388348E+02 -0.44915878986E+02  0.82466169592E+02  0.97248144974E+02  0.41800000000E+01 0. -1.
</event>
<event>
11    1  0.6763327E-009  0.1510006E+03  0.7561462E-02  0.1095861E+00
         22   -1    0    0    0    0  0.00000000000E+00  0.00000000000E+00  0.29197725746E+03  0.29197725746E+03  0.00000000000E+00 0.  1.
         22   -1    0    0    0    0 -0.00000000000E+00 -0.00000000000E+00 -0.53914088319E+03  0.53914088319E+03  0.00000000000E+00 0.  1.
        -24    2    1    2    0    0  0.84987768067E+02 -0.23964119993E+02 -0.34718179309E+03  0.36702539265E+03  0.79845110211E+02 0.  0.
         25    2    1    2    0    0 -0.64896297414E+02  0.37633517279E+02 -0.14469634931E+03  0.20545679864E+03  0.12509057344E+03 0.  0.
         24    2    1    2    0    0 -0.20091470653E+02 -0.13669397285E+02  0.24471451667E+03  0.25863594936E+03  0.80105180958E+02 0.  0.
        -13    1    5    5    0    0 -0.20508571610E+02  0.13024629945E+02  0.22273192683E+03  0.22405301543E+03  0.00000000000E+00 0.  1.
         14    1    5    5    0    0  0.41710095724E+00 -0.26694027230E+02  0.21982589844E+02  0.34582933931E+02  0.00000000000E+00 0. -1.
         13    1    3    3    0    0  0.42004185564E+02 -0.52644961659E+02 -0.20021607238E+03  0.21123995653E+03  0.00000000000E+00 0. -1.
        -14    1    3    3    0    0  0.42983582503E+02  0.28680841666E+02 -0.14696572071E+03  0.15578543612E+03  0.00000000000E+00 0.  1.
          5    1    4    4  501    0 -0.93699625079E+02  0.57210397566E+02 -0.99316117770E+02  0.14810068527E+03  0.41800000000E+01 0. -1.
         -5    1    4    4    0  501  0.28803327665E+02 -0.19576880287E+02 -0.45380231537E+02  0.57356113368E+02  0.41800000000E+01 0. -1.
</event>
<event>
11    1  0.6763327E-009  0.1359963E+03  0.7561462E-02  0.1112113E+00
         22   -1    0    0    0    0  0.00000000000E+00  0.00000000000E+00  0.89518872745E+02  0.89518872745E+02  0.00000000000E+00 0.  1.
         22   -1    0    0    0    0 -0.00000000000E+00 -0.00000000000E+00 -0.17218316430E+04  0.17218316430E+04  0.00000000000E+00 0.  1.
         24    2    1    2    0    0 -0.26627349391E+02 -0.45534934183E+02 -0.96049645910E+03  0.96502398108E+03  0.77041483311E+02 0.  0.
         25    2    1    2    0    0 -0.13428702724E+02  0.66212113420E+02 -0.72512796337E+03  0.73893527087E+03  0.12510154777E+03 0.  0.
        -24    2    1    2    0    0  0.40056052116E+02 -0.20677179237E+02  0.53311652223E+02  0.10739126379E+03  0.81600969495E+02 0.  0.
        -13    1    3    3    0    0  0.23992651813E+02 -0.29333195467E+02 -0.29819422816E+03  0.30059255048E+03  0.00000000000E+00 0.  1.
         14    1    3    3    0    0 -0.50620001205E+02 -0.16201738716E+02 -0.66230223094E+03  0.66443143059E+03  0.00000000000E+00 0. -1.
         13    1    5    5    0    0  0.26984279224E+02 -0.13877580001E+01 -0.17935302466E+02  0.32430730366E+02  0.00000000000E+00 0. -1.
        -14    1    5    5    0    0  0.13071772891E+02 -0.19289421237E+02  0.71246954689E+02  0.74960533420E+02  0.00000000000E+00 0.  1.
          5    1    4    4  501    0 -0.78801841489E+01 -0.37196913096E+02 -0.17538549403E+03  0.17950836071E+03  0.41800000000E+01 0. -1.
         -5    1    4    4    0  501 -0.55485185752E+01  0.10340902652E+03 -0.54974246934E+03  0.55942691016E+03  0.41800000000E+01 0. -1.
</event>
<event>
11    1  0.6763327E-009  0.1501618E+03  0.7561462E-02  0.1096714E+00
         22   -1    0    0    0    0  0.00000000000E+00  0.00000000000E+00  0.37694972436E+03  0.37694972436E+03  0.00000000000E+00 0.  1.
         22   -1    0    0    0    0 -0.00000000000E+00 -0.00000000000E+00 -0.50067810525E+03  0.50067810525E+03  0.00000000000E+00 0. -1.
        -24    2    1    2    0    0 -0.29070290087E+01  0.83439907789E+02 -0.45435715640E+03  0.46932673258E+03  0.82803908782E+02 0.  0.
         25    2    1    2    0    0 -0.81956582754E+01 -0.73358378956E+02  0.14440147032E+03  0.20481629875E+03  0.12509720631E+03 0.  0.
         24    2    1    2    0    0  0.11102687284E+02 -0.10081528833E+02  0.18622730520E+03  0.20348479828E+03  0.80625970015E+02 0.  0.
        -13    1    5    5    0    0 -0.15348224916E+01 -0.37317921505E+02  0.15771982282E+03  0.16208184801E+03  0.00000000000E+00 0.  1.
         14    1    5    5    0    0  0.12637509776E+02  0.27236392672E+02  0.28507482380E+02  0.41402950267E+02  0.00000000000E+00 0. -1.
         11    1    3    3    0    0 -0.38331778003E+02  0.23518806586E+02 -0.12923100355E+03  0.13683242213E+03  0.00000000000E+00 0. -1.
        -12    1    3    3    0    0  0.35424748994E+02  0.59921101203E+02 -0.32512615285E+03  0.33249431045E+03  0.00000000000E+00 0.  1.
          5    1    4    4  501    0  0.46448187370E+02 -0.43406201040E+01  0.16842131127E+02  0.49773535878E+02  0.41800000000E+01 0. -1.
         -5    1    4    4    0  501 -0.54643845646E+02 -0.69017758852E+02  0.12755933919E+03  0.15504276287E+03  0.41800000000E+01 0. -1.
</event>
<event>
11    1  0.6763327E-009  0.1577490E+03  0.7561462E-02  0.1089214E+00
         22   -1    0    0    0    0  0.00000000000E+00  0.00000000000E+00  0.76635564893E+02  0.76635564893E+02  0.00000000000E+00 0.  1.
         22   -1    0    0    0    0 -0.00000000000E+00 -0.00000000000E+00 -0.10422499318E+04  0.10422499318E+04  0.00000000000E+00 0.  1.
         24    2    1    2    0    0 -0.18555994863E+01  0.16896048326E+02 -0.50670351362E+03  0.51337938802E+03  0.80752867636E+02 0.  0.
         25    2    1    2    0    0 -0.85262944521E+02  0.26159740815E+02 -0.45542260279E+03  0.48064060945E+03  0.12510614126E+03 0.  0.
        -24    2    1    2    0    0  0.87118544007E+02 -0.43055789141E+02 -0.34882504703E+01  0.12486549919E+03  0.78331240940E+02 0.  0.
        -13    1    3    3    0    0  0.98190866969E+01  0.41487302366E+02 -0.15915007259E+03  0.16476151349E+03  0.00000000000E+00 0.  1.
         14    1    3    3    0    0 -0.11674686183E+02 -0.24591254040E+02 -0.34755344103E+03  0.34861787453E+03  0.00000000000E+00 0. -1.
         13    1    5    5    0    0 -0.11253153561E+02 -0.10638345173E+02  0.12706532672E+02  0.20031570723E+02  0.00000000000E+00 0. -1.
        -14    1    5    5    0    0  0.98371697569E+02 -0.32417443969E+02 -0.16194783143E+02  0.10483392846E+03  0.00000000000E+00 0.  1.
          5    1    4    4  501    0  0.18114631224E+02  0.41829577632E+02 -0.18753567086E+03  0.19304132633E+03  0.41800000000E+01 0.  1.
         -5    1    4    4    0  501 -0.10337757574E+03 -0.15669836818E+02 -0.26788693193E+03  0.28759928312E+03  0.41800000000E+01 0.  1.
</event>
<event>
11    1  0.6763327E-009  0.3078050E+03  0.7561462E-02  0.9969410E-01
         22   -1    0    0    0    0  0.00000000000E+00  0.00000000000E+00  0.41543906980E+03  0.41543906980E+03  0.00000000000E+00 0.  1.
         22   -1    0    0    0    0 -0.00000000000E+00 -0.00000000000E+00 -0.71802287711E+03  0.71802287711E+03  0.00000000000E+00 0.  1.
        -24    2    1    2    0    0  0.19126312134E+03 -0.23505446761E+03 -0.40856864249E+03  0.51479933215E+03  0.79106462640E+02 0.  0.
         25    2    1    2    0    0  0.51316332851E+02  0.29432354631E+03 -0.25891934114E+02  0.32492635979E+03  0.12508809337E+03 0.  0.
         24    2    1    2    0    0 -0.24257945419E+03 -0.59269078698E+02  0.13187676929E+03  0.29373625497E+03  0.80820108407E+02 0.  0.
        -13    1    5    5    0    0 -0.24545798576E+03 -0.47733095437E+02  0.12176084951E+03  0.27812546746E+03  0.00000000000E+00 0.  1.
         14    1    5    5    0    0  0.28785315747E+01 -0.11535983261E+02  0.10115919784E+02  0.15610787517E+02  0.00000000000E+00 0. -1.
         13    1    3    3    0    0  0.15794454194E+02 -0.50746100678E+02 -0.11231387521E+03  0.12425392582E+03  0.00000000000E+00 0. -1.
        -14    1    3    3    0    0  0.17546866714E+03 -0.18430836693E+03 -0.29625476728E+03  0.39054540633E+03  0.00000000000E+00 0.  1.
          5    1    4    4  501    0  0.87347938092E+02  0.14587220105E+03 -0.90497018410E+00  0.17007837223E+03  0.41800000000E+01 0. -1.
         -5    1    4    4    0  501 -0.36031605241E+02  0.14845134526E+03 -0.24986963930E+02  0.15484798756E+03  0.41800000000E+01 0. -1.
</event>
<event>
11    1  0.6763327E-009  0.1394123E+03  0.7561462E-02  0.1108216E+00
         22   -1    0    0    0    0  0.00000000000E+00  0.00000000000E+00  0.37882657823E+03  0.37882657823E+03  0.00000000000E+00 0.  1.
         22   -1    0    0    0    0 -0.00000000000E+00 -0.00000000000E+00 -0.78308523898E+03  0.78308523898E+03  0.00000000000E+00 0.  1.
        -24    2    1    2    0    0 -0.50336839626E+02  0.33932814448E+02 -0.53505886168E+03  0.54464835995E+03  0.81661601839E+02 0.  0.
         25    2    1    2    0    0  0.30790156174E+02 -0.67606322541E+02 -0.21500594760E+03  0.25960179432E+03  0.12508751155E+03 0.  0.
         24    2    1    2    0    0  0.19546683451E+02  0.33673508093E+02  0.34580614853E+03  0.35766166294E+03  0.82607474206E+02 0.  0.
        -13    1    5    5    0    0  0.11965356036E+02  0.58689888661E+02  0.28882997571E+03  0.29497530006E+03  0.00000000000E+00 0.  1.
         14    1    5    5    0    0  0.75813274151E+01 -0.25016380568E+02  0.56976172821E+02  0.62686362883E+02  0.00000000000E+00 0. -1.
         13    1    3    3    0    0 -0.19528568053E+02 -0.98457137197E+01 -0.32061247356E+02  0.38810135672E+02  0.00000000000E+00 0. -1.
        -14    1    3    3    0    0 -0.30808271572E+02  0.43778528168E+02 -0.50299761433E+03  0.50583822428E+03  0.00000000000E+00 0.  1.
          5    1    4    4  501    0  0.79505510622E+02 -0.42025828021E+02 -0.12544876026E+03  0.15440906803E+03  0.41800000000E+01 0. -1.
         -5    1    4    4    0  501 -0.48715354448E+02 -0.25580494520E+02 -0.89557187340E+02  0.10519272628E+03  0.41800000000E+01 0. -1.
</event>
<event>
11    1  0.6763327E-009  0.1351308E+03  0.7561462E-02  0.1113121E+00
         22   -1    0    0    0    0  0.00000000000E+00  0.00000000000E+00  0.10865450892E+04  0.10865450892E+04  0.00000000000E+00 0. -1.
         22   -1    0    0    0    0 -0.00000000000E+00 -0.00000000000E+00 -0.74827121062E+02  0.74827121062E+02  0.00000000000E+00 0. -1.
         24    2    1    2    0    0  0.43113968889E+02 -0.26404836268E+02 -0.13163382989E+02  0.97561745191E+02  0.82395326211E+02 0.  0.
         25    2    1    2    0    0 -0.66170330189E+02 -0.69548535456E+01  0.28416059691E+03  0.31753063545E+03  0.12510626292E+03 0.  0.
        -24    2    1    2    0    0  0.23056361301E+02  0.33359689814E+02  0.74072075421E+03  0.74627982962E+03  0.81374957350E+02 0.  0.
        -13    1    3    3    0    0  0.30956782128E+02  0.60104448038E+01  0.29113141731E+02  0.42918793411E+02  0.00000000000E+00 0.  1.
         14    1    3    3    0    0  0.12157186761E+02 -0.32415281072E+02 -0.42276524719E+02  0.54642951780E+02  0.00000000000E+00 0. -1.
         11    1    5    5    0    0  0.27762048235E+02 -0.11340861614E+02  0.52856287867E+03  0.52941294202E+03  0.00000000000E+00 0. -1.
        -12    1    5    5    0    0 -0.47056869338E+01  0.44700551427E+02  0.21215787554E+03  0.21686688761E+03  0.00000000000E+00 0.  1.
          5    1    4    4  501    0 -0.78395864263E+01  0.54060949462E+02  0.14120566600E+03  0.15146140724E+03  0.41800000000E+01 0.  1.
         -5    1    4    4    0  501 -0.58330743763E+02 -0.61015803007E+02  0.14295493091E+03  0.16606922821E+03  0.41800000000E+01 0.  1.
</event>
<event>
11    1  0.6763327E-009  0.1387638E+03  0.7561462E-02  0.1108947E+00
         22   -1    0    0    0    0  0.00000000000E+00  0.00000000000E+00  0.16961040350E+03  0.16961040350E+03  0.00000000000E+00 0.  1.
         22   -1    0    0    0    0 -0.00000000000E+00 -0.00000000000E+00 -0.17122686468E+04  0.17122686468E+04  0.00000000000E+00 0.  1.
        -24    2    1    2    0    0 -0.54380134510E+02 -0.32802131282E+02 -0.10101312045E+04  0.10154287006E+04  0.81836525360E+02 0.  0.
         25    2    1    2    0    0  0.58515320131E+02 -0.29564140528E+01 -0.68076047435E+03  0.69463289316E+03  0.12508896733E+03 0.  0.
         24    2    1    2    0    0 -0.41351856214E+01  0.35758545335E+02  0.14823343552E+03  0.17181745656E+03  0.79071572939E+02 0.  0.
        -11    1    5    5    0    0 -0.81599333498E+00  0.20103934784E+01  0.13561885919E+03  0.13563621380E+03  0.00000000000E+00 0.  1.
         12    1    5    5    0    0 -0.33191922864E+01  0.33748151856E+02  0.12614576329E+02  0.36181242752E+02  0.00000000000E+00 0. -1.
         11    1    3    3    0    0 -0.10134277349E+02 -0.49873129404E+02 -0.36131672620E+03  0.36488328168E+03  0.00000000000E+00 0. -1.
        -12    1    3    3    0    0 -0.44245857161E+02  0.17070998122E+02 -0.64881447831E+03  0.65054541895E+03  0.00000000000E+00 0.  1.
          5    1    4    4  501    0 -0.19071226408E+02  0.11738319677E+02 -0.23856147389E+02  0.32986178830E+02  0.41800000000E+01 0.  1.
         -5    1    4    4    0  501  0.77586546540E+02 -0.14694733730E+02 -0.65690432696E+03  0.66164671433E+03  0.41800000000E+01 0.  1.
</event>
<event>
11    1  0.6763327E-009  0.1683264E+03  0.7561462E-02  0.1079497E+00
         22   -1    0    0    0    0  0.00000000000E+00  0.00000000000E+00  0.69160630748E+03  0.69160630748E+03  0.00000000000E+00 0. -1.
         22   -1    0    0    0    0 -0.00000000000E+00 -0.00000000000E+00 -0.24592959724E+03  0.24592959724E+03  0.00000000000E+00 0.  1.
         24    2    1    2    0    0 -0.43945186953E+02 -0.10363881477E+03 -0.16110808558E+03  0.21844389502E+03  0.95340110389E+02 0.  0.
         25    2    1    2    0    0  0.35218781711E+02  0.10763568152E+03  0.81125562783E+02  0.18723001754E+03  0.12509164644E+03 0.  0.
        -24    2    1    2    0    0  0.87264052421E+01 -0.39968667535E+01  0.52565923304E+03  0.53186199216E+03  0.80420298039E+02 0.  0.
        -11    1    3    3    0    0 -0.20556262969E+02 -0.80408411281E+02 -0.16554239541E+03  0.18518195709E+03  0.00000000000E+00 0.  1.
         12    1    3    3    0    0 -0.23388923984E+02 -0.23230403490E+02  0.44343098307E+01  0.33261937934E+02  0.00000000000E+00 0. -1.
         11    1    5    5    0    0 -0.17698073860E+02 -0.14752000829E+02  0.45607135687E+03  0.45665296003E+03  0.00000000000E+00 0. -1.
        -12    1    5    5    0    0  0.26424479102E+02  0.10755134075E+02  0.69587876168E+02  0.75209032133E+02  0.00000000000E+00 0.  1.
          5    1    4    4  501    0  0.59835659950E+02  0.11886678579E+03  0.42259558398E+02  0.13968880285E+03  0.41800000000E+01 0.  1.
         -5    1    4    4    0  501 -0.24616878239E+02 -0.11231104267E+02  0.38866004386E+02  0.47541214690E+02  0.41800000000E+01 0.  1.
</event>
<event>
11    1  0.6763327E-009  0.1398039E+03  0.7561462E-02  0.1107778E+00
         22   -1    0    0    0    0  0.00000000000E+00  0.00000000000E+00  0.11645319852E+03  0.11645319852E+03  0.00000000000E+00 0.  1.
         22   -1    0    0    0    0 -0.00000000000E+00 -0.00000000000E+00 -0.33640315042E+03  0.33640315042E+03  0.00000000000E+00 0.  1.
         24    2    1    2    0    0  0.72048852692E+02  0.27835962445E+01 -0.20293359039E+03  0.22983514109E+03  0.80270569876E+02 0.  0.
         25    2    1    2    0    0 -0.24611997735E+02 -0.64573193160E+01 -0.26003999293E+02  0.13027827068E+03  0.12509505357E+03 0.  0.
        -24    2    1    2    0    0 -0.47436854956E+02  0.36737230714E+01  0.89876377876E+01  0.92742937175E+02  0.79099452043E+02 0.  0.
        -13    1    3    3    0    0  0.47418142597E+02  0.36131915462E+02 -0.15711070066E+03  0.16804097067E+03  0.00000000000E+00 0.  1.
         14    1    3    3    0    0  0.24630710095E+02 -0.33348319217E+02 -0.45822889732E+02  0.61794170419E+02  0.00000000000E+00 0. -1.
         11    1    5    5    0    0 -0.29582994754E+02  0.40896337529E+02 -0.86528615278E-01  0.50474463733E+02  0.00000000000E+00 0. -1.
        -12    1    5    5    0    0 -0.17853860202E+02 -0.37222614458E+02  0.90741664029E+01  0.42268473442E+02  0.00000000000E+00 0.  1.
          5    1    4    4  501    0  0.28098457462E+02 -0.23136072107E+02  0.33002987082E+02  0.49309945251E+02  0.41800000000E+01 0.  1.
         -5    1    4    4    0  501 -0.52710455198E+02  0.16678752791E+02 -0.59006986374E+02  0.80968325429E+02  0.41800000000E+01 0.  1.
</event>
<event>
11    1  0.6763327E-009  0.1335006E+03  0.7561462E-02  0.1115041E+00
         22   -1    0    0    0    0  0.00000000000E+00  0.00000000000E+00  0.18059875933E+03  0.18059875933E+03  0.00000000000E+00 0. -1.
         22   -1    0    0    0    0 -0.00000000000E+00 -0.00000000000E+00 -0.64356504479E+03  0.64356504479E+03  0.00000000000E+00 0. -1.
         24    2    1    2    0    0 -0.36106852615E+02  0.27837510060E+02 -0.54872754788E+03  0.55658285401E+03  0.81264505167E+02 0.  0.
         25    2    1    2    0    0  0.52471843125E+02 -0.37278380195E+02 -0.10041586421E+02  0.14103134514E+03  0.12508411131E+03 0.  0.
        -24    2    1    2    0    0 -0.16364990510E+02  0.94408701351E+01  0.95802848846E+02  0.12654960498E+03  0.80496420598E+02 0.  0.
        -11    1    3    3    0    0  0.27875569828E+01 -0.23431136753E+02 -0.24377026558E+03  0.24490963849E+03  0.00000000000E+00 0.  1.
         12    1    3    3    0    0 -0.38894409598E+02  0.51268646813E+02 -0.30495728230E+03  0.31167321552E+03  0.00000000000E+00 0. -1.
         11    1    5    5    0    0 -0.21280647251E+02  0.36454363184E+02  0.88633854925E+02  0.98172026471E+02  0.00000000000E+00 0. -1.
        -12    1    5    5    0    0  0.49156567411E+01 -0.27013493049E+02  0.71689939209E+01  0.28377578504E+02  0.00000000000E+00 0.  1.
          5    1    4    4  501    0 -0.25948084068E+02 -0.30941060107E+02  0.32033878304E+02  0.51713576810E+02  0.41800000000E+01 0.  1.
         -5    1    4    4    0  501  0.78419927194E+02 -0.63373200889E+01 -0.42075464725E+02  0.89317768326E+02  0.41800000000E+01 0.  1.
</event>
<event>
11    1  0.6763327E-009  0.1475133E+03  0.7561462E-02  0.1099447E+00
         22   -1    0    0    0    0  0.00000000000E+00  0.00000000000E+00  0.85235174029E+03  0.85235174029E+03  0.00000000000E+00 0.  1.
         22   -1    0    0    0    0 -0.00000000000E+00 -0.00000000000E+00 -0.75858247854E+03  0.75858247854E+03  0.00000000000E+00 0.  1.
         24    2    1    2    0    0 -0.34568832615E+01 -0.31652525240E+01 -0.50729445630E+03  0.51316968288E+03  0.77288350839E+02 0.  0.
         25    2    1    2    0    0  0.23108982085E+02  0.78766319327E+02 -0.22137695012E+03  0.26719710469E+03  0.12509348744E+03 0.  0.
        -24    2    1    2    0    0 -0.19652098824E+02 -0.75601066803E+02  0.82244066816E+03  0.83056743125E+03  0.85626391491E+02 0.  0.
        -13    1    3    3    0    0 -0.19642494644E+02  0.98436867133E+01 -0.46976365836E+03  0.47027717410E+03  0.00000000000E+00 0.  1.
         14    1    3    3    0    0  0.16185611383E+02 -0.13008939237E+02 -0.37530797939E+02  0.42892508784E+02  0.00000000000E+00 0. -1.
         11    1    5    5    0    0 -0.23967617763E+02 -0.82070665679E+02  0.45026988470E+03  0.45831540442E+03  0.00000000000E+00 0. -1.
        -12    1    5    5    0    0  0.43155189397E+01  0.64695988767E+01  0.37217078346E+03  0.37225202683E+03  0.00000000000E+00 0.  1.
          5    1    4    4  501    0  0.28280942623E+02  0.11164396553E+03 -0.15901003374E+03  0.19638189831E+03  0.41800000000E+01 0. -1.
         -5    1    4    4    0  501 -0.51719605380E+01 -0.32877646206E+02 -0.62366916383E+02  0.70815206382E+02  0.41800000000E+01 0. -1.
</event>
<event>
11    1  0.6763327E-009  0.1301919E+03  0.7561462E-02  0.1119033E+00
         22   -1    0    0    0    0  0.00000000000E+00  0.00000000000E+00  0.48358301630E+02  0.48358301630E+02  0.00000000000E+00 0.  1.
         22   -1    0    0    0    0 -0.00000000000E+00 -0.00000000000E+00 -0.13626493791E+04  0.13626493791E+04  0.00000000000E+00 0.  1.
         24    2    1    2    0    0 -0.15037666808E+02  0.15495268705E+02 -0.10720901579E+04  0.10751535561E+04  0.78176900602E+02 0.  0.
         25    2    1    2    0    0 -0.91597474052E+01 -0.41309501980E+02 -0.19483871472E+03  0.23537538747E+03  0.12509625233E+03 0.  0.
        -24    2    1    2    0    0  0.24197414213E+02  0.25814233275E+02 -0.47362204845E+02  0.10047873714E+03  0.81245976359E+02 0.  0.
        -11    1    3    3    0    0 -0.19809842101E+02  0.12994916217E+01 -0.10344908619E+04  0.10346813335E+04  0.00000000000E+00 0.  1.
         12    1    3    3    0    0  0.47721752928E+01  0.14195777084E+02 -0.37599295931E+02  0.40472222555E+02  0.00000000000E+00 0. -1.
         13    1    5    5    0    0  0.42572818067E+01  0.46190974550E+02 -0.54018481192E+02  0.71202014639E+02  0.00000000000E+00 0. -1.
        -14    1    5    5    0    0  0.19940132406E+02 -0.20376741275E+02  0.66562763470E+01  0.29276722497E+02  0.00000000000E+00 0.  1.
          5    1    4    4  501    0  0.46536385327E+02 -0.80026311914E+01 -0.14752697425E+03  0.15495598665E+03  0.41800000000E+01 0.  1.
         -5    1    4    4    0  501 -0.55696132732E+02 -0.33306870789E+02 -0.47311740462E+02  0.80419400822E+02  0.41800000000E+01 0.  1.
</event>
<event>
11    1  0.6763327E-009  0.1605694E+03  0.7561462E-02  0.1086543E+00
         22   -1    0    0    0    0  0.00000000000E+00  0.00000000000E+00  0.23898684130E+04  0.23898684130E+04  0.00000000000E+00 0. -1.
         22   -1    0    0    0    0 -0.00000000000E+00 -0.00000000000E+00 -0.98326158220E+03  0.98326158220E+03  0.00000000000E+00 0.  1.
         24    2    1    2    0    0  0.71187651644E+02 -0.71502803777E+02 -0.96843247466E+03  0.97701519370E+03  0.80727306671E+02 0.  0.
         25    2    1    2    0    0 -0.19996670470E+02  0.77371829176E+02  0.58371295381E+03  0.60229185225E+03  0.12509354922E+03 0.  0.
        -24    2    1    2    0    0 -0.51190981174E+02 -0.58690253985E+01  0.17913263517E+04  0.17938229493E+04  0.79345530013E+02 0.  0.
        -13    1    3    3    0    0  0.82416957546E+02 -0.65629589887E+02 -0.94000928300E+03  0.94589494665E+03  0.00000000000E+00 0.  1.
         14    1    3    3    0    0 -0.11229305902E+02 -0.58732138898E+01 -0.28423191657E+02  0.31120247050E+02  0.00000000000E+00 0. -1.
         13    1    5    5    0    0 -0.67935458164E+02  0.13140654713E+02  0.13433586164E+04  0.13451395004E+04  0.00000000000E+00 0. -1.
        -14    1    5    5    0    0  0.16744476990E+02 -0.19009680112E+02  0.44796773525E+03  0.44868344885E+03  0.00000000000E+00 0.  1.
          5    1    4    4  501    0  0.39345654174E+01  0.97693148712E+02  0.53706254720E+03  0.54590574655E+03  0.41800000000E+01 0. -1.
         -5    1    4    4    0  501 -0.23931235887E+02 -0.20321319536E+02  0.46650406615E+02  0.56386105701E+02  0.41800000000E+01 0. -1.
</event>
<event>
11    1  0.6763327E-009  0.1712940E+03  0.7561462E-02  0.1076911E+00
         22   -1    0    0    0    0  0.00000000000E+00  0.00000000000E+00  0.20090351481E+03  0.20090351481E+03  0.00000000000E+00 0.  1.
         22   -1    0    0    0    0 -0.00000000000E+00 -0.00000000000E+00 -0.72762898189E+03  0.72762898189E+03  0.00000000000E+00 0.  1.
        -24    2    1    2    0    0 -0.16786517761E+02  0.11116085873E+03 -0.57291988319E+03  0.58949821786E+03  0.81439748393E+02 0.  0.
         25    2    1    2    0    0  0.26551202873E+02 -0.16199828159E+03 -0.40534556072E+02  0.21033031732E+03  0.12508949811E+03 0.  0.
         24    2    1    2    0    0 -0.97646851122E+01  0.50837422853E+02  0.86728972177E+02  0.12870396151E+03  0.79768430203E+02 0.  0.
        -11    1    5    5    0    0 -0.31197666964E+02  0.40837697696E+02  0.91154065815E+02  0.10464260935E+03  0.00000000000E+00 0.  1.
         12    1    5    5    0    0  0.21432981852E+02  0.99997251575E+01 -0.44250936374E+01  0.24061352165E+02  0.00000000000E+00 0. -1.
         13    1    3    3    0    0  0.30166471624E+02  0.36683263622E+02 -0.26571201863E+03  0.26992323850E+03  0.00000000000E+00 0. -1.
        -14    1    3    3    0    0 -0.46952989385E+02  0.74477595113E+02 -0.30720786456E+03  0.31957497936E+03  0.00000000000E+00 0.  1.
          5    1    4    4  501    0 -0.14485329234E+02 -0.13413006788E+03 -0.70448082234E+02  0.15225342217E+03  0.41800000000E+01 0. -1.
         -5    1    4    4    0  501  0.41036532107E+02 -0.27868213707E+02  0.29913526161E+02  0.58076895148E+02  0.41800000000E+01 0. -1.
</event>
<event>
11    1  0.6763327E-009  0.1402558E+03  0.7561462E-02  0.1107273E+00
         22   -1    0    0    0    0  0.00000000000E+00  0.00000000000E+00  0.17914549695E+03  0.17914549695E+03  0.00000000000E+00 0.  1.
         22   -1    0    0    0    0 -0.00000000000E+00 -0.00000000000E+00 -0.19149264466E+04  0.19149264466E+04  0.00000000000E+00 0. -1.
        -24    2    1    2    0    0  0.18466934788E+02 -0.61136215207E+02 -0.17533879803E+04  0.17563718945E+04  0.79963478476E+02 0.  0.
         25    2    1    2    0    0 -0.38244899201E+02  0.44561846794E+02 -0.11472208333E+03  0.17960598245E+03  0.12509485211E+03 0.  0.
         24    2    1    2    0    0  0.19777964413E+02  0.16574368413E+02  0.13232911395E+03  0.15809406662E+03  0.82564289721E+02 0.  0.
        -13    1    5    5    0    0  0.39817582955E+02  0.14801426723E+02  0.25840480653E+02  0.49721751637E+02  0.00000000000E+00 0.  1.
         14    1    5    5    0    0 -0.20039618542E+02  0.17729416897E+01  0.10648863329E+03  0.10837231498E+03  0.00000000000E+00 0. -1.
         13    1    3    3    0    0  0.85528266278E+01 -0.71084039619E+02 -0.89178185723E+03  0.89465131332E+03  0.00000000000E+00 0. -1.
        -14    1    3    3    0    0  0.99141081599E+01  0.99478244123E+01 -0.86160612303E+03  0.86172058116E+03  0.00000000000E+00 0.  1.
          5    1    4    4  501    0  0.25390816141E+02 -0.26608836445E+02 -0.56995840998E+02  0.67961180187E+02  0.41800000000E+01 0.  1.
         -5    1    4    4    0  501 -0.63635715342E+02  0.71170683239E+02 -0.57726242331E+02  0.11164480227E+03  0.41800000000E+01 0.  1.
</event>
<event>
11    1  0.6763327E-009  0.1518437E+03  0.7561462E-02  0.1095010E+00
         22   -1    0    0    0    0  0.00000000000E+00  0.00000000000E+00  0.37579476403E+03  0.37579476403E+03  0.00000000000E+00 0. -1.
         22   -1    0    0    0    0 -0.00000000000E+00 -0.00000000000E+00 -0.22217125891E+04  0.22217125891E+04  0.00000000000E+00 0. -1.
         24    2    1    2    0    0  0.34260041941E+01  0.46513653876E+02 -0.18824618926E+04  0.18849934890E+04  0.85804540024E+02 0.  0.
         25    2    1    2    0    0  0.69083759471E+01 -0.13065104789E+03 -0.30341779095E+03  0.35330984193E+03  0.12509223224E+03 0.  0.
        -24    2    1    2    0    0 -0.10334380141E+02  0.84137394013E+02  0.33996185842E+03  0.35920402223E+03  0.79167947598E+02 0.  0.
        -11    1    3    3    0    0 -0.22990806605E+02 -0.16474352095E+02 -0.68691697842E+03  0.68749903033E+03  0.00000000000E+00 0.  1.
         12    1    3    3    0    0  0.26416810799E+02  0.62988005971E+02 -0.11955449141E+04  0.11974944587E+04  0.00000000000E+00 0. -1.
         11    1    5    5    0    0 -0.41440734497E+02  0.53137397291E+02  0.25248025926E+03  0.26131819451E+03  0.00000000000E+00 0. -1.
        -12    1    5    5    0    0  0.31106354356E+02  0.30999996722E+02  0.87481599157E+02  0.97885827724E+02  0.00000000000E+00 0.  1.
          5    1    4    4  501    0 -0.42275840120E+02 -0.15893328237E+01 -0.62736780069E+02  0.75783564248E+02  0.41800000000E+01 0. -1.
         -5    1    4    4    0  501  0.49184216067E+02 -0.12906171507E+03 -0.24068101088E+03  0.27752627768E+03  0.41800000000E+01 0. -1.
</event>
<event>
11    1  0.6763327E-009  0.1312449E+03  0.7561462E-02  0.1117749E+00
         22   -1    0    0    0    0  0.00000000000E+00  0.00000000000E+00  0.49564929942E+02  0.49564929942E+02  0.00000000000E+00 0. -1.
         22   -1    0    0    0    0 -0.00000000000E+00 -0.00000000000E+00 -0.59209236960E+03  0.59209236960E+03  0.00000000000E+00 0. -1.
        -24    2    1    2    0    0 -0.34046662974E+02 -0.19211600136E+02 -0.29642212303E+03  0.30965169267E+03  0.80559511628E+02 0.  0.
         25    2    1    2    0    0  0.43615227735E+02  0.55877005294E+01 -0.20095648352E+03  0.24075874545E+03  0.12509098590E+03 0.  0.
         24    2    1    2    0    0 -0.95685647610E+01  0.13623899607E+02 -0.45148833111E+02  0.91246861426E+02  0.77526798701E+02 0.  0.
        -11    1    5    5    0    0 -0.71110847501E+01  0.15597292186E+01 -0.66340245630E+02  0.66738508163E+02  0.00000000000E+00 0.  1.
         12    1    5    5    0    0 -0.24574800110E+01  0.12064170388E+02  0.21191412519E+02  0.24508353264E+02  0.00000000000E+00 0. -1.
         11    1    3    3    0    0  0.22409409185E+02 -0.36512413536E+01 -0.15392465694E+03  0.15559020919E+03  0.00000000000E+00 0. -1.
        -12    1    3    3    0    0 -0.56456072159E+02 -0.15560358782E+02 -0.14249746610E+03  0.15406148348E+03  0.00000000000E+00 0.  1.
          5    1    4    4  501    0  0.77830874880E+02  0.36403985968E+02 -0.13867923025E+03  0.16319404579E+03  0.41800000000E+01 0.  1.
         -5    1    4    4    0  501 -0.34215647145E+02 -0.30816285438E+02 -0.62277253271E+02  0.77564699656E+02  0.41800000000E+01 0.  1.
</event>
<event>
11    1  0.6763327E-009  0.1429279E+03  0.7561462E-02  0.1104332E+00
         22   -1    0    0    0    0  0.00000000000E+00  0.00000000000E+00  0.23280127615E+03  0.23280127615E+03  0.00000000000E+00 0. -1.
         22   -1    0    0    0    0 -0.00000000000E+00 -0.00000000000E+00 -0.15036669721E+04  0.15036669721E+04  0.00000000000E+00 0.  1.
        -24    2    1    2    0    0  0.36829162737E+02  0.10821271514E+02 -0.95131490193E+03  0.95528069009E+03  0.78023503395E+02 0.  0.
         25    2    1    2    0    0 -0.63784239115E+02 -0.73861792845E+02 -0.52574235800E+03  0.54916052483E+03  0.12509301110E+03 0.  0.
         24    2    1    2    0    0  0.26955076379E+02  0.63040521331E+02  0.20619156401E+03  0.23202703331E+03  0.81368910802E+02 0.  0.
        -13    1    5    5    0    0  0.56409280725E+01 -0.10335019687E+02 -0.37653392288E+00  0.11780258029E+02  0.00000000000E+00 0.  1.
         14    1    5    5    0    0  0.21314148306E+02  0.73375541017E+02  0.20656809793E+03  0.22024677528E+03  0.00000000000E+00 0. -1.
         13    1    3    3    0    0  0.25157450234E+02  0.21186547234E+02 -0.13984568955E+03  0.14366135170E+03  0.00000000000E+00 0. -1.
        -14    1    3    3    0    0  0.11671712503E+02 -0.10365275719E+02 -0.81146921238E+03  0.81161933839E+03  0.00000000000E+00 0.  1.
          5    1    4    4  501    0 -0.61767335844E+02 -0.22981626562E+02 -0.96761213345E+02  0.11714761519E+03  0.41800000000E+01 0. -1.
         -5    1    4    4    0  501 -0.20169032715E+01 -0.50880166283E+02 -0.42898114466E+03  0.43201290964E+03  0.41800000000E+01 0. -1.
</event>
<event>
11    1  0.6763327E-009  0.1366799E+03  0.7561462E-02  0.1111323E+00
         22   -1    0    0    0    0  0.00000000000E+00  0.00000000000E+00  0.36851346864E+04  0.36851346864E+04  0.00000000000E+00 0. -1.
         22   -1    0    0    0    0 -0.00000000000E+00 -0.00000000000E+00 -0.17545533046E+03  0.17545533046E+03  0.00000000000E+00 0.  1.
         24    2    1    2    0    0  0.45480066134E+02 -0.38015527119E+01 -0.10767783747E+03  0.14153962025E+03  0.79724896996E+02 0.  0.
         25    2    1    2    0    0 -0.15931122635E+02 -0.43114143101E+02  0.38321245188E+02  0.13866622774E+03  0.12508866806E+03 0.  0.
        -24    2    1    2    0    0 -0.29548943499E+02  0.46915695813E+02  0.35790359482E+04  0.35803841689E+04  0.81106444735E+02 0.  0.
        -13    1    3    3    0    0  0.47472686111E+02 -0.23334852680E+01 -0.11994827784E+03  0.12902205407E+03  0.00000000000E+00 0.  1.
         14    1    3    3    0    0 -0.19926199766E+01 -0.14680674439E+01  0.12270440368E+02  0.12517566185E+02  0.00000000000E+00 0. -1.
         13    1    5    5    0    0 -0.22079844996E+02  0.66760098542E+02  0.31866822536E+04  0.31874579551E+04  0.00000000000E+00 0. -1.
        -14    1    5    5    0    0 -0.74690985031E+01 -0.19844402729E+02  0.39235369461E+03  0.39292621372E+03  0.00000000000E+00 0.  1.
          5    1    4    4  501    0  0.36619821886E+02  0.25859632025E+02  0.36024835226E+01  0.45168376227E+02  0.41800000000E+01 0.  1.
         -5    1    4    4    0  501 -0.52550944522E+02 -0.68973775126E+02  0.34718761665E+02  0.93497851509E+02  0.41800000000E+01 0.  1.
</event>
<event>
11    1  0.6763327E-009  0.1453663E+03  0.7561462E-02  0.1101710E+00
         22   -1    0    0    0    0  0.00000000000E+00  0.00000000000E+00  0.84814787747E+03  0.84814787747E+03  0.00000000000E+00 0.  1.
         22   -1    0    0    0    0 -0.00000000000E+00 -0.00000000000E+00 -0.16461820281E+03  0.16461820281E+03  0.00000000000E+00 0.  1.
         24    2    1    2    0    0  0.73544219017E+02 -0.85356860708E+00 -0.10255896444E+03  0.14946905584E+03  0.80082312266E+02 0.  0.
         25    2    1    2    0    0 -0.75097979948E+02  0.50230938213E+02  0.13366131579E+03  0.20414615589E+03  0.12508977527E+03 0.  0.
        -24    2    1    2    0    0  0.15537609307E+01 -0.49377369606E+02  0.65242732331E+03  0.65915086855E+03  0.79861858899E+02 0.  0.
        -13    1    3    3    0    0  0.48478713197E+02 -0.13936296331E+02 -0.10932115118E+03  0.12039734251E+03  0.00000000000E+00 0.  1.
         14    1    3    3    0    0  0.25065505820E+02  0.13082727724E+02  0.67621867379E+01  0.29071713335E+02  0.00000000000E+00 0. -1.
         13    1    5    5    0    0 -0.86839079196E+01  0.20984725445E+02  0.14570045646E+03  0.14745979782E+03  0.00000000000E+00 0. -1.
        -14    1    5    5    0    0  0.10237668850E+02 -0.70362095051E+02  0.50672686684E+03  0.51169107073E+03  0.00000000000E+00 0.  1.
          5    1    4    4  501    0 -0.54389821041E+02 -0.34861549440E+02  0.41260629573E+02  0.76769083719E+02  0.41800000000E+01 0.  1.
         -5    1    4    4    0  501 -0.20708158907E+02  0.85092487653E+02  0.92400686220E+02  0.12737707217E+03  0.41800000000E+01 0.  1.
</event>
<event>
11    1  0.6763327E-009  0.1375314E+03  0.7561462E-02  0.1110347E+00
         22   -1    0    0    0    0  0.00000000000E+00  0.00000000000E+00  0.46482281587E+02  0.46482281587E+02  0.00000000000E+00 0.  1.
         22   -1    0    0    0    0 -0.00000000000E+00 -0.00000000000E+00 -0.13769432546E+04  0.13769432546E+04  0.00000000000E+00 0.  1.
         24    2    1    2    0    0 -0.10806717535E+02  0.48890312807E+01 -0.86072190165E+03  0.86445937778E+03  0.79417479673E+02 0.  0.
         25    2    1    2    0    0  0.21234491173E+02  0.51708682614E+02 -0.43148574366E+03  0.45271490195E+03  0.12508454738E+03 0.  0.
        -24    2    1    2    0    0 -0.10427773638E+02 -0.56597713894E+02 -0.38253327682E+02  0.10625125644E+03  0.80709186185E+02 0.  0.
        -11    1    3    3    0    0 -0.38757868023E+02 -0.11682240264E+02 -0.64871254971E+03  0.64997432197E+03  0.00000000000E+00 0.  1.
         12    1    3    3    0    0  0.27951150488E+02  0.16571271545E+02 -0.21200935194E+03  0.21448505580E+03  0.00000000000E+00 0. -1.
         11    1    5    5    0    0 -0.26442253331E+02 -0.15627084398E+02 -0.51801532473E+02  0.60222896763E+02  0.00000000000E+00 0. -1.
        -12    1    5    5    0    0  0.16014479693E+02 -0.40970629497E+02  0.13548204792E+02  0.46028359674E+02  0.00000000000E+00 0.  1.
          5    1    4    4  501    0  0.37502744120E+02  0.24836264423E+02 -0.41188172871E+02  0.61132919376E+02  0.41800000000E+01 0. -1.
         -5    1    4    4    0  501 -0.16268252946E+02  0.26872418191E+02 -0.39029757079E+03  0.39158198257E+03  0.41800000000E+01 0. -1.
</event>
<event>
11    1  0.6763327E-009  0.1294795E+03  0.7561462E-02  0.1119910E+00
         22   -1    0    0    0    0  0.00000000000E+00  0.00000000000E+00  0.73615596365E+03  0.73615596365E+03  0.00000000000E+00 0. -1.
         22   -1    0    0    0    0 -0.00000000000E+00 -0.00000000000E+00 -0.14725992543E+03  0.14725992543E+03  0.00000000000E+00 0.  1.
         24    2    1    2    0    0 -0.55161313361E+01  0.35600253664E+02 -0.10863900205E+03  0.14085077029E+03  0.82089591050E+02 0.  0.
         25    2    1    2    0    0  0.66062149463E+01  0.15528526632E+01  0.19133847776E+03  0.22870103241E+03  0.12509074996E+03 0.  0.
        -24    2    1    2    0    0 -0.10900836102E+01 -0.37153106328E+02  0.50619656251E+03  0.51386408638E+03  0.80248350703E+02 0.  0.
        -11    1    3    3    0    0 -0.19513061230E+02  0.58269991294E+02 -0.63015190543E+02  0.88017416931E+02  0.00000000000E+00 0.  1.
         12    1    3    3    0    0  0.13996929894E+02 -0.22669737630E+02 -0.45623811506E+02  0.52833353358E+02  0.00000000000E+00 0. -1.
         11    1    5    5    0    0 -0.91570089209E+01 -0.42734434500E+02  0.50073106869E+03  0.50263474398E+03  0.00000000000E+00 0. -1.
        -12    1    5    5    0    0  0.80669253106E+01  0.55813281726E+01  0.54654938124E+01  0.11229342401E+02  0.00000000000E+00 0.  1.
          5    1    4    4  501    0 -0.55739749170E+02  0.19837819348E+02  0.10460705734E+03  0.12025210002E+03  0.41800000000E+01 0. -1.
         -5    1    4    4    0  501  0.62345964117E+02 -0.18284966685E+02  0.86731420417E+02  0.10844893239E+03  0.41800000000E+01 0. -1.
</event>
<event>
11    1  0.6763327E-009  0.1356487E+03  0.7561462E-02  0.1112517E+00
         22   -1    0    0    0    0  0.00000000000E+00  0.00000000000E+00  0.71776413979E+03  0.71776413979E+03  0.00000000000E+00 0.  1.
         22   -1    0    0    0    0 -0.00000000000E+00 -0.00000000000E+00 -0.23841977042E+03  0.23841977042E+03  0.00000000000E+00 0.  1.
        -24    2    1    2    0    0 -0.14593415792E+02  0.54291780240E+01 -0.20866517352E+03  0.22438584545E+03  0.81027212954E+02 0.  0.
         25    2    1    2    0    0  0.57327115354E+02  0.19921212058E+02  0.28813523546E+03  0.31992562646E+03  0.12508892720E+03 0.  0.
         24    2    1    2    0    0 -0.42733699562E+02 -0.25350390082E+02  0.39987430743E+03  0.41187243831E+03  0.85268003008E+02 0.  0.
        -11    1    5    5    0    0 -0.41884840054E+02  0.23993383903E+02  0.16756882138E+03  0.17438271760E+03  0.00000000000E+00 0.  1.
         12    1    5    5    0    0 -0.84885950775E+00 -0.49343773985E+02  0.23230548605E+03  0.23748972070E+03  0.00000000000E+00 0. -1.
         11    1    3    3    0    0 -0.12278360769E+02  0.40260519368E+02 -0.72649115503E+02  0.83961667124E+02  0.00000000000E+00 0. -1.
        -12    1    3    3    0    0 -0.23150550236E+01 -0.34831341344E+02 -0.13601605801E+03  0.14042417832E+03  0.00000000000E+00 0.  1.
          5    1    4    4  501    0  0.74906296909E+02  0.92427036852E+01  0.28919438850E+03  0.29891009957E+03  0.41800000000E+01 0. -1.
         -5    1    4    4    0  501 -0.17579181555E+02  0.10678508373E+02 -0.10591530369E+01  0.21015526888E+02  0.41800000000E+01 0. -1.
</event>
<event>
11    1  0.6763327E-009  0.2080010E+03  0.7561462E-02  0.1049006E+00
         22   -1    0    0    0    0  0.00000000000E+00  0.00000000000E+00  0.19214615732E+04  0.19214615732E+04  0.00000000000E+00 0. -1.
         22   -1    0    0    0    0 -0.00000000000E+00 -0.00000000000E+00 -0.18112136752E+03  0.18112136752E+03  0.00000000000E+00 0. -1.
        -24    2    1    2    0    0 -0.96961642579E+01 -0.61152573304E+02 -0.13812756176E+03  0.17149446140E+03  0.80606911294E+02 0.  0.
         25    2    1    2    0    0 -0.12354185026E+03 -0.56136739247E+02  0.40779974126E+03  0.44761779383E+03  0.12508852117E+03 0.  0.
         24    2    1    2    0    0  0.13323801452E+03  0.11728931255E+03  0.14706680262E+04  0.14834706855E+04  0.79446082950E+02 0.  0.
        -11    1    5    5    0    0 -0.36731995833E+01  0.61678324918E+01  0.25297719965E+03  0.25307903528E+03  0.00000000000E+00 0.  1.
         12    1    5    5    0    0  0.13691121410E+03  0.11112148006E+03  0.12176908266E+04  0.12303916502E+04  0.00000000000E+00 0. -1.
         11    1    3    3    0    0  0.18944172839E+01 -0.36785129635E+02 -0.13969101857E+03  0.14446561960E+03  0.00000000000E+00 0. -1.
        -12    1    3    3    0    0 -0.11590581542E+02 -0.24367443669E+02  0.15634568065E+01  0.27028841792E+02  0.00000000000E+00 0.  1.
          5    1    4    4  501    0 -0.84446838455E+02  0.17452343673E+02  0.29462117338E+03  0.30700970836E+03  0.41800000000E+01 0.  1.
         -5    1    4    4    0  501 -0.39095011804E+02 -0.73589082920E+02  0.11317856788E+03  0.14060808547E+03  0.41800000000E+01 0.  1.
</event>
<event>
11    1  0.6763327E-009  0.2132976E+03  0.7561462E-02  0.1045499E+00
         22   -1    0    0    0    0  0.00000000000E+00  0.00000000000E+00  0.84655510813E+03  0.84655510813E+03  0.00000000000E+00 0. -1.
         22   -1    0    0    0    0 -0.00000000000E+00 -0.00000000000E+00 -0.40450834940E+03  0.40450834940E+03  0.00000000000E+00 0.  1.
        -24    2    1    2    0    0 -0.13172947775E+03 -0.11088648222E+03 -0.35059082940E+03  0.39872417825E+03  0.80115999770E+02 0.  0.
         25    2    1    2    0    0  0.13286848912E+03  0.12908008320E+03  0.48197501401E+03  0.53128689370E+03  0.12510054358E+03 0.  0.
         24    2    1    2    0    0 -0.11390113669E+01 -0.18193600971E+02  0.31066257411E+03  0.32105238558E+03  0.78937284398E+02 0.  0.
        -11    1    5    5    0    0 -0.16141757743E+02  0.16945354811E+02  0.31261714894E+02  0.39051199864E+02  0.00000000000E+00 0.  1.
         12    1    5    5    0    0  0.15002746376E+02 -0.35138955783E+02  0.27940085922E+03  0.28200118571E+03  0.00000000000E+00 0. -1.
         11    1    3    3    0    0 -0.85412154333E+02 -0.35387429216E+02 -0.11845076622E+03  0.15026007544E+03  0.00000000000E+00 0. -1.
        -12    1    3    3    0    0 -0.46317323417E+02 -0.75499053008E+02 -0.23214006318E+03  0.24846410281E+03  0.00000000000E+00 0.  1.
          5    1    4    4  501    0 -0.10440281613E+02  0.32854103239E+02  0.18098650408E+03  0.18428776041E+03  0.41800000000E+01 0. -1.
         -5    1    4    4    0  501  0.14330877073E+03  0.96225979956E+02  0.30098850994E+03  0.34699913329E+03  0.41800000000E+01 0. -1.
</event>
<event>
11    1  0.6763327E-009  0.1387707E+03  0.7561462E-02  0.1108939E+00
         22   -1    0    0    0    0  0.00000000000E+00  0.00000000000E+00  0.39026436340E+03  0.39026436340E+03  0.00000000000E+00 0.  1.
         22   -1    0    0    0    0 -0.00000000000E+00 -0.00000000000E+00 -0.17335509905E+03  0.17335509905E+03  0.00000000000E+00 0.  1.
         24    2    1    2    0    0  0.12537348856E+02 -0.32407479367E+02 -0.11605351994E+03  0.14647497941E+03  0.82335109558E+02 0.  0.
         25    2    1    2    0    0  0.33052454576E+01  0.80370701412E+02  0.17112119468E+03  0.22671239883E+03  0.12508266954E+03 0.  0.
        -24    2    1    2    0    0 -0.15842594314E+02 -0.47963222045E+02  0.16184158962E+03  0.19043208422E+03  0.86719202631E+02 0.  0.
        -11    1    3    3    0    0  0.10235420350E+02 -0.15779281923E+02 -0.12570981302E+03  0.12710903452E+03  0.00000000000E+00 0.  1.
         12    1    3    3    0    0  0.23019285063E+01 -0.16628197444E+02  0.96562930811E+01  0.19365944881E+02  0.00000000000E+00 0. -1.
         13    1    5    5    0    0  0.19057927939E+01 -0.10554892971E+02 -0.93963677915E+01  0.14259366728E+02  0.00000000000E+00 0. -1.
        -14    1    5    5    0    0 -0.17748387108E+02 -0.37408329074E+02  0.17123795741E+03  0.17617271749E+03  0.00000000000E+00 0.  1.
          5    1    4    4  501    0 -0.52148536344E+02  0.52027738039E+02  0.13693201880E+03  0.15554486665E+03  0.41800000000E+01 0. -1.
         -5    1    4    4    0  501  0.55453781802E+02  0.28342963373E+02  0.34189175877E+02  0.71167532176E+02  0.41800000000E+01 0. -1.
</event>
<event>
11    1  0.6763327E-009  0.2165143E+03  0.7561462E-02  0.1043423E+00
         22   -1    0    0    0    0  0.00000000000E+00  0.00000000000E+00  0.47663317304E+03  0.47663317304E+03  0.00000000000E+00 0. -1.
         22   -1    0    0    0    0 -0.00000000000E+00 -0.00000000000E+00 -0.90537708008E+03  0.90537708008E+03  0.00000000000E+00 0.  1.
         24    2    1    2    0    0 -0.81349172599E+02 -0.18246667145E+03 -0.72185381712E+03  0.75293490840E+03  0.76982263690E+02 0.  0.
         25    2    1    2    0    0  0.14180352115E+02  0.11304356770E+03 -0.11357613674E+03  0.20377999828E+03  0.12508724266E+03 0.  0.
        -24    2    1    2    0    0  0.67168820484E+02  0.69423103746E+02  0.40668604683E+03  0.42529534644E+03  0.78430690677E+02 0.  0.
        -11    1    3    3    0    0 -0.30908105872E+02 -0.15135618780E+03 -0.50176951306E+03  0.52501109591E+03  0.00000000000E+00 0.  1.
         12    1    3    3    0    0 -0.50441066727E+02 -0.31110483653E+02 -0.22008430407E+03  0.22792381249E+03  0.00000000000E+00 0. -1.
         11    1    5    5    0    0  0.69713649362E+02  0.52458933000E+02  0.39504454787E+03  0.40456412021E+03  0.00000000000E+00 0. -1.
        -12    1    5    5    0    0 -0.25448288775E+01  0.16964170746E+02  0.11641498962E+02  0.20731226234E+02  0.00000000000E+00 0.  1.
          5    1    4    4  501    0  0.16685005377E+02 -0.60400224723E+01 -0.76973424507E+02  0.79102792342E+02  0.41800000000E+01 0. -1.
         -5    1    4    4    0  501 -0.25046532625E+01  0.11908359017E+03 -0.36602712237E+02  0.12467720594E+03  0.41800000000E+01 0. -1.
</event>
<event>
11    1  0.6763327E-009  0.1557527E+03  0.7561462E-02  0.1091141E+00
         22   -1    0    0    0    0  0.00000000000E+00  0.00000000000E+00  0.38311808917E+03  0.38311808917E+03  0.00000000000E+00 0.  1.
         22   -1    0    0    0    0 -0.00000000000E+00 -0.00000000000E+00 -0.21691790483E+03  0.21691790483E+03  0.00000000000E+00 0. -1.
        -24    2    1    2    0    0 -0.33789346478E+02  0.85770745519E+02 -0.15535905582E+03  0.19759068578E+03  0.80045625471E+02 0.  0.
         25    2    1    2    0    0  0.51546309889E+02 -0.86432606917E+02  0.20147105326E+03  0.25761575658E+03  0.12509066766E+03 0.  0.
         24    2    1    2    0    0 -0.17756963412E+02  0.66186139815E+00  0.12008818690E+03  0.14482955165E+03  0.78985306150E+02 0.  0.
        -11    1    5    5    0    0 -0.23728474659E+02  0.70438056585E+01  0.12958227529E+03  0.13192506122E+03  0.00000000000E+00 0.  1.
         12    1    5    5    0    0  0.59715112471E+01 -0.63819442603E+01 -0.94940883854E+01  0.12904490435E+02  0.00000000000E+00 0. -1.
         11    1    3    3    0    0 -0.51376948483E+01  0.91823572950E+02 -0.12720142480E+03  0.15696549598E+03  0.00000000000E+00 0. -1.
        -12    1    3    3    0    0 -0.28651651629E+02 -0.60528274307E+01 -0.28157631021E+02  0.40625189793E+02  0.00000000000E+00 0.  1.
          5    1    4    4  501    0  0.72684841907E+02 -0.35844187811E+01  0.11331164707E+03  0.13473283217E+03  0.41800000000E+01 0. -1.
         -5    1    4    4    0  501 -0.21138532017E+02 -0.82848188136E+02  0.88159406188E+02  0.12288292441E+03  0.41800000000E+01 0. -1.
</event>
<event>
11    1  0.6763327E-009  0.1307431E+03  0.7561462E-02  0.1118359E+00
         22   -1    0    0    0    0  0.00000000000E+00  0.00000000000E+00  0.11344395912E+04  0.11344395912E+04  0.00000000000E+00 0. -1.
         22   -1    0    0    0    0 -0.00000000000E+00 -0.00000000000E+00 -0.26829872476E+03  0.26829872476E+03  0.00000000000E+00 0. -1.
        -24    2    1    2    0    0 -0.26315784067E+02 -0.18716620786E+02 -0.13498322607E+03  0.17008565268E+03  0.98314930417E+02 0.  0.
         25    2    1    2    0    0  0.24473679604E+02  0.49521841520E+02 -0.73052649064E+02  0.15503787105E+03  0.12509467672E+03 0.  0.
         24    2    1    2    0    0  0.18421044636E+01 -0.30805220734E+02  0.10741767415E+04  0.10776147922E+04  0.80284576908E+02 0.  0.
        -13    1    5    5    0    0 -0.30799011988E+02 -0.21994542749E+02  0.26038590589E+03  0.26312194708E+03  0.00000000000E+00 0.  1.
         14    1    5    5    0    0  0.32641116452E+02 -0.88106779844E+01  0.81379083565E+03  0.81449284510E+03  0.00000000000E+00 0. -1.
         11    1    3    3    0    0  0.26061591559E+02 -0.12302895246E+02 -0.10606913758E+03  0.10991464749E+03  0.00000000000E+00 0. -1.
        -12    1    3    3    0    0 -0.52377375626E+02 -0.64137255397E+01 -0.28914088498E+02  0.60171005198E+02  0.00000000000E+00 0.  1.
          5    1    4    4  501    0 -0.31815080218E+02  0.56115494970E+02 -0.73927792466E+02  0.98203559019E+02  0.41800000000E+01 0.  1.
         -5    1    4    4    0  501  0.56288759822E+02 -0.65936534501E+01  0.87514340242E+00  0.56834312031E+02  0.41800000000E+01 0.  1.
</event>
<event>
11    1  0.6763327E-009  0.2040882E+03  0.7561462E-02  0.1051670E+00
         22   -1    0    0    0    0  0.00000000000E+00  0.00000000000E+00  0.80856332596E+03  0.80856332596E+03  0.00000000000E+00 0.  1.
         22   -1    0    0    0    0 -0.00000000000E+00 -0.00000000000E+00 -0.56584276033E+03  0.56584276033E+03  0.00000000000E+00 0. -1.
        -24    2    1    2    0    0  0.28481552382E+02 -0.11413390889E+03 -0.46594587318E+03  0.48783241527E+03  0.83887786209E+02 0.  0.
         25    2    1    2    0    0 -0.55446469014E+02 -0.60957492605E+02 -0.18052578126E+01  0.14980113561E+03  0.12508794683E+03 0.  0.
         24    2    1    2    0    0  0.26964916632E+02  0.17509140149E+03  0.71047169663E+03  0.73677253541E+03  0.81729013349E+02 0.  0.
        -11    1    5    5    0    0  0.53256983707E+02  0.13002778837E+03  0.46257351265E+03  0.48344367476E+03  0.00000000000E+00 0.  1.
         12    1    5    5    0    0 -0.26292067075E+02  0.45063613121E+02  0.24789818398E+03  0.25332886065E+03  0.00000000000E+00 0. -1.
         13    1    3    3    0    0  0.32406122030E+02 -0.12685566250E+03 -0.41417223155E+03  0.43437443898E+03  0.00000000000E+00 0. -1.
        -14    1    3    3    0    0 -0.39245696484E+01  0.12721753609E+02 -0.51773641626E+02  0.53457976290E+02  0.00000000000E+00 0.  1.
          5    1    4    4  501    0 -0.46814834944E+02 -0.99428038633E+02 -0.44278691494E+01  0.11006653471E+03  0.41800000000E+01 0. -1.
         -5    1    4    4    0  501 -0.86316340697E+01  0.38470546028E+02  0.26226113369E+01  0.39734600899E+02  0.41800000000E+01 0. -1.
</event>
<event>
11    1  0.6763327E-009  0.4353101E+03  0.7561462E-02  0.9550960E-01
         22   -1    0    0    0    0  0.00000000000E+00  0.00000000000E+00  0.83331857730E+03  0.83331857730E+03  0.00000000000E+00 0.  1.
         22   -1    0    0    0    0 -0.00000000000E+00 -0.00000000000E+00 -0.32630498137E+04  0.32630498137E+04  0.00000000000E+00 0. -1.
        -24    2    1    2    0    0  0.10247331099E+03  0.22577251097E+03 -0.24803847332E+04  0.24940693463E+04  0.81237142675E+02 0.  0.
         25    2    1    2    0    0 -0.33637203809E+03  0.13150767614E+03 -0.66392189559E+03  0.76608184715E+03  0.12509474890E+03 0.  0.
         24    2    1    2    0    0  0.23389872710E+03 -0.35728018711E+03  0.71457539233E+03  0.83621719759E+03  0.79268301277E+02 0.  0.
        -13    1    5    5    0    0  0.22967348610E+03 -0.34853864817E+03  0.66094039366E+03  0.78171049849E+03  0.00000000000E+00 0.  1.
         14    1    5    5    0    0  0.42252410020E+01 -0.87415389442E+01  0.53634998666E+02  0.54506699098E+02  0.00000000000E+00 0. -1.
         13    1    3    3    0    0  0.94364966682E+02  0.15777618102E+03 -0.20551269142E+04  0.20633333962E+04  0.00000000000E+00 0. -1.
        -14    1    3    3    0    0  0.81083443079E+01  0.67996329956E+02 -0.42525781899E+03  0.43073595015E+03  0.00000000000E+00 0.  1.
          5    1    4    4  501    0 -0.14693281393E+03  0.11568739918E+03 -0.39115542714E+03  0.43358144185E+03  0.41800000000E+01 0. -1.
         -5    1    4    4    0  501 -0.18943922416E+03  0.15820276954E+02 -0.27276646845E+03  0.33250040530E+03  0.41800000000E+01 0. -1.
</event>
<event>
11    1  0.6763327E-009  0.1576639E+03  0.7561462E-02  0.1089295E+00
         22   -1    0    0    0    0  0.00000000000E+00  0.00000000000E+00  0.25408400269E+03  0.25408400269E+03  0.00000000000E+00 0. -1.
         22   -1    0    0    0    0 -0.00000000000E+00 -0.00000000000E+00 -0.37379823948E+03  0.37379823948E+03  0.00000000000E+00 0. -1.
        -24    2    1    2    0    0  0.44843475839E+02  0.47192911234E+02 -0.21152405579E+03  0.23760727838E+03  0.86467822711E+02 0.  0.
         25    2    1    2    0    0 -0.75554586361E+02  0.48079603417E+02 -0.81494565628E+02  0.17409217607E+03  0.12508628125E+03 0.  0.
         24    2    1    2    0    0  0.30711110522E+02 -0.95272514652E+02  0.17330438462E+03  0.21618278772E+03  0.81734714894E+02 0.  0.
        -11    1    5    5    0    0 -0.88864641663E+00  0.14254544746E+02  0.11946397483E+02  0.18619832201E+02  0.00000000000E+00 0.  1.
         12    1    5    5    0    0  0.31599756939E+02 -0.10952705940E+03  0.16135798714E+03  0.19756295552E+03  0.00000000000E+00 0. -1.
         13    1    3    3    0    0  0.54810713417E+02  0.16297158662E+02 -0.19058011460E+03  0.19897384694E+03  0.00000000000E+00 0. -1.
        -14    1    3    3    0    0 -0.99672375779E+01  0.30895752572E+02 -0.20943941188E+02  0.38633431435E+02  0.00000000000E+00 0.  1.
          5    1    4    4  501    0 -0.18616006650E+02  0.73813736859E+01 -0.99600016170E+02  0.10167928010E+03  0.41800000000E+01 0.  1.
         -5    1    4    4    0  501 -0.56938579712E+02  0.40698229732E+02  0.18105450542E+02  0.72412895966E+02  0.41800000000E+01 0.  1.
</event>
<event>
11    1  0.6763327E-009  0.2796492E+03  0.7561462E-02  0.1009192E+00
         22   -1    0    0    0    0  0.00000000000E+00  0.00000000000E+00  0.38538974211E+03  0.38538974211E+03  0.00000000000E+00 0. -1.
         22   -1    0    0    0    0 -0.00000000000E+00 -0.00000000000E+00 -0.94974739352E+03  0.94974739352E+03  0.00000000000E+00 0. -1.
         24    2    1    2    0    0  0.16854620218E+02 -0.11951325124E+02 -0.68789782606E+03  0.69289143872E+03  0.80425209713E+02 0.  0.
         25    2    1    2    0    0  0.17975866495E+03  0.16864431948E+03 -0.10221461115E+03  0.29470204665E+03  0.12508950976E+03 0.  0.
        -24    2    1    2    0    0 -0.19661328516E+03 -0.15669299435E+03  0.22575478579E+03  0.34754365026E+03  0.81313511461E+02 0.  0.
        -11    1    3    3    0    0  0.48844120420E+01 -0.18262955735E+02 -0.34391160923E+02  0.39244680949E+02  0.00000000000E+00 0.  1.
         12    1    3    3    0    0  0.11970208177E+02  0.63116306111E+01 -0.65350666513E+03  0.65364675777E+03  0.00000000000E+00 0. -1.
         11    1    5    5    0    0 -0.18879516139E+03 -0.12791099659E+03  0.17044132018E+03  0.28470173803E+03  0.00000000000E+00 0. -1.
        -12    1    5    5    0    0 -0.78181237747E+01 -0.28781997762E+02  0.55313465617E+02  0.62841912234E+02  0.00000000000E+00 0.  1.
          5    1    4    4  501    0  0.19614661972E+03  0.16927455666E+03 -0.92205386755E+02  0.27503941118E+03  0.41800000000E+01 0.  1.
         -5    1    4    4    0  501 -0.16387954770E+02 -0.63023718392E+00 -0.10009224399E+02  0.19662635467E+02  0.41800000000E+01 0.  1.
</event>
<event>
11    1  0.6763327E-009  0.1801491E+03  0.7561462E-02  0.1069522E+00
         22   -1    0    0    0    0  0.00000000000E+00  0.00000000000E+00  0.56441235497E+03  0.56441235497E+03  0.00000000000E+00 0.  1.
         22   -1    0    0    0    0 -0.00000000000E+00 -0.00000000000E+00 -0.15262391713E+04  0.15262391713E+04  0.00000000000E+00 0. -1.
         24    2    1    2    0    0  0.97726953666E+02  0.32778894427E+02 -0.13658490658E+04  0.13720367534E+04  0.79474325989E+02 0.  0.
         25    2    1    2    0    0 -0.12810706195E+03 -0.15433307530E+03 -0.49407362294E+02  0.24149317372E+03  0.12509095911E+03 0.  0.
        -24    2    1    2    0    0  0.30380108282E+02  0.12155418088E+03  0.45342961179E+03  0.47712159922E+03  0.79675829020E+02 0.  0.
        -11    1    3    3    0    0  0.10306417439E+02 -0.13612846329E+01 -0.17000617573E+02  0.19927276134E+02  0.00000000000E+00 0.  1.
         12    1    3    3    0    0  0.87420536228E+02  0.34140179060E+02 -0.13488484483E+04  0.13521094772E+04  0.00000000000E+00 0. -1.
         13    1    5    5    0    0  0.49234730056E+02  0.40598621681E+02  0.16351625641E+03  0.17552741335E+03  0.00000000000E+00 0. -1.
        -14    1    5    5    0    0 -0.18854621774E+02  0.80955559195E+02  0.28991335537E+03  0.30159418587E+03  0.00000000000E+00 0.  1.
          5    1    4    4  501    0  0.19943774795E+02 -0.32371581989E+02  0.11924099561E+02  0.40066569904E+02  0.41800000000E+01 0.  1.
         -5    1    4    4    0  501 -0.14805083674E+03 -0.12196149331E+03 -0.61331461855E+02  0.20142660382E+03  0.41800000000E+01 0.  1.
</event>
<event>
11    1  0.6763327E-009  0.1316460E+03  0.7561462E-02  0.1117263E+00
         22   -1    0    0    0    0  0.00000000000E+00  0.00000000000E+00  0.73507494869E+03  0.73507494869E+03  0.00000000000E+00 0. -1.
         22   -1    0    0    0    0 -0.00000000000E+00 -0.00000000000E+00 -0.16834270003E+03  0.16834270003E+03  0.00000000000E+00 0. -1.
         24    2    1    2    0    0 -0.37568383303E+02 -0.17396893095E+02 -0.12985642375E+03  0.15815216046E+03  0.80220818708E+02 0.  0.
         25    2    1    2    0    0  0.28135733195E+02  0.24147877471E+02  0.18038151940E+03  0.22261934648E+03  0.12508853431E+03 0.  0.
        -24    2    1    2    0    0  0.94326501082E+01 -0.67509843758E+01  0.51620715300E+03  0.52264614179E+03  0.80960570890E+02 0.  0.
        -13    1    3    3    0    0 -0.23193563993E+02 -0.35536712255E+02 -0.21921315414E+02  0.47763410662E+02  0.00000000000E+00 0.  1.
         14    1    3    3    0    0 -0.14374819309E+02  0.18139819160E+02 -0.10793510834E+03  0.11038874979E+03  0.00000000000E+00 0. -1.
         11    1    5    5    0    0 -0.24196978712E+02  0.25093707404E+02  0.25385108250E+03  0.25623340926E+03  0.00000000000E+00 0. -1.
        -12    1    5    5    0    0  0.33629628820E+02 -0.31844691780E+02  0.26235607050E+03  0.26641273253E+03  0.00000000000E+00 0.  1.
          5    1    4    4  501    0 -0.42189546120E+02  0.32922246622E+02  0.11127146299E+03  0.12354206976E+03  0.41800000000E+01 0. -1.
         -5    1    4    4    0  501  0.70325279314E+02 -0.87743691511E+01  0.69110056411E+02  0.99077276718E+02  0.41800000000E+01 0. -1.
</event>
<event>
11    1  0.6763327E-009  0.1687743E+03  0.7561462E-02  0.1079103E+00
         22   -1    0    0    0    0  0.00000000000E+00  0.00000000000E+00  0.15905647381E+04  0.15905647381E+04  0.00000000000E+00 0.  1.
         22   -1    0    0    0    0 -0.00000000000E+00 -0.00000000000E+00 -0.25163183879E+04  0.25163183879E+04  0.00000000000E+00 0. -1.
         24    2    1    2    0    0 -0.11139906398E+03  0.21263406499E+02 -0.25021006684E+04  0.25057592795E+04  0.73891326260E+02 0.  0.
         25    2    1    2    0    0  0.81832976688E+02 -0.67397103328E+01  0.51253339566E+03  0.53392929655E+03  0.12509177544E+03 0.  0.
        -24    2    1    2    0    0  0.29566087287E+02 -0.14523696166E+02  0.10638136230E+04  0.10671945499E+04  0.78228457724E+02 0.  0.
        -13    1    3    3    0    0 -0.28476570189E+02  0.37300072252E+02 -0.12037955092E+04  0.12047098565E+04  0.00000000000E+00 0.  1.
         14    1    3    3    0    0 -0.82922493787E+02 -0.16036665753E+02 -0.12983051592E+04  0.13010494230E+04  0.00000000000E+00 0. -1.
         11    1    5    5    0    0 -0.80977841397E+00 -0.10576724484E+01 -0.11214299753E+01  0.17412688699E+01  0.00000000000E+00 0. -1.
        -12    1    5    5    0    0  0.30375865701E+02 -0.13466023718E+02  0.10649350530E+04  0.10654532811E+04  0.00000000000E+00 0.  1.
          5    1    4    4  501    0  0.53578232780E+02 -0.24838486301E+01  0.49925489884E+03  0.50214512140E+03  0.41800000000E+01 0.  1.
         -5    1    4    4    0  501  0.28254743908E+02 -0.42558617027E+01  0.13278496818E+02  0.31784175149E+02  0.41800000000E+01 0.  1.
</event>
<event>
11    1  0.6763327E-009  0.1877924E+03  0.7561462E-02  0.1063508E+00
         22   -1    0    0    0    0  0.00000000000E+00  0.00000000000E+00  0.14899222907E+04  0.14899222907E+04  0.00000000000E+00 0.  1.
         22   -1    0    0    0    0 -0.00000000000E+00 -0.00000000000E+00 -0.15168098919E+04  0.15168098919E+04  0.00000000000E+00 0.  1.
        -24    2    1    2    0    0  0.24104477870E+01 -0.14012555798E+03 -0.14897497294E+04  0.14985048090E+04  0.80755334754E+02 0.  0.
         25    2    1    2    0    0 -0.25413960953E+02  0.13227146782E+03  0.38087491533E+03  0.42291226847E+03  0.12508986803E+03 0.  0.
         24    2    1    2    0    0  0.23003513166E+02  0.78540901631E+01  0.10819872129E+04  0.10853151052E+04  0.81373830862E+02 0.  0.
        -13    1    5    5    0    0  0.87329811918E+01 -0.35451449275E+02  0.62290621249E+03  0.62397533587E+03  0.00000000000E+00 0.  1.
         14    1    5    5    0    0  0.14270531974E+02  0.43305539438E+02  0.45908100039E+03  0.46133976931E+03  0.00000000000E+00 0. -1.
         13    1    3    3    0    0 -0.27474925550E+02 -0.15783713304E+02 -0.20930011926E+03  0.21168499490E+03  0.00000000000E+00 0. -1.
        -14    1    3    3    0    0  0.29885373337E+02 -0.12434184468E+03 -0.12804496101E+04  0.12868198141E+04  0.00000000000E+00 0.  1.
          5    1    4    4  501    0 -0.20874289141E+02 -0.19992225640E+02  0.40016090220E+02  0.49539730618E+02  0.41800000000E+01 0. -1.
         -5    1    4    4    0  501 -0.45396718121E+01  0.15226369346E+03  0.34085882511E+03  0.37337253785E+03  0.41800000000E+01 0. -1.
</event>
<event>
11    1  0.6763327E-009  0.2643212E+03  0.7561462E-02  0.1016535E+00
         22   -1    0    0    0    0  0.00000000000E+00  0.00000000000E+00  0.16186393690E+03  0.16186393690E+03  0.00000000000E+00 0. -1.
         22   -1    0    0    0    0 -0.00000000000E+00 -0.00000000000E+00 -0.91070620957E+03  0.91070620957E+03  0.00000000000E+00 0.  1.
        -24    2    1    2    0    0  0.24193127525E+03  0.12250358882E+03 -0.42715760841E+03  0.51299623685E+03  0.84638320954E+02 0.  0.
         25    2    1    2    0    0 -0.21205042528E+03  0.23511766325E+02 -0.29973421546E+03  0.38859463959E+03  0.12508800098E+03 0.  0.
         24    2    1    2    0    0 -0.29880849975E+02 -0.14601535514E+03 -0.21950448798E+02  0.17097927004E+03  0.80862472427E+02 0.  0.
        -13    1    5    5    0    0 -0.14649454573E+02 -0.32839197060E+02  0.28745020579E+02  0.46035807704E+02  0.00000000000E+00 0.  1.
         14    1    5    5    0    0 -0.15231395401E+02 -0.11317615808E+03 -0.50695469378E+02  0.12494346233E+03  0.00000000000E+00 0. -1.
         11    1    3    3    0    0  0.68821648612E+02  0.72993791086E+02 -0.19406440672E+03  0.21846168271E+03  0.00000000000E+00 0. -1.
        -12    1    3    3    0    0  0.17310962664E+03  0.49509797731E+02 -0.23309320169E+03  0.29453455414E+03  0.00000000000E+00 0.  1.
          5    1    4    4  501    0 -0.19882489927E+03  0.58361996015E+02 -0.23142384902E+03  0.31066369831E+03  0.41800000000E+01 0. -1.
         -5    1    4    4    0  501 -0.13225526005E+02 -0.34850229689E+02 -0.68310366431E+02  0.77930941285E+02  0.41800000000E+01 0. -1.
</event>
<event>
11    1  0.6763327E-009  0.1613919E+03  0.7561462E-02  0.1085775E+00
         22   -1    0    0    0    0  0.00000000000E+00  0.00000000000E+00  0.18631439005E+04  0.18631439005E+04  0.00000000000E+00 0.  1.
         22   -1    0    0    0    0 -0.00000000000E+00 -0.00000000000E+00 -0.42590389908E+03  0.42590389908E+03  0.00000000000E+00 0. -1.
         24    2    1    2    0    0  0.17871649397E+02 -0.10257678562E+03 -0.38626030980E+03  0.40818356630E+03  0.81088865295E+02 0.  0.
         25    2    1    2    0    0 -0.12688009922E+02  0.65143749168E+02  0.15467935966E+03  0.20970947534E+03  0.12509063151E+03 0.  0.
        -24    2    1    2    0    0 -0.51836394755E+01  0.37433036455E+02  0.16688209515E+04  0.16711547579E+04  0.79791943777E+02 0.  0.
        -13    1    3    3    0    0  0.95169508936E+01  0.59887529876E+01 -0.11990652789E+03  0.12043260749E+03  0.00000000000E+00 0.  1.
         14    1    3    3    0    0  0.83546985034E+01 -0.10856553861E+03 -0.26635378191E+03  0.28775095881E+03  0.00000000000E+00 0. -1.
         11    1    5    5    0    0  0.19823994153E+02  0.14705633405E+02  0.14000816312E+04  0.14002991896E+04  0.00000000000E+00 0. -1.
        -12    1    5    5    0    0 -0.25007633629E+02  0.22727403051E+02  0.26873932032E+03  0.27085556829E+03  0.00000000000E+00 0.  1.
          5    1    4    4  501    0 -0.44448520654E+02  0.25182333066E+02  0.14972302566E+03  0.15825383944E+03  0.41800000000E+01 0. -1.
         -5    1    4    4    0  501  0.31760510733E+02  0.39961416102E+02  0.49563340012E+01  0.51455635897E+02  0.41800000000E+01 0. -1.
</event>
<event>
11    1  0.6763327E-009  0.1485606E+03  0.7561462E-02  0.1098359E+00
         22   -1    0    0    0    0  0.00000000000E+00  0.00000000000E+00  0.98705950979E+03  0.98705950979E+03  0.00000000000E+00 0.  1.
         22   -1    0    0    0    0 -0.00000000000E+00 -0.00000000000E+00 -0.24802261548E+03  0.24802261548E+03  0.00000000000E+00 0. -1.
         24    2    1    2    0    0  0.36518265654E+01  0.44617812627E+02 -0.16102239096E+03  0.18532111354E+03  0.80072590127E+02 0.  0.
         25    2    1    2    0    0 -0.83424013334E+02 -0.37006212521E+02  0.13762960270E+02  0.15545611047E+03  0.12509259547E+03 0.  0.
        -24    2    1    2    0    0  0.79772186769E+02 -0.76116001064E+01  0.88629632500E+03  0.89430490126E+03  0.88535543586E+02 0.  0.
        -11    1    3    3    0    0 -0.18514779775E+02  0.31961758109E+02 -0.19993853671E+02  0.42001252793E+02  0.00000000000E+00 0.  1.
         12    1    3    3    0    0  0.22166606340E+02  0.12656054518E+02 -0.14102853729E+03  0.14331986074E+03  0.00000000000E+00 0. -1.
         13    1    5    5    0    0  0.42594533411E+01  0.25759810705E+02  0.41590004285E+03  0.41671879779E+03  0.00000000000E+00 0. -1.
        -14    1    5    5    0    0  0.75512733427E+02 -0.33371410811E+02  0.47039628215E+03  0.47758610347E+03  0.00000000000E+00 0.  1.
          5    1    4    4  501    0 -0.67279450887E+02 -0.72895245971E+02 -0.22473518701E+02  0.10179770547E+03  0.41800000000E+01 0. -1.
         -5    1    4    4    0  501 -0.16144562447E+02  0.35889033450E+02  0.36236478971E+02  0.53658404997E+02  0.41800000000E+01 0. -1.
</event>
<event>
11    1  0.6763327E-009  0.1336696E+03  0.7561462E-02  0.1114841E+00
         22   -1    0    0    0    0  0.00000000000E+00  0.00000000000E+00  0.13314807604E+04  0.13314807604E+04  0.00000000000E+00 0.  1.
         22   -1    0    0    0    0 -0.00000000000E+00 -0.00000000000E+00 -0.12025507615E+04  0.12025507615E+04  0.00000000000E+00 0.  1.
         24    2    1    2    0    0  0.33188067646E+02 -0.26196640253E+02 -0.10946716631E+04  0.10984831402E+04  0.81064465277E+02 0.  0.
         25    2    1    2    0    0 -0.65555968580E+02  0.59501962948E+02 -0.47953709919E+02  0.16057727131E+03  0.12508970043E+03 0.  0.
        -24    2    1    2    0    0  0.32367900934E+02 -0.33305322695E+02  0.12715553720E+04  0.12749711104E+04  0.80878567959E+02 0.  0.
        -13    1    3    3    0    0 -0.13814462569E+02 -0.31057538423E+02 -0.72603606066E+03  0.72683132256E+03  0.00000000000E+00 0.  1.
         14    1    3    3    0    0  0.47002530215E+02  0.48608981698E+01 -0.36863560245E+03  0.37165181766E+03  0.00000000000E+00 0. -1.
         13    1    5    5    0    0  0.27229977612E+02 -0.14305420612E+02  0.14420659897E+03  0.14745053383E+03  0.00000000000E+00 0. -1.
        -14    1    5    5    0    0  0.51379233212E+01 -0.18999902083E+02  0.11273487730E+04  0.11275205765E+04  0.00000000000E+00 0.  1.
          5    1    4    4  501    0 -0.30503891218E+02  0.65763138046E+02  0.27015765161E+02  0.77476458827E+02  0.41800000000E+01 0.  1.
         -5    1    4    4    0  501 -0.35052077361E+02 -0.62611750981E+01 -0.74969475079E+02  0.83100812479E+02  0.41800000000E+01 0.  1.
</event>
<event>
11    1  0.6763327E-009  0.1375797E+03  0.7561462E-02  0.1110292E+00
         22   -1    0    0    0    0  0.00000000000E+00  0.00000000000E+00  0.11854698967E+04  0.11854698967E+04  0.00000000000E+00 0. -1.
         22   -1    0    0    0    0 -0.00000000000E+00 -0.00000000000E+00 -0.95460171322E+02  0.95460171322E+02  0.00000000000E+00 0. -1.
         24    2    1    2    0    0 -0.38723585757E+02 -0.29934502426E+02 -0.52615498914E+02  0.10689598959E+03  0.79137673304E+02 0.  0.
         25    2    1    2    0    0  0.42365351600E+02  0.79871132331E+02  0.46484554161E+03  0.48979919808E+03  0.12509059153E+03 0.  0.
        -24    2    1    2    0    0 -0.36417658433E+01 -0.49936629905E+02  0.67777968264E+03  0.68423488030E+03  0.79278898596E+02 0.  0.
        -13    1    3    3    0    0  0.22114301199E+02 -0.24944086714E+01 -0.27987617417E+02  0.35757112870E+02  0.00000000000E+00 0.  1.
         14    1    3    3    0    0 -0.60837886956E+02 -0.27440093755E+02 -0.24627881498E+02  0.71138876724E+02  0.00000000000E+00 0. -1.
         13    1    5    5    0    0  0.64495577133E+01 -0.43112928416E+02  0.66554023409E+03  0.66696635941E+03  0.00000000000E+00 0. -1.
        -14    1    5    5    0    0 -0.10091323557E+02 -0.68237014887E+01  0.12239448550E+02  0.17268520896E+02  0.00000000000E+00 0.  1.
          5    1    4    4  501    0  0.77755129514E+02  0.35406336222E+02  0.17975686527E+03  0.19907152439E+03  0.41800000000E+01 0. -1.
         -5    1    4    4    0  501 -0.35389777913E+02  0.44464796109E+02  0.28508867634E+03  0.29072767369E+03  0.41800000000E+01 0. -1.
</event>
<event>
11    1  0.6763327E-009  0.1898422E+03  0.7561462E-02  0.1061949E+00
         22   -1    0    0    0    0  0.00000000000E+00  0.00000000000E+00  0.13525182749E+03  0.13525182749E+03  0.00000000000E+00 0. -1.
         22   -1    0    0    0    0 -0.00000000000E+00 -0.00000000000E+00 -0.21822255031E+04  0.21822255031E+04  0.00000000000E+00 0. -1.
         24    2    1    2    0    0  0.45040393597E+01 -0.14061611879E+03 -0.16962255068E+04  0.17035757679E+04  0.72085004012E+02 0.  0.
         25    2    1    2    0    0 -0.21585195640E+02  0.15431747101E+03 -0.44536044804E+03  0.48813386377E+03  0.12509571435E+03 0.  0.
        -24    2    1    2    0    0  0.17081156280E+02 -0.13701352220E+02  0.94612279272E+02  0.12576769888E+03  0.79915816587E+02 0.  0.
        -11    1    3    3    0    0  0.52169230807E+01 -0.76402862955E+02 -0.52111779822E+03  0.52671469828E+03  0.00000000000E+00 0.  1.
         12    1    3    3    0    0 -0.71288372099E+00 -0.64213255835E+02 -0.11751077086E+04  0.11768610696E+04  0.00000000000E+00 0. -1.
         13    1    5    5    0    0 -0.74312903612E-01  0.89321659062E+00  0.10204536602E+03  0.10204930222E+03  0.00000000000E+00 0. -1.
        -14    1    5    5    0    0  0.17155469184E+02 -0.14594568811E+02 -0.74330867444E+01  0.23718396662E+02  0.00000000000E+00 0.  1.
          5    1    4    4  501    0 -0.36610578926E+02  0.15965560007E+03 -0.29989856664E+03  0.34174093667E+03  0.41800000000E+01 0. -1.
         -5    1    4    4    0  501  0.15025383286E+02 -0.53381290550E+01 -0.14546188140E+03  0.14639292710E+03  0.41800000000E+01 0. -1.
</event>
<event>
11    1  0.7099022E-009  0.2071847E+03  0.7561462E-02  0.1049556E+00
         22   -1    0    0    0    0  0.00000000000E+00  0.00000000000E+00  0.57163297941E+03  0.57163297941E+03  0.00000000000E+00 0. -1.
         22   -1    0    0    0    0 -0.00000000000E+00 -0.00000000000E+00 -0.19323474901E+04  0.19323474901E+04  0.00000000000E+00 0. -1.
        -24    2    1    2    0    0  0.34811455814E+01  0.32453794264E+02 -0.14876525531E+04  0.14894670771E+04  0.65853533893E+02 0.  0.
         25    2    1    2    0    0  0.13549034390E+03 -0.12074328637E+03 -0.39983584825E+03  0.45656772710E+03  0.12509520130E+03 0.  0.
         24    2    1    2    0    0 -0.13897148948E+03  0.88289492103E+02  0.52677389073E+03  0.55794566523E+03  0.81881158378E+02 0.  0.
        -13    1    5    5    0    0  0.49849870453E+01  0.87894594029E+01  0.10120547713E+03  0.10170866873E+03  0.00000000000E+00 0.  1.
         14    1    5    5    0    0 -0.14395647652E+03  0.79500032700E+02  0.42556841359E+03  0.45623699651E+03  0.00000000000E+00 0. -1.
         11    1    3    3    0    0  0.28497232460E+02  0.38348170463E+02 -0.98383409916E+03  0.98499350714E+03  0.00000000000E+00 0. -1.
        -12    1    3    3    0    0 -0.25016086878E+02 -0.58943761985E+01 -0.50381845398E+03  0.50447357001E+03  0.00000000000E+00 0.  1.
          5    1    4    4  501    0  0.45378874644E+02 -0.92815762890E+02 -0.10663345132E+03  0.14853340852E+03  0.41800000000E+01 0.  1.
         -5    1    4    4    0  501  0.90111469251E+02 -0.27927523477E+02 -0.29320239693E+03  0.30803431858E+03  0.41800000000E+01 0.  1.
</event>
<event>
11    1  0.6763327E-009  0.1530385E+03  0.7561462E-02  0.1093814E+00
         22   -1    0    0    0    0  0.00000000000E+00  0.00000000000E+00  0.38965358162E+03  0.38965358162E+03  0.00000000000E+00 0. -1.
         22   -1    0    0    0    0 -0.00000000000E+00 -0.00000000000E+00 -0.11100076640E+04  0.11100076640E+04  0.00000000000E+00 0. -1.
        -24    2    1    2    0    0 -0.20786369196E+02 -0.87362458741E+02 -0.10298578742E+04  0.10366742300E+04  0.77601196932E+02 0.  0.
         25    2    1    2    0    0  0.11927963018E+02  0.55040029323E+02 -0.45839484201E+01  0.13726067279E+03  0.12509116109E+03 0.  0.
         24    2    1    2    0    0  0.88584061783E+01  0.32322429418E+02  0.31408774032E+03  0.32572634274E+03  0.79519374559E+02 0.  0.
        -11    1    5    5    0    0  0.22407997114E+02  0.14052495360E+02  0.27205477682E+02  0.37943760705E+02  0.00000000000E+00 0.  1.
         12    1    5    5    0    0 -0.13549590936E+02  0.18269934058E+02  0.28688226264E+03  0.28778258203E+03  0.00000000000E+00 0. -1.
         11    1    3    3    0    0 -0.47391638600E+02 -0.72295502053E+02 -0.83027008621E+03  0.83475806260E+03  0.00000000000E+00 0. -1.
        -12    1    3    3    0    0  0.26605269404E+02 -0.15066956688E+02 -0.19958778803E+03  0.20191616744E+03  0.00000000000E+00 0.  1.
          5    1    4    4  501    0  0.51922042381E+02  0.29174027999E+01 -0.36922560850E+02  0.63915237806E+02  0.41800000000E+01 0.  1.
         -5    1    4    4    0  501 -0.39994079363E+02  0.52122626523E+02  0.32338612430E+02  0.73345434988E+02  0.41800000000E+01 0.  1.
</event>
<event>
11    1  0.6763327E-009  0.1447284E+03  0.7561462E-02  0.1102390E+00
         22   -1    0    0    0    0  0.00000000000E+00  0.00000000000E+00  0.85132751685E+03  0.85132751685E+03  0.00000000000E+00 0.  1.
         22   -1    0    0    0    0 -0.00000000000E+00 -0.00000000000E+00 -0.29158306355E+03  0.29158306355E+03  0.00000000000E+00 0.  1.
         24    2    1    2    0    0 -0.50245081318E+01 -0.75173993196E+02 -0.20684970573E+03  0.23445913844E+03  0.80671630087E+02 0.  0.
         25    2    1    2    0    0  0.28893661414E+02  0.56975263730E+02  0.34529315526E+01  0.14050360270E+03  0.12509322638E+03 0.  0.
        -24    2    1    2    0    0 -0.23869153282E+02  0.18198729465E+02  0.76314122748E+03  0.76794783925E+03  0.80364298659E+02 0.  0.
        -11    1    3    3    0    0 -0.30691064625E+02 -0.67191568276E+02 -0.18695152138E+03  0.20101621736E+03  0.00000000000E+00 0.  1.
         12    1    3    3    0    0  0.25666556494E+02 -0.79824249195E+01 -0.19898184355E+02  0.33442921081E+02  0.00000000000E+00 0. -1.
         13    1    5    5    0    0  0.23969751168E+02  0.28031823511E+02  0.34322333462E+03  0.34519934752E+03  0.00000000000E+00 0. -1.
        -14    1    5    5    0    0 -0.47838904450E+02 -0.98330940455E+01  0.41991789287E+03  0.42274849174E+03  0.00000000000E+00 0.  1.
          5    1    4    4  501    0  0.59683249252E+02 -0.93609763225E+01  0.22852137068E+02  0.64725657104E+02  0.41800000000E+01 0. -1.
         -5    1    4    4    0  501 -0.30789587838E+02  0.66336240053E+02 -0.19399205516E+02  0.75777945592E+02  0.41800000000E+01 0. -1.
</event>
<event>
11    1  0.6763327E-009  0.1944724E+03  0.7561462E-02  0.1058503E+00
         22   -1    0    0    0    0  0.00000000000E+00  0.00000000000E+00  0.46708090371E+03  0.46708090371E+03  0.00000000000E+00 0. -1.
         22   -1    0    0    0    0 -0.00000000000E+00 -0.00000000000E+00 -0.28235448549E+03  0.28235448549E+03  0.00000000000E+00 0.  1.
         24    2    1    2    0    0  0.69618504789E+01 -0.31814726233E+02 -0.88494998852E+02  0.12366728166E+03  0.80009921656E+02 0.  0.
         25    2    1    2    0    0 -0.25785237783E+02 -0.11919326729E+03 -0.10904587480E+03  0.20593352926E+03  0.12508278142E+03 0.  0.
        -24    2    1    2    0    0  0.18823387304E+02  0.15100799353E+03  0.38226729188E+03  0.41983457828E+03  0.83516804678E+02 0.  0.
        -13    1    3    3    0    0 -0.18397879084E+02  0.10034345926E+02 -0.67036488209E+02  0.70235751611E+02  0.00000000000E+00 0.  1.
         14    1    3    3    0    0  0.25359729563E+02 -0.41849072159E+02 -0.21458510642E+02  0.53431530046E+02  0.00000000000E+00 0. -1.
         11    1    5    5    0    0  0.28409658723E+02  0.15663017747E+03  0.37230847200E+03  0.40491198986E+03  0.00000000000E+00 0. -1.
        -12    1    5    5    0    0 -0.95862714191E+01 -0.56221839462E+01  0.99588198741E+01  0.14922588426E+02  0.00000000000E+00 0.  1.
          5    1    4    4  501    0 -0.51967324592E+01 -0.57785406456E+02 -0.12606411937E+03  0.13883729262E+03  0.41800000000E+01 0.  1.
         -5    1    4    4    0  501 -0.20588505324E+02 -0.61407860837E+02  0.17018244571E+02  0.67096236648E+02  0.41800000000E+01 0.  1.
</event>
<event>
11    1  0.6763327E-009  0.2219287E+03  0.7561462E-02  0.1040016E+00
         22   -1    0    0    0    0  0.00000000000E+00  0.00000000000E+00  0.10234839943E+04  0.10234839943E+04  0.00000000000E+00 0. -1.
         22   -1    0    0    0    0 -0.00000000000E+00 -0.00000000000E+00 -0.52022915033E+03  0.52022915033E+03  0.00000000000E+00 0.  1.
         24    2    1    2    0    0 -0.12185399623E+03  0.13614581084E+03 -0.43277770953E+03  0.47568977897E+03  0.74834094814E+02 0.  0.
         25    2    1    2    0    0  0.12675943975E+03 -0.14013482930E+03  0.13667690270E+03  0.26463894212E+03  0.12508983974E+03 0.  0.
        -24    2    1    2    0    0 -0.49054435200E+01  0.39890184698E+01  0.79935565081E+03  0.80338442355E+03  0.80106802937E+02 0.  0.
        -11    1    3    3    0    0 -0.10932678335E+03  0.87292897073E+02 -0.36729386405E+03  0.39303584825E+03  0.00000000000E+00 0.  1.
         12    1    3    3    0    0 -0.12527212883E+02  0.48852913762E+02 -0.65483845475E+02  0.82653930722E+02  0.00000000000E+00 0. -1.
         13    1    5    5    0    0 -0.32147389700E+01  0.15172314208E+02  0.78478932459E+03  0.78494255692E+03  0.00000000000E+00 0. -1.
        -14    1    5    5    0    0 -0.16907045500E+01 -0.11183295738E+02  0.14566326218E+02  0.18441866634E+02  0.00000000000E+00 0.  1.
          5    1    4    4  501    0  0.13223904391E+03 -0.15880548480E+03  0.12386487605E+03  0.24096955545E+03  0.41800000000E+01 0. -1.
         -5    1    4    4    0  501 -0.54796041575E+01  0.18670655496E+02  0.12812026652E+02  0.23669386669E+02  0.41800000000E+01 0. -1.
</event>
<event>
11    1  0.6763327E-009  0.2061892E+03  0.7561462E-02  0.1050231E+00
         22   -1    0    0    0    0  0.00000000000E+00  0.00000000000E+00  0.30266087905E+03  0.30266087905E+03  0.00000000000E+00 0. -1.
         22   -1    0    0    0    0 -0.00000000000E+00 -0.00000000000E+00 -0.17462851192E+04  0.17462851192E+04  0.00000000000E+00 0.  1.
        -24    2    1    2    0    0 -0.30438845859E+02 -0.13383884290E+02 -0.12123133716E+04  0.12157247567E+04  0.84719074319E+02 0.  0.
         25    2    1    2    0    0 -0.12066724897E+03 -0.54774728650E+02 -0.48615570630E+03  0.51918502785E+03  0.12507944078E+03 0.  0.
         24    2    1    2    0    0  0.15110609483E+03  0.68158612940E+02  0.25484483768E+03  0.31403621370E+03  0.78703264282E+02 0.  0.
        -11    1    5    5    0    0 -0.25658562191E+01 -0.53738386444E+01  0.37063450697E+02  0.37538795099E+02  0.00000000000E+00 0.  1.
         12    1    5    5    0    0  0.15367195105E+03  0.73532451584E+02  0.21778138698E+03  0.27649741860E+03  0.00000000000E+00 0. -1.
         13    1    3    3    0    0 -0.52302566278E+02 -0.19211632538E+02 -0.50774352760E+03  0.51079167484E+03  0.00000000000E+00 0. -1.
        -14    1    3    3    0    0  0.21863720419E+02  0.58277482485E+01 -0.70456984396E+03  0.70493308189E+03  0.00000000000E+00 0.  1.
          5    1    4    4  501    0 -0.10746340773E+03 -0.62604467048E+02 -0.48758242424E+03  0.50321148250E+03  0.41800000000E+01 0. -1.
         -5    1    4    4    0  501 -0.13203841241E+02  0.78297383978E+01  0.14267179420E+01  0.15973545348E+02  0.41800000000E+01 0. -1.
</event>
<event>
11    1  0.6763327E-009  0.2457920E+03  0.7561462E-02  0.1026165E+00
         22   -1    0    0    0    0  0.00000000000E+00  0.00000000000E+00  0.13884153740E+04  0.13884153740E+04  0.00000000000E+00 0.  1.
         22   -1    0    0    0    0 -0.00000000000E+00 -0.00000000000E+00 -0.53555486572E+03  0.53555486572E+03  0.00000000000E+00 0. -1.
        -24    2    1    2    0    0  0.35831642839E+02 -0.14066905476E+02 -0.48080540813E+03  0.48899675622E+03  0.80387826512E+02 0.  0.
         25    2    1    2    0    0  0.64643324598E+02  0.20134507581E+03  0.36549364441E+03  0.44040016512E+03  0.12509237534E+03 0.  0.
         24    2    1    2    0    0 -0.10047496744E+03 -0.18727817033E+03  0.96817227197E+03  0.99457331835E+03  0.81548790318E+02 0.  0.
        -11    1    5    5    0    0 -0.53927646885E+02 -0.14902822652E+03  0.80906514575E+03  0.82444163739E+03  0.00000000000E+00 0.  1.
         12    1    5    5    0    0 -0.46547320552E+02 -0.38249943818E+02  0.15910712622E+03  0.17013168096E+03  0.00000000000E+00 0. -1.
         13    1    3    3    0    0  0.41092413543E+02 -0.28636637745E+02 -0.15645428329E+03  0.16427594538E+03  0.00000000000E+00 0. -1.
        -14    1    3    3    0    0 -0.52607707038E+01  0.14569732268E+02 -0.32435112484E+03  0.32472081084E+03  0.00000000000E+00 0.  1.
          5    1    4    4  501    0  0.14093442276E+02  0.13209108051E+02  0.14419309180E+03  0.14554114804E+03  0.41800000000E+01 0.  1.
         -5    1    4    4    0  501  0.50549882322E+02  0.18813596776E+03  0.22130055261E+03  0.29485901708E+03  0.41800000000E+01 0.  1.
</event>
<event>
11    1  0.6763327E-009  0.3499346E+03  0.7561462E-02  0.9810249E-01
         22   -1    0    0    0    0  0.00000000000E+00  0.00000000000E+00  0.13549931400E+04  0.13549931400E+04  0.00000000000E+00 0. -1.
         22   -1    0    0    0    0 -0.00000000000E+00 -0.00000000000E+00 -0.26146112770E+04  0.26146112770E+04  0.00000000000E+00 0. -1.
        -24    2    1    2    0    0 -0.83401096312E+01 -0.23577764921E+02 -0.22837925295E+04  0.22854828492E+04  0.84250029883E+02 0.  0.
         25    2    1    2    0    0 -0.30996251746E+03 -0.54520278268E+02 -0.21424710872E+03  0.40074805985E+03  0.12509180992E+03 0.  0.
         24    2    1    2    0    0  0.31830262709E+03  0.78098043189E+02  0.12384215012E+04  0.12833735079E+04  0.77096559127E+02 0.  0.
        -11    1    5    5    0    0  0.39507690300E+02 -0.44903575761E+01  0.84604959020E+02  0.93482725649E+02  0.00000000000E+00 0.  1.
         12    1    5    5    0    0  0.27879493679E+03  0.82588400765E+02  0.11538165422E+04  0.11898907823E+04  0.00000000000E+00 0. -1.
         13    1    3    3    0    0 -0.28862328185E+02  0.22127806129E+02 -0.11679560623E+04  0.11685221595E+04  0.00000000000E+00 0. -1.
        -14    1    3    3    0    0  0.20522218554E+02 -0.45705571050E+02 -0.11158364672E+04  0.11169606896E+04  0.00000000000E+00 0.  1.
          5    1    4    4  501    0 -0.15129919113E+03 -0.54198803762E+02 -0.41257182599E+02  0.16597765839E+03  0.41800000000E+01 0.  1.
         -5    1    4    4    0  501 -0.15866332633E+03 -0.32147450559E+00 -0.17298992612E+03  0.23477040147E+03  0.41800000000E+01 0.  1.
</event>
<event>
11    1  0.6763327E-009  0.1412782E+03  0.7561462E-02  0.1106139E+00
         22   -1    0    0    0    0  0.00000000000E+00  0.00000000000E+00  0.91707737678E+03  0.91707737678E+03  0.00000000000E+00 0.  1.
         22   -1    0    0    0    0 -0.00000000000E+00 -0.00000000000E+00 -0.68485603596E+03  0.68485603596E+03  0.00000000000E+00 0.  1.
        -24    2    1    2    0    0  0.16706405871E+02 -0.30124537472E+02 -0.47536151669E+03  0.48332375321E+03  0.80291264243E+02 0.  0.
         25    2    1    2    0    0 -0.79264383932E+02  0.48821467337E+02 -0.17232677801E+03  0.23239999149E+03  0.12508740701E+03 0.  0.
         24    2    1    2    0    0  0.62557978060E+02 -0.18696929865E+02  0.87990963552E+03  0.88620966805E+03  0.82846443774E+02 0.  0.
        -11    1    5    5    0    0  0.43363483971E+02 -0.49747385167E+02  0.65995889322E+03  0.66325028067E+03  0.00000000000E+00 0.  1.
         12    1    5    5    0    0  0.19194494089E+02  0.31050455302E+02  0.21995074231E+03  0.22295938738E+03  0.00000000000E+00 0. -1.
         13    1    3    3    0    0 -0.31699582600E+02 -0.95953000088E+01 -0.13992118487E+03  0.14378759089E+03  0.00000000000E+00 0. -1.
        -14    1    3    3    0    0  0.48405988471E+02 -0.20529237463E+02 -0.33544033183E+03  0.33953616232E+03  0.00000000000E+00 0.  1.
          5    1    4    4  501    0 -0.85891964514E+02  0.33382017774E+02 -0.42747514703E+02  0.10166912556E+03  0.41800000000E+01 0.  1.
         -5    1    4    4    0  501  0.66275805822E+01  0.15439449564E+02 -0.12957926331E+03  0.13073086593E+03  0.41800000000E+01 0.  1.
</event>
<event>
11    1  0.6763327E-009  0.1394720E+03  0.7561462E-02  0.1108149E+00
         22   -1    0    0    0    0  0.00000000000E+00  0.00000000000E+00  0.22470517755E+03  0.22470517755E+03  0.00000000000E+00 0.  1.
         22   -1    0    0    0    0 -0.00000000000E+00 -0.00000000000E+00 -0.23195775369E+04  0.23195775369E+04  0.00000000000E+00 0.  1.
        -24    2    1    2    0    0  0.41661206954E+02  0.46570903199E+02 -0.19016785149E+04  0.19043807981E+04  0.79878312486E+02 0.  0.
         25    2    1    2    0    0 -0.65807936045E+02 -0.12229088655E+02 -0.39466241457E+03  0.41938811582E+03  0.12509090761E+03 0.  0.
         24    2    1    2    0    0  0.24146729090E+02 -0.34341814544E+02  0.20146857015E+03  0.22051380053E+03  0.79210647740E+02 0.  0.
        -13    1    5    5    0    0 -0.22213314258E+02 -0.28598268717E+02  0.13141745205E+03  0.13631521928E+03  0.00000000000E+00 0.  1.
         14    1    5    5    0    0  0.46360043349E+02 -0.57435458269E+01  0.70051118095E+02  0.84198581249E+02  0.00000000000E+00 0. -1.
         11    1    3    3    0    0 -0.11680900370E+02  0.42136869364E+02 -0.59397083548E+03  0.59557813308E+03  0.00000000000E+00 0. -1.
        -12    1    3    3    0    0  0.53342107325E+02  0.44340338346E+01 -0.13077076794E+04  0.13088026650E+04  0.00000000000E+00 0.  1.
          5    1    4    4  501    0  0.27000403692E+02  0.21286724013E+02 -0.49785421696E+02  0.60648223652E+02  0.41800000000E+01 0. -1.
         -5    1    4    4    0  501 -0.92808339737E+02 -0.33515812668E+02 -0.34487699287E+03  0.35873989217E+03  0.41800000000E+01 0. -1.
</event>
<event>
11    1  0.6763327E-009  0.2498041E+03  0.7561462E-02  0.1024004E+00
         22   -1    0    0    0    0  0.00000000000E+00  0.00000000000E+00  0.21466475057E+04  0.21466475057E+04  0.00000000000E+00 0. -1.
         22   -1    0    0    0    0 -0.00000000000E+00 -0.00000000000E+00 -0.27790263654E+03  0.27790263654E+03  0.00000000000E+00 0.  1.
         24    2    1    2    0    0 -0.11362580723E+01 -0.13007905053E+03 -0.18884356230E+03  0.24253640311E+03  0.78994717203E+02 0.  0.
         25    2    1    2    0    0  0.18380151235E+03  0.22906083970E+03  0.41462982582E+03  0.52327558593E+03  0.12509029599E+03 0.  0.
        -24    2    1    2    0    0 -0.18266525427E+03 -0.98981789168E+02  0.16429586056E+04  0.16587381532E+04  0.94526669720E+02 0.  0.
        -13    1    3    3    0    0 -0.33822998405E+02 -0.10424565170E+03 -0.14830472581E+03  0.18440564747E+03  0.00000000000E+00 0.  1.
         14    1    3    3    0    0  0.32686740333E+02 -0.25833398830E+02 -0.40538836485E+02  0.58130755648E+02  0.00000000000E+00 0. -1.
         13    1    5    5    0    0 -0.19341482525E+03 -0.86789474536E+02  0.15283533895E+04  0.15429859982E+04  0.00000000000E+00 0. -1.
        -14    1    5    5    0    0  0.10749570980E+02 -0.12192314632E+02  0.11460521616E+03  0.11575215498E+03  0.00000000000E+00 0.  1.
          5    1    4    4  501    0  0.14718689843E+03  0.14618428706E+03  0.19125054312E+03  0.28218446360E+03  0.41800000000E+01 0. -1.
         -5    1    4    4    0  501  0.36614613920E+02  0.82876552633E+02  0.22337928271E+03  0.24109112234E+03  0.41800000000E+01 0. -1.
</event>
<event>
11    1  0.6763327E-009  0.1832682E+03  0.7561462E-02  0.1067029E+00
         22   -1    0    0    0    0  0.00000000000E+00  0.00000000000E+00  0.67691922214E+03  0.67691922214E+03  0.00000000000E+00 0.  1.
         22   -1    0    0    0    0 -0.00000000000E+00 -0.00000000000E+00 -0.21457682857E+03  0.21457682857E+03  0.00000000000E+00 0.  1.
        -24    2    1    2    0    0  0.62993561586E+02  0.12535930812E+03 -0.10561190066E+03  0.19355560167E+03  0.81404867445E+02 0.  0.
         25    2    1    2    0    0 -0.78589307572E+02 -0.89663119176E+02  0.61000621765E+02  0.18325845716E+03  0.12508729775E+03 0.  0.
         24    2    1    2    0    0  0.15595745986E+02 -0.35696188943E+02  0.50695367246E+03  0.51468199189E+03  0.79862892246E+02 0.  0.
        -11    1    5    5    0    0  0.30742998869E+02  0.90217639841E+01  0.32952692094E+03  0.33108082975E+03  0.00000000000E+00 0.  1.
         12    1    5    5    0    0 -0.15147252883E+02 -0.44717952927E+02  0.17742675153E+03  0.18360116215E+03  0.00000000000E+00 0. -1.
         11    1    3    3    0    0  0.12543829259E+02  0.39046189266E+02 -0.80699635528E+02  0.90522835368E+02  0.00000000000E+00 0. -1.
        -12    1    3    3    0    0  0.50449732326E+02  0.86313118853E+02 -0.24912265130E+02  0.10303276630E+03  0.00000000000E+00 0.  1.
          5    1    4    4  501    0 -0.27630643220E+02 -0.36172595531E+02  0.92234749655E+02  0.10293993664E+03  0.41800000000E+01 0. -1.
         -5    1    4    4    0  501 -0.50958664352E+02 -0.53490523645E+02 -0.31234127890E+02  0.80318520513E+02  0.41800000000E+01 0. -1.
</event>
<event>
11    1  0.6763327E-009  0.1340539E+03  0.7561462E-02  0.1114386E+00
         22   -1    0    0    0    0  0.00000000000E+00  0.00000000000E+00  0.23639517662E+03  0.23639517662E+03  0.00000000000E+00 0.  1.
         22   -1    0    0    0    0 -0.00000000000E+00 -0.00000000000E+00 -0.21455328325E+04  0.21455328325E+04  0.00000000000E+00 0. -1.
         24    2    1    2    0    0  0.24369125737E+02  0.41846828958E+02 -0.20959334486E+04  0.20980404276E+04  0.80570487985E+02 0.  0.
         25    2    1    2    0    0 -0.10197360927E+02 -0.16609857835E+02  0.10086787748E+03  0.16186997733E+03  0.12509071631E+03 0.  0.
        -24    2    1    2    0    0 -0.14171764810E+02 -0.25236971123E+02  0.85927915271E+02  0.12201760416E+03  0.81651365412E+02 0.  0.
        -13    1    3    3    0    0  0.68122889712E+01 -0.80159280770E+01 -0.38030177641E+02  0.39458291845E+02  0.00000000000E+00 0.  1.
         14    1    3    3    0    0  0.17556836766E+02  0.49862757035E+02 -0.20579032710E+04  0.20585821358E+04  0.00000000000E+00 0. -1.
         13    1    5    5    0    0  0.18357523793E+02  0.17205382455E+02  0.60238982987E+01  0.25871049765E+02  0.00000000000E+00 0. -1.
        -14    1    5    5    0    0 -0.32529288603E+02 -0.42442353578E+02  0.79904016972E+02  0.96146554398E+02  0.00000000000E+00 0.  1.
          5    1    4    4  501    0 -0.62175521095E+02 -0.85062887132E+01  0.21319520235E+02  0.66408935499E+02  0.41800000000E+01 0. -1.
         -5    1    4    4    0  501  0.51978160168E+02 -0.81035691213E+01  0.79548357243E+02  0.95461041829E+02  0.41800000000E+01 0. -1.
</event>
<event>
11    1  0.6763327E-009  0.1529097E+03  0.7561462E-02  0.1093942E+00
         22   -1    0    0    0    0  0.00000000000E+00  0.00000000000E+00  0.67907545873E+03  0.67907545873E+03  0.00000000000E+00 0.  1.
         22   -1    0    0    0    0 -0.00000000000E+00 -0.00000000000E+00 -0.30959412973E+03  0.30959412973E+03  0.00000000000E+00 0. -1.
         24    2    1    2    0    0 -0.10582743869E+02  0.41760281776E+02 -0.26517305464E+03  0.28594164583E+03  0.97928342746E+02 0.  0.
         25    2    1    2    0    0 -0.62194703174E+02  0.21323935864E+02  0.16787674149E+03  0.21943828072E+03  0.12509063662E+03 0.  0.
        -24    2    1    2    0    0  0.72777447043E+02 -0.63084217641E+02  0.46677764215E+03  0.48328966192E+03  0.80070935990E+02 0.  0.
        -11    1    3    3    0    0  0.36619997342E+02  0.25352013071E+02 -0.19354554150E+03  0.19860419282E+03  0.00000000000E+00 0.  1.
         12    1    3    3    0    0 -0.47202741211E+02  0.16408268705E+02 -0.71627513134E+02  0.87337453005E+02  0.00000000000E+00 0. -1.
         11    1    5    5    0    0  0.39324011560E+01 -0.13051805839E+02  0.63057610739E+01  0.15019188967E+02  0.00000000000E+00 0. -1.
        -12    1    5    5    0    0  0.68845045887E+02 -0.50032411801E+02  0.46047188108E+03  0.46827047295E+03  0.00000000000E+00 0.  1.
          5    1    4    4  501    0  0.97298532174E+01  0.44647292251E+02  0.12330872953E+03  0.13156962388E+03  0.41800000000E+01 0.  1.
         -5    1    4    4    0  501 -0.71924556391E+02 -0.23323356387E+02  0.44568011954E+02  0.87868656839E+02  0.41800000000E+01 0.  1.
</event>
<event>
11    1  0.6763327E-009  0.1379015E+03  0.7561462E-02  0.1109925E+00
         22   -1    0    0    0    0  0.00000000000E+00  0.00000000000E+00  0.13512750810E+04  0.13512750810E+04  0.00000000000E+00 0.  1.
         22   -1    0    0    0    0 -0.00000000000E+00 -0.00000000000E+00 -0.13638369244E+03  0.13638369244E+03  0.00000000000E+00 0.  1.
        -24    2    1    2    0    0 -0.24845767247E+02 -0.48494636756E+01 -0.10188822229E+03  0.13443945057E+03  0.83975749962E+02 0.  0.
         25    2    1    2    0    0  0.14979470554E+02 -0.53328907992E+02  0.27514804590E+03  0.30728668003E+03  0.12510115745E+03 0.  0.
         24    2    1    2    0    0  0.98662966926E+01  0.58178371668E+02  0.10416315650E+04  0.10459326429E+04  0.74139797197E+02 0.  0.
        -11    1    5    5    0    0  0.84684197826E+00  0.63376744966E+02  0.47554063926E+03  0.47974600419E+03  0.00000000000E+00 0.  1.
         12    1    5    5    0    0  0.90194547143E+01 -0.51983732986E+01  0.56609092572E+03  0.56618663869E+03  0.00000000000E+00 0. -1.
         13    1    3    3    0    0 -0.53390838426E+02 -0.17563515989E+02 -0.70302184673E+02  0.90008087923E+02  0.00000000000E+00 0. -1.
        -14    1    3    3    0    0  0.28545071179E+02  0.12714052313E+02 -0.31586037615E+02  0.44431362651E+02  0.00000000000E+00 0.  1.
          5    1    4    4  501    0 -0.24271340190E+02 -0.83183414778E+02  0.18838962942E+03  0.20740468491E+03  0.41800000000E+01 0.  1.
         -5    1    4    4    0  501  0.39250810744E+02  0.29854506786E+02  0.86758416475E+02  0.99881995118E+02  0.41800000000E+01 0.  1.
</event>
<event>
11    1  0.6763327E-009  0.1617836E+03  0.7561462E-02  0.1085412E+00
         22   -1    0    0    0    0  0.00000000000E+00  0.00000000000E+00  0.45562339768E+03  0.45562339768E+03  0.00000000000E+00 0.  1.
         22   -1    0    0    0    0 -0.00000000000E+00 -0.00000000000E+00 -0.55756515208E+03  0.55756515208E+03  0.00000000000E+00 0. -1.
         24    2    1    2    0    0 -0.12236767969E+02 -0.10548404242E+02 -0.49046238078E+03  0.49907937820E+03  0.90916838177E+02 0.  0.
         25    2    1    2    0    0 -0.44351836257E+02 -0.78938088472E+02  0.71085214405E+02  0.16999607821E+03  0.12508897517E+03 0.  0.
        -24    2    1    2    0    0  0.56588604226E+02  0.89486492714E+02  0.31743541197E+03  0.34411309334E+03  0.80240125429E+02 0.  0.
        -11    1    3    3    0    0  0.49657738406E+01  0.14017095511E+02 -0.10554945925E+02  0.18235809823E+02  0.00000000000E+00 0.  1.
         12    1    3    3    0    0 -0.17202541810E+02 -0.24565499754E+02 -0.47990743485E+03  0.48084356838E+03  0.00000000000E+00 0. -1.
         11    1    5    5    0    0 -0.16213153711E+02 -0.55115746904E+00  0.27744041171E+02  0.32138791955E+02  0.00000000000E+00 0. -1.
        -12    1    5    5    0    0  0.72801757937E+02  0.90037650183E+02  0.28969137080E+03  0.31197430139E+03  0.00000000000E+00 0.  1.
          5    1    4    4  501    0  0.34597834915E+02 -0.28108171217E+02  0.60711359302E+02  0.75434879321E+02  0.41800000000E+01 0. -1.
         -5    1    4    4    0  501 -0.78949671172E+02 -0.50829917255E+02  0.10373855103E+02  0.94561198892E+02  0.41800000000E+01 0. -1.
</event>
<event>
11    1  0.6763327E-009  0.1486062E+03  0.7561462E-02  0.1098312E+00
         22   -1    0    0    0    0  0.00000000000E+00  0.00000000000E+00  0.59505111835E+03  0.59505111835E+03  0.00000000000E+00 0. -1.
         22   -1    0    0    0    0 -0.00000000000E+00 -0.00000000000E+00 -0.10812113531E+04  0.10812113531E+04  0.00000000000E+00 0.  1.
         24    2    1    2    0    0 -0.70861552893E+00 -0.47039298660E+01 -0.71474270188E+03  0.71923879563E+03  0.80154139964E+02 0.  0.
         25    2    1    2    0    0  0.79559898730E+02  0.19374200140E+02 -0.34284921712E+03  0.37402915386E+03  0.12508830937E+03 0.  0.
        -24    2    1    2    0    0 -0.78851283201E+02 -0.14670270274E+02  0.57143168425E+03  0.58299452197E+03  0.83160694955E+02 0.  0.
        -11    1    3    3    0    0 -0.49384525348E+01  0.10719691725E+02 -0.68784014434E+03  0.68794139595E+03  0.00000000000E+00 0.  1.
         12    1    3    3    0    0  0.42298370059E+01 -0.15423621591E+02 -0.26902557545E+02  0.31297399677E+02  0.00000000000E+00 0. -1.
         13    1    5    5    0    0 -0.87922669651E+02  0.64842931581E+01  0.50622590036E+03  0.51384540875E+03  0.00000000000E+00 0. -1.
        -14    1    5    5    0    0  0.90713864502E+01 -0.21154563432E+02  0.65205783892E+02  0.69149113220E+02  0.00000000000E+00 0.  1.
          5    1    4    4  501    0  0.34882751495E+01  0.33762119054E+02 -0.25321848753E+03  0.25551736453E+03  0.41800000000E+01 0. -1.
         -5    1    4    4    0  501  0.76071623580E+02 -0.14387918914E+02 -0.89630729583E+02  0.11851178933E+03  0.41800000000E+01 0. -1.
</event>
<event>
11    1  0.6763327E-009  0.1338856E+03  0.7561462E-02  0.1114585E+00
         22   -1    0    0    0    0  0.00000000000E+00  0.00000000000E+00  0.47689946903E+03  0.47689946903E+03  0.00000000000E+00 0.  1.
         22   -1    0    0    0    0 -0.00000000000E+00 -0.00000000000E+00 -0.37497757043E+03  0.37497757043E+03  0.00000000000E+00 0.  1.
         24    2    1    2    0    0 -0.24709431783E+02  0.34117822249E+01 -0.28981195336E+03  0.30106032149E+03  0.77615414641E+02 0.  0.
         25    2    1    2    0    0  0.61405332458E+02  0.25282771681E+02 -0.69242547505E+01  0.14179246098E+03  0.12508926128E+03 0.  0.
        -24    2    1    2    0    0 -0.36695900675E+02 -0.28694553906E+02  0.39865810671E+03  0.40902425699E+03  0.78756524912E+02 0.  0.
        -13    1    3    3    0    0 -0.20978282651E+02  0.30140040372E+02 -0.25167769162E+03  0.25434262489E+03  0.00000000000E+00 0.  1.
         14    1    3    3    0    0 -0.37311491321E+01 -0.26728258147E+02 -0.38134261739E+02  0.46717696602E+02  0.00000000000E+00 0. -1.
         11    1    5    5    0    0 -0.28625323686E+02  0.14499130367E+02  0.65038959738E+02  0.72523790727E+02  0.00000000000E+00 0. -1.
        -12    1    5    5    0    0 -0.80705769890E+01 -0.43193684273E+02  0.33361914697E+03  0.33650046627E+03  0.00000000000E+00 0.  1.
          5    1    4    4  501    0  0.98139260563E+02  0.21511152130E+02  0.98144667951E+01  0.10103385714E+03  0.41800000000E+01 0.  1.
         -5    1    4    4    0  501 -0.36733928106E+02  0.37716195506E+01 -0.16738721546E+02  0.40758603841E+02  0.41800000000E+01 0.  1.
</event>
<event>
11    1  0.6763327E-009  0.1516686E+03  0.7561462E-02  0.1095186E+00
         22   -1    0    0    0    0  0.00000000000E+00  0.00000000000E+00  0.28153982103E+03  0.28153982103E+03  0.00000000000E+00 0.  1.
         22   -1    0    0    0    0 -0.00000000000E+00 -0.00000000000E+00 -0.72409658117E+03  0.72409658117E+03  0.00000000000E+00 0.  1.
         24    2    1    2    0    0 -0.24134779920E+02  0.54265289497E+02 -0.63225778420E+03  0.64013929149E+03  0.80630004157E+02 0.  0.
         25    2    1    2    0    0  0.64342704166E+02 -0.11512278185E+03  0.51557066784E+02  0.18894114104E+03  0.12508950860E+03 0.  0.
        -24    2    1    2    0    0 -0.40207924246E+02  0.60857492356E+02  0.13814395727E+03  0.17655596967E+03  0.82267526691E+02 0.  0.
        -13    1    3    3    0    0 -0.75992342154E+01  0.20639658841E+02 -0.54155060475E+03  0.54199704924E+03  0.00000000000E+00 0.  1.
         14    1    3    3    0    0 -0.16535545704E+02  0.33625630656E+02 -0.90707179454E+02  0.98142242247E+02  0.00000000000E+00 0. -1.
         11    1    5    5    0    0 -0.34605653598E+02  0.45436164579E+02  0.25199601263E+02  0.62426086025E+02  0.00000000000E+00 0. -1.
        -12    1    5    5    0    0 -0.56022706480E+01  0.15421327777E+02  0.11294435601E+03  0.11412988365E+03  0.00000000000E+00 0.  1.
          5    1    4    4  501    0  0.76944761045E+01  0.13148244323E+02 -0.24661840082E+02  0.29287540824E+02  0.41800000000E+01 0.  1.
         -5    1    4    4    0  501  0.56648228061E+02 -0.12827102618E+03  0.76218906866E+02  0.15965360022E+03  0.41800000000E+01 0.  1.
</event>
<event>
11    1  0.6763327E-009  0.1385819E+03  0.7561462E-02  0.1109152E+00
         22   -1    0    0    0    0  0.00000000000E+00  0.00000000000E+00  0.26902748518E+04  0.26902748518E+04  0.00000000000E+00 0. -1.
         22   -1    0    0    0    0 -0.00000000000E+00 -0.00000000000E+00 -0.19852674776E+02  0.19852674776E+02  0.00000000000E+00 0. -1.
         24    2    1    2    0    0 -0.43841243265E+02 -0.38511361995E+02  0.22747333145E+03  0.25549080555E+03  0.10062929783E+03 0.  0.
         25    2    1    2    0    0  0.52884418442E+02  0.38869857393E+02  0.10744128425E+04  0.10836593301E+04  0.12508780882E+03 0.  0.
        -24    2    1    2    0    0 -0.90431751773E+01 -0.35849539831E+00  0.13685360030E+04  0.13709773910E+04  0.81279194045E+02 0.  0.
        -11    1    3    3    0    0  0.17228268402E+02  0.10129198228E+01  0.14289326328E+03  0.14393166410E+03  0.00000000000E+00 0.  1.
         12    1    3    3    0    0 -0.61069511667E+02 -0.39524281818E+02  0.84580068173E+02  0.11155914145E+03  0.00000000000E+00 0. -1.
         11    1    5    5    0    0 -0.21299983149E+00 -0.40008250547E+02  0.79384408164E+03  0.79485164114E+03  0.00000000000E+00 0. -1.
        -12    1    5    5    0    0 -0.88301753458E+01  0.39649755149E+02  0.57469192140E+03  0.57612574981E+03  0.00000000000E+00 0.  1.
          5    1    4    4  501    0  0.29571596337E+02  0.55200211635E+02  0.22039553828E+03  0.22915760596E+03  0.41800000000E+01 0. -1.
         -5    1    4    4    0  501  0.23312822105E+02 -0.16330354242E+02  0.85401730425E+03  0.85450172410E+03  0.41800000000E+01 0. -1.
</event>
<event>
11    1  0.6763327E-009  0.1317741E+03  0.7561462E-02  0.1117108E+00
         22   -1    0    0    0    0  0.00000000000E+00  0.00000000000E+00  0.22297889043E+03  0.22297889043E+03  0.00000000000E+00 0. -1.
         22   -1    0    0    0    0 -0.00000000000E+00 -0.00000000000E+00 -0.15647807983E+04  0.15647807983E+04  0.00000000000E+00 0. -1.
         24    2    1    2    0    0  0.12362839190E+02 -0.63564403824E+01 -0.10947626197E+04  0.10978138373E+04  0.80602627770E+02 0.  0.
         25    2    1    2    0    0 -0.81010411345E+01  0.47543382633E+02 -0.44905438818E+03  0.46863315718E+03  0.12506475267E+03 0.  0.
        -24    2    1    2    0    0 -0.42617980555E+01 -0.41186942251E+02  0.20201510009E+03  0.22131269425E+03  0.80341028369E+02 0.  0.
        -13    1    3    3    0    0  0.28147349168E+01  0.22799028640E+02 -0.10107187081E+03  0.10364960930E+03  0.00000000000E+00 0.  1.
         14    1    3    3    0    0  0.95481042732E+01 -0.29155469022E+02 -0.99369074893E+03  0.99416422797E+03  0.00000000000E+00 0. -1.
         13    1    5    5    0    0 -0.38711828542E+02 -0.54633278919E+01  0.11041797677E+03  0.11713489324E+03  0.00000000000E+00 0. -1.
        -14    1    5    5    0    0  0.34450030487E+02 -0.35723614359E+02  0.91597123314E+02  0.10417780101E+03  0.00000000000E+00 0.  1.
          5    1    4    4  501    0 -0.34761408166E+02 -0.26679127399E+02 -0.26072478865E+03  0.26441448363E+03  0.41800000000E+01 0. -1.
         -5    1    4    4    0  501  0.26660367032E+02  0.74222510032E+02 -0.18832959953E+03  0.20421867355E+03  0.41800000000E+01 0. -1.
</event>
<event>
11    1  0.6763327E-009  0.1775293E+03  0.7561462E-02  0.1071659E+00
         22   -1    0    0    0    0  0.00000000000E+00  0.00000000000E+00  0.17721591634E+04  0.17721591634E+04  0.00000000000E+00 0. -1.
         22   -1    0    0    0    0 -0.00000000000E+00 -0.00000000000E+00 -0.46664825794E+03  0.46664825794E+03  0.00000000000E+00 0. -1.
         24    2    1    2    0    0 -0.62399356323E+02 -0.11388833046E+03 -0.42034367614E+03  0.44758983633E+03  0.82362758807E+02 0.  0.
         25    2    1    2    0    0  0.54191791482E+02  0.56653818375E+02  0.14402092522E+03  0.20624801250E+03  0.12509920206E+03 0.  0.
        -24    2    1    2    0    0  0.82075648410E+01  0.57234512081E+02  0.15818336564E+04  0.15849695725E+04  0.81164498828E+02 0.  0.
        -13    1    3    3    0    0 -0.67982135272E+02 -0.81053306410E+02 -0.21560521684E+03  0.24015998569E+03  0.00000000000E+00 0.  1.
         14    1    3    3    0    0  0.55827789492E+01 -0.32835024046E+02 -0.20473845929E+03  0.20742985065E+03  0.00000000000E+00 0. -1.
         13    1    5    5    0    0 -0.12828331446E+02  0.28244250859E+02  0.13524959887E+04  0.13528516930E+04  0.00000000000E+00 0. -1.
        -14    1    5    5    0    0  0.21035896287E+02  0.28990261222E+02  0.22933766766E+03  0.23211787951E+03  0.00000000000E+00 0.  1.
          5    1    4    4  501    0  0.35808050309E+02 -0.34023760489E+02  0.78337944858E+02  0.92704577823E+02  0.41800000000E+01 0.  1.
         -5    1    4    4    0  501  0.18383741173E+02  0.90677578865E+02  0.65682980363E+02  0.11354343467E+03  0.41800000000E+01 0.  1.
</event>
<event>
11    1  0.6763327E-009  0.1415082E+03  0.7561462E-02  0.1105886E+00
         22   -1    0    0    0    0  0.00000000000E+00  0.00000000000E+00  0.95245516307E+03  0.95245516307E+03  0.00000000000E+00 0. -1.
         22   -1    0    0    0    0 -0.00000000000E+00 -0.00000000000E+00 -0.15352938007E+04  0.15352938007E+04  0.00000000000E+00 0. -1.
        -24    2    1    2    0    0  0.11582717873E+02 -0.17143666050E+02 -0.13997018462E+04  0.14022086896E+04  0.81215063181E+02 0.  0.
         25    2    1    2    0    0 -0.56689734249E+02 -0.31370489501E+02 -0.93905001281E+02  0.16930647462E+03  0.12509476208E+03 0.  0.
         24    2    1    2    0    0  0.45107016376E+02  0.48514155551E+02  0.91076820987E+03  0.91623379946E+03  0.74815619724E+02 0.  0.
        -13    1    5    5    0    0  0.37751696928E+02 -0.56797840096E+01  0.21862326848E+03  0.22193148512E+03  0.00000000000E+00 0.  1.
         14    1    5    5    0    0  0.73553194485E+01  0.54193939561E+02  0.69214494139E+03  0.69430231434E+03  0.00000000000E+00 0. -1.
         13    1    3    3    0    0  0.25329006081E+02 -0.64474336072E+01 -0.13334330798E+04  0.13336892091E+04  0.00000000000E+00 0. -1.
        -14    1    3    3    0    0 -0.13746288209E+02 -0.10696232443E+02 -0.66268766332E+02  0.68519480581E+02  0.00000000000E+00 0.  1.
          5    1    4    4  501    0 -0.78798513491E+02  0.19391176156E+02 -0.35356036562E+02  0.88615716227E+02  0.41800000000E+01 0. -1.
         -5    1    4    4    0  501  0.22108779242E+02 -0.50761665657E+02 -0.58548964719E+02  0.80690758390E+02  0.41800000000E+01 0. -1.
</event>
<event>
11    1  0.6763327E-009  0.1252783E+03  0.7561462E-02  0.1125210E+00
         22   -1    0    0    0    0  0.00000000000E+00  0.00000000000E+00  0.19068897538E+03  0.19068897538E+03  0.00000000000E+00 0. -1.
         22   -1    0    0    0    0 -0.00000000000E+00 -0.00000000000E+00 -0.13852182274E+04  0.13852182274E+04  0.00000000000E+00 0. -1.
        -24    2    1    2    0    0  0.40293672007E+01  0.34840999726E+01 -0.12653377620E+04  0.12683931527E+04  0.87824615071E+02 0.  0.
         25    2    1    2    0    0 -0.15146593017E+02 -0.19990187770E+02 -0.68492959554E+02  0.14483828194E+03  0.12513119323E+03 0.  0.
         24    2    1    2    0    0  0.11117225817E+02  0.16506087797E+02  0.13930146962E+03  0.16267576811E+03  0.81623908537E+02 0.  0.
        -13    1    5    5    0    0 -0.16681721627E+02  0.94847616705E+01 -0.12493882580E+01  0.19230223904E+02  0.00000000000E+00 0.  1.
         14    1    5    5    0    0  0.27798947444E+02  0.70213261264E+01  0.14055085788E+03  0.14344554420E+03  0.00000000000E+00 0. -1.
         13    1    3    3    0    0  0.14960281737E+02 -0.34891956501E+02 -0.91555438497E+03  0.91634114307E+03  0.00000000000E+00 0. -1.
        -14    1    3    3    0    0 -0.10930914536E+02  0.38376056474E+02 -0.34978337707E+03  0.35205200962E+03  0.00000000000E+00 0.  1.
          5    1    4    4  501    0 -0.18323049686E+01 -0.46796818071E+02 -0.94121975080E+02  0.10521272792E+03  0.41800000000E+01 0. -1.
         -5    1    4    4    0  501 -0.13314288049E+02  0.26806630302E+02  0.25629015525E+02  0.39625554017E+02  0.41800000000E+01 0. -1.
</event>
<event>
11    1  0.6862268E-009  0.1614653E+03  0.7561462E-02  0.1085707E+00
         22   -1    0    0    0    0  0.00000000000E+00  0.00000000000E+00  0.22370132797E+04  0.22370132797E+04  0.00000000000E+00 0. -1.
         22   -1    0    0    0    0 -0.00000000000E+00 -0.00000000000E+00 -0.36619077530E+03  0.36619077530E+03  0.00000000000E+00 0. -1.
         24    2    1    2    0    0 -0.45898347502E+02  0.87656699139E+02 -0.30089604725E+03  0.32657125061E+03  0.79498397900E+02 0.  0.
         25    2    1    2    0    0  0.17122598636E+02 -0.16300808527E+03  0.15807312484E+03  0.25980579172E+03  0.12508843817E+03 0.  0.
        -24    2    1    2    0    0  0.28775748866E+02  0.75351386130E+02  0.20136454268E+04  0.20168270126E+04  0.79482193154E+02 0.  0.
        -11    1    3    3    0    0 -0.31491503814E+02  0.12830067746E+02 -0.30622121055E+02  0.45760679068E+02  0.00000000000E+00 0.  1.
         12    1    3    3    0    0 -0.14406843688E+02  0.74826631393E+02 -0.27027392619E+03  0.28081057154E+03  0.00000000000E+00 0. -1.
         11    1    5    5    0    0  0.73069150669E+01  0.57105153892E+02  0.18408181943E+04  0.18417182233E+04  0.00000000000E+00 0. -1.
        -12    1    5    5    0    0  0.21468833799E+02  0.18246232238E+02  0.17282723250E+03  0.17510878936E+03  0.00000000000E+00 0.  1.
          5    1    4    4  501    0  0.20502681723E+01 -0.16102856003E+03  0.17418738882E+03  0.23726171113E+03  0.41800000000E+01 0. -1.
         -5    1    4    4    0  501  0.15072330464E+02 -0.19795252380E+01 -0.16114263978E+02  0.22544080583E+02  0.41800000000E+01 0. -1.
</event>
<event>
11    1  0.6763327E-009  0.2397583E+03  0.7561462E-02  0.1029501E+00
         22   -1    0    0    0    0  0.00000000000E+00  0.00000000000E+00  0.34837702040E+03  0.34837702040E+03  0.00000000000E+00 0.  1.
         22   -1    0    0    0    0 -0.00000000000E+00 -0.00000000000E+00 -0.97870178730E+03  0.97870178730E+03  0.00000000000E+00 0.  1.
        -24    2    1    2    0    0  0.16653046305E+03 -0.11660620172E+03 -0.83193893027E+03  0.86002322411E+03  0.78664864548E+02 0.  0.
         25    2    1    2    0    0 -0.15098762542E+03  0.16042475054E+03  0.90698685117E+01  0.25350120864E+03  0.12508891498E+03 0.  0.
         24    2    1    2    0    0 -0.15542837631E+02 -0.43818548818E+02  0.19254429485E+03  0.21355437495E+03  0.79815540827E+02 0.  0.
        -13    1    5    5    0    0  0.25433546181E+02 -0.13180859485E+02  0.12812911620E+03  0.13129231031E+03  0.00000000000E+00 0.  1.
         14    1    5    5    0    0 -0.40976383812E+02 -0.30637689333E+02  0.64415178651E+02  0.82262064639E+02  0.00000000000E+00 0. -1.
         13    1    3    3    0    0  0.35426655825E+02  0.84149765582E+01 -0.12047336717E+03  0.12585583805E+03  0.00000000000E+00 0. -1.
        -14    1    3    3    0    0  0.13110380723E+03 -0.12502117828E+03 -0.71146556309E+03  0.73416738606E+03  0.00000000000E+00 0.  1.
          5    1    4    4  501    0 -0.78141821910E+02  0.15840637701E+03 -0.13234308209E+02  0.17717602525E+03  0.41800000000E+01 0. -1.
         -5    1    4    4    0  501 -0.72845803515E+02  0.20183735324E+01  0.22304176721E+02  0.76325183397E+02  0.41800000000E+01 0. -1.
</event>
<event>
11    1  0.6763327E-009  0.1331536E+03  0.7561462E-02  0.1115454E+00
         22   -1    0    0    0    0  0.00000000000E+00  0.00000000000E+00  0.37324676579E+03  0.37324676579E+03  0.00000000000E+00 0. -1.
         22   -1    0    0    0    0 -0.00000000000E+00 -0.00000000000E+00 -0.24334668214E+03  0.24334668214E+03  0.00000000000E+00 0. -1.
        -24    2    1    2    0    0  0.45644068099E+02  0.41070496684E+01 -0.19941046075E+03  0.22101395398E+03  0.83560679689E+02 0.  0.
         25    2    1    2    0    0 -0.40427602608E+02 -0.18353445037E+02  0.17395215672E+03  0.21881114033E+03  0.12509085621E+03 0.  0.
         24    2    1    2    0    0 -0.52164654909E+01  0.14246395368E+02  0.15535838767E+03  0.17676835362E+03  0.82949689146E+02 0.  0.
        -13    1    5    5    0    0 -0.35000164260E+02  0.56969699720E+01  0.26585822479E+02  0.44320118705E+02  0.00000000000E+00 0.  1.
         14    1    5    5    0    0  0.29783698769E+02  0.85494253964E+01  0.12877256519E+03  0.13244823491E+03  0.00000000000E+00 0. -1.
         13    1    3    3    0    0  0.61480316765E+02  0.24326950703E+02 -0.16732857295E+03  0.17991798466E+03  0.00000000000E+00 0. -1.
        -14    1    3    3    0    0 -0.15836248666E+02 -0.20219901034E+02 -0.32081887798E+02  0.41095969320E+02  0.00000000000E+00 0.  1.
          5    1    4    4  501    0 -0.53504889492E+02 -0.53663339114E+02  0.54339807445E+02  0.93342456779E+02  0.41800000000E+01 0.  1.
         -5    1    4    4    0  501  0.13077286884E+02  0.35309894077E+02  0.11961234928E+03  0.12546868355E+03  0.41800000000E+01 0.  1.
</event>
<event>
11    1  0.6763327E-009  0.1598021E+03  0.7561462E-02  0.1087264E+00
         22   -1    0    0    0    0  0.00000000000E+00  0.00000000000E+00  0.95450975275E+03  0.95450975275E+03  0.00000000000E+00 0.  1.
         22   -1    0    0    0    0 -0.00000000000E+00 -0.00000000000E+00 -0.94267220122E+02  0.94267220122E+02  0.00000000000E+00 0.  1.
        -24    2    1    2    0    0  0.27539067860E+02 -0.76508235129E+01 -0.36000101068E+02  0.88956419876E+02  0.76159713768E+02 0.  0.
         25    2    1    2    0    0  0.77216489308E+02  0.58499600504E+01  0.18524965777E+03  0.23656241866E+03  0.12509090280E+03 0.  0.
         24    2    1    2    0    0 -0.10475555717E+03  0.18008634625E+01  0.71099297593E+03  0.72325813434E+03  0.81328637042E+02 0.  0.
        -13    1    5    5    0    0 -0.73638217725E+02  0.11592314970E+02  0.64843261425E+03  0.65270347334E+03  0.00000000000E+00 0.  1.
         14    1    5    5    0    0 -0.31117339442E+02 -0.97914515076E+01  0.62560361671E+02  0.70554661002E+02  0.00000000000E+00 0. -1.
         13    1    3    3    0    0  0.12364649003E+02  0.24937534225E+02  0.10875412887E+02  0.29883770907E+02  0.00000000000E+00 0. -1.
        -14    1    3    3    0    0  0.15174418857E+02 -0.32588357737E+02 -0.46875513955E+02  0.59072648969E+02  0.00000000000E+00 0.  1.
          5    1    4    4  501    0 -0.24378941631E+02 -0.14123085192E+01 -0.38653483375E+00  0.24777998700E+02  0.41800000000E+01 0.  1.
         -5    1    4    4    0  501  0.10159543094E+03  0.72622685696E+01  0.18563619261E+03  0.21178441996E+03  0.41800000000E+01 0.  1.
</event>
<event>
11    1  0.6763327E-009  0.1358758E+03  0.7561462E-02  0.1112253E+00
         22   -1    0    0    0    0  0.00000000000E+00  0.00000000000E+00  0.25112513082E+03  0.25112513082E+03  0.00000000000E+00 0. -1.
         22   -1    0    0    0    0 -0.00000000000E+00 -0.00000000000E+00 -0.26587158122E+03  0.26587158122E+03  0.00000000000E+00 0. -1.
        -24    2    1    2    0    0 -0.10902537616E+02  0.97642232754E+01 -0.19243658044E+03  0.20920416707E+03  0.80748626273E+02 0.  0.
         25    2    1    2    0    0 -0.38197798938E+01 -0.58971148397E+02  0.50477778565E+02  0.14726312187E+03  0.12508490665E+03 0.  0.
         24    2    1    2    0    0  0.14722317510E+02  0.49206925122E+02  0.12721235147E+03  0.16052942311E+03  0.83358534078E+02 0.  0.
        -13    1    5    5    0    0  0.44537065052E+02  0.44337430748E+02  0.60213185422E+02  0.87034393359E+02  0.00000000000E+00 0.  1.
         14    1    5    5    0    0 -0.29814747542E+02  0.48694943739E+01  0.66999166051E+02  0.73495029750E+02  0.00000000000E+00 0. -1.
         13    1    3    3    0    0 -0.15500507660E+02 -0.11299240501E+02 -0.18559728800E+03  0.18658588341E+03  0.00000000000E+00 0. -1.
        -14    1    3    3    0    0  0.45979700433E+01  0.21063463777E+02 -0.68392924407E+01  0.22618283664E+02  0.00000000000E+00 0.  1.
          5    1    4    4  501    0 -0.63060725459E+02 -0.31197968583E+02  0.39483826279E+02  0.80786219597E+02  0.41800000000E+01 0. -1.
         -5    1    4    4    0  501  0.59240945565E+02 -0.27773179814E+02  0.10993952286E+02  0.66476902269E+02  0.41800000000E+01 0. -1.
</event>
<event>
11    1  0.6763327E-009  0.1396231E+03  0.7561462E-02  0.1107980E+00
         22   -1    0    0    0    0  0.00000000000E+00  0.00000000000E+00  0.30025314748E+03  0.30025314748E+03  0.00000000000E+00 0.  1.
         22   -1    0    0    0    0 -0.00000000000E+00 -0.00000000000E+00 -0.40741956952E+03  0.40741956952E+03  0.00000000000E+00 0. -1.
         24    2    1    2    0    0 -0.59390849575E+02 -0.15550836985E+02 -0.25043110434E+03  0.27088955107E+03  0.83044020313E+02 0.  0.
         25    2    1    2    0    0 -0.21812662048E+01 -0.92434960330E+01 -0.10738465613E+03  0.16513481021E+03  0.12509133076E+03 0.  0.
        -24    2    1    2    0    0  0.61572115780E+02  0.24794333018E+02  0.25064933843E+03  0.27164835572E+03  0.81005270915E+02 0.  0.
        -13    1    3    3    0    0 -0.31136596596E+02  0.29802298640E+02 -0.65620899608E+02  0.78509662572E+02  0.00000000000E+00 0.  1.
         14    1    3    3    0    0 -0.28254252979E+02 -0.45353135625E+02 -0.18481020474E+03  0.19237988849E+03  0.00000000000E+00 0. -1.
         11    1    5    5    0    0  0.31259066629E+02 -0.77603201800E+01  0.22710356046E+02  0.39409543102E+02  0.00000000000E+00 0. -1.
        -12    1    5    5    0    0  0.30313049151E+02  0.32554653198E+02  0.22793898238E+03  0.23223881261E+03  0.00000000000E+00 0.  1.
          5    1    4    4  501    0 -0.15756573994E+02  0.56136048817E+02 -0.53224372570E+02  0.79055877936E+02  0.41800000000E+01 0. -1.
         -5    1    4    4    0  501  0.13575307790E+02 -0.65379544850E+02 -0.54160283560E+02  0.86078932276E+02  0.41800000000E+01 0. -1.
</event>
<event>
11    1  0.6763327E-009  0.1788159E+03  0.7561462E-02  0.1070605E+00
         22   -1    0    0    0    0  0.00000000000E+00  0.00000000000E+00  0.30750392668E+04  0.30750392668E+04  0.00000000000E+00 0. -1.
         22   -1    0    0    0    0 -0.00000000000E+00 -0.00000000000E+00 -0.52296012777E+03  0.52296012777E+03  0.00000000000E+00 0.  1.
         24    2    1    2    0    0  0.10455928774E+03 -0.72437138688E+02 -0.49433564617E+03  0.51637235214E+03  0.78056974494E+02 0.  0.
         25    2    1    2    0    0 -0.91294558206E+02  0.16880955224E+03  0.81664822514E+03  0.84817052960E+03  0.12509021695E+03 0.  0.
        -24    2    1    2    0    0 -0.13264729529E+02 -0.96372413549E+02  0.22297665601E+04  0.22334565128E+04  0.83698788577E+02 0.  0.
        -11    1    3    3    0    0  0.94070337432E+02 -0.86719335979E+02 -0.46322286759E+03  0.48056726551E+03  0.00000000000E+00 0.  1.
         12    1    3    3    0    0  0.10488950303E+02  0.14282197291E+02 -0.31112778578E+02  0.35805086633E+02  0.00000000000E+00 0. -1.
         11    1    5    5    0    0 -0.28681625023E+02 -0.47752862972E+02  0.17687607376E+04  0.17696376800E+04  0.00000000000E+00 0. -1.
        -12    1    5    5    0    0  0.15416895493E+02 -0.48619550577E+02  0.46100582246E+03  0.46381883285E+03  0.00000000000E+00 0.  1.
          5    1    4    4  501    0 -0.78630251858E+02  0.68810448715E+02  0.60177134101E+03  0.61078950026E+03  0.41800000000E+01 0. -1.
         -5    1    4    4    0  501 -0.12664306348E+02  0.99999103523E+02  0.21487688413E+03  0.23738102934E+03  0.41800000000E+01 0. -1.
</event>
<event>
11    1  0.6763327E-009  0.1323065E+03  0.7561462E-02  0.1116467E+00
         22   -1    0    0    0    0  0.00000000000E+00  0.00000000000E+00  0.45698165902E+03  0.45698165902E+03  0.00000000000E+00 0.  1.
         22   -1    0    0    0    0 -0.00000000000E+00 -0.00000000000E+00 -0.40070656663E+03  0.40070656663E+03  0.00000000000E+00 0. -1.
        -24    2    1    2    0    0  0.57723014308E+02  0.33800782836E+02 -0.34609603228E+03  0.36111608376E+03  0.78408692683E+02 0.  0.
         25    2    1    2    0    0 -0.31512329108E+02  0.12440637109E+02  0.70303042337E+02  0.14743731840E+03  0.12508976280E+03 0.  0.
         24    2    1    2    0    0 -0.26210685200E+02 -0.46241419945E+02  0.33206808233E+03  0.34913482349E+03  0.93811751568E+02 0.  0.
        -13    1    5    5    0    0 -0.43867735078E+02 -0.64203581274E+02  0.28864505527E+03  0.29893552141E+03  0.00000000000E+00 0.  1.
         14    1    5    5    0    0  0.17657049878E+02  0.17962161329E+02  0.43423027065E+02  0.50199302082E+02  0.00000000000E+00 0. -1.
         11    1    3    3    0    0  0.75974993747E+02  0.30790996999E+02 -0.24527012001E+03  0.25860726390E+03  0.00000000000E+00 0. -1.
        -12    1    3    3    0    0 -0.18251979439E+02  0.30097858367E+01 -0.10082591227E+03  0.10250881986E+03  0.00000000000E+00 0.  1.
          5    1    4    4  501    0  0.39326234080E+02  0.32595765893E+02  0.48385333028E+02  0.70481554277E+02  0.41800000000E+01 0.  1.
         -5    1    4    4    0  501 -0.70838563188E+02 -0.20155128784E+02  0.21917709309E+02  0.76955764126E+02  0.41800000000E+01 0.  1.
</event>
<event>
11    1  0.6763327E-009  0.1315455E+03  0.7561462E-02  0.1117384E+00
         22   -1    0    0    0    0  0.00000000000E+00  0.00000000000E+00  0.37575412178E+03  0.37575412178E+03  0.00000000000E+00 0.  1.
         22   -1    0    0    0    0 -0.00000000000E+00 -0.00000000000E+00 -0.26652438591E+04  0.26652438591E+04  0.00000000000E+00 0. -1.
         24    2    1    2    0    0  0.18160567737E+02  0.14217259174E+01 -0.25798678480E+04  0.25811200745E+04  0.78300052465E+02 0.  0.
         25    2    1    2    0    0 -0.57013910890E+02  0.51100844312E+01 -0.18106689286E+02  0.13874718320E+03  0.12508488978E+03 0.  0.
        -24    2    1    2    0    0  0.38853343153E+02 -0.65318103486E+01  0.30848479997E+03  0.32113072320E+03  0.80061368632E+02 0.  0.
        -13    1    3    3    0    0  0.21948921344E+02  0.93747834705E+01 -0.22987282346E+03  0.23110853874E+03  0.00000000000E+00 0.  1.
         14    1    3    3    0    0 -0.37883536069E+01 -0.79530575532E+01 -0.23499950246E+04  0.23500115358E+04  0.00000000000E+00 0. -1.
         13    1    5    5    0    0 -0.23152858148E+02  0.85225482591E+01  0.10584746579E+03  0.10868474908E+03  0.00000000000E+00 0. -1.
        -14    1    5    5    0    0  0.62006201301E+02 -0.15054358608E+02  0.20263733419E+03  0.21244597412E+03  0.00000000000E+00 0.  1.
          5    1    4    4  501    0 -0.29383387066E+01  0.60017164101E+02 -0.11137299554E+02  0.61255250081E+02  0.41800000000E+01 0. -1.
         -5    1    4    4    0  501 -0.54075572183E+02 -0.54907079670E+02 -0.69693897321E+01  0.77491933116E+02  0.41800000000E+01 0. -1.
</event>
<event>
11    1  0.6763327E-009  0.1420906E+03  0.7561462E-02  0.1105246E+00
         22   -1    0    0    0    0  0.00000000000E+00  0.00000000000E+00  0.33661970893E+03  0.33661970893E+03  0.00000000000E+00 0. -1.
         22   -1    0    0    0    0 -0.00000000000E+00 -0.00000000000E+00 -0.14820091560E+04  0.14820091560E+04  0.00000000000E+00 0.  1.
         24    2    1    2    0    0  0.19831560368E+02  0.21159748571E+02 -0.12348511528E+04  0.12379334244E+04  0.82345418773E+02 0.  0.
         25    2    1    2    0    0 -0.30952791038E+01 -0.85780217178E+02 -0.21112728221E+03  0.25998103344E+03  0.12509029556E+03 0.  0.
        -24    2    1    2    0    0 -0.16736281264E+02  0.64620468607E+02  0.30058898794E+03  0.32071440706E+03  0.89711109405E+02 0.  0.
        -13    1    3    3    0    0  0.50402201077E+02  0.17974677255E+01 -0.79359142924E+03  0.79519241025E+03  0.00000000000E+00 0.  1.
         14    1    3    3    0    0 -0.30570640709E+02  0.19362280845E+02 -0.44125972353E+03  0.44274101414E+03  0.00000000000E+00 0. -1.
         13    1    5    5    0    0 -0.16979841734E+02  0.25489084954E+02  0.26812688541E+03  0.26987040437E+03  0.00000000000E+00 0. -1.
        -14    1    5    5    0    0  0.24356046943E+00  0.39131383653E+02  0.32462102528E+02  0.50844002683E+02  0.00000000000E+00 0.  1.
          5    1    4    4  501    0 -0.28785282500E+00 -0.70641534820E+02 -0.22681986320E+03  0.23760267684E+03  0.41800000000E+01 0. -1.
         -5    1    4    4    0  501 -0.28074262788E+01 -0.15138682358E+02  0.15692580991E+02  0.22378356598E+02  0.41800000000E+01 0. -1.
</event>
<event>
11    1  0.6763327E-009  0.1434165E+03  0.7561462E-02  0.1103802E+00
         22   -1    0    0    0    0  0.00000000000E+00  0.00000000000E+00  0.21036712317E+03  0.21036712317E+03  0.00000000000E+00 0. -1.
         22   -1    0    0    0    0 -0.00000000000E+00 -0.00000000000E+00 -0.15091582469E+04  0.15091582469E+04  0.00000000000E+00 0. -1.
        -24    2    1    2    0    0  0.68312367820E+02  0.36409149263E+02 -0.11364771170E+04  0.11418677748E+04  0.79306820452E+02 0.  0.
         25    2    1    2    0    0 -0.23624972821E+02 -0.34556295433E+02 -0.34715129009E+03  0.37136549439E+03  0.12508411297E+03 0.  0.
         24    2    1    2    0    0 -0.44687394999E+02 -0.18528538304E+01  0.18483728340E+03  0.20629210089E+03  0.79945063740E+02 0.  0.
        -13    1    5    5    0    0  0.63349902361E+01  0.29940234118E+02  0.76473506218E+02  0.82369574927E+02  0.00000000000E+00 0.  1.
         14    1    5    5    0    0 -0.51022385235E+02 -0.31793087948E+02  0.10836377719E+03  0.12392252597E+03  0.00000000000E+00 0. -1.
         11    1    3    3    0    0  0.11936247058E+02  0.45916770562E+02 -0.70882583519E+03  0.71041177386E+03  0.00000000000E+00 0. -1.
        -12    1    3    3    0    0  0.56376120762E+02 -0.95076212991E+01 -0.42765128185E+03  0.43145600091E+03  0.00000000000E+00 0.  1.
          5    1    4    4  501    0 -0.11607489969E+02  0.12294063152E+02 -0.30934176865E+03  0.30983169632E+03  0.41800000000E+01 0.  1.
         -5    1    4    4    0  501 -0.12017482852E+02 -0.46850358585E+02 -0.37809521439E+02  0.61533798071E+02  0.41800000000E+01 0.  1.
</event>
<event>
11    1  0.6763327E-009  0.1466275E+03  0.7561462E-02  0.1100375E+00
         22   -1    0    0    0    0  0.00000000000E+00  0.00000000000E+00  0.12431638167E+04  0.12431638167E+04  0.00000000000E+00 0. -1.
         22   -1    0    0    0    0 -0.00000000000E+00 -0.00000000000E+00 -0.13394392124E+04  0.13394392124E+04  0.00000000000E+00 0. -1.
        -24    2    1    2    0    0  0.73171970166E+02  0.23805655006E+02 -0.11558067328E+04  0.11611625476E+04  0.80550677981E+02 0.  0.
         25    2    1    2    0    0 -0.49753732933E+02 -0.72457528958E+02 -0.14636771072E+03  0.21164894308E+03  0.12508493483E+03 0.  0.
         24    2    1    2    0    0 -0.23418237233E+02  0.48651873953E+02  0.12058990478E+04  0.12097915385E+04  0.80545852672E+02 0.  0.
        -11    1    5    5    0    0  0.39714578868E+01  0.15254206957E+02  0.38610192565E+02  0.41703840081E+02  0.00000000000E+00 0.  1.
         12    1    5    5    0    0 -0.27389695120E+02  0.33397666996E+02  0.11672888552E+04  0.11680876984E+04  0.00000000000E+00 0. -1.
         11    1    3    3    0    0  0.50791069172E+02 -0.13966932944E+02 -0.90575900258E+03  0.90728946796E+03  0.00000000000E+00 0. -1.
        -12    1    3    3    0    0  0.22380900994E+02  0.37772587949E+02 -0.25004773027E+03  0.25387307959E+03  0.00000000000E+00 0.  1.
          5    1    4    4  501    0 -0.65540482564E+02 -0.67653374358E+02 -0.16270791334E+03  0.18805284199E+03  0.41800000000E+01 0. -1.
         -5    1    4    4    0  501  0.15786749631E+02 -0.48041546002E+01  0.16340202617E+02  0.23596101095E+02  0.41800000000E+01 0. -1.
</event>
<event>
11    1  0.6763327E-009  0.1315391E+03  0.7561462E-02  0.1117392E+00
         22   -1    0    0    0    0  0.00000000000E+00  0.00000000000E+00  0.84163728358E+03  0.84163728358E+03  0.00000000000E+00 0.  1.
         22   -1    0    0    0    0 -0.00000000000E+00 -0.00000000000E+00 -0.78078104763E+03  0.78078104763E+03  0.00000000000E+00 0. -1.
         24    2    1    2    0    0  0.30545037751E+02  0.27327552654E+02 -0.76079401692E+03  0.76623965822E+03  0.81460930386E+02 0.  0.
         25    2    1    2    0    0  0.84382385998E+01 -0.20989795437E+02  0.28681284596E+03  0.31372043962E+03  0.12508848965E+03 0.  0.
        -24    2    1    2    0    0 -0.38983276351E+02 -0.63377572169E+01  0.53483740691E+03  0.54245823337E+03  0.81547655454E+02 0.  0.
        -11    1    3    3    0    0  0.41592351769E+01  0.23776151298E+02 -0.56465380951E+02  0.61408011316E+02  0.00000000000E+00 0.  1.
         12    1    3    3    0    0  0.26385802574E+02  0.35514013564E+01 -0.70432863597E+03  0.70483164691E+03  0.00000000000E+00 0. -1.
         11    1    5    5    0    0 -0.13326858878E+02 -0.28678449721E+02  0.75402353665E+02  0.81765356871E+02  0.00000000000E+00 0. -1.
        -12    1    5    5    0    0 -0.25656417473E+02  0.22340692504E+02  0.45943505325E+03  0.46069287650E+03  0.00000000000E+00 0.  1.
          5    1    4    4  501    0  0.45413079122E+02 -0.36496258517E+02  0.25707294997E+03  0.26362529971E+03  0.41800000000E+01 0. -1.
         -5    1    4    4    0  501 -0.36974840523E+02  0.15506463080E+02  0.29739895994E+02  0.50095139911E+02  0.41800000000E+01 0. -1.
</event>
<event>
11    1  0.6763327E-009  0.1438401E+03  0.7561462E-02  0.1103345E+00
         22   -1    0    0    0    0  0.00000000000E+00  0.00000000000E+00  0.22723484152E+04  0.22723484152E+04  0.00000000000E+00 0.  1.
         22   -1    0    0    0    0 -0.00000000000E+00 -0.00000000000E+00 -0.50605739247E+02  0.50605739247E+02  0.00000000000E+00 0. -1.
         24    2    1    2    0    0  0.29086015839E+02  0.64513633332E+02  0.29514225453E+02  0.11052239911E+03  0.79599660792E+02 0.  0.
         25    2    1    2    0    0 -0.77495338333E+02 -0.43627238872E+02  0.68238862326E+03  0.69943575802E+03  0.12508910028E+03 0.  0.
        -24    2    1    2    0    0  0.48409322495E+02 -0.20886394460E+02  0.15098398272E+04  0.15129959973E+04  0.82224570495E+02 0.  0.
        -13    1    3    3    0    0  0.63082234397E+01  0.75553993082E+02  0.36668150748E+02  0.84218482728E+02  0.00000000000E+00 0.  1.
         14    1    3    3    0    0  0.22777792399E+02 -0.11040359750E+02 -0.71539252954E+01  0.26303916384E+02  0.00000000000E+00 0. -1.
         11    1    5    5    0    0  0.46038009263E+01  0.27532007168E+02  0.68820118559E+03  0.68876707111E+03  0.00000000000E+00 0. -1.
        -12    1    5    5    0    0  0.43805521568E+02 -0.48418401628E+02  0.82163864166E+03  0.82422892621E+03  0.00000000000E+00 0.  1.
          5    1    4    4  501    0  0.22052796703E+02 -0.47726943527E+02  0.19915932109E+03  0.20602449990E+03  0.41800000000E+01 0.  1.
         -5    1    4    4    0  501 -0.99548135037E+02  0.40997046543E+01  0.48322930216E+03  0.49341125812E+03  0.41800000000E+01 0.  1.
</event>
<event>
11    1  0.6763327E-009  0.1531462E+03  0.7561462E-02  0.1093707E+00
         22   -1    0    0    0    0  0.00000000000E+00  0.00000000000E+00  0.12851483679E+04  0.12851483679E+04  0.00000000000E+00 0.  1.
         22   -1    0    0    0    0 -0.00000000000E+00 -0.00000000000E+00 -0.24089641221E+03  0.24089641221E+03  0.00000000000E+00 0.  1.
        -24    2    1    2    0    0  0.71385912828E+02 -0.54537289614E+02 -0.20175790610E+03  0.23758527528E+03  0.87579939763E+02 0.  0.
         25    2    1    2    0    0 -0.45455769311E+02  0.50543981667E+02  0.24061823443E+03  0.27958056984E+03  0.12508892535E+03 0.  0.
         24    2    1    2    0    0 -0.25930143518E+02  0.39933079478E+01  0.10053916273E+04  0.10088789350E+04  0.79599385956E+02 0.  0.
        -11    1    5    5    0    0  0.13482887815E+02  0.32211283334E+02  0.47153475094E+03  0.47282594724E+03  0.00000000000E+00 0.  1.
         12    1    5    5    0    0 -0.39413031333E+02 -0.28217975386E+02  0.53385687640E+03  0.53605298773E+03  0.00000000000E+00 0. -1.
         11    1    3    3    0    0  0.41442448721E+02 -0.75684757214E+02 -0.11825010722E+03  0.14638561025E+03  0.00000000000E+00 0. -1.
        -12    1    3    3    0    0  0.29943464108E+02  0.21147467599E+02 -0.83507798876E+02  0.91199665031E+02  0.00000000000E+00 0.  1.
          5    1    4    4  501    0 -0.20706040396E+02 -0.34953445551E+02  0.29358229155E+02  0.50297728417E+02  0.41800000000E+01 0.  1.
         -5    1    4    4    0  501 -0.24749728915E+02  0.85497427218E+02  0.21126000528E+03  0.22928284142E+03  0.41800000000E+01 0.  1.
</event>
<event>
11    1  0.6763327E-009  0.1650139E+03  0.7561462E-02  0.1082454E+00
         22   -1    0    0    0    0  0.00000000000E+00  0.00000000000E+00  0.25711952883E+04  0.25711952883E+04  0.00000000000E+00 0.  1.
         22   -1    0    0    0    0 -0.00000000000E+00 -0.00000000000E+00 -0.66127056654E+03  0.66127056654E+03  0.00000000000E+00 0. -1.
        -24    2    1    2    0    0  0.65242287445E+01 -0.11777636476E+02 -0.56413804049E+03  0.56998856054E+03  0.80336493158E+02 0.  0.
         25    2    1    2    0    0 -0.34270137939E+02  0.11549974597E+03 -0.10784429872E+02  0.17400692837E+03  0.12508986178E+03 0.  0.
         24    2    1    2    0    0  0.27745909195E+02 -0.10372210949E+03  0.24848471921E+04  0.24884703659E+04  0.80567254577E+02 0.  0.
        -11    1    5    5    0    0 -0.12582118465E+02 -0.58499259714E+01  0.89284040776E+03  0.89294822082E+03  0.00000000000E+00 0.  1.
         12    1    5    5    0    0  0.40328027660E+02 -0.97872183520E+02  0.15920067843E+04  0.15955221451E+04  0.00000000000E+00 0. -1.
         13    1    3    3    0    0 -0.26224544932E+02 -0.34683366941E+01 -0.45434805120E+03  0.45511746588E+03  0.00000000000E+00 0. -1.
        -14    1    3    3    0    0  0.32748773676E+02 -0.83092997817E+01 -0.10978998929E+03  0.11487109466E+03  0.00000000000E+00 0.  1.
          5    1    4    4  501    0 -0.67899030889E+02  0.10237944859E+03 -0.37940507420E+02  0.12864207862E+03  0.41800000000E+01 0. -1.
         -5    1    4    4    0  501  0.33628892950E+02  0.13120297376E+02  0.27156077549E+02  0.45364849742E+02  0.41800000000E+01 0. -1.
</event>
<event>
11    1  0.6763327E-009  0.1455534E+03  0.7561462E-02  0.1101511E+00
         22   -1    0    0    0    0  0.00000000000E+00  0.00000000000E+00  0.28131100792E+03  0.28131100792E+03  0.00000000000E+00 0.  1.
         22   -1    0    0    0    0 -0.00000000000E+00 -0.00000000000E+00 -0.13849154646E+04  0.13849154646E+04  0.00000000000E+00 0.  1.
         24    2    1    2    0    0  0.18287216603E+02 -0.75069754025E+02 -0.71295887668E+03  0.72181919159E+03  0.82113916280E+02 0.  0.
         25    2    1    2    0    0  0.22315454058E+01  0.70970623848E+02 -0.65323942255E+03  0.66889159212E+03  0.12510959030E+03 0.  0.
        -24    2    1    2    0    0 -0.20518762009E+02  0.40991301774E+01  0.26259384256E+03  0.27551568881E+03  0.80718933135E+02 0.  0.
        -13    1    3    3    0    0 -0.29814860774E+02 -0.30107471730E+02 -0.38435363930E+03  0.38668217675E+03  0.00000000000E+00 0.  1.
         14    1    3    3    0    0  0.48102077377E+02 -0.44962282295E+02 -0.32860523739E+03  0.33513701484E+03  0.00000000000E+00 0. -1.
         11    1    5    5    0    0 -0.34690046410E+02 -0.16416755835E+02  0.58892359620E+02  0.70293806368E+02  0.00000000000E+00 0. -1.
        -12    1    5    5    0    0  0.14171284401E+02  0.20515886012E+02  0.20370148294E+03  0.20522188244E+03  0.00000000000E+00 0.  1.
          5    1    4    4  501    0 -0.11901903681E+02  0.28513557973E+02 -0.59256745960E+03  0.59338717957E+03  0.41800000000E+01 0. -1.
         -5    1    4    4    0  501  0.14133449087E+02  0.42457065875E+02 -0.60671962949E+02  0.75504412546E+02  0.41800000000E+01 0. -1.
</event>
<event>
11    1  0.6763327E-009  0.1840198E+03  0.7561462E-02  0.1066437E+00
         22   -1    0    0    0    0  0.00000000000E+00  0.00000000000E+00  0.35442951344E+03  0.35442951344E+03  0.00000000000E+00 0. -1.
         22   -1    0    0    0    0 -0.00000000000E+00 -0.00000000000E+00 -0.48945834423E+03  0.48945834423E+03  0.00000000000E+00 0.  1.
        -24    2    1    2    0    0 -0.96422286827E+02 -0.94999632806E+02 -0.41391455106E+03  0.44313410925E+03  0.81978018817E+02 0.  0.
         25    2    1    2    0    0  0.69890264066E+02  0.11444432848E+03  0.11833595993E+03  0.21825059323E+03  0.12509104165E+03 0.  0.
         24    2    1    2    0    0  0.26532022761E+02 -0.19444695676E+02  0.16054976035E+03  0.18250315518E+03  0.80306485926E+02 0.  0.
        -11    1    5    5    0    0 -0.28178744731E+02 -0.51489063208E+01  0.38476240877E+02  0.47968468841E+02  0.00000000000E+00 0.  1.
         12    1    5    5    0    0  0.54710767492E+02 -0.14295789355E+02  0.12207351947E+03  0.13453468634E+03  0.00000000000E+00 0. -1.
         13    1    3    3    0    0  0.11667137368E+02 -0.13573390914E+02 -0.95379000526E+02  0.97043870371E+02  0.00000000000E+00 0. -1.
        -14    1    3    3    0    0 -0.10808942420E+03 -0.81426241892E+02 -0.31853555054E+03  0.34609023888E+03  0.00000000000E+00 0.  1.
          5    1    4    4  501    0  0.52255695664E+02  0.13952030981E+03  0.11257066023E+03  0.18677847982E+03  0.41800000000E+01 0.  1.
         -5    1    4    4    0  501  0.17634568402E+02 -0.25075981328E+02  0.57652996990E+01  0.31472113417E+02  0.41800000000E+01 0.  1.
</event>
<event>
11    1  0.6763327E-009  0.1626142E+03  0.7561462E-02  0.1084644E+00
         22   -1    0    0    0    0  0.00000000000E+00  0.00000000000E+00  0.13288729657E+04  0.13288729657E+04  0.00000000000E+00 0. -1.
         22   -1    0    0    0    0 -0.00000000000E+00 -0.00000000000E+00 -0.16256987109E+03  0.16256987109E+03  0.00000000000E+00 0. -1.
         24    2    1    2    0    0 -0.54433209484E+02 -0.86171172327E+02 -0.11518747627E+03  0.17401521034E+03  0.81392220181E+02 0.  0.
         25    2    1    2    0    0  0.68982573068E+02  0.14508109392E+03  0.82387490992E+03  0.84866299010E+03  0.12510749127E+03 0.  0.
        -24    2    1    2    0    0 -0.14549363584E+02 -0.58909921592E+02  0.45761566101E+03  0.46876463639E+03  0.81523789689E+02 0.  0.
        -11    1    3    3    0    0  0.72091579313E+01 -0.61500122070E+02 -0.71253418234E+02  0.94399611136E+02  0.00000000000E+00 0.  1.
         12    1    3    3    0    0 -0.61642367415E+02 -0.24671050257E+02 -0.43934058035E+02  0.79615599205E+02  0.00000000000E+00 0. -1.
         11    1    5    5    0    0 -0.38773592926E+02 -0.65856681136E+02  0.34233716214E+03  0.35076377598E+03  0.00000000000E+00 0. -1.
        -12    1    5    5    0    0  0.24224229342E+02  0.69467595436E+01  0.11527849887E+03  0.11800086041E+03  0.00000000000E+00 0.  1.
          5    1    4    4  501    0  0.92576654643E+02  0.10709536177E+03  0.44148388173E+03  0.46364355245E+03  0.41800000000E+01 0.  1.
         -5    1    4    4    0  501 -0.23594081575E+02  0.37985732149E+02  0.38239102819E+03  0.38501943766E+03  0.41800000000E+01 0.  1.
</event>
<event>
11    1  0.6763327E-009  0.1546562E+03  0.7561462E-02  0.1092214E+00
         22   -1    0    0    0    0  0.00000000000E+00  0.00000000000E+00  0.12126871436E+04  0.12126871436E+04  0.00000000000E+00 0. -1.
         22   -1    0    0    0    0 -0.00000000000E+00 -0.00000000000E+00 -0.50471400284E+03  0.50471400284E+03  0.00000000000E+00 0. -1.
        -24    2    1    2    0    0  0.56212800393E+02  0.72220858412E+02 -0.48345241269E+03  0.49843674753E+03  0.79606687104E+02 0.  0.
         25    2    1    2    0    0  0.13524391969E+02 -0.70683079589E+02  0.54650689885E+03  0.56524150365E+03  0.12509660284E+03 0.  0.
         24    2    1    2    0    0 -0.69737192362E+02 -0.15377788227E+01  0.64491865461E+03  0.65372289527E+03  0.81042655217E+02 0.  0.
        -11    1    5    5    0    0  0.12096124636E+02 -0.16713873032E+02  0.76085473921E+02  0.78833172743E+02  0.00000000000E+00 0.  1.
         12    1    5    5    0    0 -0.81833316998E+02  0.15176094210E+02  0.56883318069E+03  0.57488972252E+03  0.00000000000E+00 0. -1.
         13    1    3    3    0    0  0.45612670580E+02  0.71557823688E+02 -0.47973760809E+03  0.48718498587E+03  0.00000000000E+00 0. -1.
        -14    1    3    3    0    0  0.10600129812E+02  0.66303472385E+00 -0.37148046056E+01  0.11251761655E+02  0.00000000000E+00 0.  1.
          5    1    4    4  501    0  0.31309051648E+02 -0.93750715765E+02  0.27705641035E+03  0.29418902144E+03  0.41800000000E+01 0. -1.
         -5    1    4    4    0  501 -0.17784659679E+02  0.23067636176E+02  0.26945048850E+03  0.27105248221E+03  0.41800000000E+01 0. -1.
</event>
<event>
11    1  0.6763327E-009  0.1596188E+03  0.7561462E-02  0.1087436E+00
         22   -1    0    0    0    0  0.00000000000E+00  0.00000000000E+00  0.30274192863E+03  0.30274192863E+03  0.00000000000E+00 0.  1.
         22   -1    0    0    0    0 -0.00000000000E+00 -0.00000000000E+00 -0.15840417204E+04  0.15840417204E+04  0.00000000000E+00 0. -1.
        -24    2    1    2    0    0 -0.77459733576E+02  0.61894217399E+02 -0.15274146479E+04  0.15327431935E+04  0.80469162759E+02 0.  0.
         25    2    1    2    0    0  0.64243553771E+02 -0.78312837630E+02  0.11454531350E+03  0.19755542899E+03  0.12508950372E+03 0.  0.
         24    2    1    2    0    0  0.13216179804E+02  0.16418620231E+02  0.13156954257E+03  0.15648502660E+03  0.82053522274E+02 0.  0.
        -13    1    5    5    0    0  0.43759608241E+01  0.38264533951E+02  0.12669474858E+03  0.13241934492E+03  0.00000000000E+00 0.  1.
         14    1    5    5    0    0  0.88402189801E+01 -0.21845913721E+02  0.48747939876E+01  0.24065681672E+02  0.00000000000E+00 0. -1.
         11    1    3    3    0    0 -0.58133090843E+02  0.70546936263E+02 -0.14360608628E+04  0.14389673825E+04  0.00000000000E+00 0. -1.
        -12    1    3    3    0    0 -0.19326642732E+02 -0.86527188636E+01 -0.91353785100E+02  0.93775810928E+02  0.00000000000E+00 0.  1.
          5    1    4    4  501    0  0.16565440511E+02 -0.10143989892E+03  0.97502019913E+02  0.14173419912E+03  0.41800000000E+01 0. -1.
         -5    1    4    4    0  501  0.47678113261E+02  0.23127061294E+02  0.17043293583E+02  0.55821229871E+02  0.41800000000E+01 0. -1.
</event>
<event>
11    1  0.6763327E-009  0.1343691E+03  0.7561462E-02  0.1114014E+00
         22   -1    0    0    0    0  0.00000000000E+00  0.00000000000E+00  0.39347441429E+03  0.39347441429E+03  0.00000000000E+00 0. -1.
         22   -1    0    0    0    0 -0.00000000000E+00 -0.00000000000E+00 -0.54041615489E+03  0.54041615489E+03  0.00000000000E+00 0. -1.
         24    2    1    2    0    0 -0.44289640657E+02 -0.22241442874E+02 -0.48762262393E+03  0.49724476622E+03  0.83787111845E+02 0.  0.
         25    2    1    2    0    0  0.30774548524E+02  0.24093661022E+02  0.61301790066E+02  0.14468470263E+03  0.12509267113E+03 0.  0.
        -24    2    1    2    0    0  0.13515092133E+02 -0.18522181476E+01  0.27937909328E+03  0.29196110033E+03  0.83681048739E+02 0.  0.
        -13    1    3    3    0    0  0.24793266050E+02 -0.11703598487E+02 -0.14458425207E+03  0.14716074954E+03  0.00000000000E+00 0.  1.
         14    1    3    3    0    0 -0.69082906707E+02 -0.10537844387E+02 -0.34303837186E+03  0.35008401668E+03  0.00000000000E+00 0. -1.
         11    1    5    5    0    0  0.31549916985E+02  0.46905119026E+01  0.26750262621E+03  0.26939757459E+03  0.00000000000E+00 0. -1.
        -12    1    5    5    0    0 -0.18034824852E+02 -0.65427300501E+01  0.11876467066E+02  0.22563525742E+02  0.00000000000E+00 0.  1.
          5    1    4    4  501    0  0.48693410677E+02 -0.12089636599E+02  0.84181553092E+02  0.98087786382E+02  0.41800000000E+01 0.  1.
         -5    1    4    4    0  501 -0.17918862152E+02  0.36183297621E+02 -0.22879763025E+02  0.46596916246E+02  0.41800000000E+01 0.  1.
</event>
<event>
11    1  0.6763327E-009  0.2750840E+03  0.7561462E-02  0.1011325E+00
         22   -1    0    0    0    0  0.00000000000E+00  0.00000000000E+00  0.84766573621E+03  0.84766573621E+03  0.00000000000E+00 0. -1.
         22   -1    0    0    0    0 -0.00000000000E+00 -0.00000000000E+00 -0.15592465264E+04  0.15592465264E+04  0.00000000000E+00 0.  1.
         24    2    1    2    0    0  0.12193956782E+02 -0.42925191116E+01 -0.13431470553E+04  0.13454201445E+04  0.77098863314E+02 0.  0.
         25    2    1    2    0    0  0.53952325671E+01  0.24830127529E+03 -0.92429090754E+02  0.29304140046E+03  0.12508994252E+03 0.  0.
        -24    2    1    2    0    0 -0.17589189349E+02 -0.24400875617E+03  0.72399535593E+03  0.76845071760E+03  0.80607551140E+02 0.  0.
        -11    1    3    3    0    0 -0.22477074082E+02  0.23693097150E+02 -0.46673384344E+03  0.46787504991E+03  0.00000000000E+00 0.  1.
         12    1    3    3    0    0  0.34671030864E+02 -0.27985616262E+02 -0.87641321188E+03  0.87754509460E+03  0.00000000000E+00 0. -1.
         13    1    5    5    0    0 -0.28464928334E+02 -0.20293588851E+03  0.66422649233E+03  0.69511873813E+03  0.00000000000E+00 0. -1.
        -14    1    5    5    0    0  0.10875738985E+02 -0.41072867666E+02  0.59768863606E+02  0.73331979474E+02  0.00000000000E+00 0.  1.
          5    1    4    4  501    0  0.51845191087E+02  0.10185388458E+03 -0.78504762412E+02  0.13871772693E+03  0.41800000000E+01 0.  1.
         -5    1    4    4    0  501 -0.46449958520E+02  0.14644739070E+03 -0.13924328342E+02  0.15432367353E+03  0.41800000000E+01 0.  1.
</event>
<event>
11    1  0.6763327E-009  0.1611856E+03  0.7561462E-02  0.1085967E+00
         22   -1    0    0    0    0  0.00000000000E+00  0.00000000000E+00  0.40373918321E+04  0.40373918321E+04  0.00000000000E+00 0. -1.
         22   -1    0    0    0    0 -0.00000000000E+00 -0.00000000000E+00 -0.86028344373E+02  0.86028344373E+02  0.00000000000E+00 0.  1.
         24    2    1    2    0    0  0.43830273234E+02 -0.90682618425E+02 -0.21634573796E+02  0.13053368709E+03  0.80165819068E+02 0.  0.
         25    2    1    2    0    0 -0.13334537187E+03  0.67437990584E+02  0.10887826795E+04  0.11060841706E+04  0.12508236718E+03 0.  0.
        -24    2    1    2    0    0  0.89515098633E+02  0.23244627841E+02  0.28842153820E+04  0.28868023187E+04  0.79849809018E+02 0.  0.
        -11    1    3    3    0    0  0.15570468686E+02 -0.97106620348E+02 -0.84945561560E+01  0.98713183997E+02  0.00000000000E+00 0.  1.
         12    1    3    3    0    0  0.28259804548E+02  0.64240019228E+01 -0.13140017640E+02  0.31820503097E+02  0.00000000000E+00 0. -1.
         11    1    5    5    0    0  0.15891683988E+01 -0.22009992893E+02  0.70336692729E+03  0.70371300943E+03  0.00000000000E+00 0. -1.
        -12    1    5    5    0    0  0.87925930234E+02  0.45254620734E+02  0.21808484547E+04  0.21830893093E+04  0.00000000000E+00 0.  1.
          5    1    4    4  501    0  0.16283748216E+02  0.38890191710E+02  0.22144440890E+03  0.22546109665E+03  0.41800000000E+01 0.  1.
         -5    1    4    4    0  501 -0.14962912008E+03  0.28547798875E+02  0.86733827060E+03  0.88062307399E+03  0.41800000000E+01 0.  1.
</event>
<event>
11    1  0.6763327E-009  0.1399766E+03  0.7561462E-02  0.1107584E+00
         22   -1    0    0    0    0  0.00000000000E+00  0.00000000000E+00  0.61135687840E+03  0.61135687840E+03  0.00000000000E+00 0.  1.
         22   -1    0    0    0    0 -0.00000000000E+00 -0.00000000000E+00 -0.32328123741E+03  0.32328123741E+03  0.00000000000E+00 0. -1.
        -24    2    1    2    0    0 -0.84620584902E+01 -0.29605713712E+02 -0.17219084257E+03  0.19189570797E+03  0.78906094529E+02 0.  0.
         25    2    1    2    0    0 -0.17838246207E+00  0.90912691048E+02 -0.92950335645E+02  0.18042145105E+03  0.12508791264E+03 0.  0.
         24    2    1    2    0    0  0.86404409523E+01 -0.61306977336E+02  0.55321681921E+03  0.56232095679E+03  0.79516078223E+02 0.  0.
        -13    1    5    5    0    0 -0.20578187976E+02 -0.50755490642E+02  0.47521435854E+03  0.47835997765E+03  0.00000000000E+00 0.  1.
         14    1    5    5    0    0  0.29218628928E+02 -0.10551486694E+02  0.78002460667E+02  0.83960979139E+02  0.00000000000E+00 0. -1.
         13    1    3    3    0    0  0.20422393557E+02 -0.45164280224E+02 -0.80773327103E+02  0.94769281616E+02  0.00000000000E+00 0. -1.
        -14    1    3    3    0    0 -0.28884452048E+02  0.15558566512E+02 -0.91417515470E+02  0.97126426356E+02  0.00000000000E+00 0.  1.
          5    1    4    4  501    0 -0.12399800374E+02  0.10292247309E+03 -0.20373624303E+02  0.10573243345E+03  0.41800000000E+01 0.  1.
         -5    1    4    4    0  501  0.12221417912E+02 -0.12009782042E+02 -0.72576711342E+02  0.74689017597E+02  0.41800000000E+01 0.  1.
</event>
<event>
11    1  0.6763327E-009  0.1624606E+03  0.7561462E-02  0.1084786E+00
         22   -1    0    0    0    0  0.00000000000E+00  0.00000000000E+00  0.29695202711E+03  0.29695202711E+03  0.00000000000E+00 0. -1.
         22   -1    0    0    0    0 -0.00000000000E+00 -0.00000000000E+00 -0.53878081339E+03  0.53878081339E+03  0.00000000000E+00 0. -1.
        -24    2    1    2    0    0  0.30626306574E+02  0.22538278884E+02 -0.35292071370E+03  0.36587671476E+03  0.88694957995E+02 0.  0.
         25    2    1    2    0    0 -0.13014112922E+03 -0.13438040559E+02 -0.10370865366E+03  0.20861452515E+03  0.12508893161E+03 0.  0.
         24    2    1    2    0    0  0.99514822650E+02 -0.91002383255E+01  0.21480058108E+03  0.26124160059E+03  0.11009936412E+03 0.  0.
        -13    1    5    5    0    0  0.15777630992E-01  0.18150711326E+02 -0.46630534418E+01  0.18740134417E+02  0.00000000000E+00 0.  1.
         14    1    5    5    0    0  0.99499045019E+02 -0.27250949651E+02  0.21946363453E+03  0.24250146617E+03  0.00000000000E+00 0. -1.
         11    1    3    3    0    0  0.42463587421E+02  0.32183720167E+02 -0.34418552115E+03  0.34828525819E+03  0.00000000000E+00 0. -1.
        -12    1    3    3    0    0 -0.11837280847E+02 -0.96454412825E+01 -0.87351925487E+01  0.17591456570E+02  0.00000000000E+00 0.  1.
          5    1    4    4  501    0 -0.54313823506E+02  0.35888440475E+02 -0.98198240831E+02  0.11789121463E+03  0.41800000000E+01 0. -1.
         -5    1    4    4    0  501 -0.75827305718E+02 -0.49326481034E+02 -0.55104128246E+01  0.90723310528E+02  0.41800000000E+01 0. -1.
</event>
<event>
11    1  0.6763327E-009  0.1652770E+03  0.7561462E-02  0.1082217E+00
         22   -1    0    0    0    0  0.00000000000E+00  0.00000000000E+00  0.35811082534E+02  0.35811082534E+02  0.00000000000E+00 0. -1.
         22   -1    0    0    0    0 -0.00000000000E+00 -0.00000000000E+00 -0.23657591165E+04  0.23657591165E+04  0.00000000000E+00 0. -1.
         24    2    1    2    0    0 -0.24636520763E+02  0.18250852192E+02 -0.13981302999E+04  0.14007555082E+04  0.80047525984E+02 0.  0.
         25    2    1    2    0    0  0.66952140721E+02 -0.11213886035E+03 -0.77535365296E+03  0.79616527450E+03  0.12509254178E+03 0.  0.
        -24    2    1    2    0    0 -0.42315619958E+02  0.93888008162E+02 -0.15646408112E+03  0.20464941638E+03  0.82430608235E+02 0.  0.
        -13    1    3    3    0    0  0.58691683560E+01 -0.28785234156E+02 -0.53576704812E+03  0.53657186536E+03  0.00000000000E+00 0.  1.
         14    1    3    3    0    0 -0.30505689119E+02  0.47036086348E+02 -0.86236325179E+03  0.86418364282E+03  0.00000000000E+00 0. -1.
         13    1    5    5    0    0 -0.40120027898E+02  0.10680832780E+03 -0.11855330495E+03  0.16453729559E+03  0.00000000000E+00 0. -1.
        -14    1    5    5    0    0 -0.21955920608E+01 -0.12920319641E+02 -0.37910776166E+02  0.40112120782E+02  0.00000000000E+00 0.  1.
          5    1    4    4  501    0  0.80778296458E+02 -0.10892801330E+03 -0.76752623446E+03  0.77942571053E+03  0.41800000000E+01 0. -1.
         -5    1    4    4    0  501 -0.13826155737E+02 -0.32108470581E+01 -0.78274185015E+01  0.16739563963E+02  0.41800000000E+01 0. -1.
</event>
<event>
11    1  0.6763327E-009  0.1478082E+03  0.7561462E-02  0.1099140E+00
         22   -1    0    0    0    0  0.00000000000E+00  0.00000000000E+00  0.68448982483E+03  0.68448982483E+03  0.00000000000E+00 0.  1.
         22   -1    0    0    0    0 -0.00000000000E+00 -0.00000000000E+00 -0.18863086206E+03  0.18863086206E+03  0.00000000000E+00 0. -1.
        -24    2    1    2    0    0 -0.40409063340E+02  0.12882889293E+02 -0.71424770548E+02  0.11673040662E+03  0.82009930773E+02 0.  0.
         25    2    1    2    0    0  0.95162883705E+02  0.42293598852E+02 -0.16265277774E+02  0.16359387652E+03  0.12511464436E+03 0.  0.
         24    2    1    2    0    0 -0.54753820365E+02 -0.55176488145E+02  0.58354901110E+03  0.59279640375E+03  0.69539213810E+02 0.  0.
        -13    1    5    5    0    0 -0.31908980611E+02 -0.37640914636E+02  0.52729668449E+03  0.52960061837E+03  0.00000000000E+00 0.  1.
         14    1    5    5    0    0 -0.22844839755E+02 -0.17535573509E+02  0.56252326609E+02  0.63195785387E+02  0.00000000000E+00 0. -1.
         13    1    3    3    0    0  0.75905863879E+00  0.64531224837E+01 -0.74655883911E+02  0.74938107545E+02  0.00000000000E+00 0. -1.
        -14    1    3    3    0    0 -0.41168121979E+02  0.64297668090E+01  0.32311133631E+01  0.41792299076E+02  0.00000000000E+00 0.  1.
          5    1    4    4  501    0 -0.16426898798E+01 -0.37104284763E+02 -0.91891738766E+00  0.37386403772E+02  0.41800000000E+01 0.  1.
         -5    1    4    4    0  501  0.96805573585E+02  0.79397883615E+02 -0.15346360386E+02  0.12620747275E+03  0.41800000000E+01 0.  1.
</event>
<event>
11    1  0.6763327E-009  0.1318117E+03  0.7561462E-02  0.1117063E+00
         22   -1    0    0    0    0  0.00000000000E+00  0.00000000000E+00  0.10881108110E+04  0.10881108110E+04  0.00000000000E+00 0. -1.
         22   -1    0    0    0    0 -0.00000000000E+00 -0.00000000000E+00 -0.24310117255E+03  0.24310117255E+03  0.00000000000E+00 0. -1.
         24    2    1    2    0    0  0.40615774128E+02 -0.17926119411E+02 -0.21320900555E+03  0.23221214957E+03  0.80581731779E+02 0.  0.
         25    2    1    2    0    0 -0.14570693455E+02  0.51754538569E+02  0.25636880923E+03  0.29028186137E+03  0.12509098819E+03 0.  0.
        -24    2    1    2    0    0 -0.26045080673E+02 -0.33828419159E+02  0.80184983480E+03  0.80871797264E+03  0.96119163201E+02 0.  0.
        -13    1    3    3    0    0 -0.64572151310E+01 -0.63509481626E+01  0.38241574314E+01  0.98312944148E+01  0.00000000000E+00 0.  1.
         14    1    3    3    0    0  0.47072989259E+02 -0.11575171248E+02 -0.21703316298E+03  0.22238085516E+03  0.00000000000E+00 0. -1.
         11    1    5    5    0    0  0.20568480082E+02  0.22463960896E+02  0.30575965391E+03  0.30727293709E+03  0.00000000000E+00 0. -1.
        -12    1    5    5    0    0 -0.46613560755E+02 -0.56292380054E+02  0.49609018089E+03  0.50144503555E+03  0.00000000000E+00 0.  1.
          5    1    4    4  501    0 -0.14280740856E+02  0.90718150422E+02  0.13993914469E+03  0.16743404371E+03  0.41800000000E+01 0.  1.
         -5    1    4    4    0  501 -0.28995259884E+00 -0.38963611853E+02  0.11642966454E+03  0.12284781767E+03  0.41800000000E+01 0.  1.
</event>
<event>
11    1  0.6763327E-009  0.1536949E+03  0.7561462E-02  0.1093162E+00
         22   -1    0    0    0    0  0.00000000000E+00  0.00000000000E+00  0.25030944928E+04  0.25030944928E+04  0.00000000000E+00 0.  1.
         22   -1    0    0    0    0 -0.00000000000E+00 -0.00000000000E+00 -0.39808306467E+03  0.39808306467E+03  0.00000000000E+00 0.  1.
        -24    2    1    2    0    0  0.82658525394E+02  0.33972131587E+02 -0.37744173346E+03  0.39965620820E+03  0.96313472834E+02 0.  0.
         25    2    1    2    0    0 -0.10653210327E+03  0.40305145569E+02  0.93478640971E+03  0.94997200494E+03  0.12509030574E+03 0.  0.
         24    2    1    2    0    0  0.23873577875E+02 -0.74277277156E+02  0.15476667518E+04  0.15515493443E+04  0.77109865579E+02 0.  0.
        -11    1    5    5    0    0  0.29316768928E+02 -0.60336513837E+02  0.15019098878E+04  0.15034072233E+04  0.00000000000E+00 0.  1.
         12    1    5    5    0    0 -0.54431910520E+01 -0.13940763319E+02  0.45756864000E+02  0.48142120995E+02  0.00000000000E+00 0. -1.
         13    1    3    3    0    0  0.81606222921E+01  0.11801671745E+02 -0.55200610095E-01  0.14348458428E+02  0.00000000000E+00 0. -1.
        -14    1    3    3    0    0  0.74497903102E+02  0.22170459842E+02 -0.37738653285E+03  0.38530774977E+03  0.00000000000E+00 0.  1.
          5    1    4    4  501    0 -0.13276474214E+03  0.38140918458E+02  0.84794471046E+03  0.85913265030E+03  0.41800000000E+01 0.  1.
         -5    1    4    4    0  501  0.26232638872E+02  0.21642271110E+01  0.86841699252E+02  0.90839354633E+02  0.41800000000E+01 0.  1.
</event>
<event>
11    1  0.6763327E-009  0.1595764E+03  0.7561462E-02  0.1087476E+00
         22   -1    0    0    0    0  0.00000000000E+00  0.00000000000E+00  0.21274719312E+04  0.21274719312E+04  0.00000000000E+00 0. -1.
         22   -1    0    0    0    0 -0.00000000000E+00 -0.00000000000E+00 -0.53514101087E+03  0.53514101087E+03  0.00000000000E+00 0.  1.
         24    2    1    2    0    0 -0.63244510289E+02 -0.76486140609E+02 -0.51795296548E+03  0.53443174164E+03  0.86556422297E+02 0.  0.
         25    2    1    2    0    0  0.43086255098E+02  0.73375830761E+02  0.74250727268E+03  0.75776311178E+03  0.12508975051E+03 0.  0.
        -24    2    1    2    0    0  0.20158255190E+02  0.31103098481E+01  0.13677766132E+04  0.13704180887E+04  0.82564187041E+02 0.  0.
        -11    1    3    3    0    0 -0.25548166592E+02  0.10276896850E+02 -0.22265744316E+03  0.22435387320E+03  0.00000000000E+00 0.  1.
         12    1    3    3    0    0 -0.37696343697E+02 -0.86763037459E+02 -0.29529552232E+03  0.31007786844E+03  0.00000000000E+00 0. -1.
         11    1    5    5    0    0 -0.24590789048E+02 -0.55329257881E+01  0.91635625279E+03  0.91670284291E+03  0.00000000000E+00 0. -1.
        -12    1    5    5    0    0  0.44749044239E+02  0.86432356362E+01  0.45142036039E+03  0.45371524578E+03  0.00000000000E+00 0.  1.
          5    1    4    4  501    0  0.26651675275E+02  0.75670257768E+02  0.73448206391E+03  0.73886241907E+03  0.41800000000E+01 0.  1.
         -5    1    4    4    0  501  0.16434579824E+02 -0.22944270075E+01  0.80252087627E+01  0.18900692711E+02  0.41800000000E+01 0.  1.
</event>
<event>
11    1  0.6763327E-009  0.1630811E+03  0.7561462E-02  0.1084215E+00
         22   -1    0    0    0    0  0.00000000000E+00  0.00000000000E+00  0.17078344487E+03  0.17078344487E+03  0.00000000000E+00 0. -1.
         22   -1    0    0    0    0 -0.00000000000E+00 -0.00000000000E+00 -0.11698889515E+04  0.11698889515E+04  0.00000000000E+00 0. -1.
         24    2    1    2    0    0 -0.10089715325E+03  0.17409066406E+02 -0.87052826422E+03  0.87999747813E+03  0.78056335942E+02 0.  0.
         25    2    1    2    0    0  0.12667980959E+03  0.51473336235E+02 -0.24452381283E+03  0.30681766593E+03  0.12509159280E+03 0.  0.
        -24    2    1    2    0    0 -0.25782656334E+02 -0.68882402641E+02  0.11594657041E+03  0.15385725231E+03  0.69418413525E+02 0.  0.
        -13    1    3    3    0    0 -0.37571243039E+02 -0.17783628721E+02 -0.14439480812E+03  0.15025883124E+03  0.00000000000E+00 0.  1.
         14    1    3    3    0    0 -0.63325910214E+02  0.35192695127E+02 -0.72613345610E+03  0.72973864689E+03  0.00000000000E+00 0. -1.
         13    1    5    5    0    0 -0.21159302911E+02 -0.72837271871E+02  0.12302259704E+03  0.14452523536E+03  0.00000000000E+00 0. -1.
        -14    1    5    5    0    0 -0.46233534232E+01  0.39548692301E+01 -0.70760266276E+01  0.93320169491E+01  0.00000000000E+00 0.  1.
          5    1    4    4  501    0  0.27499692654E+02 -0.36352297220E+02 -0.30256907212E+02  0.54869622226E+02  0.41800000000E+01 0.  1.
         -5    1    4    4    0  501  0.99180116933E+02  0.87825633454E+02 -0.21426690561E+03  0.25194804371E+03  0.41800000000E+01 0.  1.
</event>
<event>
11    1  0.6763327E-009  0.1885108E+03  0.7561462E-02  0.1062959E+00
         22   -1    0    0    0    0  0.00000000000E+00  0.00000000000E+00  0.54878087561E+02  0.54878087561E+02  0.00000000000E+00 0.  1.
         22   -1    0    0    0    0 -0.00000000000E+00 -0.00000000000E+00 -0.15141035020E+04  0.15141035020E+04  0.00000000000E+00 0.  1.
        -24    2    1    2    0    0 -0.11191917044E+03  0.41664782335E+02 -0.73102454194E+03  0.74656585046E+03  0.93283617837E+02 0.  0.
         25    2    1    2    0    0  0.20453181419E+03 -0.74444680042E+02 -0.54411469362E+03  0.59923580866E+03  0.12508989236E+03 0.  0.
         24    2    1    2    0    0 -0.92612643751E+02  0.32779897706E+02 -0.18408617884E+03  0.22317993040E+03  0.79182931340E+02 0.  0.
        -13    1    5    5    0    0 -0.10571448206E+03  0.26154212987E+02 -0.14437612416E+03  0.18084263823E+03  0.00000000000E+00 0.  1.
         14    1    5    5    0    0  0.13101838313E+02  0.66256847194E+01 -0.39710054682E+02  0.42337292167E+02  0.00000000000E+00 0. -1.
         11    1    3    3    0    0 -0.79435509674E+02  0.50782341579E+02 -0.30577496388E+03  0.31997996023E+03  0.00000000000E+00 0. -1.
        -12    1    3    3    0    0 -0.32483660766E+02 -0.91175592434E+01 -0.42524957806E+03  0.42658589023E+03  0.00000000000E+00 0.  1.
          5    1    4    4  501    0  0.87725127691E+02 -0.94810214899E+02 -0.23601612900E+03  0.26908318495E+03  0.41800000000E+01 0.  1.
         -5    1    4    4    0  501  0.11680668650E+03  0.20365534857E+02 -0.30809856462E+03  0.33015262371E+03  0.41800000000E+01 0.  1.
</event>
<event>
11    1  0.6763327E-009  0.2498050E+03  0.7561462E-02  0.1024003E+00
         22   -1    0    0    0    0  0.00000000000E+00  0.00000000000E+00  0.21704825303E+04  0.21704825303E+04  0.00000000000E+00 0. -1.
         22   -1    0    0    0    0 -0.00000000000E+00 -0.00000000000E+00 -0.19347340716E+03  0.19347340716E+03  0.00000000000E+00 0.  1.
         24    2    1    2    0    0  0.79196454887E+01  0.85894562762E+01 -0.13554740036E+03  0.16055920336E+03  0.85262304067E+02 0.  0.
         25    2    1    2    0    0  0.20661728864E+03  0.29039754651E+02  0.35524925190E+03  0.43056224256E+03  0.12509117644E+03 0.  0.
        -24    2    1    2    0    0 -0.21453693413E+03 -0.37629210927E+02  0.17573072716E+04  0.17728344915E+04  0.85855890784E+02 0.  0.
        -13    1    3    3    0    0  0.25204264926E+02  0.39226128939E+02 -0.10105999769E+03  0.11129720254E+03  0.00000000000E+00 0.  1.
         14    1    3    3    0    0 -0.17284619437E+02 -0.30636672663E+02 -0.34487402678E+02  0.49262000817E+02  0.00000000000E+00 0. -1.
         11    1    5    5    0    0 -0.92722632137E+02  0.25538539909E+02  0.79389537802E+03  0.79969967786E+03  0.00000000000E+00 0. -1.
        -12    1    5    5    0    0 -0.12181430199E+03 -0.63167750837E+02  0.96341189358E+03  0.97313481369E+03  0.00000000000E+00 0.  1.
          5    1    4    4  501    0  0.12276584047E+03  0.41948735992E+02  0.30595957573E+03  0.33235505475E+03  0.41800000000E+01 0. -1.
         -5    1    4    4    0  501  0.83851448167E+02 -0.12908981340E+02  0.49289676168E+02  0.98207187801E+02  0.41800000000E+01 0. -1.
</event>
<event>
11    1  0.6763327E-009  0.1262251E+03  0.7561462E-02  0.1123996E+00
         22   -1    0    0    0    0  0.00000000000E+00  0.00000000000E+00  0.77097214303E+03  0.77097214303E+03  0.00000000000E+00 0. -1.
         22   -1    0    0    0    0 -0.00000000000E+00 -0.00000000000E+00 -0.44950348960E+03  0.44950348960E+03  0.00000000000E+00 0.  1.
         24    2    1    2    0    0 -0.82128368779E+01  0.10466566725E+02 -0.43033800932E+03  0.43803810858E+03  0.80681984282E+02 0.  0.
         25    2    1    2    0    0  0.20625372754E+01  0.88860388938E+01  0.34398334003E+03  0.36613484311E+03  0.12508784663E+03 0.  0.
        -24    2    1    2    0    0  0.61502996025E+01 -0.19352605619E+02  0.40782332273E+03  0.41630268095E+03  0.81090752066E+02 0.  0.
        -11    1    3    3    0    0  0.55665326168E+01 -0.25098279824E+02 -0.32486636766E+03  0.32588198289E+03  0.00000000000E+00 0.  1.
         12    1    3    3    0    0 -0.13779369495E+02  0.35564846549E+02 -0.10547164166E+03  0.11215612568E+03  0.00000000000E+00 0. -1.
         13    1    5    5    0    0  0.12483800386E+02 -0.36669966515E+02  0.38508089051E+03  0.38702431959E+03  0.00000000000E+00 0. -1.
        -14    1    5    5    0    0 -0.63335007833E+01  0.17317360896E+02  0.22742432223E+02  0.29278361361E+02  0.00000000000E+00 0.  1.
          5    1    4    4  501    0  0.18861317477E+02  0.60244219031E+02  0.11963971133E+03  0.13533753415E+03  0.41800000000E+01 0.  1.
         -5    1    4    4    0  501 -0.16798780201E+02 -0.51358180137E+02  0.22434362870E+03  0.23079730896E+03  0.41800000000E+01 0.  1.
</event>
<event>
11    1  0.6763327E-009  0.1617714E+03  0.7561462E-02  0.1085423E+00
         22   -1    0    0    0    0  0.00000000000E+00  0.00000000000E+00  0.42247202445E+03  0.42247202445E+03  0.00000000000E+00 0.  1.
         22   -1    0    0    0    0 -0.00000000000E+00 -0.00000000000E+00 -0.19169905371E+04  0.19169905371E+04  0.00000000000E+00 0. -1.
         24    2    1    2    0    0  0.38134316596E+02  0.93577977659E+02 -0.17053772737E+04  0.17103261652E+04  0.81810034326E+02 0.  0.
         25    2    1    2    0    0 -0.47315031131E+02 -0.11758033425E+03 -0.16557746545E+03  0.24315617963E+03  0.12508070777E+03 0.  0.
        -24    2    1    2    0    0  0.91807145355E+01  0.24002356588E+02  0.37643622642E+03  0.38598021680E+03  0.81339391204E+02 0.  0.
        -11    1    3    3    0    0 -0.81904282091E+01  0.11903169151E+02 -0.44293384494E+02  0.46590476065E+02  0.00000000000E+00 0.  1.
         12    1    3    3    0    0  0.46324744805E+02  0.81674808508E+02 -0.16610838892E+04  0.16637356891E+04  0.00000000000E+00 0. -1.
         13    1    5    5    0    0  0.99528035597E+01  0.36175181785E+02  0.71028401625E+02  0.80328923268E+02  0.00000000000E+00 0. -1.
        -14    1    5    5    0    0 -0.77208902423E+00 -0.12172825197E+02  0.30540782479E+03  0.30565129353E+03  0.00000000000E+00 0.  1.
          5    1    4    4  501    0 -0.17454716915E+02 -0.12229719192E+03 -0.68338297353E+02  0.14124045306E+03  0.41800000000E+01 0.  1.
         -5    1    4    4    0  501 -0.29860314216E+02  0.47168576739E+01 -0.97239168100E+02  0.10191572658E+03  0.41800000000E+01 0.  1.
</event>
<event>
11    1  0.6763327E-009  0.1538629E+03  0.7561462E-02  0.1092996E+00
         22   -1    0    0    0    0  0.00000000000E+00  0.00000000000E+00  0.20798366020E+04  0.20798366020E+04  0.00000000000E+00 0. -1.
         22   -1    0    0    0    0 -0.00000000000E+00 -0.00000000000E+00 -0.17579032601E+03  0.17579032601E+03  0.00000000000E+00 0.  1.
         24    2    1    2    0    0  0.86116340135E+02 -0.18612899675E+02 -0.88725424862E+02  0.14677204334E+03  0.76859401609E+02 0.  0.
         25    2    1    2    0    0 -0.98506423041E+02 -0.97630889071E+01  0.54318067456E+02  0.16851396620E+03  0.12509065140E+03 0.  0.
        -24    2    1    2    0    0  0.12390082906E+02  0.28375988583E+02  0.19384536334E+04  0.19403409185E+04  0.79760141699E+02 0.  0.
        -13    1    3    3    0    0  0.57651381274E+02  0.12812858953E+02 -0.85944688785E+02  0.10428010667E+03  0.00000000000E+00 0.  1.
         14    1    3    3    0    0  0.28464958861E+02 -0.31425758628E+02 -0.27807360768E+01  0.42491936664E+02  0.00000000000E+00 0. -1.
         13    1    5    5    0    0 -0.98724162723E+01  0.14957088815E+01  0.16112727312E+04  0.16113036697E+04  0.00000000000E+00 0. -1.
        -14    1    5    5    0    0  0.22262499179E+02  0.26880279701E+02  0.32718090222E+03  0.32903724878E+03  0.00000000000E+00 0.  1.
          5    1    4    4  501    0  0.80027903923E+01  0.40127055104E+02  0.21100543119E+02  0.46226945880E+02  0.41800000000E+01 0.  1.
         -5    1    4    4    0  501 -0.10650921343E+03 -0.49890144012E+02  0.33217524337E+02  0.12228702032E+03  0.41800000000E+01 0.  1.
</event>
<event>
11    1  0.6763327E-009  0.1865625E+03  0.7561462E-02  0.1064455E+00
         22   -1    0    0    0    0  0.00000000000E+00  0.00000000000E+00  0.42735487492E+03  0.42735487492E+03  0.00000000000E+00 0.  1.
         22   -1    0    0    0    0 -0.00000000000E+00 -0.00000000000E+00 -0.30671202271E+03  0.30671202271E+03  0.00000000000E+00 0.  1.
        -24    2    1    2    0    0 -0.12289614460E+03  0.43514461881E+02 -0.19394224100E+03  0.24705224473E+03  0.80151406940E+02 0.  0.
         25    2    1    2    0    0  0.20443813454E+03 -0.31169719754E+02  0.14806087109E+03  0.28343722861E+03  0.12509252067E+03 0.  0.
         24    2    1    2    0    0 -0.81541989940E+02 -0.12344742128E+02  0.16652422211E+03  0.20357742429E+03  0.83138212321E+02 0.  0.
        -11    1    5    5    0    0 -0.45164886434E+02  0.25265931348E+02  0.12955935927E+03  0.13951294502E+03  0.00000000000E+00 0.  1.
         12    1    5    5    0    0 -0.36377103506E+02 -0.37610673476E+02  0.36964862837E+02  0.64064479264E+02  0.00000000000E+00 0. -1.
         13    1    3    3    0    0 -0.61359507552E+02 -0.84551961907E+01 -0.41249549900E+02  0.74417772586E+02  0.00000000000E+00 0. -1.
        -14    1    3    3    0    0 -0.61536637051E+02  0.51969658072E+02 -0.15269269110E+03  0.17263447215E+03  0.00000000000E+00 0.  1.
          5    1    4    4  501    0  0.16738718999E+03  0.12878725101E+02  0.60360631456E+02  0.17845226579E+03  0.41800000000E+01 0.  1.
         -5    1    4    4    0  501  0.37050944549E+02 -0.44048444855E+02  0.87700239639E+02  0.10498496282E+03  0.41800000000E+01 0.  1.
</event>
<event>
11    1  0.6763327E-009  0.1449646E+03  0.7561462E-02  0.1102138E+00
         22   -1    0    0    0    0  0.00000000000E+00  0.00000000000E+00  0.58981451476E+03  0.58981451476E+03  0.00000000000E+00 0. -1.
         22   -1    0    0    0    0 -0.00000000000E+00 -0.00000000000E+00 -0.60352657689E+03  0.60352657689E+03  0.00000000000E+00 0.  1.
        -24    2    1    2    0    0 -0.46186077742E+02  0.24251574735E+02 -0.54138381110E+03  0.54976333929E+03  0.80137417350E+02 0.  0.
         25    2    1    2    0    0  0.10069864566E+03 -0.64298162066E+02  0.93221932246E+02  0.19649819329E+03  0.12508693149E+03 0.  0.
         24    2    1    2    0    0 -0.54512567917E+02  0.40046587331E+02  0.43444981671E+03  0.44707955907E+03  0.80982341756E+02 0.  0.
        -13    1    5    5    0    0  0.74967429622E+01  0.36511006565E+02  0.96075816458E+02  0.10305249761E+03  0.00000000000E+00 0.  1.
         14    1    5    5    0    0 -0.62009310880E+02  0.35355807664E+01  0.33837400026E+03  0.34402706146E+03  0.00000000000E+00 0. -1.
         11    1    3    3    0    0 -0.15406091031E+02 -0.25226819906E+02 -0.92372112164E+02  0.96986324753E+02  0.00000000000E+00 0. -1.
        -12    1    3    3    0    0 -0.30779986711E+02  0.49478394641E+02 -0.44901169893E+03  0.45277701454E+03  0.00000000000E+00 0.  1.
          5    1    4    4  501    0  0.94723643137E+02 -0.56283089196E+02  0.12277587076E+03  0.16502042764E+03  0.41800000000E+01 0. -1.
         -5    1    4    4    0  501  0.59750025221E+01 -0.80150728693E+01 -0.29553938514E+02  0.31477765644E+02  0.41800000000E+01 0. -1.
</event>
<event>
11    1  0.6763327E-009  0.1442208E+03  0.7561462E-02  0.1102935E+00
         22   -1    0    0    0    0  0.00000000000E+00  0.00000000000E+00  0.11135734285E+03  0.11135734285E+03  0.00000000000E+00 0. -1.
         22   -1    0    0    0    0 -0.00000000000E+00 -0.00000000000E+00 -0.63132545706E+03  0.63132545706E+03  0.00000000000E+00 0. -1.
        -24    2    1    2    0    0 -0.19493545312E+02 -0.36230276955E+02 -0.33105714078E+03  0.34307420832E+03  0.80052799306E+02 0.  0.
         25    2    1    2    0    0 -0.26087951633E+02  0.89246489978E+02 -0.23660304941E+03  0.28332694249E+03  0.12509051186E+03 0.  0.
         24    2    1    2    0    0  0.45581496945E+02 -0.53016213023E+02  0.47692075975E+02  0.11628164909E+03  0.79740178693E+02 0.  0.
        -13    1    5    5    0    0  0.58232572277E+01  0.16583078493E+02 -0.73469603194E+01  0.19049583800E+02  0.00000000000E+00 0.  1.
         14    1    5    5    0    0  0.39758239717E+02 -0.69599291516E+02  0.55039036294E+02  0.97232065293E+02  0.00000000000E+00 0. -1.
         13    1    3    3    0    0 -0.34699891983E+02  0.11355194322E+01 -0.25138231301E+03  0.25376847559E+03  0.00000000000E+00 0. -1.
        -14    1    3    3    0    0  0.15206346671E+02 -0.37365796387E+02 -0.79674827764E+02  0.89305732727E+02  0.00000000000E+00 0.  1.
          5    1    4    4  501    0  0.26752234528E+02  0.97316390765E+02 -0.13704660618E+03  0.17025101066E+03  0.41800000000E+01 0. -1.
         -5    1    4    4    0  501 -0.52840186160E+02 -0.80699007867E+01 -0.99556443225E+02  0.11307593183E+03  0.41800000000E+01 0. -1.
</event>
<event>
11    1  0.6763327E-009  0.1401901E+03  0.7561462E-02  0.1107346E+00
         22   -1    0    0    0    0  0.00000000000E+00  0.00000000000E+00  0.25231870358E+04  0.25231870358E+04  0.00000000000E+00 0. -1.
         22   -1    0    0    0    0 -0.00000000000E+00 -0.00000000000E+00 -0.33041874475E+03  0.33041874475E+03  0.00000000000E+00 0. -1.
         24    2    1    2    0    0  0.36626582420E+01 -0.10548562477E+02 -0.30755199782E+03  0.32046326746E+03  0.89352040780E+02 0.  0.
         25    2    1    2    0    0  0.57842137153E+02 -0.62649571671E+01  0.29723164229E+03  0.32768406164E+03  0.12508090403E+03 0.  0.
        -24    2    1    2    0    0 -0.61504795395E+02  0.16813519644E+02  0.22030886466E+04  0.22054584514E+04  0.79886557619E+02 0.  0.
        -13    1    3    3    0    0 -0.18865201435E+01 -0.49959032088E+02 -0.15920763796E+03  0.16687281333E+03  0.00000000000E+00 0.  1.
         14    1    3    3    0    0  0.55491783855E+01  0.39410469611E+02 -0.14834435986E+03  0.15359045412E+03  0.00000000000E+00 0. -1.
         13    1    5    5    0    0 -0.68825904001E+02  0.42562618837E+01  0.21190720573E+04  0.21201937423E+04  0.00000000000E+00 0. -1.
        -14    1    5    5    0    0  0.73211086065E+01  0.12557257760E+02  0.84016589293E+02  0.85264709172E+02  0.00000000000E+00 0.  1.
          5    1    4    4  501    0  0.97064734018E+02  0.33690297091E+01  0.21609521492E+03  0.23695469454E+03  0.41800000000E+01 0.  1.
         -5    1    4    4    0  501 -0.39222596865E+02 -0.96339868762E+01  0.81136427374E+02  0.90729367103E+02  0.41800000000E+01 0.  1.
</event>
<event>
11    1  0.6763327E-009  0.1420661E+03  0.7561462E-02  0.1105273E+00
         22   -1    0    0    0    0  0.00000000000E+00  0.00000000000E+00  0.80350963735E+02  0.80350963735E+02  0.00000000000E+00 0. -1.
         22   -1    0    0    0    0 -0.00000000000E+00 -0.00000000000E+00 -0.13628427779E+04  0.13628427779E+04  0.00000000000E+00 0. -1.
        -24    2    1    2    0    0 -0.66404803942E+02  0.48669242786E+01 -0.11114058140E+04  0.11163018707E+04  0.80459296230E+02 0.  0.
         25    2    1    2    0    0  0.78728485151E+02  0.46951495826E+02 -0.17109936143E+03  0.23092252477E+03  0.12509038184E+03 0.  0.
         24    2    1    2    0    0 -0.12323681209E+02 -0.51818420104E+02  0.13361260911E-01  0.95969346103E+02  0.79831656831E+02 0.  0.
        -13    1    5    5    0    0 -0.22895875795E+02  0.18973637655E+01 -0.26557378177E+02  0.35115743668E+02  0.00000000000E+00 0.  1.
         14    1    5    5    0    0  0.10572194586E+02 -0.53715783870E+02  0.26570739438E+02  0.60853602436E+02  0.00000000000E+00 0. -1.
         11    1    3    3    0    0 -0.81991676494E+02 -0.25775264567E+01 -0.10189195719E+04  0.10222164020E+04  0.00000000000E+00 0. -1.
        -12    1    3    3    0    0  0.15586872552E+02  0.74444507354E+01 -0.92486242081E+02  0.94085468681E+02  0.00000000000E+00 0.  1.
          5    1    4    4  501    0  0.38996331899E+02  0.20402166308E+02 -0.17714164068E+03  0.18257490396E+03  0.41800000000E+01 0.  1.
         -5    1    4    4    0  501  0.39732153253E+02  0.26549329518E+02  0.60422792463E+01  0.48347620814E+02  0.41800000000E+01 0.  1.
</event>
<event>
11    1  0.6763327E-009  0.1340938E+03  0.7561462E-02  0.1114339E+00
         22   -1    0    0    0    0  0.00000000000E+00  0.00000000000E+00  0.15315290877E+04  0.15315290877E+04  0.00000000000E+00 0. -1.
         22   -1    0    0    0    0 -0.00000000000E+00 -0.00000000000E+00 -0.26913845465E+02  0.26913845465E+02  0.00000000000E+00 0. -1.
        -24    2    1    2    0    0 -0.46138529016E+02  0.17572754237E+02  0.12318356526E+03  0.15471704242E+03  0.79533684156E+02 0.  0.
         25    2    1    2    0    0  0.37595607207E+02 -0.25922568500E+02  0.46948177805E+03  0.48800228290E+03  0.12509068293E+03 0.  0.
         24    2    1    2    0    0  0.85429218090E+01  0.83498142626E+01  0.91194989896E+03  0.91572360787E+03  0.82185198732E+02 0.  0.
        -13    1    5    5    0    0 -0.95173365534E+01  0.13898868902E+02  0.37962677831E+02  0.41532194258E+02  0.00000000000E+00 0.  1.
         14    1    5    5    0    0  0.18060258362E+02 -0.55490546395E+01  0.87398722113E+03  0.87419141361E+03  0.00000000000E+00 0. -1.
         13    1    3    3    0    0 -0.53722625844E+01 -0.99067657499E+01 -0.85257381915E+01  0.14131292390E+02  0.00000000000E+00 0. -1.
        -14    1    3    3    0    0 -0.40766266432E+02  0.27479519987E+02  0.13170930345E+03  0.14058575003E+03  0.00000000000E+00 0.  1.
          5    1    4    4  501    0 -0.26946234516E+02  0.19695847591E+02  0.28871678494E+03  0.29066970993E+03  0.41800000000E+01 0. -1.
         -5    1    4    4    0  501  0.64541841723E+02 -0.45618416091E+02  0.18076499311E+03  0.19733257297E+03  0.41800000000E+01 0. -1.
</event>
<event>
11    1  0.6763327E-009  0.1453480E+03  0.7561462E-02  0.1101729E+00
         22   -1    0    0    0    0  0.00000000000E+00  0.00000000000E+00  0.24017285509E+03  0.24017285509E+03  0.00000000000E+00 0.  1.
         22   -1    0    0    0    0 -0.00000000000E+00 -0.00000000000E+00 -0.16145217021E+04  0.16145217021E+04  0.00000000000E+00 0. -1.
        -24    2    1    2    0    0 -0.42567536300E+02 -0.42965072389E+02 -0.14994120432E+04  0.15027594487E+04  0.79946810747E+02 0.  0.
         25    2    1    2    0    0 -0.37150032693E+02  0.28186903704E+02 -0.50980708893E+02  0.14290073811E+03  0.12508781636E+03 0.  0.
         24    2    1    2    0    0  0.79717568993E+02  0.14778168685E+02  0.17604390509E+03  0.20903437045E+03  0.78298316916E+02 0.  0.
        -13    1    5    5    0    0  0.69543901897E+02  0.13754719824E+02  0.18327706297E+03  0.19650961406E+03  0.00000000000E+00 0.  1.
         14    1    5    5    0    0  0.10173667096E+02  0.10234488609E+01 -0.72331578726E+01  0.12524756387E+02  0.00000000000E+00 0. -1.
         13    1    3    3    0    0  0.76215452605E+01 -0.22168565821E+02 -0.10215850280E+04  0.10218539537E+04  0.00000000000E+00 0. -1.
        -14    1    3    3    0    0 -0.50189081560E+02 -0.20796506567E+02 -0.47782701528E+03  0.48090549501E+03  0.00000000000E+00 0.  1.
          5    1    4    4  501    0 -0.35916787436E+02  0.13202001065E+02  0.37091764232E+02  0.53456335693E+02  0.41800000000E+01 0.  1.
         -5    1    4    4    0  501 -0.12332452573E+01  0.14984902639E+02 -0.88072473125E+02  0.89444402415E+02  0.41800000000E+01 0.  1.
</event>
<event>
11    1  0.6763327E-009  0.1697211E+03  0.7561462E-02  0.1078275E+00
         22   -1    0    0    0    0  0.00000000000E+00  0.00000000000E+00  0.33881736630E+03  0.33881736630E+03  0.00000000000E+00 0.  1.
         22   -1    0    0    0    0 -0.00000000000E+00 -0.00000000000E+00 -0.35927924088E+04  0.35927924088E+04  0.00000000000E+00 0.  1.
         24    2    1    2    0    0  0.10760668855E+03  0.36158295335E+02 -0.26786518860E+04  0.26822073889E+04  0.78574351946E+02 0.  0.
         25    2    1    2    0    0 -0.12096728586E+03 -0.16535601597E+02 -0.89845967263E+03  0.91530541261E+03  0.12509078555E+03 0.  0.
        -24    2    1    2    0    0  0.13360597311E+02 -0.19622693738E+02  0.32313651612E+03  0.33409697363E+03  0.81486342833E+02 0.  0.
        -11    1    3    3    0    0  0.73060573074E+02  0.26388300533E+01 -0.21829580830E+04  0.21841819528E+04  0.00000000000E+00 0.  1.
         12    1    3    3    0    0  0.34546115477E+02  0.33519465282E+02 -0.49569380304E+03  0.49802543612E+03  0.00000000000E+00 0. -1.
         11    1    5    5    0    0  0.20453180300E+01  0.28118979404E+02  0.58363399515E+02  0.64816253606E+02  0.00000000000E+00 0. -1.
        -12    1    5    5    0    0  0.11315279282E+02 -0.47741673143E+02  0.26477311660E+03  0.26928072002E+03  0.00000000000E+00 0.  1.
          5    1    4    4  501    0  0.21211982427E+02  0.45392984729E+00 -0.26355198791E+03  0.26443766181E+03  0.41800000000E+01 0. -1.
         -5    1    4    4    0  501 -0.14217926829E+03 -0.16989531444E+02 -0.63490768472E+03  0.65086775080E+03  0.41800000000E+01 0. -1.
</event>
<event>
11    1  0.6763327E-009  0.3013337E+03  0.7561462E-02  0.9996284E-01
         22   -1    0    0    0    0  0.00000000000E+00  0.00000000000E+00  0.73256115522E+03  0.73256115522E+03  0.00000000000E+00 0. -1.
         22   -1    0    0    0    0 -0.00000000000E+00 -0.00000000000E+00 -0.67956171518E+03  0.67956171518E+03  0.00000000000E+00 0.  1.
         24    2    1    2    0    0 -0.95789776045E+02 -0.25868195785E+03 -0.54825535358E+03  0.61900445959E+03  0.80563960573E+02 0.  0.
         25    2    1    2    0    0  0.50527455416E+02  0.26098795063E+03  0.14560716666E+03  0.32789715855E+03  0.12508942992E+03 0.  0.
        -24    2    1    2    0    0  0.45262320629E+02 -0.23059927788E+01  0.45564762695E+03  0.46522125225E+03  0.82231735531E+02 0.  0.
        -13    1    3    3    0    0 -0.43094143000E+02 -0.20284214004E+03 -0.35611959860E+03  0.41209611432E+03  0.00000000000E+00 0.  1.
         14    1    3    3    0    0 -0.52695633045E+02 -0.55839817816E+02 -0.19213575499E+03  0.20690834526E+03  0.00000000000E+00 0. -1.
         13    1    5    5    0    0  0.21163973717E+02 -0.42069404321E+02  0.21053277056E+03  0.21573547702E+03  0.00000000000E+00 0. -1.
        -14    1    5    5    0    0  0.24098346912E+02  0.39763411542E+02  0.24511485639E+03  0.24948577524E+03  0.00000000000E+00 0.  1.
          5    1    4    4  501    0  0.56138365101E+02  0.11506391837E+03  0.12741953985E+03  0.18067770444E+03  0.41800000000E+01 0.  1.
         -5    1    4    4    0  501 -0.56109096849E+01  0.14592403226E+03  0.18187626811E+02  0.14721945411E+03  0.41800000000E+01 0.  1.
</event>
<event>
11    1  0.6763327E-009  0.1706781E+03  0.7561462E-02  0.1077443E+00
         22   -1    0    0    0    0  0.00000000000E+00  0.00000000000E+00  0.11286571369E+04  0.11286571369E+04  0.00000000000E+00 0. -1.
         22   -1    0    0    0    0 -0.00000000000E+00 -0.00000000000E+00 -0.16758963461E+03  0.16758963461E+03  0.00000000000E+00 0.  1.
        -24    2    1    2    0    0 -0.70905694687E+02 -0.10247408439E+03 -0.93391309331E+02  0.17476099219E+03  0.79315271057E+02 0.  0.
         25    2    1    2    0    0 -0.39446663848E+02  0.10047580944E+03  0.21624391622E+03  0.27214022628E+03  0.12508974332E+03 0.  0.
         24    2    1    2    0    0  0.11035235854E+03  0.19982749480E+01  0.83821489541E+03  0.84934555306E+03  0.81252824461E+02 0.  0.
        -13    1    5    5    0    0  0.34907656558E+02  0.27969934948E+02  0.15019246854E+03  0.15671196302E+03  0.00000000000E+00 0.  1.
         14    1    5    5    0    0  0.75444701978E+02 -0.25971660000E+02  0.68802242687E+03  0.69263359004E+03  0.00000000000E+00 0. -1.
         11    1    3    3    0    0 -0.56048208874E+02 -0.15918479604E+02 -0.50129782641E+02  0.76862180678E+02  0.00000000000E+00 0. -1.
        -12    1    3    3    0    0 -0.14857485813E+02 -0.86555604783E+02 -0.43261526690E+02  0.97898811513E+02  0.00000000000E+00 0.  1.
          5    1    4    4  501    0 -0.30682717858E+02  0.11623409043E+03  0.22222196653E+03  0.25268927117E+03  0.41800000000E+01 0. -1.
         -5    1    4    4    0  501 -0.87639459904E+01 -0.15758280995E+02 -0.59780503065E+01  0.19450955110E+02  0.41800000000E+01 0. -1.
</event>
<event>
11    1  0.6763327E-009  0.1630819E+03  0.7561462E-02  0.1084214E+00
         22   -1    0    0    0    0  0.00000000000E+00  0.00000000000E+00  0.14366509319E+03  0.14366509319E+03  0.00000000000E+00 0. -1.
         22   -1    0    0    0    0 -0.00000000000E+00 -0.00000000000E+00 -0.22301333064E+04  0.22301333064E+04  0.00000000000E+00 0. -1.
        -24    2    1    2    0    0  0.27386792586E+02  0.99784002598E+02 -0.20237183088E+04  0.20286048245E+04  0.95366959982E+02 0.  0.
         25    2    1    2    0    0 -0.21430724883E+02 -0.12278177195E+03 -0.14878710993E+03  0.23091088979E+03  0.12509034915E+03 0.  0.
         24    2    1    2    0    0 -0.59560677031E+01  0.22997769351E+02  0.86037205503E+02  0.11428268532E+03  0.71370577236E+02 0.  0.
        -13    1    5    5    0    0  0.12116766262E+02  0.37892276971E+02  0.20638821476E+02  0.44817425524E+02  0.00000000000E+00 0.  1.
         14    1    5    5    0    0 -0.18072833965E+02 -0.14894507620E+02  0.65398384027E+02  0.69465259793E+02  0.00000000000E+00 0. -1.
         11    1    3    3    0    0  0.62400156623E+02  0.71522071722E+02 -0.14700918714E+04  0.14731528423E+04  0.00000000000E+00 0. -1.
        -12    1    3    3    0    0 -0.35013364036E+02  0.28261930875E+02 -0.55362643734E+03  0.55545198219E+03  0.00000000000E+00 0.  1.
          5    1    4    4  501    0  0.10228949019E+02 -0.44285858281E+02 -0.13815942837E+03  0.14550384424E+03  0.41800000000E+01 0. -1.
         -5    1    4    4    0  501 -0.31659673902E+02 -0.78495913667E+02 -0.10627681559E+02  0.85407045549E+02  0.41800000000E+01 0. -1.
</event>
<event>
11    1  0.6763327E-009  0.2992359E+03  0.7561462E-02  0.1000515E+00
         22   -1    0    0    0    0  0.00000000000E+00  0.00000000000E+00  0.35453650613E+04  0.35453650613E+04  0.00000000000E+00 0. -1.
         22   -1    0    0    0    0 -0.00000000000E+00 -0.00000000000E+00 -0.18721902858E+03  0.18721902858E+03  0.00000000000E+00 0. -1.
        -24    2    1    2    0    0  0.17683082643E+03  0.17544570303E+03  0.71621205128E+02  0.27134563697E+03  0.80302688546E+02 0.  0.
         25    2    1    2    0    0 -0.31609011063E+03 -0.12576900302E+03  0.30147133777E+03  0.47144754783E+03  0.12508805978E+03 0.  0.
         24    2    1    2    0    0  0.13925928420E+03 -0.49676700013E+02  0.29850534898E+04  0.29897909051E+04  0.80276996990E+02 0.  0.
        -11    1    5    5    0    0  0.74141708253E+01  0.95315194502E+01  0.61914642011E+02  0.63081238791E+02  0.00000000000E+00 0.  1.
         12    1    5    5    0    0  0.13184511338E+03 -0.59208219463E+02  0.29231388478E+04  0.29267096663E+04  0.00000000000E+00 0. -1.
         13    1    3    3    0    0  0.61550819545E+02  0.84984616985E+02 -0.67857456448E+01  0.10515196077E+03  0.00000000000E+00 0. -1.
        -14    1    3    3    0    0  0.11528000689E+03  0.90461086047E+02  0.78406950773E+02  0.16619367619E+03  0.00000000000E+00 0.  1.
          5    1    4    4  501    0 -0.69547622948E+02  0.17733273641E+02  0.30904028083E+02  0.78255173653E+02  0.41800000000E+01 0.  1.
         -5    1    4    4    0  501 -0.24654248769E+03 -0.14350227666E+03  0.27056730969E+03  0.39319237418E+03  0.41800000000E+01 0.  1.
</event>
<event>
11    1  0.6763327E-009  0.1323836E+03  0.7561462E-02  0.1116374E+00
         22   -1    0    0    0    0  0.00000000000E+00  0.00000000000E+00  0.47054508235E+03  0.47054508235E+03  0.00000000000E+00 0.  1.
         22   -1    0    0    0    0 -0.00000000000E+00 -0.00000000000E+00 -0.14910452911E+03  0.14910452911E+03  0.00000000000E+00 0.  1.
         24    2    1    2    0    0 -0.55875879589E+02  0.10146151553E+02 -0.96701584916E+02  0.12706615167E+03  0.59745728421E+02 0.  0.
         25    2    1    2    0    0  0.67257732975E+02  0.28953999677E+02  0.14608061727E+03  0.20578488574E+03  0.12508371483E+03 0.  0.
        -24    2    1    2    0    0 -0.11381853386E+02 -0.39100151230E+02  0.27206152089E+03  0.28679857405E+03  0.81102296602E+02 0.  0.
        -11    1    3    3    0    0 -0.99761539646E+01 -0.17271898747E+02 -0.57238179836E+02  0.60613953552E+02  0.00000000000E+00 0.  1.
         12    1    3    3    0    0 -0.45899725625E+02  0.27418050300E+02 -0.39463405080E+02  0.66452198122E+02  0.00000000000E+00 0. -1.
         11    1    5    5    0    0 -0.92708716742E+01  0.15789979814E+01 -0.20929876633E+01  0.96344638452E+01  0.00000000000E+00 0. -1.
        -12    1    5    5    0    0 -0.21109817116E+01 -0.40679149211E+02  0.27415450855E+03  0.27716411020E+03  0.00000000000E+00 0.  1.
          5    1    4    4  501    0  0.93107090324E+02 -0.87400111498E+01  0.69827674859E+02  0.11678482196E+03  0.41800000000E+01 0.  1.
         -5    1    4    4    0  501 -0.25849357349E+02  0.37694010827E+02  0.76252942408E+02  0.89000063783E+02  0.41800000000E+01 0.  1.
</event>
<event>
11    1  0.6763327E-009  0.1686849E+03  0.7561462E-02  0.1079182E+00
         22   -1    0    0    0    0  0.00000000000E+00  0.00000000000E+00  0.70314532555E+03  0.70314532555E+03  0.00000000000E+00 0.  1.
         22   -1    0    0    0    0 -0.00000000000E+00 -0.00000000000E+00 -0.88581104108E+03  0.88581104108E+03  0.00000000000E+00 0. -1.
        -24    2    1    2    0    0  0.10987936954E+03  0.28246672317E+02 -0.85411987502E+03  0.86537532296E+03  0.80512969961E+02 0.  0.
         25    2    1    2    0    0 -0.10093379899E+03  0.72897513020E+01  0.28940655594E+03  0.33113520063E+03  0.12511432460E+03 0.  0.
         24    2    1    2    0    0 -0.89455705493E+01 -0.35536423619E+02  0.38204760355E+03  0.39244584303E+03  0.81917688558E+02 0.  0.
        -11    1    5    5    0    0  0.27108970997E+02 -0.37136137413E+02  0.28917600389E+03  0.29280838484E+03  0.00000000000E+00 0.  1.
         12    1    5    5    0    0 -0.36054541546E+02  0.15997137944E+01  0.92871599665E+02  0.99637458190E+02  0.00000000000E+00 0. -1.
         11    1    3    3    0    0  0.98940438517E+02  0.21348739777E+02 -0.84057906613E+03  0.84665113564E+03  0.00000000000E+00 0. -1.
        -12    1    3    3    0    0  0.10938931027E+02  0.68979325393E+01 -0.13540808890E+02  0.18724187318E+02  0.00000000000E+00 0.  1.
          5    1    4    4  501    0 -0.61911351685E+02 -0.16024560074E+02  0.27631026716E+03  0.28364526813E+03  0.41800000000E+01 0.  1.
         -5    1    4    4    0  501 -0.39022447309E+02  0.23314311376E+02  0.13096288776E+02  0.47489932498E+02  0.41800000000E+01 0.  1.
</event>
<event>
11    1  0.6763327E-009  0.1974084E+03  0.7561462E-02  0.1056372E+00
         22   -1    0    0    0    0  0.00000000000E+00  0.00000000000E+00  0.74162597003E+03  0.74162597003E+03  0.00000000000E+00 0.  1.
         22   -1    0    0    0    0 -0.00000000000E+00 -0.00000000000E+00 -0.68869773675E+03  0.68869773675E+03  0.00000000000E+00 0.  1.
         24    2    1    2    0    0  0.33772299339E+02 -0.15196166278E+03 -0.64688500051E+03  0.66999513237E+03  0.78742354267E+02 0.  0.
         25    2    1    2    0    0 -0.13525146978E+02  0.89516580157E+02  0.21950631009E+03  0.26837976683E+03  0.12509408997E+03 0.  0.
        -24    2    1    2    0    0 -0.20247152360E+02  0.62445082624E+02  0.48030692370E+03  0.49194880758E+03  0.83723072086E+02 0.  0.
        -13    1    3    3    0    0  0.15661368676E+02 -0.14011370926E+01 -0.14088889508E+03  0.14176361455E+03  0.00000000000E+00 0.  1.
         14    1    3    3    0    0  0.18110930663E+02 -0.15056052569E+03 -0.50599610543E+03  0.52823151782E+03  0.00000000000E+00 0. -1.
         11    1    5    5    0    0  0.31900747666E+02  0.33291885639E+02  0.18503131678E+03  0.19068978877E+03  0.00000000000E+00 0. -1.
        -12    1    5    5    0    0 -0.52147900027E+02  0.29153196984E+02  0.29527560692E+03  0.30125901881E+03  0.00000000000E+00 0.  1.
          5    1    4    4  501    0 -0.85368207805E+00 -0.49742574977E+01 -0.14364641079E+02  0.15788835425E+02  0.41800000000E+01 0.  1.
         -5    1    4    4    0  501 -0.12671464900E+02  0.94490837655E+02  0.23387095117E+03  0.25259093140E+03  0.41800000000E+01 0.  1.
</event>
<event>
11    1  0.6763327E-009  0.1641881E+03  0.7561462E-02  0.1083203E+00
         22   -1    0    0    0    0  0.00000000000E+00  0.00000000000E+00  0.15003012662E+04  0.15003012662E+04  0.00000000000E+00 0.  1.
         22   -1    0    0    0    0 -0.00000000000E+00 -0.00000000000E+00 -0.40090771908E+03  0.40090771908E+03  0.00000000000E+00 0. -1.
         24    2    1    2    0    0  0.67482321842E+02  0.81505645932E+02 -0.36349894179E+03  0.38736870972E+03  0.82012209508E+02 0.  0.
         25    2    1    2    0    0 -0.27111693622E+02 -0.13611879778E+03  0.35534005655E+03  0.40147317969E+03  0.12510310620E+03 0.  0.
        -24    2    1    2    0    0 -0.40370628220E+02  0.54613151849E+02  0.11075524324E+04  0.11123670959E+04  0.77947299919E+02 0.  0.
        -13    1    3    3    0    0  0.33170935369E+02  0.48364991564E+02 -0.76299678997E+02  0.96234735814E+02  0.00000000000E+00 0.  1.
         14    1    3    3    0    0  0.34311386473E+02  0.33140654369E+02 -0.28719926280E+03  0.29113397391E+03  0.00000000000E+00 0. -1.
         11    1    5    5    0    0 -0.39869241233E+02  0.17655558436E+02  0.23367634512E+03  0.23770971669E+03  0.00000000000E+00 0. -1.
        -12    1    5    5    0    0 -0.50138698634E+00  0.36957593413E+02  0.87387608728E+03  0.87465737922E+03  0.00000000000E+00 0.  1.
          5    1    4    4  501    0 -0.55561140124E+02 -0.66730897228E+02  0.28716938335E+03  0.30003963083E+03  0.41800000000E+01 0.  1.
         -5    1    4    4    0  501  0.28449446502E+02 -0.69387900553E+02  0.68170673199E+02  0.10143354886E+03  0.41800000000E+01 0.  1.
</event>
<event>
11    1  0.6763327E-009  0.1293187E+03  0.7561462E-02  0.1120109E+00
         22   -1    0    0    0    0  0.00000000000E+00  0.00000000000E+00  0.15873196389E+04  0.15873196389E+04  0.00000000000E+00 0.  1.
         22   -1    0    0    0    0 -0.00000000000E+00 -0.00000000000E+00 -0.90226158842E+02  0.90226158842E+02  0.00000000000E+00 0. -1.
         24    2    1    2    0    0 -0.34665181225E+02  0.20399915599E+02 -0.13448045250E+02  0.90972103871E+02  0.80481317185E+02 0.  0.
         25    2    1    2    0    0  0.10461579818E+02 -0.66245451202E+01  0.70978329050E+02  0.14434472649E+03  0.12507656703E+03 0.  0.
        -24    2    1    2    0    0  0.24203601407E+02 -0.13775370479E+02  0.14395631962E+04  0.14422289673E+04  0.83106095900E+02 0.  0.
        -13    1    3    3    0    0 -0.27186838209E+02 -0.96313360892E+01  0.27360645182E+02  0.39755398520E+02  0.00000000000E+00 0.  1.
         14    1    3    3    0    0 -0.74783430157E+01  0.30031251688E+02 -0.40808690432E+02  0.51216705351E+02  0.00000000000E+00 0. -1.
         13    1    5    5    0    0  0.18431812090E+02 -0.23906223881E+02  0.17312056541E+03  0.17573266459E+03  0.00000000000E+00 0. -1.
        -14    1    5    5    0    0  0.57717893168E+01  0.10130853403E+02  0.12664426308E+04  0.12664963027E+04  0.00000000000E+00 0.  1.
          5    1    4    4  501    0 -0.33075155746E+02 -0.52456542157E+02  0.39031930027E+02  0.73393587624E+02  0.41800000000E+01 0.  1.
         -5    1    4    4    0  501  0.43536735565E+02  0.45831997037E+02  0.31946399023E+02  0.70951138867E+02  0.41800000000E+01 0.  1.
</event>
<event>
11    1  0.6763327E-009  0.2804690E+03  0.7561462E-02  0.1008814E+00
         22   -1    0    0    0    0  0.00000000000E+00  0.00000000000E+00  0.42712388109E+03  0.42712388109E+03  0.00000000000E+00 0. -1.
         22   -1    0    0    0    0 -0.00000000000E+00 -0.00000000000E+00 -0.12984937124E+04  0.12984937124E+04  0.00000000000E+00 0.  1.
        -24    2    1    2    0    0  0.22826565176E+03  0.91034772057E+02 -0.86597499002E+03  0.90395159140E+03  0.82603019031E+02 0.  0.
         25    2    1    2    0    0 -0.23684849774E+03 -0.12268521313E+03 -0.35526513696E+03  0.46152910057E+03  0.12508765220E+03 0.  0.
         24    2    1    2    0    0  0.85828459781E+01  0.31650441072E+02  0.34987029566E+03  0.36013690153E+03  0.78828601351E+02 0.  0.
        -13    1    5    5    0    0  0.18578305116E+02 -0.21219239975E+02  0.76768937648E+02  0.81785569349E+02  0.00000000000E+00 0.  1.
         14    1    5    5    0    0 -0.99954591375E+01  0.52869681047E+02  0.27310135801E+03  0.27835133218E+03  0.00000000000E+00 0. -1.
         11    1    3    3    0    0  0.45631656324E+02 -0.10654786978E+02 -0.10902168124E+03  0.11866549425E+03  0.00000000000E+00 0. -1.
        -12    1    3    3    0    0  0.18263399543E+03  0.10168955903E+03 -0.75695330877E+03  0.78528609715E+03  0.00000000000E+00 0.  1.
          5    1    4    4  501    0 -0.66249540674E+02 -0.94340855595E+02 -0.19005790090E+03  0.22232560979E+03  0.41800000000E+01 0. -1.
         -5    1    4    4    0  501 -0.17059895706E+03 -0.28344357534E+02 -0.16520723606E+03  0.23920349078E+03  0.41800000000E+01 0. -1.
</event>
<event>
11    1  0.6763327E-009  0.1915600E+03  0.7561462E-02  0.1060658E+00
         22   -1    0    0    0    0  0.00000000000E+00  0.00000000000E+00  0.30532563594E+03  0.30532563594E+03  0.00000000000E+00 0.  1.
         22   -1    0    0    0    0 -0.00000000000E+00 -0.00000000000E+00 -0.27452365596E+03  0.27452365596E+03  0.00000000000E+00 0.  1.
         24    2    1    2    0    0 -0.28321014165E+02  0.86641558451E+01 -0.13013807343E+03  0.15287746788E+03  0.74555044024E+02 0.  0.
         25    2    1    2    0    0  0.90719091970E+02  0.12078807175E+03 -0.68053423980E+00  0.19613432469E+03  0.12509395776E+03 0.  0.
        -24    2    1    2    0    0 -0.62398077805E+02 -0.12945222760E+03  0.16162058766E+03  0.23083749933E+03  0.80705250129E+02 0.  0.
        -11    1    3    3    0    0 -0.62422486993E+01 -0.32538564637E+02 -0.47097200167E+02  0.57583592464E+02  0.00000000000E+00 0.  1.
         12    1    3    3    0    0 -0.22078765466E+02  0.41202720482E+02 -0.83040873263E+02  0.95293875417E+02  0.00000000000E+00 0. -1.
         13    1    5    5    0    0  0.13120685647E+02 -0.30498129905E+02  0.10019438190E+02  0.34679640442E+02  0.00000000000E+00 0. -1.
        -14    1    5    5    0    0 -0.75518763452E+02 -0.98954097693E+02  0.15160114947E+03  0.19615785889E+03  0.00000000000E+00 0.  1.
          5    1    4    4  501    0  0.70265182368E+02 -0.17460344369E+01  0.11087573241E+02  0.71278686645E+02  0.41800000000E+01 0. -1.
         -5    1    4    4    0  501  0.20453909602E+02  0.12253410619E+03 -0.11768107481E+02  0.12485563804E+03  0.41800000000E+01 0. -1.
</event>
<event>
11    1  0.6763327E-009  0.3893722E+03  0.7561462E-02  0.9681647E-01
         22   -1    0    0    0    0  0.00000000000E+00  0.00000000000E+00  0.83624951290E+03  0.83624951290E+03  0.00000000000E+00 0.  1.
         22   -1    0    0    0    0 -0.00000000000E+00 -0.00000000000E+00 -0.42514792597E+03  0.42514792597E+03  0.00000000000E+00 0. -1.
         24    2    1    2    0    0  0.34719351662E+02  0.19888150805E+03 -0.12325157437E+03  0.25053651855E+03  0.82573052029E+02 0.  0.
         25    2    1    2    0    0  0.18460624533E+01  0.30689697549E+03  0.29817235586E+03  0.44580707459E+03  0.12509209584E+03 0.  0.
        -24    2    1    2    0    0 -0.36565414116E+02 -0.50577848354E+03  0.23618080544E+03  0.56505384573E+03  0.79721840149E+02 0.  0.
        -11    1    3    3    0    0  0.16978180535E+02  0.57718433310E+02  0.31180937499E+01  0.60244490758E+02  0.00000000000E+00 0.  1.
         12    1    3    3    0    0  0.17741171127E+02  0.14116307474E+03 -0.12636966812E+03  0.19029202780E+03  0.00000000000E+00 0. -1.
         13    1    5    5    0    0 -0.36453777024E+02 -0.35446730684E+03  0.12631397594E+03  0.37806238903E+03  0.00000000000E+00 0. -1.
        -14    1    5    5    0    0 -0.11163709197E+00 -0.15131117669E+03  0.10986682949E+03  0.18699145670E+03  0.00000000000E+00 0.  1.
          5    1    4    4  501    0  0.45863068193E+02  0.46118631787E+02  0.41659796137E+02  0.77352183138E+02  0.41800000000E+01 0. -1.
         -5    1    4    4    0  501 -0.44017005740E+02  0.26077834370E+03  0.25651255972E+03  0.36845489145E+03  0.41800000000E+01 0. -1.
</event>
<event>
11    1  0.6763327E-009  0.1472334E+03  0.7561462E-02  0.1099740E+00
         22   -1    0    0    0    0  0.00000000000E+00  0.00000000000E+00  0.10352821632E+04  0.10352821632E+04  0.00000000000E+00 0. -1.
         22   -1    0    0    0    0 -0.00000000000E+00 -0.00000000000E+00 -0.40303603210E+03  0.40303603210E+03  0.00000000000E+00 0. -1.
        -24    2    1    2    0    0  0.12230795754E+02  0.33553394842E+01 -0.27865773084E+03  0.29086685467E+03  0.82416900706E+02 0.  0.
         25    2    1    2    0    0  0.31025470402E+02 -0.67975798502E+02 -0.69000330855E+02  0.16121940101E+03  0.12508941046E+03 0.  0.
         24    2    1    2    0    0 -0.43256266156E+02  0.64620459018E+02  0.97990419276E+03  0.98623193959E+03  0.79964388276E+02 0.  0.
        -11    1    5    5    0    0 -0.95863742583E+01  0.23518820278E+02  0.64990548682E+02  0.69776822059E+02  0.00000000000E+00 0.  1.
         12    1    5    5    0    0 -0.33669891897E+02  0.41101638740E+02  0.91491364408E+03  0.91645511753E+03  0.00000000000E+00 0. -1.
         13    1    3    3    0    0  0.36654913076E+02  0.26241894764E+02 -0.20593037048E+03  0.21080687176E+03  0.00000000000E+00 0. -1.
        -14    1    3    3    0    0 -0.24424117322E+02 -0.22886555280E+02 -0.72727360354E+02  0.80059982911E+02  0.00000000000E+00 0.  1.
          5    1    4    4  501    0  0.24694411365E+02 -0.10297740844E+03 -0.66931485841E+02  0.12534535013E+03  0.41800000000E+01 0.  1.
         -5    1    4    4    0  501  0.63310590368E+01  0.35001609940E+02 -0.20688450135E+01  0.35874050881E+02  0.41800000000E+01 0.  1.
</event>
<event>
11    1  0.6763327E-009  0.1671757E+03  0.7561462E-02  0.1080516E+00
         22   -1    0    0    0    0  0.00000000000E+00  0.00000000000E+00  0.22577329067E+03  0.22577329067E+03  0.00000000000E+00 0. -1.
         22   -1    0    0    0    0 -0.00000000000E+00 -0.00000000000E+00 -0.81712121879E+03  0.81712121879E+03  0.00000000000E+00 0.  1.
         24    2    1    2    0    0 -0.98014839704E+01  0.33856847386E+01 -0.64074346952E+03  0.64588221900E+03  0.80648094384E+02 0.  0.
         25    2    1    2    0    0 -0.10436437264E+02  0.10644886988E+03 -0.10102512118E+03  0.19311597258E+03  0.12508965838E+03 0.  0.
        -24    2    1    2    0    0  0.20237921235E+02 -0.10983455462E+03  0.15042066259E+03  0.20389631789E+03  0.80461977797E+02 0.  0.
        -11    1    3    3    0    0 -0.16819491948E+01  0.34648078284E+02 -0.51109634877E+03  0.51227218938E+03  0.00000000000E+00 0.  1.
         12    1    3    3    0    0 -0.81195347756E+01 -0.31262393546E+02 -0.12964712075E+03  0.13361002962E+03  0.00000000000E+00 0. -1.
         13    1    5    5    0    0  0.50234059058E+02 -0.83848870377E+02  0.10168618100E+03  0.14104670559E+03  0.00000000000E+00 0. -1.
        -14    1    5    5    0    0 -0.29996137823E+02 -0.25985684244E+02  0.48734481588E+02  0.62849612295E+02  0.00000000000E+00 0.  1.
          5    1    4    4  501    0 -0.62391006606E+02  0.30798865119E+02 -0.62054105338E+02  0.93324124358E+02  0.41800000000E+01 0. -1.
         -5    1    4    4    0  501  0.51954569342E+02  0.75650004763E+02 -0.38971015844E+02  0.99791848224E+02  0.41800000000E+01 0. -1.
</event>
<event>
11    1  0.6763327E-009  0.1379345E+03  0.7561462E-02  0.1109887E+00
         22   -1    0    0    0    0  0.00000000000E+00  0.00000000000E+00  0.91753245968E+03  0.91753245968E+03  0.00000000000E+00 0.  1.
         22   -1    0    0    0    0 -0.00000000000E+00 -0.00000000000E+00 -0.53844217919E+03  0.53844217919E+03  0.00000000000E+00 0. -1.
         24    2    1    2    0    0  0.42181755109E+01  0.50885486762E+02 -0.36097449916E+03  0.37403749197E+03  0.83632114568E+02 0.  0.
         25    2    1    2    0    0  0.32924913136E+00 -0.99348097302E+02 -0.13057352943E+03  0.20631845803E+03  0.12509079381E+03 0.  0.
        -24    2    1    2    0    0 -0.45474246423E+01  0.48462610540E+02  0.87063830908E+03  0.87561868887E+03  0.79546963317E+02 0.  0.
        -11    1    3    3    0    0  0.15506357509E+02  0.29818919389E+02 -0.40309553393E+02  0.52483094149E+02  0.00000000000E+00 0.  1.
         12    1    3    3    0    0 -0.11288181998E+02  0.21066567373E+02 -0.32066494577E+03  0.32155439782E+03  0.00000000000E+00 0. -1.
         13    1    5    5    0    0  0.17845067492E+02 -0.33245994171E+01  0.52735398390E+02  0.55772050692E+02  0.00000000000E+00 0. -1.
        -14    1    5    5    0    0 -0.22392492135E+02  0.51787209957E+02  0.81790291069E+03  0.81984663818E+03  0.00000000000E+00 0.  1.
          5    1    4    4  501    0 -0.35978678986E+02 -0.12982296184E+02  0.77026143945E+01  0.39240387667E+02  0.41800000000E+01 0. -1.
         -5    1    4    4    0  501  0.36307928117E+02 -0.86365801118E+02 -0.13827614382E+03  0.16707807036E+03  0.41800000000E+01 0. -1.
</event>
<event>
11    1  0.6763327E-009  0.1497255E+03  0.7561462E-02  0.1097160E+00
         22   -1    0    0    0    0  0.00000000000E+00  0.00000000000E+00  0.34075231867E+04  0.34075231867E+04  0.00000000000E+00 0.  1.
         22   -1    0    0    0    0 -0.00000000000E+00 -0.00000000000E+00 -0.18333584000E+03  0.18333584000E+03  0.00000000000E+00 0.  1.
         24    2    1    2    0    0  0.84867424915E+02  0.24278693363E+02 -0.11205175975E+03  0.16262057994E+03  0.78089188712E+02 0.  0.
         25    2    1    2    0    0 -0.63557462126E+02  0.28803278195E+02  0.68051463808E+02  0.15857855101E+03  0.12508787026E+03 0.  0.
        -24    2    1    2    0    0 -0.21309962790E+02 -0.53081971557E+02  0.32681876427E+04  0.32696598958E+04  0.79709197159E+02 0.  0.
        -13    1    3    3    0    0  0.79088108597E+02  0.30924491164E+02 -0.12243704339E+03  0.14900363308E+03  0.00000000000E+00 0.  1.
         14    1    3    3    0    0  0.57793163183E+01 -0.66457978017E+01  0.10385283643E+02  0.13616946863E+02  0.00000000000E+00 0. -1.
         13    1    5    5    0    0 -0.31339352022E+02  0.29730776534E+01  0.56787344140E+03  0.56874532053E+03  0.00000000000E+00 0. -1.
        -14    1    5    5    0    0  0.10029389232E+02 -0.56055049211E+02  0.27003142013E+04  0.27009145753E+04  0.00000000000E+00 0.  1.
          5    1    4    4  501    0  0.40594097878E+01 -0.17526515767E+02  0.74019406606E+02  0.76288940988E+02  0.41800000000E+01 0. -1.
         -5    1    4    4    0  501 -0.67616871913E+02  0.46329793962E+02 -0.59679427980E+01  0.82289610019E+02  0.41800000000E+01 0. -1.
</event>
<event>
11    1  0.6763327E-009  0.1381632E+03  0.7561462E-02  0.1109627E+00
         22   -1    0    0    0    0  0.00000000000E+00  0.00000000000E+00  0.12984355569E+04  0.12984355569E+04  0.00000000000E+00 0.  1.
         22   -1    0    0    0    0 -0.00000000000E+00 -0.00000000000E+00 -0.38808114029E+03  0.38808114029E+03  0.00000000000E+00 0. -1.
        -24    2    1    2    0    0  0.31906444757E+02  0.46888820984E+02 -0.33077870768E+03  0.34507828575E+03  0.80298736550E+02 0.  0.
         25    2    1    2    0    0 -0.54474558048E+02 -0.75376930121E+02  0.76808190472E+02  0.17376802627E+03  0.12508664902E+03 0.  0.
         24    2    1    2    0    0  0.22568113291E+02  0.28488109138E+02  0.11643249338E+04  0.11676703852E+04  0.80502700462E+02 0.  0.
        -11    1    5    5    0    0  0.33213790872E+02  0.40350577113E+01  0.10390257178E+04  0.10395642740E+04  0.00000000000E+00 0.  1.
         12    1    5    5    0    0 -0.10645677580E+02  0.24453051426E+02  0.12529921609E+03  0.12810611121E+03  0.00000000000E+00 0. -1.
         13    1    3    3    0    0 -0.97274112427E+01  0.40622461263E+02 -0.25491393414E+03  0.25831360922E+03  0.00000000000E+00 0. -1.
        -14    1    3    3    0    0  0.41633855999E+02  0.62663597209E+01 -0.75864773545E+02  0.86764676537E+02  0.00000000000E+00 0.  1.
          5    1    4    4  501    0  0.11114457882E+02  0.20220349242E+02  0.49224095502E+02  0.54524101785E+02  0.41800000000E+01 0.  1.
         -5    1    4    4    0  501 -0.65589015929E+02 -0.95597279363E+02  0.27584094970E+02  0.11924392449E+03  0.41800000000E+01 0.  1.
</event>
<event>
11    1  0.6763327E-009  0.1510709E+03  0.7561462E-02  0.1095790E+00
         22   -1    0    0    0    0  0.00000000000E+00  0.00000000000E+00  0.13100708410E+04  0.13100708410E+04  0.00000000000E+00 0. -1.
         22   -1    0    0    0    0 -0.00000000000E+00 -0.00000000000E+00 -0.25244760370E+03  0.25244760370E+03  0.00000000000E+00 0.  1.
         24    2    1    2    0    0 -0.80839801282E+02  0.30107441067E+02 -0.21946974146E+03  0.24904969376E+03  0.80107746597E+02 0.  0.
         25    2    1    2    0    0  0.49415028417E+02 -0.23239031384E+02  0.27414988167E+03  0.30624326105E+03  0.12507949355E+03 0.  0.
        -24    2    1    2    0    0  0.31424772865E+02 -0.68684096828E+01  0.10029430971E+04  0.10072254899E+04  0.87026663123E+02 0.  0.
        -13    1    3    3    0    0 -0.20957266209E+02 -0.75416955385E+01 -0.14361630816E+03  0.14533316259E+03  0.00000000000E+00 0.  1.
         14    1    3    3    0    0 -0.59882535073E+02  0.37649136605E+02 -0.75853433297E+02  0.10371653116E+03  0.00000000000E+00 0. -1.
         13    1    5    5    0    0  0.19074586049E+02  0.35791805999E+02  0.68448157217E+03  0.68568208074E+03  0.00000000000E+00 0. -1.
        -14    1    5    5    0    0  0.12350186816E+02 -0.42660215682E+02  0.31846152494E+03  0.32154340918E+03  0.00000000000E+00 0.  1.
          5    1    4    4  501    0 -0.33061343722E+02  0.15068081866E+02  0.36134563961E+02  0.51412825759E+02  0.41800000000E+01 0.  1.
         -5    1    4    4    0  501  0.82476372139E+02 -0.38307113250E+02  0.23801531771E+03  0.25483043529E+03  0.41800000000E+01 0.  1.
</event>
<event>
11    1  0.6763327E-009  0.2432802E+03  0.7561462E-02  0.1027541E+00
         22   -1    0    0    0    0  0.00000000000E+00  0.00000000000E+00  0.27821813140E+03  0.27821813140E+03  0.00000000000E+00 0.  1.
         22   -1    0    0    0    0 -0.00000000000E+00 -0.00000000000E+00 -0.64131023546E+03  0.64131023546E+03  0.00000000000E+00 0. -1.
         24    2    1    2    0    0  0.13320799815E+02 -0.40672466589E+02 -0.41757826995E+03  0.42638766199E+03  0.74854081496E+02 0.  0.
         25    2    1    2    0    0 -0.20347958483E+03  0.10211959727E+03 -0.29293520600E+02  0.26141292767E+03  0.12508499036E+03 0.  0.
        -24    2    1    2    0    0  0.19015878502E+03 -0.61447130681E+02  0.83779686495E+02  0.23172777720E+03  0.82113418336E+02 0.  0.
        -11    1    3    3    0    0  0.22561536444E+01 -0.59573228125E+02 -0.23264044778E+03  0.24015752681E+03  0.00000000000E+00 0.  1.
         12    1    3    3    0    0  0.11064646171E+02  0.18900761536E+02 -0.18493782217E+03  0.18623013518E+03  0.00000000000E+00 0. -1.
         13    1    5    5    0    0  0.20518121025E+02 -0.36045892801E+02  0.15524255867E+01  0.41505538226E+02  0.00000000000E+00 0. -1.
        -14    1    5    5    0    0  0.16964066399E+03 -0.25401237880E+02  0.82227260909E+02  0.19022223898E+03  0.00000000000E+00 0.  1.
          5    1    4    4  501    0 -0.10392568350E+03 -0.98196093065E+01 -0.38320673386E+02  0.11127856409E+03  0.41800000000E+01 0.  1.
         -5    1    4    4    0  501 -0.99553901334E+02  0.11193920658E+03  0.90271527854E+01  0.15013436358E+03  0.41800000000E+01 0.  1.
</event>
<event>
11    1  0.6763327E-009  0.1302462E+03  0.7561462E-02  0.1118967E+00
         22   -1    0    0    0    0  0.00000000000E+00  0.00000000000E+00  0.11413020870E+03  0.11413020870E+03  0.00000000000E+00 0. -1.
         22   -1    0    0    0    0 -0.00000000000E+00 -0.00000000000E+00 -0.63469024179E+03  0.63469024179E+03  0.00000000000E+00 0.  1.
        -24    2    1    2    0    0 -0.35958663232E+02 -0.21204265402E+02 -0.41751944909E+03  0.42637651276E+03  0.75708611997E+02 0.  0.
         25    2    1    2    0    0  0.80656178805E+01 -0.81462734533E+01 -0.16962557085E+03  0.21107277549E+03  0.12508983294E+03 0.  0.
         24    2    1    2    0    0  0.27893045352E+02  0.29350538855E+02  0.66584986850E+02  0.11137116225E+03  0.79564434248E+02 0.  0.
        -11    1    5    5    0    0  0.15551735614E+02 -0.22543272186E+02  0.47289151242E+02  0.54647227072E+02  0.00000000000E+00 0.  1.
         12    1    5    5    0    0  0.12341309738E+02  0.51893811041E+02  0.19295835608E+02  0.56723935179E+02  0.00000000000E+00 0. -1.
         13    1    3    3    0    0 -0.22592966908E+02  0.71830151007E+01 -0.33294146208E+02  0.40872215886E+02  0.00000000000E+00 0. -1.
        -14    1    3    3    0    0 -0.13365696324E+02 -0.28387280503E+02 -0.38422530288E+03  0.38550429687E+03  0.00000000000E+00 0.  1.
          5    1    4    4  501    0 -0.40065726084E+02 -0.47718867221E+02 -0.73569031136E+02  0.96499883097E+02  0.41800000000E+01 0.  1.
         -5    1    4    4    0  501  0.48131343965E+02  0.39572593768E+02 -0.96056539713E+02  0.11457289239E+03  0.41800000000E+01 0.  1.
</event>
<event>
11    1  0.6763327E-009  0.1742683E+03  0.7561462E-02  0.1074376E+00
         22   -1    0    0    0    0  0.00000000000E+00  0.00000000000E+00  0.47087788177E+03  0.47087788177E+03  0.00000000000E+00 0. -1.
         22   -1    0    0    0    0 -0.00000000000E+00 -0.00000000000E+00 -0.13539402953E+04  0.13539402953E+04  0.00000000000E+00 0.  1.
        -24    2    1    2    0    0  0.36357891078E+02 -0.11487471308E+03 -0.12229515616E+04  0.12310734441E+04  0.73574498459E+02 0.  0.
         25    2    1    2    0    0 -0.37640152208E+02  0.13127450169E+03 -0.52836188500E+02  0.19256133771E+03  0.12505370891E+03 0.  0.
         24    2    1    2    0    0  0.12822611304E+01 -0.16399788613E+02  0.39272533661E+03  0.40118339521E+03  0.80276580129E+02 0.  0.
        -13    1    5    5    0    0  0.80705605824E+01 -0.11050663609E+02  0.70169419572E+01  0.15378185483E+02  0.00000000000E+00 0.  1.
         14    1    5    5    0    0 -0.67882994520E+01 -0.53491250040E+01  0.38570839465E+03  0.38580520972E+03  0.00000000000E+00 0. -1.
         11    1    3    3    0    0  0.21537135503E+01 -0.13401475924E+01 -0.15516065808E+00  0.25413682252E+01  0.00000000000E+00 0. -1.
        -12    1    3    3    0    0  0.34204177528E+02 -0.11353456549E+03 -0.12227964010E+04  0.12285320759E+04  0.00000000000E+00 0.  1.
          5    1    4    4  501    0 -0.23706087873E+02 -0.20065859419E+02 -0.19505493801E+02  0.36912789178E+02  0.41800000000E+01 0.  1.
         -5    1    4    4    0  501 -0.13934064335E+02  0.15134036111E+03 -0.33330694699E+02  0.15564854853E+03  0.41800000000E+01 0.  1.
</event>
<event>
11    1  0.6763327E-009  0.1620594E+03  0.7561462E-02  0.1085156E+00
         22   -1    0    0    0    0  0.00000000000E+00  0.00000000000E+00  0.24423663075E+04  0.24423663075E+04  0.00000000000E+00 0. -1.
         22   -1    0    0    0    0 -0.00000000000E+00 -0.00000000000E+00 -0.13888216985E+03  0.13888216985E+03  0.00000000000E+00 0. -1.
         24    2    1    2    0    0 -0.13481372463E+02 -0.72212030734E+02 -0.10227526267E+03  0.14987086415E+03  0.81269439393E+02 0.  0.
         25    2    1    2    0    0  0.97619259266E+02  0.23543147313E+01  0.60363591320E+03  0.62414731518E+03  0.12509393579E+03 0.  0.
        -24    2    1    2    0    0 -0.84137886803E+02  0.69857716003E+02  0.18021234871E+04  0.18072302980E+04  0.80454973534E+02 0.  0.
        -13    1    3    3    0    0  0.25440402604E+01  0.15830629865E+02 -0.33042309849E+02  0.36727036675E+02  0.00000000000E+00 0.  1.
         14    1    3    3    0    0 -0.16025412723E+02 -0.88042660599E+02 -0.69232952824E+02  0.11314382747E+03  0.00000000000E+00 0. -1.
         11    1    5    5    0    0 -0.94198685860E+02  0.77504473719E+02  0.15513103027E+04  0.15560989657E+04  0.00000000000E+00 0. -1.
        -12    1    5    5    0    0  0.10060799057E+02 -0.76467577160E+01  0.25081318436E+03  0.25113133224E+03  0.00000000000E+00 0.  1.
          5    1    4    4  501    0  0.12594933251E+03  0.24001802377E+01  0.42731635592E+03  0.44551737976E+03  0.41800000000E+01 0. -1.
         -5    1    4    4    0  501 -0.28330073244E+02 -0.45865506402E-01  0.17631955727E+03  0.17862993543E+03  0.41800000000E+01 0. -1.
</event>
<event>
11    1  0.6763327E-009  0.2363878E+03  0.7561462E-02  0.1031411E+00
         22   -1    0    0    0    0  0.00000000000E+00  0.00000000000E+00  0.97942476232E+03  0.97942476232E+03  0.00000000000E+00 0. -1.
         22   -1    0    0    0    0 -0.00000000000E+00 -0.00000000000E+00 -0.57996512067E+03  0.57996512067E+03  0.00000000000E+00 0.  1.
        -24    2    1    2    0    0  0.27374067605E+02  0.22202084611E+02 -0.46218709220E+03  0.47025366914E+03  0.79242242539E+02 0.  0.
         25    2    1    2    0    0  0.17215864348E+03  0.22366434787E+02  0.14999256909E+02  0.21450374193E+03  0.12509205277E+03 0.  0.
         24    2    1    2    0    0 -0.19953271108E+03 -0.44568519398E+02  0.84664747695E+03  0.87463247192E+03  0.79814503677E+02 0.  0.
        -13    1    5    5    0    0 -0.17614737521E+01 -0.27658197493E+01  0.12948396204E+03  0.12952547616E+03  0.00000000000E+00 0.  1.
         14    1    5    5    0    0 -0.19777123733E+03 -0.41802699649E+02  0.71716351490E+03  0.74510699576E+03  0.00000000000E+00 0. -1.
         11    1    3    3    0    0  0.16721421459E+02  0.46046292996E+02 -0.39729129002E+03  0.40030018256E+03  0.00000000000E+00 0. -1.
        -12    1    3    3    0    0  0.10652646146E+02 -0.23844208385E+02 -0.64895802189E+02  0.69953486583E+02  0.00000000000E+00 0.  1.
          5    1    4    4  501    0  0.12403197141E+03 -0.21561934576E+02  0.55523557959E+02  0.13765603816E+03  0.41800000000E+01 0.  1.
         -5    1    4    4    0  501  0.48126672073E+02  0.43928369363E+02 -0.40524301051E+02  0.76847703774E+02  0.41800000000E+01 0.  1.
</event>
<event>
11    1  0.6763327E-009  0.1594824E+03  0.7561462E-02  0.1087565E+00
         22   -1    0    0    0    0  0.00000000000E+00  0.00000000000E+00  0.22013811117E+03  0.22013811117E+03  0.00000000000E+00 0. -1.
         22   -1    0    0    0    0 -0.00000000000E+00 -0.00000000000E+00 -0.19615337250E+04  0.19615337250E+04  0.00000000000E+00 0.  1.
         24    2    1    2    0    0 -0.71818571797E+00  0.18545801669E+02 -0.16785638388E+04  0.16807305112E+04  0.83270811738E+02 0.  0.
         25    2    1    2    0    0  0.62818736054E+02 -0.94120081669E+02 -0.23346775949E+03  0.28802746759E+03  0.12509134261E+03 0.  0.
        -24    2    1    2    0    0 -0.62100550336E+02  0.75574280000E+02  0.17063598437E+03  0.21291385738E+03  0.81533559668E+02 0.  0.
        -11    1    3    3    0    0 -0.13261155578E+02 -0.30331875514E+02 -0.83775700221E+03  0.83841080365E+03  0.00000000000E+00 0.  1.
         12    1    3    3    0    0  0.12542969860E+02  0.48877677183E+02 -0.84080683655E+03  0.84231970759E+03  0.00000000000E+00 0. -1.
         13    1    5    5    0    0 -0.74191004182E+02  0.78000811413E+02  0.16914079139E+03  0.20049199235E+03  0.00000000000E+00 0. -1.
        -14    1    5    5    0    0  0.12090453847E+02 -0.24265314134E+01  0.14951929850E+01  0.12421865036E+02  0.00000000000E+00 0.  1.
          5    1    4    4  501    0  0.57497875678E+02 -0.12282679345E+03 -0.21138032702E+03  0.25118029769E+03  0.41800000000E+01 0.  1.
         -5    1    4    4    0  501  0.53208603761E+01  0.28706711784E+02 -0.22087432465E+02  0.36847169898E+02  0.41800000000E+01 0.  1.
</event>
<event>
11    1  0.6763327E-009  0.1597777E+03  0.7561462E-02  0.1087287E+00
         22   -1    0    0    0    0  0.00000000000E+00  0.00000000000E+00  0.30605828416E+03  0.30605828416E+03  0.00000000000E+00 0. -1.
         22   -1    0    0    0    0 -0.00000000000E+00 -0.00000000000E+00 -0.49770365910E+03  0.49770365910E+03  0.00000000000E+00 0. -1.
        -24    2    1    2    0    0  0.95772242379E+01  0.30233543920E+02 -0.27950477868E+03  0.29261661499E+03  0.80596350197E+02 0.  0.
         25    2    1    2    0    0 -0.68565476138E+02 -0.10750903036E+03 -0.15546520258E+03  0.23680385377E+03  0.12508884770E+03 0.  0.
         24    2    1    2    0    0  0.58988251900E+02  0.77275486437E+02  0.24332460632E+03  0.27434147450E+03  0.81272787117E+02 0.  0.
        -13    1    5    5    0    0  0.10539173155E+02  0.19437467052E+02  0.28320895721E+01  0.22291478810E+02  0.00000000000E+00 0.  1.
         14    1    5    5    0    0  0.48449078745E+02  0.57838019385E+02  0.24049251675E+03  0.25204999569E+03  0.00000000000E+00 0. -1.
         11    1    3    3    0    0  0.22364000878E+02  0.12401349968E+02 -0.26518383041E+03  0.26641397472E+03  0.00000000000E+00 0. -1.
        -12    1    3    3    0    0 -0.12786776640E+02  0.17832193952E+02 -0.14320948269E+02  0.26202640274E+02  0.00000000000E+00 0.  1.
          5    1    4    4  501    0 -0.38629512200E+02 -0.13332559088E+03 -0.12126762153E+03  0.18436719022E+03  0.41800000000E+01 0. -1.
         -5    1    4    4    0  501 -0.29935963939E+02  0.25816560526E+02 -0.34197581051E+02  0.52436663548E+02  0.41800000000E+01 0. -1.
</event>
<event>
11    1  0.6763327E-009  0.2317443E+03  0.7561462E-02  0.1034100E+00
         22   -1    0    0    0    0  0.00000000000E+00  0.00000000000E+00  0.40681559354E+04  0.40681559354E+04  0.00000000000E+00 0. -1.
         22   -1    0    0    0    0 -0.00000000000E+00 -0.00000000000E+00 -0.89672699330E+03  0.89672699330E+03  0.00000000000E+00 0. -1.
        -24    2    1    2    0    0 -0.77693137588E+01  0.16222397907E+03 -0.80893580620E+03  0.82904063771E+03  0.80958376990E+02 0.  0.
         25    2    1    2    0    0  0.50622476328E+02 -0.34634173047E+03  0.38697192815E+03  0.53657438725E+03  0.12509824340E+03 0.  0.
         24    2    1    2    0    0 -0.42853162570E+02  0.18411775140E+03  0.35933928201E+04  0.35992679037E+04  0.80757309936E+02 0.  0.
        -13    1    5    5    0    0  0.11277124772E+02  0.94413024389E+02  0.12936034698E+04  0.12970932618E+04  0.00000000000E+00 0.  1.
         14    1    5    5    0    0 -0.54130287341E+02  0.89704727014E+02  0.22997893503E+04  0.23021746419E+04  0.00000000000E+00 0. -1.
         11    1    3    3    0    0 -0.70172024757E+01  0.15658682196E+03 -0.80825454335E+03  0.82331286932E+03  0.00000000000E+00 0. -1.
        -12    1    3    3    0    0 -0.75211128310E+00  0.56371571071E+01 -0.68126284510E+00  0.57277683872E+01  0.00000000000E+00 0.  1.
          5    1    4    4  501    0  0.14059531329E+02 -0.32629812236E+03  0.36291347402E+03  0.48825382446E+03  0.41800000000E+01 0.  1.
         -5    1    4    4    0  501  0.36562944999E+02 -0.20043608107E+02  0.24058454135E+02  0.48320562790E+02  0.41800000000E+01 0.  1.
</event>
<event>
11    1  0.6763327E-009  0.1502685E+03  0.7561462E-02  0.1096605E+00
         22   -1    0    0    0    0  0.00000000000E+00  0.00000000000E+00  0.13577220004E+04  0.13577220004E+04  0.00000000000E+00 0.  1.
         22   -1    0    0    0    0 -0.00000000000E+00 -0.00000000000E+00 -0.23565712355E+03  0.23565712355E+03  0.00000000000E+00 0. -1.
         24    2    1    2    0    0  0.29155207435E+02  0.86521040892E+02 -0.38767830903E+02  0.12798591717E+03  0.80879748048E+02 0.  0.
         25    2    1    2    0    0 -0.64017677112E+02 -0.52324682105E+02 -0.11323064203E+03  0.18790937055E+03  0.12511042284E+03 0.  0.
        -24    2    1    2    0    0  0.34862469676E+02 -0.34196358787E+02  0.12740633498E+04  0.12774838363E+04  0.79641382602E+02 0.  0.
        -13    1    3    3    0    0 -0.15058114680E+02  0.32366517419E+02  0.16055859718E+02  0.39142418152E+02  0.00000000000E+00 0.  1.
         14    1    3    3    0    0  0.44213322116E+02  0.54154523474E+02 -0.54823690621E+02  0.88843499022E+02  0.00000000000E+00 0. -1.
         11    1    5    5    0    0  0.19457255186E+02  0.17441967127E+02  0.16014682905E+03  0.16226464141E+03  0.00000000000E+00 0. -1.
        -12    1    5    5    0    0  0.15405214490E+02 -0.51638325914E+02  0.11139165208E+04  0.11152191949E+04  0.00000000000E+00 0.  1.
          5    1    4    4  501    0 -0.26534676491E+02  0.39903066444E+02 -0.22323542175E+02  0.53029771859E+02  0.41800000000E+01 0. -1.
         -5    1    4    4    0  501 -0.37483000621E+02 -0.92227748550E+02 -0.90907099855E+02  0.13487959869E+03  0.41800000000E+01 0. -1.
</event>
<event>
11    1  0.6763327E-009  0.1581876E+03  0.7561462E-02  0.1088794E+00
         22   -1    0    0    0    0  0.00000000000E+00  0.00000000000E+00  0.13710031823E+04  0.13710031823E+04  0.00000000000E+00 0. -1.
         22   -1    0    0    0    0 -0.00000000000E+00 -0.00000000000E+00 -0.41540278706E+03  0.41540278706E+03  0.00000000000E+00 0. -1.
        -24    2    1    2    0    0 -0.39189854705E+02  0.88566602978E+02 -0.39307333702E+03  0.41266952296E+03  0.80059971465E+02 0.  0.
         25    2    1    2    0    0  0.60181946994E+02 -0.78448920688E+02  0.61633984784E+03  0.63662898419E+03  0.12508219531E+03 0.  0.
         24    2    1    2    0    0 -0.20992092289E+02 -0.10117682290E+02  0.73233388444E+03  0.73710746221E+03  0.80445367302E+02 0.  0.
        -13    1    5    5    0    0 -0.20803064666E+02 -0.30124087669E+02  0.14903316280E+03  0.15346371484E+03  0.00000000000E+00 0.  1.
         14    1    5    5    0    0 -0.18902762324E+00  0.20006405379E+02  0.58330072164E+03  0.58364374738E+03  0.00000000000E+00 0. -1.
         11    1    3    3    0    0  0.10078011887E+02  0.66601682151E+02 -0.16325856518E+03  0.17660891680E+03  0.00000000000E+00 0. -1.
        -12    1    3    3    0    0 -0.49267866592E+02  0.21964920828E+02 -0.22981477184E+03  0.23606060616E+03  0.00000000000E+00 0.  1.
          5    1    4    4  501    0  0.56065397413E+02 -0.37841690261E+01  0.45818611727E+03  0.46163799582E+03  0.41800000000E+01 0. -1.
         -5    1    4    4    0  501  0.41165495809E+01 -0.74664751662E+02  0.15815373056E+03  0.17499098837E+03  0.41800000000E+01 0. -1.
</event>
<event>
11    1  0.6763327E-009  0.2095184E+03  0.7561462E-02  0.1047990E+00
         22   -1    0    0    0    0  0.00000000000E+00  0.00000000000E+00  0.64683000767E+03  0.64683000767E+03  0.00000000000E+00 0.  1.
         22   -1    0    0    0    0 -0.00000000000E+00 -0.00000000000E+00 -0.91859225678E+03  0.91859225678E+03  0.00000000000E+00 0.  1.
         24    2    1    2    0    0 -0.50743969212E+02 -0.21291304006E+02 -0.73901681111E+03  0.74541044179E+03  0.80390357616E+02 0.  0.
         25    2    1    2    0    0  0.21445202141E+03  0.18189075840E+02 -0.65138730064E+02  0.25731999353E+03  0.12510001178E+03 0.  0.
        -24    2    1    2    0    0 -0.16370805220E+03  0.31022281664E+01  0.53239329207E+03  0.56269182913E+03  0.79809316219E+02 0.  0.
        -11    1    3    3    0    0 -0.25588181909E+02 -0.51729133910E+01 -0.66608416086E+03  0.66659554712E+03  0.00000000000E+00 0.  1.
         12    1    3    3    0    0 -0.25155787303E+02 -0.16118390615E+02 -0.72932650246E+02  0.78814894676E+02  0.00000000000E+00 0. -1.
         13    1    5    5    0    0 -0.25284623358E+02 -0.18028205015E+02  0.39222901503E+02  0.50027635930E+02  0.00000000000E+00 0. -1.
        -14    1    5    5    0    0 -0.13842342884E+03  0.21130433181E+02  0.49317039057E+03  0.51266419320E+03  0.00000000000E+00 0.  1.
          5    1    4    4  501    0  0.57382748902E+02 -0.51342748683E+02 -0.19500145319E+02  0.79539837700E+02  0.41800000000E+01 0. -1.
         -5    1    4    4    0  501  0.15706927251E+03  0.69531824523E+02 -0.45638584746E+02  0.17778015583E+03  0.41800000000E+01 0. -1.
</event>
<event>
11    1  0.6763327E-009  0.2019974E+03  0.7561462E-02  0.1053120E+00
         22   -1    0    0    0    0  0.00000000000E+00  0.00000000000E+00  0.12416639198E+04  0.12416639198E+04  0.00000000000E+00 0. -1.
         22   -1    0    0    0    0 -0.00000000000E+00 -0.00000000000E+00 -0.17087587860E+04  0.17087587860E+04  0.00000000000E+00 0.  1.
         24    2    1    2    0    0  0.15439422225E+03 -0.34060210738E+02 -0.16557670811E+04  0.16648673331E+04  0.72256044443E+02 0.  0.
         25    2    1    2    0    0 -0.20247230419E+03 -0.21275752787E+02  0.27261531276E+03  0.36251143538E+03  0.12509092857E+03 0.  0.
        -24    2    1    2    0    0  0.48078081945E+02  0.55335963525E+02  0.91605690214E+03  0.92304393734E+03  0.86465550844E+02 0.  0.
        -13    1    3    3    0    0  0.11276022904E+03 -0.19562609418E+01 -0.85962806351E+03  0.86699429282E+03  0.00000000000E+00 0.  1.
         14    1    3    3    0    0  0.41633993207E+02 -0.32103949796E+02 -0.79613901761E+03  0.79787304024E+03  0.00000000000E+00 0. -1.
         13    1    5    5    0    0  0.31433460421E+02  0.20001279871E+02  0.79434763697E+03  0.79522090138E+03  0.00000000000E+00 0. -1.
        -14    1    5    5    0    0  0.16644621524E+02  0.35334683653E+02  0.12170926517E+03  0.12782303597E+03  0.00000000000E+00 0.  1.
          5    1    4    4  501    0 -0.18084017163E+03 -0.64319025923E+01  0.14432357189E+03  0.23149795431E+03  0.41800000000E+01 0. -1.
         -5    1    4    4    0  501 -0.21632132564E+02 -0.14843850195E+02  0.12829174087E+03  0.13101348107E+03  0.41800000000E+01 0. -1.
</event>
<event>
11    1  0.7247108E-009  0.1633910E+03  0.7561462E-02  0.1083931E+00
         22   -1    0    0    0    0  0.00000000000E+00  0.00000000000E+00  0.14990333438E+04  0.14990333438E+04  0.00000000000E+00 0.  1.
         22   -1    0    0    0    0 -0.00000000000E+00 -0.00000000000E+00 -0.16405254463E+03  0.16405254463E+03  0.00000000000E+00 0.  1.
         24    2    1    2    0    0  0.55418304473E+02 -0.73443958560E+02 -0.68964867156E+02  0.14130949024E+03  0.82140219205E+02 0.  0.
         25    2    1    2    0    0 -0.39559273346E+02 -0.35100793068E+02  0.27462816958E+02  0.13855860538E+03  0.12508908437E+03 0.  0.
        -24    2    1    2    0    0 -0.15859031127E+02  0.10854475163E+03  0.13764828494E+04  0.13832177928E+04  0.80950328843E+02 0.  0.
        -13    1    3    3    0    0  0.49960644567E+02 -0.29432759785E+02 -0.76843599780E+02  0.96266776103E+02  0.00000000000E+00 0.  1.
         14    1    3    3    0    0  0.54576599063E+01 -0.44011198775E+02  0.78787326241E+01  0.45042714139E+02  0.00000000000E+00 0. -1.
         13    1    5    5    0    0  0.14407712443E+02  0.52439452493E+01  0.48187761216E+02  0.50568186349E+02  0.00000000000E+00 0. -1.
        -14    1    5    5    0    0 -0.30266743570E+02  0.10330080638E+03  0.13282950882E+04  0.13326496065E+04  0.00000000000E+00 0.  1.
          5    1    4    4  501    0 -0.60220466741E+02 -0.62282302432E+02 -0.10454922574E+02  0.87363422648E+02  0.41800000000E+01 0.  1.
         -5    1    4    4    0  501  0.20661193395E+02  0.27181509364E+02  0.37917739532E+02  0.51195182733E+02  0.41800000000E+01 0.  1.
</event>
<event>
11    1  0.6763327E-009  0.3039703E+03  0.7561462E-02  0.9985248E-01
         22   -1    0    0    0    0  0.00000000000E+00  0.00000000000E+00  0.89396012689E+03  0.89396012689E+03  0.00000000000E+00 0.  1.
         22   -1    0    0    0    0 -0.00000000000E+00 -0.00000000000E+00 -0.34900556883E+03  0.34900556883E+03  0.00000000000E+00 0. -1.
         24    2    1    2    0    0 -0.37269262738E+02  0.65121729889E+02 -0.16911857955E+03  0.20136311454E+03  0.79474349951E+02 0.  0.
         25    2    1    2    0    0  0.13434618074E+03  0.20353983850E+03  0.60847630069E+01  0.27415746804E+03  0.12509168961E+03 0.  0.
        -24    2    1    2    0    0 -0.97076918001E+02 -0.26866156838E+03  0.70798837460E+03  0.76744511314E+03  0.78239994757E+02 0.  0.
        -13    1    3    3    0    0 -0.40316642094E+02  0.58771631071E+02 -0.63337064839E+02  0.95347365097E+02  0.00000000000E+00 0.  1.
         14    1    3    3    0    0  0.30473793551E+01  0.63500988177E+01 -0.10578151471E+03  0.10601574944E+03  0.00000000000E+00 0. -1.
         11    1    5    5    0    0 -0.29047701019E+02 -0.56949145144E+02  0.25397734742E+03  0.26189972713E+03  0.00000000000E+00 0. -1.
        -12    1    5    5    0    0 -0.68029216982E+02 -0.21171242324E+03  0.45401102717E+03  0.50554538601E+03  0.00000000000E+00 0.  1.
          5    1    4    4  501    0  0.66349754794E+02  0.19424523954E+03  0.62259766476E+01  0.20540140757E+03  0.41800000000E+01 0. -1.
         -5    1    4    4    0  501  0.67996425945E+02  0.92945989542E+01 -0.14121364070E+00  0.68756060477E+02  0.41800000000E+01 0. -1.
</event>
<event>
11    1  0.6763327E-009  0.2428892E+03  0.7561462E-02  0.1027757E+00
         22   -1    0    0    0    0  0.00000000000E+00  0.00000000000E+00  0.82639986941E+03  0.82639986941E+03  0.00000000000E+00 0. -1.
         22   -1    0    0    0    0 -0.00000000000E+00 -0.00000000000E+00 -0.22868312544E+03  0.22868312544E+03  0.00000000000E+00 0. -1.
        -24    2    1    2    0    0 -0.79641406737E+02 -0.82299243000E+02 -0.11665168951E+03  0.18239352232E+03  0.80894136088E+02 0.  0.
         25    2    1    2    0    0 -0.15445310627E+03  0.67110473783E+02  0.15427875628E+03  0.26041390809E+03  0.12511551125E+03 0.  0.
         24    2    1    2    0    0  0.23409451301E+03  0.15188769217E+02  0.56008967719E+03  0.61227556445E+03  0.78421811989E+02 0.  0.
        -11    1    5    5    0    0  0.12430395242E+03 -0.29837370033E+01  0.20112272312E+03  0.23645448828E+03  0.00000000000E+00 0.  1.
         12    1    5    5    0    0  0.10979056059E+03  0.18172506220E+02  0.35896695407E+03  0.37582107617E+03  0.00000000000E+00 0. -1.
         13    1    3    3    0    0 -0.55956485240E+02 -0.56259326122E+01 -0.69180989789E+02  0.89155979644E+02  0.00000000000E+00 0. -1.
        -14    1    3    3    0    0 -0.23684921497E+02 -0.76673310388E+02 -0.47470699718E+02  0.93237542674E+02  0.00000000000E+00 0.  1.
          5    1    4    4  501    0 -0.54866241222E+02  0.85743208030E+02  0.45120803775E+02  0.11142513847E+03  0.41800000000E+01 0. -1.
         -5    1    4    4    0  501 -0.99586865052E+02 -0.18632734246E+02  0.10915795251E+03  0.14898876962E+03  0.41800000000E+01 0. -1.
</event>
<event>
11    1  0.6763327E-009  0.1544190E+03  0.7561462E-02  0.1092447E+00
         22   -1    0    0    0    0  0.00000000000E+00  0.00000000000E+00  0.34909448070E+03  0.34909448070E+03  0.00000000000E+00 0. -1.
         22   -1    0    0    0    0 -0.00000000000E+00 -0.00000000000E+00 -0.76802588409E+03  0.76802588409E+03  0.00000000000E+00 0.  1.
         24    2    1    2    0    0 -0.44724104008E+02 -0.63833064302E+02 -0.44815968276E+03  0.46246400519E+03  0.83372353144E+02 0.  0.
         25    2    1    2    0    0  0.49971178045E+01 -0.20780024526E+02 -0.28737358930E+03  0.31414625542E+03  0.12509000503E+03 0.  0.
        -24    2    1    2    0    0  0.39726986203E+02  0.84613088828E+02  0.31660186868E+03  0.34051010417E+03  0.83503170961E+02 0.  0.
        -11    1    3    3    0    0 -0.14928062318E+02 -0.32121347716E+02 -0.37968177705E+03  0.38133040771E+03  0.00000000000E+00 0.  1.
         12    1    3    3    0    0 -0.29796041690E+02 -0.31711716586E+02 -0.68477905713E+02  0.81133597480E+02  0.00000000000E+00 0. -1.
         13    1    5    5    0    0  0.19056247589E+02  0.87170928668E+02  0.30242741233E+03  0.31531611298E+03  0.00000000000E+00 0. -1.
        -14    1    5    5    0    0  0.20670738614E+02 -0.25578398397E+01  0.14174456350E+02  0.25193991194E+02  0.00000000000E+00 0.  1.
          5    1    4    4  501    0  0.40985013696E+02  0.18790035379E+02 -0.23445923852E+03  0.23879163240E+03  0.41800000000E+01 0. -1.
         -5    1    4    4    0  501 -0.35987895892E+02 -0.39570059905E+02 -0.52914350784E+02  0.75354623020E+02  0.41800000000E+01 0. -1.
</event>
<event>
11    1  0.6763327E-009  0.1430395E+03  0.7561462E-02  0.1104211E+00
         22   -1    0    0    0    0  0.00000000000E+00  0.00000000000E+00  0.79258102210E+03  0.79258102210E+03  0.00000000000E+00 0.  1.
         22   -1    0    0    0    0 -0.00000000000E+00 -0.00000000000E+00 -0.20913014177E+03  0.20913014177E+03  0.00000000000E+00 0. -1.
         24    2    1    2    0    0  0.43730378915E+02 -0.52272809389E+02 -0.12746324444E+03  0.16548614194E+03  0.80585307905E+02 0.  0.
         25    2    1    2    0    0 -0.45250859478E+02  0.59740966775E+02  0.27907358677E+02  0.14848257211E+03  0.12510647528E+03 0.  0.
        -24    2    1    2    0    0  0.15204805635E+01 -0.74681573864E+01  0.68300676609E+03  0.68774244982E+03  0.80208163711E+02 0.  0.
        -11    1    3    3    0    0  0.21094322161E+02 -0.13802446259E+02  0.50042586793E+01  0.25700594450E+02  0.00000000000E+00 0.  1.
         12    1    3    3    0    0  0.22636056754E+02 -0.38470363129E+02 -0.13246750312E+03  0.13978554749E+03  0.00000000000E+00 0. -1.
         11    1    5    5    0    0  0.22403362336E+02 -0.27837509401E+02  0.16084151906E+03  0.16476295647E+03  0.00000000000E+00 0. -1.
        -12    1    5    5    0    0 -0.20882881772E+02  0.20369352015E+02  0.52216524704E+03  0.52297949335E+03  0.00000000000E+00 0.  1.
          5    1    4    4  501    0 -0.83160533268E+02  0.11073856217E+02  0.16765821329E+02  0.85655529592E+02  0.41800000000E+01 0.  1.
         -5    1    4    4    0  501  0.37909673790E+02  0.48667110558E+02  0.11141537347E+02  0.62827042516E+02  0.41800000000E+01 0.  1.
</event>
<event>
11    1  0.6763327E-009  0.1288156E+03  0.7561462E-02  0.1120733E+00
         22   -1    0    0    0    0  0.00000000000E+00  0.00000000000E+00  0.10702639885E+03  0.10702639885E+03  0.00000000000E+00 0.  1.
         22   -1    0    0    0    0 -0.00000000000E+00 -0.00000000000E+00 -0.10914434456E+04  0.10914434456E+04  0.00000000000E+00 0. -1.
         24    2    1    2    0    0 -0.64775932883E+01  0.39432108911E+02 -0.38758137373E+03  0.39832574735E+03  0.82747986770E+02 0.  0.
         25    2    1    2    0    0 -0.19144233562E+02 -0.55310655320E+02 -0.66429447314E+03  0.67849810179E+03  0.12508699700E+03 0.  0.
        -24    2    1    2    0    0  0.25621826850E+02  0.15878546409E+02  0.67458800141E+02  0.12164599529E+03  0.96635667360E+02 0.  0.
        -11    1    3    3    0    0  0.10507210538E+02  0.29472550661E+02 -0.42983939642E+02  0.53166265459E+02  0.00000000000E+00 0.  1.
         12    1    3    3    0    0 -0.16984803826E+02  0.99595582497E+01 -0.34459743409E+03  0.34515948189E+03  0.00000000000E+00 0. -1.
         11    1    5    5    0    0  0.47575176266E+02  0.43787556910E+02  0.34931699999E+02  0.73491300176E+02  0.00000000000E+00 0. -1.
        -12    1    5    5    0    0 -0.21953349416E+02 -0.27909010500E+02  0.32527100142E+02  0.48154695112E+02  0.00000000000E+00 0.  1.
          5    1    4    4  501    0  0.14628803155E+02 -0.71910012291E+02 -0.20743424581E+03  0.22007155764E+03  0.41800000000E+01 0.  1.
         -5    1    4    4    0  501 -0.33773036716E+02  0.16599356972E+02 -0.45686022733E+03  0.45842654415E+03  0.41800000000E+01 0.  1.
</event>
<event>
11    1  0.6763327E-009  0.1381314E+03  0.7561462E-02  0.1109663E+00
         22   -1    0    0    0    0  0.00000000000E+00  0.00000000000E+00  0.79759176610E+02  0.79759176610E+02  0.00000000000E+00 0.  1.
         22   -1    0    0    0    0 -0.00000000000E+00 -0.00000000000E+00 -0.16054652639E+04  0.16054652639E+04  0.00000000000E+00 0.  1.
        -24    2    1    2    0    0  0.25728613699E+02 -0.99160716215E+01 -0.13746502153E+04  0.13774766376E+04  0.83775789318E+02 0.  0.
         25    2    1    2    0    0 -0.71126890916E+02 -0.21364016532E+02 -0.15229445351E+03  0.21061354187E+03  0.12509599369E+03 0.  0.
         24    2    1    2    0    0  0.45398277216E+02  0.31280088154E+02  0.12385814376E+01  0.97134261042E+02  0.79963010793E+02 0.  0.
        -13    1    5    5    0    0  0.19600178424E+02 -0.14276873236E+01  0.37219484517E+02  0.42089135333E+02  0.00000000000E+00 0.  1.
         14    1    5    5    0    0  0.25798098793E+02  0.32707775477E+02 -0.35980903079E+02  0.55045125710E+02  0.00000000000E+00 0. -1.
         11    1    3    3    0    0  0.16731668049E+02  0.22212553332E+02 -0.16214435120E+03  0.16451181376E+03  0.00000000000E+00 0. -1.
        -12    1    3    3    0    0  0.89969456502E+01 -0.32128624954E+02 -0.12125058641E+04  0.12129648239E+04  0.00000000000E+00 0.  1.
          5    1    4    4  501    0  0.92034867997E+01 -0.54380297402E+02 -0.81449115918E+02  0.98454821104E+02  0.41800000000E+01 0.  1.
         -5    1    4    4    0  501 -0.80330377715E+02  0.33016280870E+02 -0.70845337590E+02  0.11215872077E+03  0.41800000000E+01 0.  1.
</event>
<event>
11    1  0.6763327E-009  0.1800651E+03  0.7561462E-02  0.1069590E+00
         22   -1    0    0    0    0  0.00000000000E+00  0.00000000000E+00  0.41311617425E+03  0.41311617425E+03  0.00000000000E+00 0.  1.
         22   -1    0    0    0    0 -0.00000000000E+00 -0.00000000000E+00 -0.14434189145E+04  0.14434189145E+04  0.00000000000E+00 0.  1.
        -24    2    1    2    0    0  0.23323662214E+02 -0.59078937449E+02 -0.13153487472E+04  0.13193344064E+04  0.80415390632E+02 0.  0.
         25    2    1    2    0    0  0.10064324679E+03  0.97787005493E+02 -0.27537931949E+02  0.18999206450E+03  0.12508910947E+03 0.  0.
         24    2    1    2    0    0 -0.12396690901E+03 -0.38708068045E+02  0.31258393886E+03  0.34720861792E+03  0.77323970823E+02 0.  0.
        -13    1    5    5    0    0 -0.43816655855E+02 -0.26698356442E+02  0.21156216418E+03  0.21769531662E+03  0.00000000000E+00 0.  1.
         14    1    5    5    0    0 -0.80150253152E+02 -0.12009711603E+02  0.10102177468E+03  0.12951330129E+03  0.00000000000E+00 0. -1.
         13    1    3    3    0    0  0.37436743716E+02 -0.53246918634E+02 -0.55072330514E+03  0.55455649212E+03  0.00000000000E+00 0. -1.
        -14    1    3    3    0    0 -0.14113081503E+02 -0.58320188150E+01 -0.76462544203E+03  0.76477791425E+03  0.00000000000E+00 0.  1.
          5    1    4    4  501    0  0.31093354598E+02 -0.28809550730E+02  0.14091870214E+01  0.42617427439E+02  0.41800000000E+01 0.  1.
         -5    1    4    4    0  501  0.69549892195E+02  0.12659655622E+03 -0.28947118971E+02  0.14737463706E+03  0.41800000000E+01 0.  1.
</event>
<event>
11    1  0.6763327E-009  0.2336307E+03  0.7561462E-02  0.1033000E+00
         22   -1    0    0    0    0  0.00000000000E+00  0.00000000000E+00  0.14131288801E+04  0.14131288801E+04  0.00000000000E+00 0. -1.
         22   -1    0    0    0    0 -0.00000000000E+00 -0.00000000000E+00 -0.96825172902E+03  0.96825172902E+03  0.00000000000E+00 0.  1.
        -24    2    1    2    0    0 -0.19431654404E+02  0.86737550824E+01 -0.89110624085E+03  0.89565765043E+03  0.87632591308E+02 0.  0.
         25    2    1    2    0    0  0.12880992358E+02 -0.20484921008E+03  0.15584306787E+03  0.28646533279E+03  0.12508479625E+03 0.  0.
         24    2    1    2    0    0  0.65506620453E+01  0.19617545500E+03  0.11801403240E+04  0.11992576259E+04  0.83426305672E+02 0.  0.
        -13    1    5    5    0    0  0.26960673184E+02  0.46333609430E+02  0.18214026762E+03  0.18986510567E+03  0.00000000000E+00 0.  1.
         14    1    5    5    0    0 -0.20410011139E+02  0.14984184557E+03  0.99800005641E+03  0.10093925202E+04  0.00000000000E+00 0. -1.
         11    1    3    3    0    0  0.24795013742E+02  0.24148871046E+02 -0.20064643922E+03  0.20360980883E+03  0.00000000000E+00 0. -1.
        -12    1    3    3    0    0 -0.44226668146E+02 -0.15475115964E+02 -0.69045980164E+03  0.69204784160E+03  0.00000000000E+00 0.  1.
          5    1    4    4  501    0  0.76851673627E+01 -0.13027092541E+02 -0.20500999491E+02  0.25817248452E+02  0.41800000000E+01 0. -1.
         -5    1    4    4    0  501  0.51958249957E+01 -0.19182211754E+03  0.17634406736E+03  0.26064808434E+03  0.41800000000E+01 0. -1.
</event>
<event>
11    1  0.6763327E-009  0.1472178E+03  0.7561462E-02  0.1099756E+00
         22   -1    0    0    0    0  0.00000000000E+00  0.00000000000E+00  0.60166795024E+03  0.60166795024E+03  0.00000000000E+00 0.  1.
         22   -1    0    0    0    0 -0.00000000000E+00 -0.00000000000E+00 -0.13335907727E+03  0.13335907727E+03  0.00000000000E+00 0.  1.
         24    2    1    2    0    0  0.47458514685E+01 -0.19932974112E+02 -0.80914802906E+02  0.11618662526E+03  0.80822521600E+02 0.  0.
         25    2    1    2    0    0  0.74012551988E+02  0.16140696176E+02  0.17757333421E+03  0.23004854060E+03  0.12510660289E+03 0.  0.
        -24    2    1    2    0    0 -0.78758403457E+02  0.37922779360E+01  0.37165034166E+03  0.38879186165E+03  0.82570380510E+02 0.  0.
        -13    1    3    3    0    0 -0.75521043512E+01  0.92357919131E+01 -0.83572695949E+02  0.84419959965E+02  0.00000000000E+00 0.  1.
         14    1    3    3    0    0  0.12297955820E+02 -0.29168766025E+02  0.26578930429E+01  0.31766665298E+02  0.00000000000E+00 0. -1.
         11    1    5    5    0    0 -0.16745814772E+02 -0.12128419027E+02  0.12894128451E+02  0.24367589314E+02  0.00000000000E+00 0. -1.
        -12    1    5    5    0    0 -0.62012588684E+02  0.15920696962E+02  0.35875621321E+03  0.36442427233E+03  0.00000000000E+00 0.  1.
          5    1    4    4  501    0  0.92039450132E+01 -0.45011944616E+02  0.22919859749E+02  0.51512912292E+02  0.41800000000E+01 0.  1.
         -5    1    4    4    0  501  0.64808606975E+02  0.61152640791E+02  0.15465347446E+03  0.17853562831E+03  0.41800000000E+01 0.  1.
</event>
<event>
11    1  0.6763327E-009  0.1604367E+03  0.7561462E-02  0.1086667E+00
         22   -1    0    0    0    0  0.00000000000E+00  0.00000000000E+00  0.69950319089E+03  0.69950319089E+03  0.00000000000E+00 0.  1.
         22   -1    0    0    0    0 -0.00000000000E+00 -0.00000000000E+00 -0.31303657639E+03  0.31303657639E+03  0.00000000000E+00 0. -1.
         24    2    1    2    0    0 -0.94242840985E+02  0.47519233505E+02 -0.23353348607E+03  0.26955241246E+03  0.83551321441E+02 0.  0.
         25    2    1    2    0    0  0.42878138666E+02 -0.72407528722E+02  0.41924500972E+02  0.15648133761E+03  0.12508940902E+03 0.  0.
        -24    2    1    2    0    0  0.51364702319E+02  0.24888295217E+02  0.57807559960E+03  0.58650601721E+03  0.80994749779E+02 0.  0.
        -13    1    3    3    0    0  0.21426536085E+01  0.17254729834E+02 -0.10317540164E+03  0.10463020677E+03  0.00000000000E+00 0.  1.
         14    1    3    3    0    0 -0.96385494594E+02  0.30264503671E+02 -0.13035808444E+03  0.16492220569E+03  0.00000000000E+00 0. -1.
         13    1    5    5    0    0 -0.64613151132E+00  0.25094607738E+02  0.50724068591E+02  0.56595829863E+02  0.00000000000E+00 0. -1.
        -14    1    5    5    0    0  0.52010833831E+02 -0.20631252095E+00  0.52735153101E+03  0.52991018735E+03  0.00000000000E+00 0.  1.
          5    1    4    4  501    0 -0.18071760026E+02  0.26739872641E+02 -0.46857553752E+00  0.32546908645E+02  0.41800000000E+01 0.  1.
         -5    1    4    4    0  501  0.60949898692E+02 -0.99147401363E+02  0.42393076509E+02  0.12393442897E+03  0.41800000000E+01 0.  1.
</event>
<event>
11    1  0.6763327E-009  0.1723247E+03  0.7561462E-02  0.1076026E+00
         22   -1    0    0    0    0  0.00000000000E+00  0.00000000000E+00  0.15940697064E+04  0.15940697064E+04  0.00000000000E+00 0. -1.
         22   -1    0    0    0    0 -0.00000000000E+00 -0.00000000000E+00 -0.88434558892E+02  0.88434558892E+02  0.00000000000E+00 0.  1.
         24    2    1    2    0    0 -0.55706265435E+02 -0.41485302287E+02 -0.30107909340E+02  0.11066915366E+03  0.80727672156E+02 0.  0.
         25    2    1    2    0    0 -0.23758731035E+02  0.12917740272E+03  0.69223463791E+03  0.71560315680E+03  0.12509118846E+03 0.  0.
        -24    2    1    2    0    0  0.79464996470E+02 -0.87692100433E+02  0.84350841891E+03  0.85623195480E+03  0.87304739347E+02 0.  0.
        -13    1    3    3    0    0 -0.37523627025E+02 -0.63984277831E+02 -0.33787589892E+02  0.81508353102E+02  0.00000000000E+00 0.  1.
         14    1    3    3    0    0 -0.18182638410E+02  0.22498975544E+02  0.36796805520E+01  0.29160800555E+02  0.00000000000E+00 0. -1.
         11    1    5    5    0    0  0.16515358535E+02 -0.22314774304E+02  0.50517657132E+03  0.50593880503E+03  0.00000000000E+00 0. -1.
        -12    1    5    5    0    0  0.62949637935E+02 -0.65377326129E+02  0.33833184759E+03  0.35029314978E+03  0.00000000000E+00 0.  1.
          5    1    4    4  501    0 -0.68322906782E+02  0.93759401656E+02  0.55429507310E+03  0.56632088559E+03  0.41800000000E+01 0. -1.
         -5    1    4    4    0  501  0.44564175748E+02  0.35418001064E+02  0.13793956481E+03  0.14928227122E+03  0.41800000000E+01 0. -1.
</event>
<event>
11    1  0.6763327E-009  0.1518264E+03  0.7561462E-02  0.1095027E+00
         22   -1    0    0    0    0  0.00000000000E+00  0.00000000000E+00  0.32931252620E+04  0.32931252620E+04  0.00000000000E+00 0.  1.
         22   -1    0    0    0    0 -0.00000000000E+00 -0.00000000000E+00 -0.16157624060E+03  0.16157624060E+03  0.00000000000E+00 0. -1.
        -24    2    1    2    0    0  0.57399333017E+02  0.23994337838E+02 -0.12382073856E+03  0.15991609363E+03  0.79819609276E+02 0.  0.
         25    2    1    2    0    0 -0.14002315514E+03 -0.22684811019E+02  0.46394524289E+03  0.50101312509E+03  0.12509148047E+03 0.  0.
         24    2    1    2    0    0  0.82623822124E+02 -0.13095268190E+01  0.27914245170E+04  0.27937722839E+04  0.79273759040E+02 0.  0.
        -13    1    5    5    0    0  0.94297585443E+02 -0.15168710684E+01  0.19617618119E+04  0.19640274290E+04  0.00000000000E+00 0.  1.
         14    1    5    5    0    0 -0.11673763319E+02  0.20734424947E+00  0.82966270518E+03  0.82974485483E+03  0.00000000000E+00 0. -1.
         11    1    3    3    0    0 -0.41500410743E+01  0.17198246715E+02 -0.85018823511E+02  0.86840099506E+02  0.00000000000E+00 0. -1.
        -12    1    3    3    0    0  0.61549374091E+02  0.67960911225E+01 -0.38801915046E+02  0.73075994121E+02  0.00000000000E+00 0.  1.
          5    1    4    4  501    0 -0.65406277135E+02 -0.39894808650E+02  0.37850310914E+03  0.38620157026E+03  0.41800000000E+01 0.  1.
         -5    1    4    4    0  501 -0.74616878005E+02  0.17209997631E+02  0.85442133751E+02  0.11481155483E+03  0.41800000000E+01 0.  1.
</event>
<event>
11    1  0.6763327E-009  0.1695370E+03  0.7561462E-02  0.1078435E+00
         22   -1    0    0    0    0  0.00000000000E+00  0.00000000000E+00  0.65838948854E+03  0.65838948854E+03  0.00000000000E+00 0. -1.
         22   -1    0    0    0    0 -0.00000000000E+00 -0.00000000000E+00 -0.14830127288E+03  0.14830127288E+03  0.00000000000E+00 0. -1.
        -24    2    1    2    0    0  0.11269577878E+03  0.28596955102E+02 -0.63066084168E+02  0.15497963509E+03  0.80766527243E+02 0.  0.
         25    2    1    2    0    0 -0.11473073533E+03  0.37887463078E+02  0.20255542052E+03  0.26698468631E+03  0.12511403940E+03 0.  0.
         24    2    1    2    0    0  0.20349565483E+01 -0.66484418180E+02  0.37059887931E+03  0.38472644002E+03  0.79035342702E+02 0.  0.
        -13    1    5    5    0    0 -0.16670623848E+02  0.82012046909E+01  0.28143097464E+02  0.33722446423E+02  0.00000000000E+00 0.  1.
         14    1    5    5    0    0  0.18705580397E+02 -0.74685622871E+02  0.34245578185E+03  0.35100399360E+03  0.00000000000E+00 0. -1.
         11    1    3    3    0    0  0.66536465754E+02  0.51558497597E+01 -0.76476663524E+02  0.10150056219E+03  0.00000000000E+00 0. -1.
        -12    1    3    3    0    0  0.46159313026E+02  0.23441105342E+02  0.13410579356E+02  0.53479072892E+02  0.00000000000E+00 0.  1.
          5    1    4    4  501    0 -0.14097194923E+03  0.29333991039E+02  0.15324630895E+03  0.21032231719E+03  0.41800000000E+01 0. -1.
         -5    1    4    4    0  501  0.26241213903E+02  0.85534720385E+01  0.49309111568E+02  0.56662369124E+02  0.41800000000E+01 0. -1.
</event>
<event>
11    1  0.6763327E-009  0.1806070E+03  0.7561462E-02  0.1069153E+00
         22   -1    0    0    0    0  0.00000000000E+00  0.00000000000E+00  0.62811284673E+03  0.62811284673E+03  0.00000000000E+00 0. -1.
         22   -1    0    0    0    0 -0.00000000000E+00 -0.00000000000E+00 -0.85251983831E+03  0.85251983831E+03  0.00000000000E+00 0.  1.
         24    2    1    2    0    0 -0.36803103071E+02  0.48972791249E+02 -0.78886425061E+03  0.79468511033E+03  0.73924393904E+02 0.  0.
         25    2    1    2    0    0  0.13965419676E+03  0.30051787613E+02  0.14377877509E+03  0.23817119762E+03  0.12508708406E+03 0.  0.
        -24    2    1    2    0    0 -0.10285109369E+03 -0.79024578862E+02  0.42067848393E+03  0.44777637709E+03  0.81914989442E+02 0.  0.
        -13    1    3    3    0    0 -0.57562220822E+02  0.47945214503E+02 -0.58976360654E+03  0.59450253529E+03  0.00000000000E+00 0.  1.
         14    1    3    3    0    0  0.20759117751E+02  0.10275767462E+01 -0.19910064407E+03  0.20018257504E+03  0.00000000000E+00 0. -1.
         11    1    5    5    0    0 -0.98001913896E+02 -0.37069593842E+02  0.35092364142E+03  0.36623207400E+03  0.00000000000E+00 0. -1.
        -12    1    5    5    0    0 -0.48491797919E+01 -0.41954985020E+02  0.69754842510E+02  0.81544303089E+02  0.00000000000E+00 0.  1.
          5    1    4    4  501    0  0.60498056115E+02  0.27579983167E+02  0.14422186115E+03  0.15886499897E+03  0.41800000000E+01 0. -1.
         -5    1    4    4    0  501  0.79156140644E+02  0.24718044455E+01 -0.44308605683E+00  0.79306198649E+02  0.41800000000E+01 0. -1.
</event>
<event>
11    1  0.6763327E-009  0.1448379E+03  0.7561462E-02  0.1102273E+00
         22   -1    0    0    0    0  0.00000000000E+00  0.00000000000E+00  0.40290933872E+03  0.40290933872E+03  0.00000000000E+00 0. -1.
         22   -1    0    0    0    0 -0.00000000000E+00 -0.00000000000E+00 -0.42378154029E+03  0.42378154029E+03  0.00000000000E+00 0. -1.
         24    2    1    2    0    0 -0.42046813189E+02 -0.14320324218E+02 -0.27704912498E+03  0.29156080516E+03  0.79236855506E+02 0.  0.
         25    2    1    2    0    0  0.11146687865E+03  0.10970307188E+01 -0.77536033006E+02  0.18462429518E+03  0.12509286728E+03 0.  0.
        -24    2    1    2    0    0 -0.69420065466E+02  0.13223293500E+02  0.33371295641E+03  0.35050577867E+03  0.80597534850E+02 0.  0.
        -13    1    3    3    0    0 -0.16425655337E+02  0.31984888670E+02 -0.14280826204E+03  0.14726518585E+03  0.00000000000E+00 0.  1.
         14    1    3    3    0    0 -0.25621157851E+02 -0.46305212888E+02 -0.13424086294E+03  0.14429561931E+03  0.00000000000E+00 0. -1.
         13    1    5    5    0    0 -0.64153888757E+02  0.39056729491E+02  0.28898455624E+03  0.29858537021E+03  0.00000000000E+00 0. -1.
        -14    1    5    5    0    0 -0.52661767084E+01 -0.25833435991E+02  0.44728400172E+02  0.51920408455E+02  0.00000000000E+00 0.  1.
          5    1    4    4  501    0  0.13892527377E+03  0.55850140811E+00 -0.57704367228E+02  0.15049189351E+03  0.41800000000E+01 0. -1.
         -5    1    4    4    0  501 -0.27458395118E+02  0.53852931069E+00 -0.19831665778E+02  0.34132401670E+02  0.41800000000E+01 0. -1.
</event>
<event>
11    1  0.6763327E-009  0.1516136E+03  0.7561462E-02  0.1095241E+00
         22   -1    0    0    0    0  0.00000000000E+00  0.00000000000E+00  0.18509010226E+03  0.18509010226E+03  0.00000000000E+00 0. -1.
         22   -1    0    0    0    0 -0.00000000000E+00 -0.00000000000E+00 -0.60264010175E+03  0.60264010175E+03  0.00000000000E+00 0.  1.
        -24    2    1    2    0    0 -0.25452644538E+02 -0.87972406532E+01 -0.48896933244E+03  0.49600832061E+03  0.78790973411E+02 0.  0.
         25    2    1    2    0    0  0.10027916388E+03 -0.11268016130E+02  0.21093066421E+02  0.16209520201E+03  0.12508820155E+03 0.  0.
         24    2    1    2    0    0 -0.74826519344E+02  0.20065256783E+02  0.50326266529E+02  0.12962668139E+03  0.90932507384E+02 0.  0.
        -11    1    5    5    0    0 -0.39578712256E+02 -0.99072901446E+01 -0.20005388395E+02  0.45440559269E+02  0.00000000000E+00 0.  1.
         12    1    5    5    0    0 -0.35247807088E+02  0.29972546928E+02  0.70331654924E+02  0.84186122124E+02  0.00000000000E+00 0. -1.
         11    1    3    3    0    0 -0.40289490682E+02  0.24134856893E+02 -0.26006116349E+03  0.26426793815E+03  0.00000000000E+00 0. -1.
        -12    1    3    3    0    0  0.14836846144E+02 -0.32932097547E+02 -0.22890816895E+03  0.23174038246E+03  0.00000000000E+00 0.  1.
          5    1    4    4  501    0  0.47943245040E+02 -0.63719382662E+02  0.33963345063E+02  0.86773819091E+02  0.41800000000E+01 0. -1.
         -5    1    4    4    0  501  0.52335918842E+02  0.52451366533E+02 -0.12870278642E+02  0.75321382917E+02  0.41800000000E+01 0. -1.
</event>
<event>
11    1  0.6763327E-009  0.1825558E+03  0.7561462E-02  0.1067594E+00
         22   -1    0    0    0    0  0.00000000000E+00  0.00000000000E+00  0.90902339288E+03  0.90902339288E+03  0.00000000000E+00 0.  1.
         22   -1    0    0    0    0 -0.00000000000E+00 -0.00000000000E+00 -0.48631786115E+03  0.48631786115E+03  0.00000000000E+00 0.  1.
        -24    2    1    2    0    0 -0.36990687397E+02  0.35353739369E+02 -0.42418820245E+03  0.43466711055E+03  0.79885343169E+02 0.  0.
         25    2    1    2    0    0 -0.97783960326E+02 -0.61033882367E+02  0.10068633665E+03  0.19767194997E+03  0.12509845612E+03 0.  0.
         24    2    1    2    0    0  0.13477464772E+03  0.25680142998E+02  0.74620739752E+03  0.76300219351E+03  0.80766278638E+02 0.  0.
        -13    1    5    5    0    0  0.13328221276E+03  0.29707286677E+02  0.74631638738E+03  0.75870601763E+03  0.00000000000E+00 0.  1.
         14    1    5    5    0    0  0.14924349664E+01 -0.40271436791E+01 -0.10898985904E+00  0.42961758729E+01  0.00000000000E+00 0. -1.
         13    1    3    3    0    0 -0.17410215270E+02  0.53999310084E+02 -0.17387039297E+03  0.18289328757E+03  0.00000000000E+00 0. -1.
        -14    1    3    3    0    0 -0.19580472127E+02 -0.18645570715E+02 -0.25031780949E+03  0.25177382299E+03  0.00000000000E+00 0.  1.
          5    1    4    4  501    0 -0.12052280435E+02 -0.44642320489E+02  0.10003543230E+03  0.11028487820E+03  0.41800000000E+01 0.  1.
         -5    1    4    4    0  501 -0.85731679890E+02 -0.16391561878E+02  0.65090435017E+00  0.87387071779E+02  0.41800000000E+01 0.  1.
</event>
<event>
11    1  0.6763327E-009  0.1548110E+03  0.7561462E-02  0.1092062E+00
         22   -1    0    0    0    0  0.00000000000E+00  0.00000000000E+00  0.90224857737E+03  0.90224857737E+03  0.00000000000E+00 0. -1.
         22   -1    0    0    0    0 -0.00000000000E+00 -0.00000000000E+00 -0.12092065731E+04  0.12092065731E+04  0.00000000000E+00 0.  1.
        -24    2    1    2    0    0 -0.61483191181E+02 -0.68915041380E+02 -0.10235221692E+04  0.10306155949E+04  0.77726494136E+02 0.  0.
         25    2    1    2    0    0  0.83326087824E+02  0.32451062424E+02 -0.14678763051E+03  0.21258060273E+03  0.12509035063E+03 0.  0.
         24    2    1    2    0    0 -0.21842896644E+02  0.36463978956E+02  0.86335180402E+03  0.86825895281E+03  0.81795707318E+02 0.  0.
        -11    1    5    5    0    0  0.27601906462E+02  0.19941370381E+01  0.16438348172E+03  0.16669664330E+03  0.00000000000E+00 0.  1.
         12    1    5    5    0    0 -0.49444803106E+02  0.34469841918E+02  0.69896832229E+03  0.70156230951E+03  0.00000000000E+00 0. -1.
         13    1    3    3    0    0  0.95555102612E+00  0.78011581606E+01 -0.32809717560E+03  0.32819129754E+03  0.00000000000E+00 0. -1.
        -14    1    3    3    0    0 -0.62438742207E+02 -0.76716199541E+02 -0.69542499362E+03  0.70242429738E+03  0.00000000000E+00 0.  1.
          5    1    4    4  501    0  0.65973392178E+02  0.81247152416E+01 -0.40905733039E+01  0.66728589549E+02  0.41800000000E+01 0.  1.
         -5    1    4    4    0  501  0.17352695646E+02  0.24326347182E+02 -0.14269705720E+03  0.14585201318E+03  0.41800000000E+01 0.  1.
</event>
<event>
11    1  0.6763327E-009  0.1374175E+03  0.7561462E-02  0.1110477E+00
         22   -1    0    0    0    0  0.00000000000E+00  0.00000000000E+00  0.10845967733E+04  0.10845967733E+04  0.00000000000E+00 0. -1.
         22   -1    0    0    0    0 -0.00000000000E+00 -0.00000000000E+00 -0.37016573046E+03  0.37016573046E+03  0.00000000000E+00 0. -1.
        -24    2    1    2    0    0 -0.31592307788E+02  0.45530406505E+02 -0.28403851099E+03  0.30030308651E+03  0.80205836538E+02 0.  0.
         25    2    1    2    0    0 -0.29769085550E+01 -0.85245957536E+02  0.20585529314E-01  0.15140416600E+03  0.12508991085E+03 0.  0.
         24    2    1    2    0    0  0.34569216343E+02  0.39715551031E+02  0.99844896829E+03  0.10030552512E+04  0.80294078603E+02 0.  0.
        -11    1    5    5    0    0 -0.23903591126E+02  0.45030009690E+01  0.39723713401E+03  0.39798115448E+03  0.00000000000E+00 0.  1.
         12    1    5    5    0    0  0.58472807469E+02  0.35212550062E+02  0.60121183428E+03  0.60507409677E+03  0.00000000000E+00 0. -1.
         13    1    3    3    0    0 -0.39381572714E+02  0.26750493662E+02 -0.27309527528E+03  0.27721386430E+03  0.00000000000E+00 0. -1.
        -14    1    3    3    0    0  0.77892649261E+01  0.18779912843E+02 -0.10943235712E+02  0.23089222212E+02  0.00000000000E+00 0.  1.
          5    1    4    4  501    0  0.14622943540E+02 -0.81604772886E+01  0.53262209761E+02  0.55988920832E+02  0.41800000000E+01 0.  1.
         -5    1    4    4    0  501 -0.17599852095E+02 -0.77085480247E+02 -0.53241624232E+02  0.95415245163E+02  0.41800000000E+01 0.  1.
</event>
<event>
11    1  0.6763327E-009  0.1894124E+03  0.7561462E-02  0.1062274E+00
         22   -1    0    0    0    0  0.00000000000E+00  0.00000000000E+00  0.11876370000E+04  0.11876370000E+04  0.00000000000E+00 0.  1.
         22   -1    0    0    0    0 -0.00000000000E+00 -0.00000000000E+00 -0.12064301582E+04  0.12064301582E+04  0.00000000000E+00 0.  1.
         24    2    1    2    0    0  0.14324968110E+03 -0.25014660807E+00 -0.11713377424E+04  0.11826212515E+04  0.77719907013E+02 0.  0.
         25    2    1    2    0    0 -0.99467511525E+02  0.11950745415E+02  0.20939513226E+03  0.26368622160E+03  0.12508995116E+03 0.  0.
        -24    2    1    2    0    0 -0.43782169573E+02 -0.11700598807E+02  0.94314945201E+03  0.94775968508E+03  0.81631791868E+02 0.  0.
        -13    1    3    3    0    0  0.83166526443E+02  0.15895001753E+02 -0.91213770241E+03  0.91605922863E+03  0.00000000000E+00 0.  1.
         14    1    3    3    0    0  0.60083154655E+02 -0.16145148361E+02 -0.25920004002E+03  0.26656202287E+03  0.00000000000E+00 0. -1.
         13    1    5    5    0    0 -0.77189456276E+01 -0.14063980961E+02  0.31096768900E+02  0.34991237733E+02  0.00000000000E+00 0. -1.
        -14    1    5    5    0    0 -0.36063223945E+02  0.23633821538E+01  0.91205268311E+03  0.91276844734E+03  0.00000000000E+00 0.  1.
          5    1    4    4  501    0  0.14873937369E+02  0.13034705182E+02 -0.48611709706E+01  0.20790404884E+02  0.41800000000E+01 0. -1.
         -5    1    4    4    0  501 -0.11434144889E+03 -0.10839597661E+01  0.21425630323E+03  0.24289581672E+03  0.41800000000E+01 0. -1.
</event>
<event>
11    1  0.6763327E-009  0.1467575E+03  0.7561462E-02  0.1100239E+00
         22   -1    0    0    0    0  0.00000000000E+00  0.00000000000E+00  0.20608979760E+03  0.20608979760E+03  0.00000000000E+00 0. -1.
         22   -1    0    0    0    0 -0.00000000000E+00 -0.00000000000E+00 -0.21105609100E+04  0.21105609100E+04  0.00000000000E+00 0. -1.
         24    2    1    2    0    0  0.70933782833E+02  0.15950901137E+02 -0.15051349348E+04  0.15090886239E+04  0.81432610696E+02 0.  0.
         25    2    1    2    0    0 -0.10824002490E+03  0.31745504305E+02 -0.57773885246E+03  0.60179079955E+03  0.12508518995E+03 0.  0.
        -24    2    1    2    0    0  0.37306242064E+02 -0.47696405442E+02  0.17840267481E+03  0.20577128419E+03  0.82750252150E+02 0.  0.
        -13    1    3    3    0    0  0.49095122731E+02 -0.27585555824E+02 -0.10084755982E+04  0.10100466950E+04  0.00000000000E+00 0.  1.
         14    1    3    3    0    0  0.21838660103E+02  0.43536456961E+02 -0.49665933659E+03  0.49904192888E+03  0.00000000000E+00 0. -1.
         11    1    5    5    0    0  0.28849608524E+02 -0.15080115073E+02  0.16708490090E+03  0.17022653698E+03  0.00000000000E+00 0. -1.
        -12    1    5    5    0    0  0.84566335402E+01 -0.32616290369E+02  0.11317773905E+02  0.35544747213E+02  0.00000000000E+00 0.  1.
          5    1    4    4  501    0 -0.60424591448E+02 -0.19699734704E+02 -0.46180977737E+03  0.46618124552E+03  0.41800000000E+01 0.  1.
         -5    1    4    4    0  501 -0.47815433449E+02  0.51445239009E+02 -0.11592907508E+03  0.13560955402E+03  0.41800000000E+01 0.  1.
</event>
<event>
11    1  0.6763327E-009  0.2436229E+03  0.7561462E-02  0.1027352E+00
         22   -1    0    0    0    0  0.00000000000E+00  0.00000000000E+00  0.11360590296E+04  0.11360590296E+04  0.00000000000E+00 0.  1.
         22   -1    0    0    0    0 -0.00000000000E+00 -0.00000000000E+00 -0.74353871029E+03  0.74353871029E+03  0.00000000000E+00 0. -1.
        -24    2    1    2    0    0  0.98005987526E+02 -0.46684932859E+02 -0.62494665108E+03  0.63960276777E+03  0.82150637859E+02 0.  0.
         25    2    1    2    0    0  0.12173900473E+03  0.19922785753E+02 -0.19097133287E+02  0.17672077036E+03  0.12509287553E+03 0.  0.
         24    2    1    2    0    0 -0.21974499226E+03  0.26762147106E+02  0.10365641037E+04  0.10632742018E+04  0.84159449594E+02 0.  0.
        -11    1    5    5    0    0 -0.99643332183E+02 -0.28687186213E+02  0.41120326704E+03  0.42407531775E+03  0.00000000000E+00 0.  1.
         12    1    5    5    0    0 -0.12010166008E+03  0.55449333319E+02  0.62536083669E+03  0.63919888406E+03  0.00000000000E+00 0. -1.
         11    1    3    3    0    0  0.96296202290E+02 -0.49514039103E+02 -0.39331843659E+03  0.40795096667E+03  0.00000000000E+00 0. -1.
        -12    1    3    3    0    0  0.17097852362E+01  0.28291062443E+01 -0.23162821449E+03  0.23165180111E+03  0.00000000000E+00 0.  1.
          5    1    4    4  501    0 -0.82575156524E+01 -0.31140005060E+02  0.10009073854E+02  0.33993241083E+02  0.41800000000E+01 0. -1.
         -5    1    4    4    0  501  0.12999652039E+03  0.51062790813E+02 -0.29106207141E+02  0.14272752927E+03  0.41800000000E+01 0. -1.
</event>
<event>
11    1  0.6763327E-009  0.1309057E+03  0.7561462E-02  0.1118161E+00
         22   -1    0    0    0    0  0.00000000000E+00  0.00000000000E+00  0.16645676393E+04  0.16645676393E+04  0.00000000000E+00 0.  1.
         22   -1    0    0    0    0 -0.00000000000E+00 -0.00000000000E+00 -0.96153923584E+03  0.96153923584E+03  0.00000000000E+00 0. -1.
        -24    2    1    2    0    0  0.29379516102E+02 -0.25061498773E+02 -0.95012720834E+03  0.95664047656E+03  0.10453733636E+03 0.  0.
         25    2    1    2    0    0  0.74731263782E+01  0.50226468833E+02  0.11377325130E+04  0.11457143781E+04  0.12509044471E+03 0.  0.
         24    2    1    2    0    0 -0.36852642480E+02 -0.25164970060E+02  0.51542309878E+03  0.52375202043E+03  0.81632194431E+02 0.  0.
        -13    1    5    5    0    0 -0.30145646938E+01  0.22908283622E+02  0.28545578992E+03  0.28638939411E+03  0.00000000000E+00 0.  1.
         14    1    5    5    0    0 -0.33838077787E+02 -0.48073253682E+02  0.22996730886E+03  0.23736262632E+03  0.00000000000E+00 0. -1.
         13    1    3    3    0    0  0.28426214941E+01  0.15929426384E+02 -0.76531530313E+03  0.76548634235E+03  0.00000000000E+00 0. -1.
        -14    1    3    3    0    0  0.26536894608E+02 -0.40990925157E+02 -0.18481190521E+03  0.19115413421E+03  0.00000000000E+00 0.  1.
          5    1    4    4  501    0 -0.28395381453E+02  0.46765045734E+02  0.10403246633E+04  0.10417706776E+04  0.41800000000E+01 0.  1.
         -5    1    4    4    0  501  0.35868507831E+02  0.34614230995E+01  0.97407849682E+02  0.10394370055E+03  0.41800000000E+01 0.  1.
</event>
<event>
11    1  0.6763327E-009  0.1558347E+03  0.7561462E-02  0.1091062E+00
         22   -1    0    0    0    0  0.00000000000E+00  0.00000000000E+00  0.14780292091E+04  0.14780292091E+04  0.00000000000E+00 0. -1.
         22   -1    0    0    0    0 -0.00000000000E+00 -0.00000000000E+00 -0.23382295687E+04  0.23382295687E+04  0.00000000000E+00 0. -1.
         24    2    1    2    0    0  0.30163002673E+02 -0.27390769990E+02 -0.23155330959E+04  0.23177348480E+04  0.92418863774E+02 0.  0.
         25    2    1    2    0    0 -0.11811997903E+03  0.31410158385E+02  0.39974301764E+03  0.43632671643E+03  0.12509035063E+03 0.  0.
        -24    2    1    2    0    0  0.87956976361E+02 -0.40193883952E+01  0.10555897187E+04  0.10621972133E+04  0.78997978088E+02 0.  0.
        -13    1    3    3    0    0  0.15362026393E+02  0.33071974934E+02 -0.11060548811E+04  0.11066558396E+04  0.00000000000E+00 0.  1.
         14    1    3    3    0    0  0.14800976280E+02 -0.60462744924E+02 -0.12094782148E+04  0.12110790084E+04  0.00000000000E+00 0. -1.
         11    1    5    5    0    0  0.97059397041E+02  0.46442625401E+01  0.10165784659E+04  0.10212119628E+04  0.00000000000E+00 0. -1.
        -12    1    5    5    0    0 -0.91024206802E+01 -0.86636509353E+01  0.39011252825E+02  0.40985250478E+02  0.00000000000E+00 0.  1.
          5    1    4    4  501    0  0.10833465849E+02 -0.70053503949E+01  0.16628217436E+03  0.16683426754E+03  0.41800000000E+01 0. -1.
         -5    1    4    4    0  501 -0.12895344488E+03  0.38415508780E+02  0.23346084329E+03  0.26949244889E+03  0.41800000000E+01 0. -1.
</event>
<event>
11    1  0.6763327E-009  0.1775384E+03  0.7561462E-02  0.1071652E+00
         22   -1    0    0    0    0  0.00000000000E+00  0.00000000000E+00  0.33004532698E+03  0.33004532698E+03  0.00000000000E+00 0.  1.
         22   -1    0    0    0    0 -0.00000000000E+00 -0.00000000000E+00 -0.53398529781E+03  0.53398529781E+03  0.00000000000E+00 0. -1.
        -24    2    1    2    0    0 -0.12226191934E+03  0.24045564700E+02 -0.29142183539E+03  0.32690058213E+03  0.80069584445E+02 0.  0.
         25    2    1    2    0    0  0.10526035893E+03 -0.98866201245E+02 -0.17033615188E+03  0.25597061351E+03  0.12510907814E+03 0.  0.
         24    2    1    2    0    0  0.17001560407E+02  0.74820636544E+02  0.25781801643E+03  0.28115942915E+03  0.81812678082E+02 0.  0.
        -13    1    5    5    0    0 -0.19341011600E+02  0.12176317480E+02  0.14705701090E+03  0.14882238370E+03  0.00000000000E+00 0.  1.
         14    1    5    5    0    0  0.36342572007E+02  0.62644319064E+02  0.11076100554E+03  0.13233704545E+03  0.00000000000E+00 0. -1.
         11    1    3    3    0    0 -0.12550097396E+03  0.23316769319E+02 -0.29535183642E+03  0.32175592221E+03  0.00000000000E+00 0. -1.
        -12    1    3    3    0    0  0.32390546240E+01  0.72879538197E+00  0.39300010354E+01  0.51446599212E+01  0.00000000000E+00 0.  1.
          5    1    4    4  501    0  0.60141861372E+02 -0.10030214718E+03 -0.49782054545E+02  0.12717424886E+03  0.41800000000E+01 0. -1.
         -5    1    4    4    0  501  0.45118497557E+02  0.14359459389E+01 -0.12055409733E+03  0.12879636464E+03  0.41800000000E+01 0. -1.
</event>
<event>
11    1  0.6763327E-009  0.2000872E+03  0.7561462E-02  0.1054462E+00
         22   -1    0    0    0    0  0.00000000000E+00  0.00000000000E+00  0.78643984377E+03  0.78643984377E+03  0.00000000000E+00 0.  1.
         22   -1    0    0    0    0 -0.00000000000E+00 -0.00000000000E+00 -0.26547857743E+03  0.26547857743E+03  0.00000000000E+00 0. -1.
        -24    2    1    2    0    0 -0.13056131588E+03  0.79461675284E+02 -0.19151928325E+03  0.25729160179E+03  0.78478770700E+02 0.  0.
         25    2    1    2    0    0  0.15461341373E+03 -0.12101227833E+03  0.35051363398E+03  0.42078139001E+03  0.12509153195E+03 0.  0.
         24    2    1    2    0    0 -0.24052097846E+02  0.41550603044E+02  0.36196691561E+03  0.37384542940E+03  0.80220951517E+02 0.  0.
        -13    1    5    5    0    0 -0.40165358835E+02 -0.75756029003E+01  0.18614105352E+03  0.19057580543E+03  0.00000000000E+00 0.  1.
         14    1    5    5    0    0  0.16113260989E+02  0.49126205944E+02  0.17582586209E+03  0.18326962397E+03  0.00000000000E+00 0. -1.
         13    1    3    3    0    0 -0.13045282760E+03  0.87275501917E+02 -0.19357493280E+03  0.24921117164E+03  0.00000000000E+00 0. -1.
        -14    1    3    3    0    0 -0.10848828454E+00 -0.78138266324E+01  0.20556495453E+01  0.80804301496E+01  0.00000000000E+00 0.  1.
          5    1    4    4  501    0  0.10386863996E+02 -0.77872543781E+02  0.87212110343E+02  0.11745401061E+03  0.41800000000E+01 0.  1.
         -5    1    4    4    0  501  0.14422654973E+03 -0.43139734547E+02  0.26330152363E+03  0.30332737940E+03  0.41800000000E+01 0.  1.
</event>
<event>
11    1  0.6763327E-009  0.1370448E+03  0.7561462E-02  0.1110904E+00
         22   -1    0    0    0    0  0.00000000000E+00  0.00000000000E+00  0.18156832604E+04  0.18156832604E+04  0.00000000000E+00 0.  1.
         22   -1    0    0    0    0 -0.00000000000E+00 -0.00000000000E+00 -0.44798740651E+03  0.44798740651E+03  0.00000000000E+00 0. -1.
         24    2    1    2    0    0  0.54060165623E+02  0.12153417815E+02 -0.41348171852E+03  0.42553511674E+03  0.83921373652E+02 0.  0.
         25    2    1    2    0    0 -0.68950416309E+02 -0.32679634357E+02  0.16869060883E+03  0.22344184747E+03  0.12509044442E+03 0.  0.
        -24    2    1    2    0    0  0.14890250686E+02  0.20526216542E+02  0.16124869636E+04  0.16146937027E+04  0.80489133815E+02 0.  0.
        -13    1    3    3    0    0  0.10792826392E+02  0.28019793690E+01 -0.15804530068E+01  0.11262061162E+02  0.00000000000E+00 0.  1.
         14    1    3    3    0    0  0.43267339231E+02  0.93514384463E+01 -0.41190126551E+03  0.41427305558E+03  0.00000000000E+00 0. -1.
         13    1    5    5    0    0 -0.63396396398E+01  0.33474348488E+02  0.29325580010E+03  0.29522819535E+03  0.00000000000E+00 0. -1.
        -14    1    5    5    0    0  0.21229890326E+02 -0.12948131946E+02  0.13192311635E+04  0.13194655074E+04  0.00000000000E+00 0.  1.
          5    1    4    4  501    0 -0.46651823374E+02  0.32542970524E+02  0.13510878754E+03  0.14665365466E+03  0.41800000000E+01 0.  1.
         -5    1    4    4    0  501 -0.22298592936E+02 -0.65222604881E+02  0.33581821287E+02  0.76788192812E+02  0.41800000000E+01 0.  1.
</event>
<event>
11    1  0.6763327E-009  0.1482404E+03  0.7561462E-02  0.1098690E+00
         22   -1    0    0    0    0  0.00000000000E+00  0.00000000000E+00  0.10786453085E+03  0.10786453085E+03  0.00000000000E+00 0. -1.
         22   -1    0    0    0    0 -0.00000000000E+00 -0.00000000000E+00 -0.17174590591E+04  0.17174590591E+04  0.00000000000E+00 0.  1.
        -24    2    1    2    0    0  0.31049930557E+01 -0.35303594349E+02 -0.13185462379E+04  0.13215090595E+04  0.81031031560E+02 0.  0.
         25    2    1    2    0    0 -0.13869020197E+02  0.11090866852E+03 -0.34227194065E+03  0.38116999875E+03  0.12508958436E+03 0.  0.
         24    2    1    2    0    0  0.10764027141E+02 -0.75605074167E+02  0.51223650245E+02  0.12264453176E+03  0.81153110269E+02 0.  0.
        -11    1    5    5    0    0 -0.30127884794E+02 -0.84671623449E+01  0.57192962793E+01  0.31813403312E+02  0.00000000000E+00 0.  1.
         12    1    5    5    0    0  0.40891911935E+02 -0.67137911822E+02  0.45504353966E+02  0.90831128449E+02  0.00000000000E+00 0. -1.
         13    1    3    3    0    0  0.56224000851E+01 -0.26185033536E+02 -0.12112795941E+03  0.12405341557E+03  0.00000000000E+00 0. -1.
        -14    1    3    3    0    0 -0.25174070294E+01 -0.91185608130E+01 -0.11974182785E+04  0.11974556439E+04  0.00000000000E+00 0.  1.
          5    1    4    4  501    0 -0.41082905866E+02  0.12332095302E+03 -0.31372285124E+03  0.33961060407E+03  0.41800000000E+01 0.  1.
         -5    1    4    4    0  501  0.27213885669E+02 -0.12412284504E+02 -0.28549089417E+02  0.41559394682E+02  0.41800000000E+01 0.  1.
</event>
<event>
11    1  0.6763327E-009  0.1302717E+03  0.7561462E-02  0.1118936E+00
         22   -1    0    0    0    0  0.00000000000E+00  0.00000000000E+00  0.10058352835E+04  0.10058352835E+04  0.00000000000E+00 0. -1.
         22   -1    0    0    0    0 -0.00000000000E+00 -0.00000000000E+00 -0.72550417583E+02  0.72550417583E+02  0.00000000000E+00 0. -1.
         24    2    1    2    0    0  0.43410391758E+02 -0.89491782490E+01 -0.25842134250E+02  0.93540338116E+02  0.78213995220E+02 0.  0.
         25    2    1    2    0    0 -0.15296140477E+02  0.40198678993E+02  0.57361647865E+03  0.58866967995E+03  0.12508485844E+03 0.  0.
        -24    2    1    2    0    0 -0.28114251281E+02 -0.31249500744E+02  0.38551052147E+03  0.39617568297E+03  0.81054717252E+02 0.  0.
        -11    1    3    3    0    0  0.43720690291E+02  0.25683811705E+02 -0.64613900251E+00  0.50710693535E+02  0.00000000000E+00 0.  1.
         12    1    3    3    0    0 -0.31029853326E+00 -0.34632989954E+02 -0.25195995248E+02  0.42829644580E+02  0.00000000000E+00 0. -1.
         13    1    5    5    0    0  0.14487512934E+02 -0.15205309602E+02  0.28573498775E+03  0.28650579871E+03  0.00000000000E+00 0. -1.
        -14    1    5    5    0    0 -0.42601764215E+02 -0.16044191143E+02  0.99775533728E+02  0.10966988426E+03  0.00000000000E+00 0.  1.
          5    1    4    4  501    0  0.54320381390E+01  0.70486553379E+02  0.18165504838E+03  0.19497151137E+03  0.41800000000E+01 0. -1.
         -5    1    4    4    0  501 -0.20728178616E+02 -0.30287874385E+02  0.39196143027E+03  0.39369816858E+03  0.41800000000E+01 0. -1.
</event>
<event>
11    1  0.6763327E-009  0.2498739E+03  0.7561462E-02  0.1023966E+00
         22   -1    0    0    0    0  0.00000000000E+00  0.00000000000E+00  0.15696395571E+04  0.15696395571E+04  0.00000000000E+00 0.  1.
         22   -1    0    0    0    0 -0.00000000000E+00 -0.00000000000E+00 -0.70507887137E+03  0.70507887137E+03  0.00000000000E+00 0. -1.
        -24    2    1    2    0    0  0.18261625258E+03 -0.11817094140E+03 -0.66279457208E+03  0.70225440796E+03  0.80941593918E+02 0.  0.
         25    2    1    2    0    0 -0.19170360345E+03 -0.23446414543E+01  0.90266371902E+03  0.93123843311E+03  0.12508981075E+03 0.  0.
         24    2    1    2    0    0  0.90873508701E+01  0.12051558285E+03  0.62469153883E+03  0.64122558743E+03  0.79524522206E+02 0.  0.
        -11    1    5    5    0    0  0.33173608480E+02  0.11132788239E+03  0.45539852661E+03  0.46998106742E+03  0.00000000000E+00 0.  1.
         12    1    5    5    0    0 -0.24086257610E+02  0.91877004553E+01  0.16929301222E+03  0.17124452001E+03  0.00000000000E+00 0. -1.
         13    1    3    3    0    0  0.26663579046E+02 -0.43784263973E+02 -0.24193743737E+03  0.24730898047E+03  0.00000000000E+00 0. -1.
        -14    1    3    3    0    0  0.15595267354E+03 -0.74386677423E+02 -0.42085713471E+03  0.45494542749E+03  0.00000000000E+00 0.  1.
          5    1    4    4  501    0 -0.12071099420E+03 -0.19652695898E+02  0.29779555446E+03  0.32195812963E+03  0.41800000000E+01 0. -1.
         -5    1    4    4    0  501 -0.70992609248E+02  0.17308054443E+02  0.60486816456E+03  0.60928030349E+03  0.41800000000E+01 0. -1.
</event>
<event>
11    1  0.6763327E-009  0.1663055E+03  0.7561462E-02  0.1081292E+00
         22   -1    0    0    0    0  0.00000000000E+00  0.00000000000E+00  0.12946036408E+03  0.12946036408E+03  0.00000000000E+00 0.  1.
         22   -1    0    0    0    0 -0.00000000000E+00 -0.00000000000E+00 -0.17619126218E+04  0.17619126218E+04  0.00000000000E+00 0.  1.
        -24    2    1    2    0    0 -0.64361687323E+02  0.88394729652E+02 -0.15347959175E+04  0.15413029102E+04  0.89778045621E+02 0.  0.
         25    2    1    2    0    0  0.68145576949E+02 -0.89095883428E+02 -0.17154173379E+03  0.24011840689E+03  0.12509351218E+03 0.  0.
         24    2    1    2    0    0 -0.37838896263E+01  0.70115377558E+00  0.73885393641E+02  0.10995166876E+03  0.81335777073E+02 0.  0.
        -11    1    5    5    0    0 -0.92984814214E+01  0.29727943229E+02  0.74126268793E+02  0.80404701918E+02  0.00000000000E+00 0.  1.
         12    1    5    5    0    0  0.55145917951E+01 -0.29026789453E+02 -0.24087515285E+00  0.29546966840E+02  0.00000000000E+00 0. -1.
         11    1    3    3    0    0  0.17854562056E+02  0.45197505631E+02 -0.51921190426E+03  0.52148116114E+03  0.00000000000E+00 0. -1.
        -12    1    3    3    0    0 -0.82216249379E+02  0.43197224021E+02 -0.10155840133E+04  0.10198217490E+04  0.00000000000E+00 0.  1.
          5    1    4    4  501    0 -0.38249858310E+01 -0.20229536797E+01 -0.11235782531E+03  0.11251878139E+03  0.41800000000E+01 0. -1.
         -5    1    4    4    0  501  0.71970562780E+02 -0.87072929748E+02 -0.59183908485E+02  0.12759962549E+03  0.41800000000E+01 0. -1.
</event>
<event>
11    1  0.6763327E-009  0.1346656E+03  0.7561462E-02  0.1113666E+00
         22   -1    0    0    0    0  0.00000000000E+00  0.00000000000E+00  0.21099976671E+03  0.21099976671E+03  0.00000000000E+00 0. -1.
         22   -1    0    0    0    0 -0.00000000000E+00 -0.00000000000E+00 -0.77683204855E+03  0.77683204855E+03  0.00000000000E+00 0.  1.
        -24    2    1    2    0    0  0.24609012758E+02  0.73741072255E+01 -0.63967961346E+03  0.64494652092E+03  0.78141064805E+02 0.  0.
         25    2    1    2    0    0  0.23955976304E+02  0.11930858489E+02 -0.87879518628E+02  0.15522356643E+03  0.12512118764E+03 0.  0.
         24    2    1    2    0    0 -0.48564989062E+02 -0.19304965714E+02  0.16172685025E+03  0.18766172791E+03  0.79561989468E+02 0.  0.
        -13    1    5    5    0    0 -0.13616000124E+02 -0.26815426145E+02  0.98673653588E+01  0.31651657743E+02  0.00000000000E+00 0.  1.
         14    1    5    5    0    0 -0.34948988938E+02  0.75104604309E+01  0.15185948489E+03  0.15601007017E+03  0.00000000000E+00 0. -1.
         11    1    3    3    0    0 -0.17521112774E+02 -0.90167408338E+01 -0.53282366071E+02  0.56809343794E+02  0.00000000000E+00 0. -1.
        -12    1    3    3    0    0  0.42130125532E+02  0.16390848059E+02 -0.58639724739E+03  0.58813717713E+03  0.00000000000E+00 0.  1.
          5    1    4    4  501    0  0.44210276594E+02 -0.43880023945E+02 -0.68378175650E+02  0.92590779039E+02  0.41800000000E+01 0. -1.
         -5    1    4    4    0  501 -0.20254300290E+02  0.55810882434E+02 -0.19501342978E+02  0.62632787390E+02  0.41800000000E+01 0. -1.
</event>
<event>
11    1  0.6763327E-009  0.1371372E+03  0.7561462E-02  0.1110798E+00
         22   -1    0    0    0    0  0.00000000000E+00  0.00000000000E+00  0.31492493501E+03  0.31492493501E+03  0.00000000000E+00 0. -1.
         22   -1    0    0    0    0 -0.00000000000E+00 -0.00000000000E+00 -0.11823483648E+04  0.11823483648E+04  0.00000000000E+00 0.  1.
         24    2    1    2    0    0  0.32497923066E+01  0.12465661134E+01 -0.99849354109E+03  0.10016988516E+04  0.79994516172E+02 0.  0.
         25    2    1    2    0    0 -0.20174410282E+01 -0.57391128014E+02 -0.14632790274E+03  0.20088870944E+03  0.12508639741E+03 0.  0.
        -24    2    1    2    0    0 -0.12323512784E+01  0.56144561901E+02  0.27739801401E+03  0.29468573880E+03  0.82074941082E+02 0.  0.
        -11    1    3    3    0    0 -0.95096547627E+01  0.30850165395E+02 -0.79609098393E+03  0.79674526728E+03  0.00000000000E+00 0.  1.
         12    1    3    3    0    0  0.12759447069E+02 -0.29603599282E+02 -0.20240255717E+03  0.20495358433E+03  0.00000000000E+00 0. -1.
         13    1    5    5    0    0  0.28276517697E+02  0.24399061876E+02  0.21788470778E+03  0.22106248338E+03  0.00000000000E+00 0. -1.
        -14    1    5    5    0    0 -0.29508868975E+02  0.31745500025E+02  0.59513306232E+02  0.73623255420E+02  0.00000000000E+00 0.  1.
          5    1    4    4  501    0 -0.26935645739E+02 -0.26005059208E+02  0.10385509095E+02  0.39078425185E+02  0.41800000000E+01 0. -1.
         -5    1    4    4    0  501  0.24918204711E+02 -0.31386068806E+02 -0.15671341184E+03  0.16181028426E+03  0.41800000000E+01 0. -1.
</event>
<event>
11    1  0.6763327E-009  0.1714878E+03  0.7561462E-02  0.1076744E+00
         22   -1    0    0    0    0  0.00000000000E+00  0.00000000000E+00  0.33808576901E+03  0.33808576901E+03  0.00000000000E+00 0. -1.
         22   -1    0    0    0    0 -0.00000000000E+00 -0.00000000000E+00 -0.40756213640E+03  0.40756213640E+03  0.00000000000E+00 0.  1.
        -24    2    1    2    0    0 -0.37991678275E+02 -0.10869378630E+02 -0.21025055876E+03  0.22720639590E+03  0.76524099935E+02 0.  0.
         25    2    1    2    0    0 -0.60955341233E+02 -0.58466114326E+02 -0.13771735803E+03  0.20432226021E+03  0.12509066779E+03 0.  0.
         24    2    1    2    0    0  0.98947019508E+02  0.69335492957E+02  0.27849154940E+03  0.31411924930E+03  0.80718253448E+02 0.  0.
        -11    1    5    5    0    0  0.35028314868E+02  0.41377774042E+01  0.21305445892E+02  0.41207111874E+02  0.00000000000E+00 0.  1.
         12    1    5    5    0    0  0.63918704640E+02  0.65197715553E+02  0.25718610351E+03  0.27291213742E+03  0.00000000000E+00 0. -1.
         11    1    3    3    0    0 -0.37185339816E+01  0.20748762302E+02 -0.13560278010E+02  0.25064312712E+02  0.00000000000E+00 0. -1.
        -12    1    3    3    0    0 -0.34273144293E+02 -0.31618140932E+02 -0.19669028075E+03  0.20214208319E+03  0.00000000000E+00 0.  1.
          5    1    4    4  501    0 -0.42906690463E+02 -0.94329542169E+02 -0.12407540675E+03  0.16171340567E+03  0.41800000000E+01 0. -1.
         -5    1    4    4    0  501 -0.18048650771E+02  0.35863427842E+02 -0.13641951278E+02  0.42608854548E+02  0.41800000000E+01 0. -1.
</event>
<event>
11    1  0.6763327E-009  0.2621857E+03  0.7561462E-02  0.1017601E+00
         22   -1    0    0    0    0  0.00000000000E+00  0.00000000000E+00  0.14636167526E+04  0.14636167526E+04  0.00000000000E+00 0.  1.
         22   -1    0    0    0    0 -0.00000000000E+00 -0.00000000000E+00 -0.26580744344E+04  0.26580744344E+04  0.00000000000E+00 0.  1.
         24    2    1    2    0    0  0.19819381264E+03  0.11528645458E+03 -0.25071678112E+04  0.25188719785E+04  0.79081330570E+02 0.  0.
         25    2    1    2    0    0 -0.22636298867E+03 -0.12447231831E+03 -0.31261306214E+00  0.28702069837E+03  0.12508886002E+03 0.  0.
        -24    2    1    2    0    0  0.28169176025E+02  0.91858637298E+01  0.13130227424E+04  0.13157985101E+04  0.80119377646E+02 0.  0.
        -11    1    3    3    0    0  0.13094236119E+03  0.63424537381E+02 -0.11703041326E+04  0.11793135023E+04  0.00000000000E+00 0.  1.
         12    1    3    3    0    0  0.67251451455E+02  0.51861917201E+02 -0.13368636785E+04  0.13395584762E+04  0.00000000000E+00 0. -1.
         13    1    5    5    0    0  0.38239729975E+01  0.30686971912E+02  0.20683378011E+03  0.20913279420E+03  0.00000000000E+00 0. -1.
        -14    1    5    5    0    0  0.24345203027E+02 -0.21501108182E+02  0.11061889622E+04  0.11066657159E+04  0.00000000000E+00 0.  1.
          5    1    4    4  501    0 -0.12457168683E+03 -0.27605767205E+02  0.50857704568E+02  0.13741965673E+03  0.41800000000E+01 0.  1.
         -5    1    4    4    0  501 -0.10179130184E+03 -0.96866551107E+02 -0.51170317630E+02  0.14960104164E+03  0.41800000000E+01 0.  1.
</event>
<event>
11    1  0.6763327E-009  0.1273471E+03  0.7561462E-02  0.1122572E+00
         22   -1    0    0    0    0  0.00000000000E+00  0.00000000000E+00  0.23981676079E+03  0.23981676079E+03  0.00000000000E+00 0. -1.
         22   -1    0    0    0    0 -0.00000000000E+00 -0.00000000000E+00 -0.33825724258E+03  0.33825724258E+03  0.00000000000E+00 0. -1.
        -24    2    1    2    0    0  0.11046545357E+01 -0.27138222057E+02 -0.24391150070E+03  0.25654502229E+03  0.74731686256E+02 0.  0.
         25    2    1    2    0    0 -0.15198177356E+01  0.50565793112E+00 -0.29529252150E+02  0.12853899985E+03  0.12509089580E+03 0.  0.
         24    2    1    2    0    0  0.41516319984E+00  0.26632564126E+02  0.17500027107E+03  0.19298998123E+03  0.76880245518E+02 0.  0.
        -13    1    5    5    0    0  0.35729314981E+02  0.28787076382E+02  0.94027991004E+02  0.10462572728E+03  0.00000000000E+00 0.  1.
         14    1    5    5    0    0 -0.35314151782E+02 -0.21545122565E+01  0.80972280062E+02  0.88364253958E+02  0.00000000000E+00 0. -1.
         11    1    3    3    0    0  0.20727968588E+02 -0.31730152582E+02 -0.22727081386E+03  0.23040936200E+03  0.00000000000E+00 0. -1.
        -12    1    3    3    0    0 -0.19623314052E+02  0.45919305254E+01 -0.16640686840E+02  0.26135660291E+02  0.00000000000E+00 0.  1.
          5    1    4    4  501    0  0.48004098245E+02 -0.31398500475E+02 -0.37917370867E+02  0.68887289784E+02  0.41800000000E+01 0. -1.
         -5    1    4    4    0  501 -0.49523915980E+02  0.31904158406E+02  0.83881187167E+01  0.59651710061E+02  0.41800000000E+01 0. -1.
</event>
<event>
11    1  0.6763327E-009  0.1555789E+03  0.7561462E-02  0.1091311E+00
         22   -1    0    0    0    0  0.00000000000E+00  0.00000000000E+00  0.17436845946E+04  0.17436845946E+04  0.00000000000E+00 0.  1.
         22   -1    0    0    0    0 -0.00000000000E+00 -0.00000000000E+00 -0.12397569006E+03  0.12397569006E+03  0.00000000000E+00 0.  1.
        -24    2    1    2    0    0  0.92417472968E+02 -0.14234843550E+02 -0.81941893300E+02  0.14799929399E+03  0.80285098631E+02 0.  0.
         25    2    1    2    0    0 -0.72548368066E+02 -0.11304187705E+02  0.73211614224E+03  0.74634610505E+03  0.12508961756E+03 0.  0.
         24    2    1    2    0    0 -0.19869104902E+02  0.25539031254E+02  0.96953465564E+03  0.97331488567E+03  0.79356125930E+02 0.  0.
        -11    1    5    5    0    0 -0.38215338517E+02  0.39554708214E+02  0.83534240436E+03  0.83715107332E+03  0.00000000000E+00 0.  1.
         12    1    5    5    0    0  0.18346233615E+02 -0.14015676960E+02  0.13419225128E+03  0.13616381235E+03  0.00000000000E+00 0. -1.
         13    1    3    3    0    0  0.57208951752E+01 -0.33521635450E+02 -0.28297270987E+02  0.44239848894E+02  0.00000000000E+00 0. -1.
        -14    1    3    3    0    0  0.86696577793E+02  0.19286791900E+02 -0.53644622313E+02  0.10375944509E+03  0.00000000000E+00 0.  1.
          5    1    4    4  501    0 -0.80305622390E+02 -0.42878921054E+02  0.66944317236E+03  0.67561766427E+03  0.41800000000E+01 0. -1.
         -5    1    4    4    0  501  0.77572543244E+01  0.31574733349E+02  0.62672969883E+02  0.70728440776E+02  0.41800000000E+01 0. -1.
</event>
<event>
11    1  0.6763327E-009  0.1336230E+03  0.7561462E-02  0.1114896E+00
         22   -1    0    0    0    0  0.00000000000E+00  0.00000000000E+00  0.18328882851E+03  0.18328882851E+03  0.00000000000E+00 0. -1.
         22   -1    0    0    0    0 -0.00000000000E+00 -0.00000000000E+00 -0.56461328539E+03  0.56461328539E+03  0.00000000000E+00 0.  1.
         24    2    1    2    0    0  0.11516166610E+02  0.46740821391E+02 -0.43827578887E+03  0.44795456884E+03  0.79122071250E+02 0.  0.
         25    2    1    2    0    0  0.10629053333E+02 -0.40246023761E+02 -0.69013896826E+02  0.14882208642E+03  0.12510945707E+03 0.  0.
        -24    2    1    2    0    0 -0.22145219943E+02 -0.64947976292E+01  0.12596522882E+03  0.15112545863E+03  0.80243829736E+02 0.  0.
        -11    1    3    3    0    0  0.23684431238E+02  0.39306251815E+02 -0.42781526066E+03  0.43026948645E+03  0.00000000000E+00 0.  1.
         12    1    3    3    0    0 -0.12168264628E+02  0.74345695758E+01 -0.10460528211E+02  0.17685082394E+02  0.00000000000E+00 0. -1.
         11    1    5    5    0    0  0.27974500443E+02 -0.14626855470E+02  0.60876308818E+02  0.68574357826E+02  0.00000000000E+00 0. -1.
        -12    1    5    5    0    0 -0.50119720386E+02  0.81320578404E+01  0.65088920002E+02  0.82551100800E+02  0.00000000000E+00 0.  1.
          5    1    4    4  501    0 -0.10509020553E+02  0.42822905441E+02 -0.12336379605E+02  0.45977161778E+02  0.41800000000E+01 0.  1.
         -5    1    4    4    0  501  0.21138073886E+02 -0.83068929202E+02 -0.56677517222E+02  0.10284492464E+03  0.41800000000E+01 0.  1.
</event>
<event>
11    1  0.6763327E-009  0.1770925E+03  0.7561462E-02  0.1072019E+00
         22   -1    0    0    0    0  0.00000000000E+00  0.00000000000E+00  0.54483774834E+03  0.54483774834E+03  0.00000000000E+00 0. -1.
         22   -1    0    0    0    0 -0.00000000000E+00 -0.00000000000E+00 -0.11492005223E+03  0.11492005223E+03  0.00000000000E+00 0. -1.
        -24    2    1    2    0    0 -0.10586973913E+03 -0.47608260737E+02  0.11925583401E+03  0.18420772089E+03  0.78965703536E+02 0.  0.
         25    2    1    2    0    0  0.13775482334E+03 -0.17194606380E+01  0.45548296141E+02  0.19157328099E+03  0.12508527815E+03 0.  0.
         24    2    1    2    0    0 -0.31885084206E+02  0.49327721375E+02  0.26511356595E+03  0.28397679869E+03  0.83112794757E+02 0.  0.
        -13    1    5    5    0    0 -0.54657942326E+02  0.35384233561E+02  0.12096276302E+03  0.13737366808E+03  0.00000000000E+00 0.  1.
         14    1    5    5    0    0  0.22772858120E+02  0.13943487814E+02  0.14415080294E+03  0.14660313062E+03  0.00000000000E+00 0. -1.
         11    1    3    3    0    0 -0.74644536662E+02 -0.12229497216E+02  0.26515255040E+02  0.80152518397E+02  0.00000000000E+00 0. -1.
        -12    1    3    3    0    0 -0.31225202469E+02 -0.35378763522E+02  0.92740578968E+02  0.10405520249E+03  0.00000000000E+00 0.  1.
          5    1    4    4  501    0  0.15187420251E+03  0.84515627845E+00  0.91312371122E+01  0.15220821124E+03  0.41800000000E+01 0.  1.
         -5    1    4    4    0  501 -0.14119379172E+02 -0.25646169164E+01  0.36417059029E+02  0.39365069750E+02  0.41800000000E+01 0.  1.
</event>
<event>
11    1  0.6763327E-009  0.1429781E+03  0.7561462E-02  0.1104278E+00
         22   -1    0    0    0    0  0.00000000000E+00  0.00000000000E+00  0.55115812829E+03  0.55115812829E+03  0.00000000000E+00 0. -1.
         22   -1    0    0    0    0 -0.00000000000E+00 -0.00000000000E+00 -0.54482371920E+03  0.54482371920E+03  0.00000000000E+00 0. -1.
        -24    2    1    2    0    0  0.92625412564E+01  0.67012974535E+02 -0.40194076753E+03  0.41537331232E+03  0.80012964985E+02 0.  0.
         25    2    1    2    0    0 -0.48310374267E+02 -0.72518332225E+02 -0.86827318447E+02  0.17543858769E+03  0.12508762549E+03 0.  0.
         24    2    1    2    0    0  0.39047833011E+02  0.55053576904E+01  0.49510249506E+03  0.50516994747E+03  0.92277586619E+02 0.  0.
        -11    1    5    5    0    0  0.28156941289E+02 -0.28629684987E+01  0.35679017460E+02  0.45541214502E+02  0.00000000000E+00 0.  1.
         12    1    5    5    0    0  0.10890891722E+02  0.83683261891E+01  0.45942347760E+03  0.45962873297E+03  0.00000000000E+00 0. -1.
         13    1    3    3    0    0 -0.12551778398E+02  0.39358635162E+02 -0.35110777265E+03  0.35352979693E+03  0.00000000000E+00 0. -1.
        -14    1    3    3    0    0  0.21814319655E+02  0.27654339373E+02 -0.50832994874E+02  0.61843515391E+02  0.00000000000E+00 0.  1.
          5    1    4    4  501    0 -0.45969684946E+02 -0.59877350145E+02  0.11247782318E+02  0.76436208707E+02  0.41800000000E+01 0. -1.
         -5    1    4    4    0  501 -0.23406893209E+01 -0.12640982080E+02 -0.98075100765E+02  0.99002378984E+02  0.41800000000E+01 0. -1.
</event>
<event>
11    1  0.6763327E-009  0.2898713E+03  0.7561462E-02  0.1004571E+00
         22   -1    0    0    0    0  0.00000000000E+00  0.00000000000E+00  0.13469813698E+03  0.13469813698E+03  0.00000000000E+00 0. -1.
         22   -1    0    0    0    0 -0.00000000000E+00 -0.00000000000E+00 -0.21067689223E+04  0.21067689223E+04  0.00000000000E+00 0. -1.
         24    2    1    2    0    0 -0.26112336083E+03 -0.16610583766E+02 -0.15861191041E+04  0.16095324770E+04  0.79747481899E+02 0.  0.
         25    2    1    2    0    0  0.25592143106E+03  0.68969895315E+02 -0.43514944978E+03  0.52464780984E+03  0.12509058873E+03 0.  0.
        -24    2    1    2    0    0  0.52019297692E+01 -0.52359311549E+02  0.49197768607E+02  0.10728677245E+03  0.79507694772E+02 0.  0.
        -11    1    3    3    0    0 -0.19650342908E+03 -0.36860231301E+02 -0.10227811739E+04  0.10421389562E+04  0.00000000000E+00 0.  1.
         12    1    3    3    0    0 -0.64619931752E+02  0.20249647535E+02 -0.56333793024E+03  0.56739352080E+03  0.00000000000E+00 0. -1.
         13    1    5    5    0    0  0.13624219586E+02 -0.53758786402E+02  0.67339367956E+02  0.87236557426E+02  0.00000000000E+00 0. -1.
        -14    1    5    5    0    0 -0.84222898171E+01  0.13994748532E+01 -0.18141599349E+02  0.20050215026E+02  0.00000000000E+00 0.  1.
          5    1    4    4  501    0  0.21023062804E+03  0.22676419419E+02 -0.24509960190E+03  0.32373202532E+03  0.41800000000E+01 0.  1.
         -5    1    4    4    0  501  0.45690803020E+02  0.46293475896E+02 -0.19004984788E+03  0.20091578452E+03  0.41800000000E+01 0.  1.
</event>
<event>
11    1  0.6763327E-009  0.1269440E+03  0.7561462E-02  0.1123082E+00
         22   -1    0    0    0    0  0.00000000000E+00  0.00000000000E+00  0.67414426107E+03  0.67414426107E+03  0.00000000000E+00 0. -1.
         22   -1    0    0    0    0 -0.00000000000E+00 -0.00000000000E+00 -0.52651665769E+03  0.52651665769E+03  0.00000000000E+00 0. -1.
        -24    2    1    2    0    0  0.10464736313E+02  0.62277017094E+01 -0.48870036835E+03  0.49555904803E+03  0.81255308068E+02 0.  0.
         25    2    1    2    0    0 -0.30794970806E+02 -0.19484327087E+01  0.10164021727E+03  0.16410551499E+03  0.12509100554E+03 0.  0.
         24    2    1    2    0    0  0.20330234493E+02 -0.42792690007E+01  0.53468775446E+03  0.54099635574E+03  0.79714688619E+02 0.  0.
        -13    1    5    5    0    0 -0.20109799454E+02 -0.21657279313E+02  0.34523435826E+03  0.34649704747E+03  0.00000000000E+00 0.  1.
         14    1    5    5    0    0  0.40440033947E+02  0.17378010312E+02  0.18945339620E+03  0.19449930827E+03  0.00000000000E+00 0. -1.
         13    1    3    3    0    0  0.57860346760E+01  0.70161898689E+01 -0.49042599735E+03  0.49051030977E+03  0.00000000000E+00 0. -1.
        -14    1    3    3    0    0  0.46787016373E+01 -0.78848815954E+00  0.17256289998E+01  0.50487382615E+01  0.00000000000E+00 0.  1.
          5    1    4    4  501    0 -0.51231639312E+02 -0.37517815642E+02  0.11073939068E+02  0.64593899740E+02  0.41800000000E+01 0.  1.
         -5    1    4    4    0  501  0.20436668506E+02  0.35569382934E+02  0.90566278204E+02  0.99511615250E+02  0.41800000000E+01 0.  1.
</event>
<event>
11    1  0.6763327E-009  0.1478620E+03  0.7561462E-02  0.1099084E+00
         22   -1    0    0    0    0  0.00000000000E+00  0.00000000000E+00  0.22830996283E+04  0.22830996283E+04  0.00000000000E+00 0.  1.
         22   -1    0    0    0    0 -0.00000000000E+00 -0.00000000000E+00 -0.74007240157E+03  0.74007240157E+03  0.00000000000E+00 0.  1.
         24    2    1    2    0    0 -0.11456289050E+02  0.30055967863E+02 -0.72746686417E+03  0.73466493515E+03  0.97416224106E+02 0.  0.
         25    2    1    2    0    0  0.62591082209E+02 -0.80296440530E+02  0.94632585387E+03  0.95997131046E+03  0.12508850179E+03 0.  0.
        -24    2    1    2    0    0 -0.51134793159E+02  0.50240472667E+02  0.13241682371E+04  0.13285357843E+04  0.80292825976E+02 0.  0.
        -13    1    3    3    0    0 -0.45796999616E+01  0.64929138549E+02 -0.53482244987E+03  0.53876879974E+03  0.00000000000E+00 0.  1.
         14    1    3    3    0    0 -0.68765890886E+01 -0.34873170686E+02 -0.19264441430E+03  0.19589613542E+03  0.00000000000E+00 0. -1.
         13    1    5    5    0    0 -0.48150214573E+02  0.87179379527E+01  0.34169757526E+03  0.34518354327E+03  0.00000000000E+00 0. -1.
        -14    1    5    5    0    0 -0.29845785859E+01  0.41522534714E+02  0.98247066180E+03  0.98335224101E+03  0.00000000000E+00 0.  1.
          5    1    4    4  501    0 -0.20682151597E+02 -0.66609756270E+02  0.57059626392E+03  0.57485839981E+03  0.41800000000E+01 0. -1.
         -5    1    4    4    0  501  0.83273233807E+02 -0.13686684260E+02  0.37572958994E+03  0.38511291066E+03  0.41800000000E+01 0. -1.
</event>
<event>
11    1  0.6763327E-009  0.1507933E+03  0.7561462E-02  0.1096071E+00
         22   -1    0    0    0    0  0.00000000000E+00  0.00000000000E+00  0.29144916957E+04  0.29144916957E+04  0.00000000000E+00 0.  1.
         22   -1    0    0    0    0 -0.00000000000E+00 -0.00000000000E+00 -0.11082799511E+04  0.11082799511E+04  0.00000000000E+00 0.  1.
        -24    2    1    2    0    0  0.18961299434E+02 -0.45191655868E+02 -0.10874252881E+04  0.10915097033E+04  0.80609295127E+02 0.  0.
         25    2    1    2    0    0 -0.96031015830E+02  0.11283096305E+02  0.33897556201E+03  0.37403381076E+03  0.12509035011E+03 0.  0.
         24    2    1    2    0    0  0.77069716396E+02  0.33908559563E+02  0.25546614708E+04  0.25572281328E+04  0.77659264363E+02 0.  0.
        -11    1    5    5    0    0  0.60478566157E+02 -0.11795136646E+02  0.17617992644E+04  0.17628764648E+04  0.00000000000E+00 0.  1.
         12    1    5    5    0    0  0.16591150239E+02  0.45703696209E+02  0.79286220640E+03  0.79435166800E+03  0.00000000000E+00 0. -1.
         11    1    3    3    0    0 -0.24309402881E+02  0.69730558430E+01 -0.22237566653E+03  0.22380908748E+03  0.00000000000E+00 0. -1.
        -12    1    3    3    0    0  0.43270702315E+02 -0.52164711711E+02 -0.86504962157E+03  0.86770061577E+03  0.00000000000E+00 0.  1.
          5    1    4    4  501    0 -0.75389484005E+01  0.35741522557E+02  0.22323311058E+03  0.22624054950E+03  0.41800000000E+01 0.  1.
         -5    1    4    4    0  501 -0.88492067429E+02 -0.24458426252E+02  0.11574245143E+03  0.14779326127E+03  0.41800000000E+01 0.  1.
</event>
<event>
11    1  0.6763327E-009  0.1461851E+03  0.7561462E-02  0.1100842E+00
         22   -1    0    0    0    0  0.00000000000E+00  0.00000000000E+00  0.11092633815E+03  0.11092633815E+03  0.00000000000E+00 0. -1.
         22   -1    0    0    0    0 -0.00000000000E+00 -0.00000000000E+00 -0.16799027502E+04  0.16799027502E+04  0.00000000000E+00 0.  1.
        -24    2    1    2    0    0 -0.20016549450E+02 -0.60283615304E+01 -0.13455965174E+04  0.13481393072E+04  0.80078714631E+02 0.  0.
         25    2    1    2    0    0 -0.30400666073E+02  0.63639801164E+02 -0.28006309636E+03  0.31473057458E+03  0.12508305978E+03 0.  0.
         24    2    1    2    0    0  0.50417215523E+02 -0.57611439633E+02  0.56683201699E+02  0.12795920660E+03  0.85437694267E+02 0.  0.
        -13    1    5    5    0    0 -0.13204539877E+02 -0.48614376676E+02  0.22414064635E+02  0.55137172456E+02  0.00000000000E+00 0.  1.
         14    1    5    5    0    0  0.63621755400E+02 -0.89970629579E+01  0.34269137064E+02  0.72822034146E+02  0.00000000000E+00 0. -1.
         11    1    3    3    0    0  0.60417536053E+01  0.21901051241E+02 -0.10284249589E+04  0.10286758745E+04  0.00000000000E+00 0. -1.
        -12    1    3    3    0    0 -0.26058303055E+02 -0.27929412771E+02 -0.31717155850E+03  0.31946343262E+03  0.00000000000E+00 0.  1.
          5    1    4    4  501    0 -0.50996272751E+02  0.32904130769E+02 -0.26913764207E+03  0.27592724482E+03  0.41800000000E+01 0.  1.
         -5    1    4    4    0  501  0.20595606677E+02  0.30735670395E+02 -0.10925454291E+02  0.38803329761E+02  0.41800000000E+01 0.  1.
</event>
<event>
11    1  0.7478651E-009  0.1597089E+03  0.7561462E-02  0.1087351E+00
         22   -1    0    0    0    0  0.00000000000E+00  0.00000000000E+00  0.81407125753E+03  0.81407125753E+03  0.00000000000E+00 0. -1.
         22   -1    0    0    0    0 -0.00000000000E+00 -0.00000000000E+00 -0.15307842270E+04  0.15307842270E+04  0.00000000000E+00 0. -1.
         24    2    1    2    0    0  0.59746619123E+02 -0.82732970227E+02 -0.14056319000E+04  0.14117659987E+04  0.82872155592E+02 0.  0.
         25    2    1    2    0    0 -0.93212240069E+02 -0.47409784664E+01 -0.65211538135E+02  0.16915250198E+03  0.12509606567E+03 0.  0.
        -24    2    1    2    0    0  0.33465620946E+02  0.87473948693E+02  0.75413046860E+03  0.76393698384E+03  0.78200461137E+02 0.  0.
        -11    1    3    3    0    0 -0.13666346824E+02 -0.36120073418E+02 -0.26178414499E+03  0.26461739796E+03  0.00000000000E+00 0.  1.
         12    1    3    3    0    0  0.73412965947E+02 -0.46612896808E+02 -0.11438477550E+04  0.11471486008E+04  0.00000000000E+00 0. -1.
         13    1    5    5    0    0  0.31120105488E+02  0.10042410725E+03  0.59117735932E+03  0.60045327250E+03  0.00000000000E+00 0. -1.
        -14    1    5    5    0    0  0.23455154581E+01 -0.12950158560E+02  0.16295310928E+03  0.16348371134E+03  0.00000000000E+00 0.  1.
          5    1    4    4  501    0 -0.80218863242E+02 -0.59147331186E+02 -0.46122277631E+02  0.10990090855E+03  0.41800000000E+01 0.  1.
         -5    1    4    4    0  501 -0.12993376827E+02  0.54406352720E+02 -0.19089260504E+02  0.59251593432E+02  0.41800000000E+01 0.  1.
</event>
<event>
11    1  0.6763327E-009  0.1550009E+03  0.7561462E-02  0.1091876E+00
         22   -1    0    0    0    0  0.00000000000E+00  0.00000000000E+00  0.10532999280E+04  0.10532999280E+04  0.00000000000E+00 0.  1.
         22   -1    0    0    0    0 -0.00000000000E+00 -0.00000000000E+00 -0.12520235624E+04  0.12520235624E+04  0.00000000000E+00 0.  1.
        -24    2    1    2    0    0  0.28428467702E+01 -0.91128182680E+02 -0.12130632330E+04  0.12197692516E+04  0.89454974427E+02 0.  0.
         25    2    1    2    0    0  0.39449986661E+02  0.11776062392E+03  0.20331501448E+03  0.26908853466E+03  0.12509108034E+03 0.  0.
         24    2    1    2    0    0 -0.42292833431E+02 -0.26632441245E+02  0.81102458411E+03  0.81646570416E+03  0.79733301371E+02 0.  0.
        -13    1    5    5    0    0 -0.34565498600E+02  0.19761519337E+02  0.53351920572E+03  0.53500283571E+03  0.00000000000E+00 0.  1.
         14    1    5    5    0    0 -0.77273348315E+01 -0.46393960582E+02  0.27750537839E+03  0.28146286845E+03  0.00000000000E+00 0. -1.
         13    1    3    3    0    0  0.30435429173E+02 -0.74717646322E+02 -0.54543137234E+03  0.55136596192E+03  0.00000000000E+00 0. -1.
        -14    1    3    3    0    0 -0.27592582403E+02 -0.16410536358E+02 -0.66763186061E+03  0.66840328965E+03  0.00000000000E+00 0.  1.
          5    1    4    4  501    0  0.70456748983E+02  0.21421577349E+02  0.10149436555E+03  0.12546559724E+03  0.41800000000E+01 0. -1.
         -5    1    4    4    0  501 -0.31006762322E+02  0.96339046576E+02  0.10182064893E+03  0.14362293742E+03  0.41800000000E+01 0. -1.
</event>
<event>
11    1  0.6763327E-009  0.1487198E+03  0.7561462E-02  0.1098194E+00
         22   -1    0    0    0    0  0.00000000000E+00  0.00000000000E+00  0.21621258085E+03  0.21621258085E+03  0.00000000000E+00 0.  1.
         22   -1    0    0    0    0 -0.00000000000E+00 -0.00000000000E+00 -0.89873444580E+03  0.89873444580E+03  0.00000000000E+00 0. -1.
         24    2    1    2    0    0  0.40497834864E+01  0.24202225003E+02 -0.79540491931E+03  0.79999608170E+03  0.81991442395E+02 0.  0.
         25    2    1    2    0    0 -0.83505987521E+02 -0.16134613853E+02 -0.37671925065E+01  0.15131280805E+03  0.12509116046E+03 0.  0.
        -24    2    1    2    0    0  0.79456204035E+02 -0.80676111506E+01  0.11665024686E+03  0.16363813690E+03  0.82412286983E+02 0.  0.
        -11    1    3    3    0    0 -0.16435360088E+02  0.45611725164E+02 -0.31822332077E+03  0.32189537495E+03  0.00000000000E+00 0.  1.
         12    1    3    3    0    0  0.20485143574E+02 -0.21409500161E+02 -0.47718159854E+03  0.47810070674E+03  0.00000000000E+00 0. -1.
         13    1    5    5    0    0  0.64302857552E+02  0.73436054580E+01  0.24849371798E+02  0.69327320078E+02  0.00000000000E+00 0. -1.
        -14    1    5    5    0    0  0.15153346483E+02 -0.15411216609E+02  0.91800875065E+02  0.94310816822E+02  0.00000000000E+00 0.  1.
          5    1    4    4  501    0 -0.70590703659E+02  0.29718384904E+02  0.39981486973E+02  0.86499835520E+02  0.41800000000E+01 0. -1.
         -5    1    4    4    0  501 -0.12915283862E+02 -0.45852998756E+02 -0.43748679480E+02  0.64812972532E+02  0.41800000000E+01 0. -1.
</event>
<event>
11    1  0.6763327E-009  0.1907305E+03  0.7561462E-02  0.1061279E+00
         22   -1    0    0    0    0  0.00000000000E+00  0.00000000000E+00  0.12240288156E+04  0.12240288156E+04  0.00000000000E+00 0. -1.
         22   -1    0    0    0    0 -0.00000000000E+00 -0.00000000000E+00 -0.17897583984E+03  0.17897583984E+03  0.00000000000E+00 0.  1.
         24    2    1    2    0    0  0.95495588106E+02  0.28793839082E+02 -0.89804675947E+02  0.15606581801E+03  0.79644002988E+02 0.  0.
         25    2    1    2    0    0 -0.16020170881E+03 -0.14533232811E+03  0.27760932428E+03  0.37349731944E+03  0.12508891880E+03 0.  0.
        -24    2    1    2    0    0  0.64706120702E+02  0.11653848902E+03  0.85724832746E+03  0.87344151801E+03  0.10127827496E+03 0.  0.
        -13    1    3    3    0    0  0.81247919104E+02  0.44016974604E+02 -0.97037762617E+02  0.13399643945E+03  0.00000000000E+00 0.  1.
         14    1    3    3    0    0  0.14247669002E+02 -0.15223135522E+02  0.72330866699E+01  0.22069378557E+02  0.00000000000E+00 0. -1.
         13    1    5    5    0    0 -0.51758949365E+01  0.38893716019E+02  0.49162209642E+03  0.49318535737E+03  0.00000000000E+00 0. -1.
        -14    1    5    5    0    0  0.69882015638E+02  0.77644773006E+02  0.36562623103E+03  0.38025616064E+03  0.00000000000E+00 0.  1.
          5    1    4    4  501    0 -0.11340400713E+01 -0.55176571834E+02  0.22824409454E+02  0.59867906203E+02  0.41800000000E+01 0. -1.
         -5    1    4    4    0  501 -0.15906766874E+03 -0.90155756272E+02  0.25478491483E+03  0.31362941324E+03  0.41800000000E+01 0. -1.
</event>
<event>
11    1  0.6763327E-009  0.1893945E+03  0.7561462E-02  0.1062287E+00
         22   -1    0    0    0    0  0.00000000000E+00  0.00000000000E+00  0.21759603814E+04  0.21759603814E+04  0.00000000000E+00 0.  1.
         22   -1    0    0    0    0 -0.00000000000E+00 -0.00000000000E+00 -0.37320132169E+04  0.37320132169E+04  0.00000000000E+00 0.  1.
        -24    2    1    2    0    0 -0.14045446599E+03 -0.25569844077E+02 -0.36972468520E+04  0.37008950268E+04  0.81292313112E+02 0.  0.
         25    2    1    2    0    0  0.81136821082E+02 -0.90735733200E+02  0.22672092434E+03  0.28612303103E+03  0.12509138395E+03 0.  0.
         24    2    1    2    0    0  0.59317644912E+02  0.11630557728E+03  0.19144730922E+04  0.19209555405E+04  0.88416048356E+02 0.  0.
        -13    1    5    5    0    0  0.84917237889E+01  0.97712334836E+02  0.14558817129E+04  0.14591817473E+04  0.00000000000E+00 0.  1.
         14    1    5    5    0    0  0.50825921123E+02  0.18593242441E+02  0.45859137931E+03  0.46177379322E+03  0.00000000000E+00 0. -1.
         13    1    3    3    0    0 -0.55213268787E+02  0.79098280967E+01 -0.68881400700E+03  0.69106859766E+03  0.00000000000E+00 0. -1.
        -14    1    3    3    0    0 -0.85241197207E+02 -0.33479672174E+02 -0.30084328450E+04  0.30098264291E+04  0.00000000000E+00 0.  1.
          5    1    4    4  501    0  0.64832715253E+02 -0.79548785603E+02  0.61586849154E+02  0.11975684802E+03  0.41800000000E+01 0. -1.
         -5    1    4    4    0  501  0.16304105829E+02 -0.11186947596E+02  0.16513407519E+03  0.16636618301E+03  0.41800000000E+01 0. -1.
</event>
<event>
11    1  0.6763327E-009  0.1450029E+03  0.7561462E-02  0.1102097E+00
         22   -1    0    0    0    0  0.00000000000E+00  0.00000000000E+00  0.18269841717E+03  0.18269841717E+03  0.00000000000E+00 0. -1.
         22   -1    0    0    0    0 -0.00000000000E+00 -0.00000000000E+00 -0.24839587718E+03  0.24839587718E+03  0.00000000000E+00 0. -1.
        -24    2    1    2    0    0  0.12152974661E+03 -0.47277608160E+02 -0.54450341006E+01  0.15530643151E+03  0.84177121163E+02 0.  0.
         25    2    1    2    0    0 -0.45693679307E+02 -0.10675425345E+02 -0.66629679023E+02  0.14929823991E+03  0.12509425757E+03 0.  0.
         24    2    1    2    0    0 -0.75836067306E+02  0.57953033506E+02  0.63772531106E+01  0.12648962293E+03  0.82760450432E+02 0.  0.
        -11    1    5    5    0    0  0.12970537378E+02  0.15374813188E+02 -0.15750885972E+02  0.25548192291E+02  0.00000000000E+00 0.  1.
         12    1    5    5    0    0 -0.88806604684E+02  0.42578220317E+02  0.22128139082E+02  0.10094143064E+03  0.00000000000E+00 0. -1.
         13    1    3    3    0    0  0.53964318957E+01 -0.36991079707E+02 -0.97699972873E+01  0.38638249211E+02  0.00000000000E+00 0. -1.
        -14    1    3    3    0    0  0.11613331472E+03 -0.10286528454E+02  0.43249631867E+01  0.11666818230E+03  0.00000000000E+00 0.  1.
          5    1    4    4  501    0 -0.39452930234E+02  0.54205687741E+02 -0.24139610585E+02  0.71379153026E+02  0.41800000000E+01 0.  1.
         -5    1    4    4    0  501 -0.62407490734E+01 -0.64881113086E+02 -0.42490068438E+02  0.77919086880E+02  0.41800000000E+01 0.  1.
</event>
<event>
11    1  0.6763327E-009  0.1902801E+03  0.7561462E-02  0.1061618E+00
         22   -1    0    0    0    0  0.00000000000E+00  0.00000000000E+00  0.15081656483E+03  0.15081656483E+03  0.00000000000E+00 0. -1.
         22   -1    0    0    0    0 -0.00000000000E+00 -0.00000000000E+00 -0.12236585049E+04  0.12236585049E+04  0.00000000000E+00 0. -1.
         24    2    1    2    0    0  0.24987641675E+02 -0.21209725562E+02 -0.87283477064E+03  0.87722167174E+03  0.81259398395E+02 0.  0.
         25    2    1    2    0    0  0.53976695028E+02  0.13999729752E+03 -0.25754048659E+03  0.32324604278E+03  0.12509266574E+03 0.  0.
        -24    2    1    2    0    0 -0.78964336703E+02 -0.11878757195E+03  0.57533317134E+02  0.17400735524E+03  0.81379502193E+02 0.  0.
        -13    1    3    3    0    0  0.38821888939E+02 -0.19445117176E+02 -0.22030960400E+03  0.22454748553E+03  0.00000000000E+00 0.  1.
         14    1    3    3    0    0 -0.13834247265E+02 -0.17646083861E+01 -0.65252516665E+03  0.65267418621E+03  0.00000000000E+00 0. -1.
         11    1    5    5    0    0 -0.11781732736E+02 -0.76489892203E+02  0.25436012404E+01  0.77433731298E+02  0.00000000000E+00 0. -1.
        -12    1    5    5    0    0 -0.67182603967E+02 -0.42297679751E+02  0.54989715893E+02  0.96573623946E+02  0.00000000000E+00 0.  1.
          5    1    4    4  501    0  0.34798485133E+02  0.68914289383E+02 -0.28127760385E+02  0.82272456831E+02  0.41800000000E+01 0. -1.
         -5    1    4    4    0  501  0.19178209895E+02  0.71083008133E+02 -0.22941272620E+03  0.24097358595E+03  0.41800000000E+01 0. -1.
</event>
<event>
11    1  0.6763327E-009  0.1260661E+03  0.7561462E-02  0.1124199E+00
         22   -1    0    0    0    0  0.00000000000E+00  0.00000000000E+00  0.45688639777E+03  0.45688639777E+03  0.00000000000E+00 0. -1.
         22   -1    0    0    0    0 -0.00000000000E+00 -0.00000000000E+00 -0.53557369096E+03  0.53557369096E+03  0.00000000000E+00 0.  1.
         24    2    1    2    0    0 -0.10499156926E+02  0.20352542540E+02 -0.49274851908E+03  0.49876824079E+03  0.73784799769E+02 0.  0.
         25    2    1    2    0    0  0.24845139868E+02 -0.19185804840E+02  0.83862499277E+02  0.15383532319E+03  0.12508801619E+03 0.  0.
        -24    2    1    2    0    0 -0.14345982942E+02 -0.11667376998E+01  0.33019872662E+03  0.33985652474E+03  0.79146003356E+02 0.  0.
        -11    1    3    3    0    0 -0.28025207849E+02  0.17156504938E+02 -0.46248203395E+03  0.46364791563E+03  0.00000000000E+00 0.  1.
         12    1    3    3    0    0  0.17526050922E+02  0.31960376018E+01 -0.30266485129E+02  0.35120325160E+02  0.00000000000E+00 0. -1.
         11    1    5    5    0    0 -0.24318366140E+02 -0.23524348284E+02  0.29527428636E+03  0.29720646372E+03  0.00000000000E+00 0. -1.
        -12    1    5    5    0    0  0.99723831987E+01  0.22357610584E+02  0.34924440261E+02  0.42650061022E+02  0.00000000000E+00 0.  1.
          5    1    4    4  501    0  0.31606023559E+02 -0.19748805406E+02  0.11538223509E+03  0.12132389960E+03  0.41800000000E+01 0. -1.
         -5    1    4    4    0  501 -0.67608836911E+01  0.56300056659E+00 -0.31519735816E+02  0.32511423590E+02  0.41800000000E+01 0. -1.
</event>
<event>
11    1  0.6763327E-009  0.1706412E+03  0.7561462E-02  0.1077475E+00
         22   -1    0    0    0    0  0.00000000000E+00  0.00000000000E+00  0.43682962309E+03  0.43682962309E+03  0.00000000000E+00 0.  1.
         22   -1    0    0    0    0 -0.00000000000E+00 -0.00000000000E+00 -0.26109325383E+03  0.26109325383E+03  0.00000000000E+00 0.  1.
        -24    2    1    2    0    0  0.34464850879E+02 -0.35147627887E+02 -0.15283038338E+03  0.17935203680E+03  0.79917741018E+02 0.  0.
         25    2    1    2    0    0 -0.81245912469E+02 -0.74096406384E+02  0.72076555222E+01  0.16670791095E+03  0.12509357115E+03 0.  0.
         24    2    1    2    0    0  0.46781061591E+02  0.10924403427E+03  0.32135909711E+03  0.35186292917E+03  0.80081988477E+02 0.  0.
        -13    1    5    5    0    0  0.57539856605E+02  0.10446071131E+03  0.31798697108E+03  0.33961535460E+03  0.00000000000E+00 0.  1.
         14    1    5    5    0    0 -0.10758795014E+02  0.47833229570E+01  0.33721260291E+01  0.12247574561E+02  0.00000000000E+00 0. -1.
         11    1    3    3    0    0  0.43211972336E+02 -0.30593445969E+02 -0.40680174132E+02  0.66769080096E+02  0.00000000000E+00 0. -1.
        -12    1    3    3    0    0 -0.87471214575E+01 -0.45541819181E+01 -0.11215020925E+03  0.11258295671E+03  0.00000000000E+00 0.  1.
          5    1    4    4  501    0  0.32183776380E+02 -0.51531933654E+01  0.83261440354E+01  0.33899084625E+02  0.41800000000E+01 0. -1.
         -5    1    4    4    0  501 -0.11342968885E+03 -0.68943213019E+02 -0.11184885132E+01  0.13280882633E+03  0.41800000000E+01 0. -1.
</event>
<event>
11    1  0.6763327E-009  0.1342175E+03  0.7561462E-02  0.1114193E+00
         22   -1    0    0    0    0  0.00000000000E+00  0.00000000000E+00  0.23101209125E+04  0.23101209125E+04  0.00000000000E+00 0. -1.
         22   -1    0    0    0    0 -0.00000000000E+00 -0.00000000000E+00 -0.25241049257E+02  0.25241049257E+02  0.00000000000E+00 0. -1.
        -24    2    1    2    0    0 -0.25228047427E+02 -0.39294137697E+02  0.10070624227E+03  0.13900125565E+03  0.83660732770E+02 0.  0.
         25    2    1    2    0    0  0.32879754222E+02  0.57547480057E+02  0.10740405041E+04  0.10833299005E+04  0.12509147926E+03 0.  0.
         24    2    1    2    0    0 -0.76517067948E+01 -0.18253342360E+02  0.11101331168E+04  0.11130308055E+04  0.77783699455E+02 0.  0.
        -13    1    5    5    0    0 -0.75092660751E+01  0.30087139516E+02  0.51823667061E+03  0.51916362720E+03  0.00000000000E+00 0.  1.
         14    1    5    5    0    0 -0.14244071968E+00 -0.48340481876E+02  0.59189644621E+03  0.59386717834E+03  0.00000000000E+00 0. -1.
         13    1    3    3    0    0 -0.25488006738E+02 -0.57518955499E+01 -0.62857330375E+01  0.26874397290E+02  0.00000000000E+00 0. -1.
        -14    1    3    3    0    0  0.25995931049E+00 -0.33542242147E+02  0.10699197530E+03  0.11212685836E+03  0.00000000000E+00 0.  1.
          5    1    4    4  501    0 -0.16159176100E+02 -0.83288358230E+01  0.25630117621E+02  0.31699586869E+02  0.41800000000E+01 0. -1.
         -5    1    4    4    0  501  0.49038930322E+02  0.65876315880E+02  0.10484103865E+04  0.10516303137E+04  0.41800000000E+01 0. -1.
</event>
<event>
11    1  0.6763327E-009  0.1658812E+03  0.7561462E-02  0.1081673E+00
         22   -1    0    0    0    0  0.00000000000E+00  0.00000000000E+00  0.11071507246E+03  0.11071507246E+03  0.00000000000E+00 0. -1.
         22   -1    0    0    0    0 -0.00000000000E+00 -0.00000000000E+00 -0.14138050214E+04  0.14138050214E+04  0.00000000000E+00 0. -1.
         24    2    1    2    0    0  0.79817021768E+02  0.81356802702E+02 -0.11300000165E+04  0.11386935366E+04  0.82056363673E+02 0.  0.
         25    2    1    2    0    0 -0.51465109429E+02 -0.66201550394E+02 -0.23432198930E+03  0.27854234630E+03  0.12509093193E+03 0.  0.
        -24    2    1    2    0    0 -0.28351912338E+02 -0.15155252308E+02  0.61232056800E+02  0.10728421096E+03  0.82018440222E+02 0.  0.
        -11    1    3    3    0    0  0.23966189310E+02  0.21908246688E+02 -0.93287548494E+02  0.98777103658E+02  0.00000000000E+00 0.  1.
         12    1    3    3    0    0  0.55850832458E+02  0.59448556014E+02 -0.10367124680E+04  0.10399164330E+04  0.00000000000E+00 0. -1.
         11    1    5    5    0    0  0.29934249551E+01  0.85343798349E+01  0.66969285999E+02  0.67577226189E+02  0.00000000000E+00 0. -1.
        -12    1    5    5    0    0 -0.31345337293E+02 -0.23689632143E+02 -0.57372291991E+01  0.39706984776E+02  0.00000000000E+00 0.  1.
          5    1    4    4  501    0 -0.46780801447E+02 -0.10300093259E+03 -0.17958080071E+03  0.21228370612E+03  0.41800000000E+01 0. -1.
         -5    1    4    4    0  501 -0.46843079826E+01  0.36799382194E+02 -0.54741188582E+02  0.66258640180E+02  0.41800000000E+01 0. -1.
</event>
<event>
11    1  0.6763327E-009  0.1332121E+03  0.7561462E-02  0.1115384E+00
         22   -1    0    0    0    0  0.00000000000E+00  0.00000000000E+00  0.48012040165E+03  0.48012040165E+03  0.00000000000E+00 0. -1.
         22   -1    0    0    0    0 -0.00000000000E+00 -0.00000000000E+00 -0.31643989731E+04  0.31643989731E+04  0.00000000000E+00 0. -1.
         24    2    1    2    0    0 -0.33582957656E+02 -0.35747155814E+02 -0.24930852032E+04  0.24957453350E+04  0.10423661999E+03 0.  0.
         25    2    1    2    0    0  0.89290452435E+01  0.32696665834E+02 -0.66005578620E+03  0.67265896830E+03  0.12509055491E+03 0.  0.
        -24    2    1    2    0    0  0.24653912412E+02  0.30504899797E+01  0.46886241792E+03  0.47611507140E+03  0.78971345346E+02 0.  0.
        -11    1    3    3    0    0  0.19764647910E+02  0.25752180484E+02 -0.55219495681E+03  0.55314834035E+03  0.00000000000E+00 0.  1.
         12    1    3    3    0    0 -0.53347605566E+02 -0.61499336298E+02 -0.19408902463E+04  0.19425969947E+04  0.00000000000E+00 0. -1.
         11    1    5    5    0    0 -0.13035707704E+02  0.30298295124E+02  0.26326266889E+03  0.26532084199E+03  0.00000000000E+00 0. -1.
        -12    1    5    5    0    0  0.37689620117E+02 -0.27247805144E+02  0.20559974903E+03  0.21079422940E+03  0.00000000000E+00 0.  1.
          5    1    4    4  501    0  0.27399254640E+02  0.33107826115E+02 -0.64957985655E+03  0.65101329460E+03  0.41800000000E+01 0.  1.
         -5    1    4    4    0  501 -0.18470209396E+02 -0.41116028071E+00 -0.10475929651E+02  0.21645673701E+02  0.41800000000E+01 0.  1.
</event>
<event>
11    1  0.6763327E-009  0.2435363E+03  0.7561462E-02  0.1027400E+00
         22   -1    0    0    0    0  0.00000000000E+00  0.00000000000E+00  0.18044133259E+03  0.18044133259E+03  0.00000000000E+00 0. -1.
         22   -1    0    0    0    0 -0.00000000000E+00 -0.00000000000E+00 -0.53546584396E+03  0.53546584396E+03  0.00000000000E+00 0.  1.
        -24    2    1    2    0    0 -0.11711918473E+03 -0.19854380026E+03 -0.30132529132E+03  0.38789728918E+03  0.80813561473E+02 0.  0.
         25    2    1    2    0    0  0.65462656178E+02  0.15867179495E+03 -0.68440036138E+02  0.22314516393E+03  0.12509047835E+03 0.  0.
         24    2    1    2    0    0  0.51656528549E+02  0.39872005312E+02  0.14740816087E+02  0.10486472343E+03  0.80753605569E+02 0.  0.
        -11    1    5    5    0    0 -0.18346348974E+02  0.42546107338E+01  0.18274748961E+02  0.26242269010E+02  0.00000000000E+00 0.  1.
         12    1    5    5    0    0  0.70002877522E+02  0.35617394579E+02 -0.35339328747E+01  0.78622454423E+02  0.00000000000E+00 0. -1.
         11    1    3    3    0    0 -0.99759640937E+02 -0.10455770129E+03 -0.14533192491E+03  0.20495284154E+03  0.00000000000E+00 0. -1.
        -12    1    3    3    0    0 -0.17359543790E+02 -0.93986098973E+02 -0.15599336641E+03  0.18294444764E+03  0.00000000000E+00 0.  1.
          5    1    4    4  501    0  0.16604945678E+02 -0.15875292282E+02  0.10249972739E+02  0.25500656211E+02  0.41800000000E+01 0.  1.
         -5    1    4    4    0  501  0.48857710500E+02  0.17454708723E+03 -0.78690008877E+02  0.19764450772E+03  0.41800000000E+01 0.  1.
</event>
<event>
11    1  0.6763327E-009  0.1447047E+03  0.7561462E-02  0.1102416E+00
         22   -1    0    0    0    0  0.00000000000E+00  0.00000000000E+00  0.83526303755E+03  0.83526303755E+03  0.00000000000E+00 0. -1.
         22   -1    0    0    0    0 -0.00000000000E+00 -0.00000000000E+00 -0.30517354567E+03  0.30517354567E+03  0.00000000000E+00 0.  1.
        -24    2    1    2    0    0 -0.42557621647E+00 -0.73151613364E+02 -0.13889625525E+03  0.17709950408E+03  0.81980027879E+02 0.  0.
         25    2    1    2    0    0  0.61267343641E+02  0.63173986712E+02 -0.10326515356E+03  0.18454812307E+03  0.12509867223E+03 0.  0.
         24    2    1    2    0    0 -0.60841767425E+02  0.99776266522E+01  0.77225090069E+03  0.77878895607E+03  0.79621044886E+02 0.  0.
        -13    1    5    5    0    0 -0.54185265628E+02 -0.14122728795E+02  0.26157504773E+03  0.26750140201E+03  0.00000000000E+00 0.  1.
         14    1    5    5    0    0 -0.66565017967E+01  0.24100355447E+02  0.51067585296E+03  0.51128755406E+03  0.00000000000E+00 0. -1.
         11    1    3    3    0    0 -0.11362789369E+02  0.13547372431E+02 -0.47337319417E+02  0.50531832459E+02  0.00000000000E+00 0. -1.
        -12    1    3    3    0    0  0.10937213152E+02 -0.86698985795E+02 -0.91558935832E+02  0.12656767162E+03  0.00000000000E+00 0.  1.
          5    1    4    4  501    0  0.14834207303E+02 -0.37680359678E+02 -0.37996945122E+02  0.55687552024E+02  0.41800000000E+01 0.  1.
         -5    1    4    4    0  501  0.46433136338E+02  0.10085434639E+03 -0.65268208441E+02  0.12886057104E+03  0.41800000000E+01 0.  1.
</event>
<event>
11    1  0.6763327E-009  0.1282386E+03  0.7561462E-02  0.1121452E+00
         22   -1    0    0    0    0  0.00000000000E+00  0.00000000000E+00  0.62361349834E+03  0.62361349834E+03  0.00000000000E+00 0.  1.
         22   -1    0    0    0    0 -0.00000000000E+00 -0.00000000000E+00 -0.23084207509E+03  0.23084207509E+03  0.00000000000E+00 0.  1.
         24    2    1    2    0    0  0.28214215457E+02  0.35214797817E+01 -0.18790384049E+03  0.20566738381E+03  0.78630634730E+02 0.  0.
         25    2    1    2    0    0 -0.28906233665E+02  0.89489641576E+01  0.10558968018E+03  0.16644500006E+03  0.12505639999E+03 0.  0.
        -24    2    1    2    0    0  0.69201820807E+00 -0.12470443939E+02  0.47508558355E+03  0.48234318957E+03  0.82417534309E+02 0.  0.
        -13    1    3    3    0    0 -0.84665744623E+00 -0.18089220625E+02 -0.15705102836E+03  0.15809162609E+03  0.00000000000E+00 0.  1.
         14    1    3    3    0    0  0.29060872903E+02  0.21610700407E+02 -0.30852812131E+02  0.47575757717E+02  0.00000000000E+00 0. -1.
         11    1    5    5    0    0  0.32917564610E+02 -0.30336645713E+02  0.21073890642E+03  0.21544086152E+03  0.00000000000E+00 0. -1.
        -12    1    5    5    0    0 -0.32225546402E+02  0.17866201774E+02  0.26434667713E+03  0.26690232805E+03  0.00000000000E+00 0.  1.
          5    1    4    4  501    0 -0.54926510847E+02 -0.22419754801E+02  0.11019244730E+03  0.12521747019E+03  0.41800000000E+01 0.  1.
         -5    1    4    4    0  501  0.26020277182E+02  0.31368718959E+02 -0.46027671193E+01  0.41227529867E+02  0.41800000000E+01 0.  1.
</event>
<event>
11    1  0.6763327E-009  0.1402282E+03  0.7561462E-02  0.1107304E+00
         22   -1    0    0    0    0  0.00000000000E+00  0.00000000000E+00  0.21304455982E+04  0.21304455982E+04  0.00000000000E+00 0.  1.
         22   -1    0    0    0    0 -0.00000000000E+00 -0.00000000000E+00 -0.65582355052E+02  0.65582355052E+02  0.00000000000E+00 0. -1.
        -24    2    1    2    0    0  0.26400838854E+02 -0.34520346427E+02  0.12500089552E+02  0.92119874543E+02  0.80256840439E+02 0.  0.
         25    2    1    2    0    0 -0.55537546757E+02  0.88214036081E+02  0.24725706516E+03  0.29605644680E+03  0.12508888104E+03 0.  0.
         24    2    1    2    0    0  0.29136707904E+02 -0.53693689655E+02  0.18051060884E+04  0.18078516319E+04  0.78661123942E+02 0.  0.
        -11    1    5    5    0    0  0.35984848275E+02 -0.35888867689E+02  0.49412422570E+03  0.49673098409E+03  0.00000000000E+00 0.  1.
         12    1    5    5    0    0 -0.68481403710E+01 -0.17804821965E+02  0.13109818627E+04  0.13111206478E+04  0.00000000000E+00 0. -1.
         13    1    3    3    0    0 -0.24006395433E+02  0.80101072354E+01  0.40089268888E+01  0.25623043035E+02  0.00000000000E+00 0. -1.
        -14    1    3    3    0    0  0.50407234287E+02 -0.42530453662E+02  0.84911626634E+01  0.66496831507E+02  0.00000000000E+00 0.  1.
          5    1    4    4  501    0 -0.59867816652E+02  0.67068756457E+01  0.18111374806E+03  0.19091568765E+03  0.41800000000E+01 0.  1.
         -5    1    4    4    0  501  0.43302698946E+01  0.81507160436E+02  0.66143317095E+02  0.10514075916E+03  0.41800000000E+01 0.  1.
</event>
<event>
11    1  0.6763327E-009  0.1534084E+03  0.7561462E-02  0.1093446E+00
         22   -1    0    0    0    0  0.00000000000E+00  0.00000000000E+00  0.31785986809E+03  0.31785986809E+03  0.00000000000E+00 0.  1.
         22   -1    0    0    0    0 -0.00000000000E+00 -0.00000000000E+00 -0.12734724482E+04  0.12734724482E+04  0.00000000000E+00 0. -1.
        -24    2    1    2    0    0 -0.36361055530E+02  0.15745263079E+02 -0.11306307153E+04  0.11352581077E+04  0.94419897331E+02 0.  0.
         25    2    1    2    0    0  0.10773828831E+03 -0.61967426600E+02 -0.65751893900E+02  0.18819703700E+03  0.12508921799E+03 0.  0.
         24    2    1    2    0    0 -0.71377232776E+02  0.46222163520E+02  0.24077002907E+03  0.26787717163E+03  0.80973911966E+02 0.  0.
        -11    1    5    5    0    0 -0.72474422183E+02  0.53324765174E+02  0.24395258321E+03  0.26001718271E+03  0.00000000000E+00 0.  1.
         12    1    5    5    0    0  0.10971894075E+01 -0.71026016536E+01 -0.31825541376E+01  0.78599889112E+01  0.00000000000E+00 0. -1.
         13    1    3    3    0    0 -0.53961357741E+02  0.32980554168E+02 -0.10181162962E+04  0.10200785939E+04  0.00000000000E+00 0. -1.
        -14    1    3    3    0    0  0.17600302211E+02 -0.17235291089E+02 -0.11251441907E+03  0.11517951379E+03  0.00000000000E+00 0.  1.
          5    1    4    4  501    0 -0.99414544051E+00 -0.67256062871E+02 -0.24609738782E+02  0.71745926441E+02  0.41800000000E+01 0.  1.
         -5    1    4    4    0  501  0.10873243375E+03  0.52886362710E+01 -0.41142155118E+02  0.11645111056E+03  0.41800000000E+01 0.  1.
</event>
<event>
11    1  0.6763327E-009  0.1410186E+03  0.7561462E-02  0.1106426E+00
         22   -1    0    0    0    0  0.00000000000E+00  0.00000000000E+00  0.91998535066E+03  0.91998535066E+03  0.00000000000E+00 0.  1.
         22   -1    0    0    0    0 -0.00000000000E+00 -0.00000000000E+00 -0.25219815862E+04  0.25219815862E+04  0.00000000000E+00 0.  1.
        -24    2    1    2    0    0 -0.92617556822E+01 -0.65967229000E+02 -0.23846035634E+04  0.23869092169E+04  0.81018514783E+02 0.  0.
         25    2    1    2    0    0  0.24021055086E+02  0.20665498021E+02 -0.10262931650E+03  0.16488305861E+03  0.12509825145E+03 0.  0.
         24    2    1    2    0    0 -0.14759299404E+02  0.45301730979E+02  0.88523664431E+03  0.89017466139E+03  0.80603521029E+02 0.  0.
        -11    1    5    5    0    0 -0.13429377231E+02  0.59104231690E+02  0.85211036758E+03  0.85426327143E+03  0.00000000000E+00 0.  1.
         12    1    5    5    0    0 -0.13299221729E+01 -0.13802500711E+02  0.33126276733E+02  0.35911389963E+02  0.00000000000E+00 0. -1.
         13    1    3    3    0    0 -0.17243624582E+02  0.14753536532E+02 -0.67689162764E+03  0.67727194316E+03  0.00000000000E+00 0. -1.
        -14    1    3    3    0    0  0.79818689003E+01 -0.80720765532E+02 -0.17077119357E+04  0.17096372737E+04  0.00000000000E+00 0.  1.
          5    1    4    4  501    0  0.18544435935E+02  0.32329468992E+02 -0.12948345146E+03  0.13480551648E+03  0.41800000000E+01 0.  1.
         -5    1    4    4    0  501  0.54766191518E+01 -0.11663970971E+02  0.26854134964E+02  0.30077542134E+02  0.41800000000E+01 0.  1.
</event>
<event>
11    1  0.6763327E-009  0.2491677E+03  0.7561462E-02  0.1024344E+00
         22   -1    0    0    0    0  0.00000000000E+00  0.00000000000E+00  0.32559162536E+03  0.32559162536E+03  0.00000000000E+00 0. -1.
         22   -1    0    0    0    0 -0.00000000000E+00 -0.00000000000E+00 -0.80365467389E+03  0.80365467389E+03  0.00000000000E+00 0. -1.
        -24    2    1    2    0    0 -0.31739922360E+02  0.21065482157E+03 -0.65248343229E+03  0.69101802896E+03  0.79927532332E+02 0.  0.
         25    2    1    2    0    0  0.15253463785E+02 -0.23433829866E+03  0.24361843238E+02  0.26718576419E+03  0.12509047447E+03 0.  0.
         24    2    1    2    0    0  0.16486458575E+02  0.23683477097E+02  0.15005854052E+03  0.17104250610E+03  0.76845708436E+02 0.  0.
        -13    1    5    5    0    0  0.98327771532E+01  0.46199692245E+02  0.52163653369E+02  0.70371455882E+02  0.00000000000E+00 0.  1.
         14    1    5    5    0    0  0.66536814221E+01 -0.22516215149E+02  0.97894887151E+02  0.10067105021E+03  0.00000000000E+00 0. -1.
         13    1    3    3    0    0 -0.53611199662E+02  0.15456555111E+03 -0.41655320756E+03  0.44752792656E+03  0.00000000000E+00 0. -1.
        -14    1    3    3    0    0  0.21871277302E+02  0.56089270455E+02 -0.23593022473E+03  0.24349010241E+03  0.00000000000E+00 0.  1.
          5    1    4    4  501    0  0.43272087037E+02 -0.89144090235E+02  0.58797637770E+02  0.11529864244E+03  0.41800000000E+01 0. -1.
         -5    1    4    4    0  501 -0.28018623252E+02 -0.14519420843E+03 -0.34435794532E+02  0.15188712175E+03  0.41800000000E+01 0. -1.
</event>
<event>
11    1  0.6763327E-009  0.1278295E+03  0.7561462E-02  0.1121965E+00
         22   -1    0    0    0    0  0.00000000000E+00  0.00000000000E+00  0.62144001400E+03  0.62144001400E+03  0.00000000000E+00 0. -1.
         22   -1    0    0    0    0 -0.00000000000E+00 -0.00000000000E+00 -0.63738827266E+03  0.63738827266E+03  0.00000000000E+00 0. -1.
         24    2    1    2    0    0  0.93427612737E+01  0.24022272279E+02 -0.54902052040E+03  0.55538821282E+03  0.79800866972E+02 0.  0.
         25    2    1    2    0    0 -0.25711605570E+02 -0.27809840326E+02 -0.30250581865E+02  0.13415100568E+03  0.12508765223E+03 0.  0.
        -24    2    1    2    0    0  0.16368844296E+02  0.37875680475E+01  0.56332284361E+03  0.56928906816E+03  0.80468206514E+02 0.  0.
        -11    1    3    3    0    0  0.20454949162E+02  0.51742779900E+01 -0.34760070007E+02  0.40662520394E+02  0.00000000000E+00 0.  1.
         12    1    3    3    0    0 -0.11112187888E+02  0.18847994289E+02 -0.51426045039E+03  0.51472569243E+03  0.00000000000E+00 0. -1.
         11    1    5    5    0    0  0.27781337020E+02 -0.32506920577E+02  0.34969072552E+03  0.35229548122E+03  0.00000000000E+00 0. -1.
        -12    1    5    5    0    0 -0.11412492724E+02  0.36294488625E+02  0.21363211809E+03  0.21699358694E+03  0.00000000000E+00 0.  1.
          5    1    4    4  501    0  0.36314430146E+02 -0.39333553729E+01 -0.52363540529E+02  0.63981418381E+02  0.41800000000E+01 0. -1.
         -5    1    4    4    0  501 -0.62026035716E+02 -0.23876484953E+02  0.22112958664E+02  0.70169587295E+02  0.41800000000E+01 0. -1.
</event>
<event>
11    1  0.6763327E-009  0.1517566E+03  0.7561462E-02  0.1095097E+00
         22   -1    0    0    0    0  0.00000000000E+00  0.00000000000E+00  0.21425667174E+04  0.21425667174E+04  0.00000000000E+00 0.  1.
         22   -1    0    0    0    0 -0.00000000000E+00 -0.00000000000E+00 -0.86679128610E+02  0.86679128610E+02  0.00000000000E+00 0.  1.
        -24    2    1    2    0    0  0.24580474278E+02  0.79991294380E+02 -0.24142181627E+02  0.12742057301E+03  0.93007261007E+02 0.  0.
         25    2    1    2    0    0 -0.42726118968E+02 -0.11366006847E+03  0.80409832081E+03  0.82277913334E+03  0.12508900961E+03 0.  0.
         24    2    1    2    0    0  0.18145644691E+02  0.33668774089E+02  0.12759314496E+04  0.12790461397E+04  0.80592260866E+02 0.  0.
        -13    1    5    5    0    0  0.32626110238E+02  0.52828322474E+02  0.10519416304E+04  0.10537725032E+04  0.00000000000E+00 0.  1.
         14    1    5    5    0    0 -0.14480465547E+02 -0.19159548386E+02  0.22398981922E+03  0.22527363648E+03  0.00000000000E+00 0. -1.
         13    1    3    3    0    0  0.46864255036E+02  0.21718546495E+02  0.14980158949E+02  0.53780654738E+02  0.00000000000E+00 0. -1.
        -14    1    3    3    0    0 -0.22283780758E+02  0.58272747885E+02 -0.39122340576E+02  0.73639918272E+02  0.00000000000E+00 0.  1.
          5    1    4    4  501    0 -0.59676615718E+02 -0.66744125490E+02  0.71487758796E+03  0.72047450678E+03  0.41800000000E+01 0. -1.
         -5    1    4    4    0  501  0.16950496750E+02 -0.46915942979E+02  0.89220732852E+02  0.10230462656E+03  0.41800000000E+01 0. -1.
</event>
<event>
11    1  0.6763327E-009  0.1395597E+03  0.7561462E-02  0.1108051E+00
         22   -1    0    0    0    0  0.00000000000E+00  0.00000000000E+00  0.14458114564E+03  0.14458114564E+03  0.00000000000E+00 0. -1.
         22   -1    0    0    0    0 -0.00000000000E+00 -0.00000000000E+00 -0.13859522192E+04  0.13859522192E+04  0.00000000000E+00 0.  1.
        -24    2    1    2    0    0  0.43349253687E+02 -0.45890361518E+02 -0.11847152837E+04  0.11890459957E+04  0.79340994240E+02 0.  0.
         25    2    1    2    0    0  0.11256727710E+02  0.70252733513E+02 -0.14703790303E+03  0.20573989811E+03  0.12508637121E+03 0.  0.
         24    2    1    2    0    0 -0.54605981396E+02 -0.24362371995E+02  0.90382113161E+02  0.13574747105E+03  0.81750297521E+02 0.  0.
        -11    1    5    5    0    0  0.13960130082E+01  0.17374599481E+02  0.54511718128E+02  0.57230699565E+02  0.00000000000E+00 0.  1.
         12    1    5    5    0    0 -0.56001994405E+02 -0.41736971476E+02  0.35870395034E+02  0.78516771490E+02  0.00000000000E+00 0. -1.
         11    1    3    3    0    0  0.20398461984E+02 -0.51295524652E+02 -0.38033749068E+03  0.38432269634E+03  0.00000000000E+00 0. -1.
        -12    1    3    3    0    0  0.22950791703E+02  0.54051631347E+01 -0.80437779303E+03  0.80472329937E+03  0.00000000000E+00 0.  1.
          5    1    4    4  501    0 -0.37780590902E+02  0.75805736211E+02 -0.54567860481E+02  0.10084149190E+03  0.41800000000E+01 0.  1.
         -5    1    4    4    0  501  0.49037318611E+02 -0.55530026985E+01 -0.92470042552E+02  0.10489840621E+03  0.41800000000E+01 0.  1.
</event>
<event>
11    1  0.6763327E-009  0.2249845E+03  0.7561462E-02  0.1038139E+00
         22   -1    0    0    0    0  0.00000000000E+00  0.00000000000E+00  0.13531290470E+03  0.13531290470E+03  0.00000000000E+00 0.  1.
         22   -1    0    0    0    0 -0.00000000000E+00 -0.00000000000E+00 -0.20967697316E+04  0.20967697316E+04  0.00000000000E+00 0. -1.
        -24    2    1    2    0    0 -0.87802766672E+02  0.15998447977E+03 -0.16834894496E+04  0.16950505333E+04  0.75863190789E+02 0.  0.
         25    2    1    2    0    0  0.12050130339E+03 -0.18394397217E+03 -0.34507215773E+03  0.42787501749E+03  0.12508512118E+03 0.  0.
         24    2    1    2    0    0 -0.32698536714E+02  0.23959492401E+02  0.67104780442E+02  0.10915708555E+03  0.75953710821E+02 0.  0.
        -13    1    5    5    0    0 -0.34105223296E+02 -0.61055231481E+01  0.70809874848E+02  0.78831986179E+02  0.00000000000E+00 0.  1.
         14    1    5    5    0    0  0.14066865814E+01  0.30065015549E+02 -0.37050944057E+01  0.30325099367E+02  0.00000000000E+00 0. -1.
         13    1    3    3    0    0 -0.78057822775E+02  0.16327643118E+03 -0.16529006978E+04  0.16627786785E+04  0.00000000000E+00 0. -1.
        -14    1    3    3    0    0 -0.97449438979E+01 -0.32919514132E+01 -0.30588751796E+02  0.32271854798E+02  0.00000000000E+00 0.  1.
          5    1    4    4  501    0  0.41870291799E+02 -0.16698714985E+03 -0.24353447153E+03  0.29826890682E+03  0.41800000000E+01 0. -1.
         -5    1    4    4    0  501  0.78631011588E+02 -0.16956822319E+02 -0.10153768620E+03  0.12960611068E+03  0.41800000000E+01 0. -1.
</event>
<event>
11    1  0.6763327E-009  0.1471040E+03  0.7561462E-02  0.1099875E+00
         22   -1    0    0    0    0  0.00000000000E+00  0.00000000000E+00  0.72581649944E+03  0.72581649944E+03  0.00000000000E+00 0.  1.
         22   -1    0    0    0    0 -0.00000000000E+00 -0.00000000000E+00 -0.56448728337E+03  0.56448728337E+03  0.00000000000E+00 0.  1.
        -24    2    1    2    0    0  0.32857357161E+02  0.68920430599E+02 -0.50369307643E+03  0.51343894188E+03  0.63899922663E+02 0.  0.
         25    2    1    2    0    0 -0.86227281978E+02 -0.77993135015E+02  0.88757154128E+02  0.19246610150E+03  0.12508914642E+03 0.  0.
         24    2    1    2    0    0  0.53369924817E+02  0.90727044155E+01  0.57626513837E+03  0.58439873943E+03  0.80682799285E+02 0.  0.
        -11    1    5    5    0    0  0.65361009775E+02 -0.16188516242E+02  0.45471428658E+03  0.45967294033E+03  0.00000000000E+00 0.  1.
         12    1    5    5    0    0 -0.11991084958E+02  0.25261220658E+02  0.12155085179E+03  0.12472579909E+03  0.00000000000E+00 0. -1.
         13    1    3    3    0    0  0.27813338824E+02  0.48794882356E+02 -0.16869795610E+03  0.17780191999E+03  0.00000000000E+00 0. -1.
        -14    1    3    3    0    0  0.50440183366E+01  0.20125548243E+02 -0.33499512033E+03  0.33563702189E+03  0.00000000000E+00 0.  1.
          5    1    4    4  501    0 -0.14433582352E+02  0.34247938420E+02  0.21836256412E+02  0.43307552223E+02  0.41800000000E+01 0. -1.
         -5    1    4    4    0  501 -0.71793699626E+02 -0.11224107343E+03  0.66920897716E+02  0.14915854928E+03  0.41800000000E+01 0. -1.
</event>
<event>
11    1  0.6763327E-009  0.1289363E+03  0.7561462E-02  0.1120583E+00
         22   -1    0    0    0    0  0.00000000000E+00  0.00000000000E+00  0.31663327373E+03  0.31663327373E+03  0.00000000000E+00 0. -1.
         22   -1    0    0    0    0 -0.00000000000E+00 -0.00000000000E+00 -0.94423608093E+03  0.94423608093E+03  0.00000000000E+00 0.  1.
        -24    2    1    2    0    0  0.27948497428E+02 -0.70574442898E+01 -0.71226593643E+03  0.71752364257E+03  0.81770944878E+02 0.  0.
         25    2    1    2    0    0  0.35334761442E+01  0.12752681014E+02 -0.20517040070E+03  0.24066042943E+03  0.12508969840E+03 0.  0.
         24    2    1    2    0    0 -0.31481973572E+02 -0.56952367245E+01  0.28983352993E+03  0.30268528265E+03  0.81187159576E+02 0.  0.
        -13    1    5    5    0    0 -0.25423154743E+01 -0.82009149363E+01 -0.24761350814E+01  0.89358613857E+01  0.00000000000E+00 0.  1.
         14    1    5    5    0    0 -0.28939658098E+02  0.25056782118E+01  0.29230966501E+03  0.29374942127E+03  0.00000000000E+00 0. -1.
         11    1    3    3    0    0 -0.52045646766E+00 -0.19030611365E+02 -0.37541549353E+02  0.42092790020E+02  0.00000000000E+00 0. -1.
        -12    1    3    3    0    0  0.28468953896E+02  0.11973167075E+02 -0.67472438707E+03  0.67543085255E+03  0.00000000000E+00 0.  1.
          5    1    4    4  501    0  0.13760860391E+02 -0.48523709862E+02 -0.14693385825E+03  0.15540573605E+03  0.41800000000E+01 0.  1.
         -5    1    4    4    0  501 -0.10227384247E+02  0.61276390876E+02 -0.58236542453E+02  0.85254693386E+02  0.41800000000E+01 0.  1.
</event>
<event>
11    1  0.6763327E-009  0.2715744E+03  0.7561462E-02  0.1012995E+00
         22   -1    0    0    0    0  0.00000000000E+00  0.00000000000E+00  0.22672468841E+04  0.22672468841E+04  0.00000000000E+00 0. -1.
         22   -1    0    0    0    0 -0.00000000000E+00 -0.00000000000E+00 -0.16875134484E+03  0.16875134484E+03  0.00000000000E+00 0.  1.
         24    2    1    2    0    0 -0.17894380814E+03 -0.13642950687E+03  0.44555285296E+02  0.24346261692E+03  0.81578033635E+02 0.  0.
         25    2    1    2    0    0  0.23114027770E+03  0.15762829173E+03  0.27759810266E+03  0.41349815558E+03  0.12509001453E+03 0.  0.
        -24    2    1    2    0    0 -0.52196469557E+02 -0.21198784865E+02  0.17763421513E+04  0.17790374565E+04  0.80056061870E+02 0.  0.
        -13    1    3    3    0    0 -0.14054680813E+03 -0.68416010321E+02  0.61694966821E+01  0.15643598829E+03  0.00000000000E+00 0.  1.
         14    1    3    3    0    0 -0.38397000015E+02 -0.68013496546E+02  0.38385788614E+02  0.87026628626E+02  0.00000000000E+00 0. -1.
         13    1    5    5    0    0 -0.73466240707E+02 -0.12195852534E+02  0.14142715911E+04  0.14162309701E+04  0.00000000000E+00 0. -1.
        -14    1    5    5    0    0  0.21269771149E+02 -0.90029323309E+01  0.36207056024E+03  0.36280648636E+03  0.00000000000E+00 0.  1.
          5    1    4    4  501    0  0.39404559314E+02 -0.93556718766E+01  0.85850901081E+02  0.95016301272E+02  0.41800000000E+01 0. -1.
         -5    1    4    4    0  501  0.19173571839E+03  0.16698396361E+03  0.19174720158E+03  0.31848185431E+03  0.41800000000E+01 0. -1.
</event>
<event>
11    1  0.6763327E-009  0.1599701E+03  0.7561462E-02  0.1087105E+00
         22   -1    0    0    0    0  0.00000000000E+00  0.00000000000E+00  0.99362935820E+03  0.99362935820E+03  0.00000000000E+00 0.  1.
         22   -1    0    0    0    0 -0.00000000000E+00 -0.00000000000E+00 -0.17241071255E+04  0.17241071255E+04  0.00000000000E+00 0.  1.
        -24    2    1    2    0    0 -0.39101270672E+02 -0.97665779121E+02 -0.12653620465E+04  0.12723042982E+04  0.80929627296E+02 0.  0.
         25    2    1    2    0    0  0.35561659040E+02  0.72338574755E+02 -0.44114782869E+03  0.46557067870E+03  0.12508856509E+03 0.  0.
         24    2    1    2    0    0  0.35396116320E+01  0.25327204366E+02  0.97603210793E+03  0.97986150681E+03  0.82679505811E+02 0.  0.
        -13    1    5    5    0    0  0.29998550955E+02 -0.18554420067E+02  0.41066846699E+03  0.41218050577E+03  0.00000000000E+00 0.  1.
         14    1    5    5    0    0 -0.26458939323E+02  0.43881624433E+02  0.56536364094E+03  0.56768100103E+03  0.00000000000E+00 0. -1.
         13    1    3    3    0    0 -0.34012780946E+02 -0.36185082656E+02 -0.23978986340E+03  0.24487835360E+03  0.00000000000E+00 0. -1.
        -14    1    3    3    0    0 -0.50884897264E+01 -0.61480696466E+02 -0.10255721831E+04  0.10274259446E+04  0.00000000000E+00 0.  1.
          5    1    4    4  501    0 -0.25228139243E+02  0.82730565191E+02 -0.27412703973E+03  0.28747854135E+03  0.41800000000E+01 0.  1.
         -5    1    4    4    0  501  0.60789798284E+02 -0.10391990436E+02 -0.16702078897E+03  0.17809213735E+03  0.41800000000E+01 0.  1.
</event>
<event>
11    1  0.6763327E-009  0.1334496E+03  0.7561462E-02  0.1115102E+00
         22   -1    0    0    0    0  0.00000000000E+00  0.00000000000E+00  0.20052897406E+04  0.20052897406E+04  0.00000000000E+00 0. -1.
         22   -1    0    0    0    0 -0.00000000000E+00 -0.00000000000E+00 -0.23000800787E+04  0.23000800787E+04  0.00000000000E+00 0.  1.
         24    2    1    2    0    0 -0.31451858564E+02 -0.34070137718E+02 -0.22488776434E+04  0.22507844581E+04  0.80187454235E+02 0.  0.
         25    2    1    2    0    0  0.40535773172E+02  0.42750831228E+02  0.47434640343E+02  0.14617886486E+03  0.12508969961E+03 0.  0.
        -24    2    1    2    0    0 -0.90839146077E+01 -0.86806935103E+01  0.19066526650E+04  0.19084064964E+04  0.80827585145E+02 0.  0.
        -11    1    3    3    0    0 -0.20246416264E+02 -0.53319128965E+02 -0.20246874550E+04  0.20254905917E+04  0.00000000000E+00 0.  1.
         12    1    3    3    0    0 -0.11205442300E+02  0.19248991247E+02 -0.22419018844E+03  0.22529386631E+03  0.00000000000E+00 0. -1.
         11    1    5    5    0    0  0.14190377363E+02  0.10311300717E+02  0.16356421524E+04  0.16357362075E+04  0.00000000000E+00 0. -1.
        -12    1    5    5    0    0 -0.23274291970E+02 -0.18991994228E+02  0.27101051265E+03  0.27267028895E+03  0.00000000000E+00 0.  1.
          5    1    4    4  501    0  0.60026059546E+02 -0.26584698564E+02  0.17496416360E+02  0.68069604140E+02  0.41800000000E+01 0. -1.
         -5    1    4    4    0  501 -0.19490286374E+02  0.69335529792E+02  0.29938223984E+02  0.78109260717E+02  0.41800000000E+01 0. -1.
</event>
<event>
11    1  0.6763327E-009  0.1571565E+03  0.7561462E-02  0.1089783E+00
         22   -1    0    0    0    0  0.00000000000E+00  0.00000000000E+00  0.11305229742E+03  0.11305229742E+03  0.00000000000E+00 0. -1.
         22   -1    0    0    0    0 -0.00000000000E+00 -0.00000000000E+00 -0.17075663802E+04  0.17075663802E+04  0.00000000000E+00 0. -1.
         24    2    1    2    0    0  0.45141848489E+02 -0.86128542448E+02 -0.15021574660E+04  0.15074846030E+04  0.81097862407E+02 0.  0.
         25    2    1    2    0    0 -0.46081168404E+02  0.57184451165E+02 -0.15168222859E+03  0.20987708872E+03  0.12508940149E+03 0.  0.
        -24    2    1    2    0    0  0.93931991532E+00  0.28944091283E+02  0.59325611791E+02  0.10325698591E+03  0.79396688745E+02 0.  0.
        -11    1    3    3    0    0  0.63037802114E+01 -0.28084699908E+02 -0.11421143103E+03  0.11778259206E+03  0.00000000000E+00 0.  1.
         12    1    3    3    0    0  0.38838068278E+02 -0.58043842540E+02 -0.13879460349E+04  0.13897020109E+04  0.00000000000E+00 0. -1.
         11    1    5    5    0    0 -0.17089234414E+02  0.50365121720E+02  0.51851998709E+02  0.74278645578E+02  0.00000000000E+00 0. -1.
        -12    1    5    5    0    0  0.18028554329E+02 -0.21421030437E+02  0.74736130822E+01  0.28978340337E+02  0.00000000000E+00 0.  1.
          5    1    4    4  501    0 -0.86316397044E+02  0.50826542616E+02 -0.84109108320E+02  0.13086509212E+03  0.41800000000E+01 0. -1.
         -5    1    4    4    0  501  0.40235228640E+02  0.63579085481E+01 -0.67573120267E+02  0.79011996604E+02  0.41800000000E+01 0. -1.
</event>
<event>
11    1  0.6763327E-009  0.1302644E+03  0.7561462E-02  0.1118945E+00
         22   -1    0    0    0    0  0.00000000000E+00  0.00000000000E+00  0.20682855725E+04  0.20682855725E+04  0.00000000000E+00 0. -1.
         22   -1    0    0    0    0 -0.00000000000E+00 -0.00000000000E+00 -0.87872753743E+02  0.87872753743E+02  0.00000000000E+00 0. -1.
        -24    2    1    2    0    0  0.20818979660E+01 -0.22106522455E+02 -0.55433378407E+02  0.10028249007E+03  0.80564792174E+02 0.  0.
         25    2    1    2    0    0 -0.27174499837E+02  0.45406198261E+02  0.51710314441E+03  0.53464333809E+03  0.12509061008E+03 0.  0.
         24    2    1    2    0    0  0.25092601871E+02 -0.23299675807E+02  0.15187430528E+04  0.15212324981E+04  0.79970865747E+02 0.  0.
        -13    1    5    5    0    0 -0.53005174895E+01 -0.38586137929E+02  0.38199658342E+03  0.38397705044E+03  0.00000000000E+00 0.  1.
         14    1    5    5    0    0  0.30393119361E+02  0.15286462122E+02  0.11367464694E+04  0.11372554477E+04  0.00000000000E+00 0. -1.
         13    1    3    3    0    0 -0.26355504385E+02 -0.40036276621E+02 -0.43141142958E+02  0.64487783903E+02  0.00000000000E+00 0. -1.
        -14    1    3    3    0    0  0.28437402351E+02  0.17929754167E+02 -0.12292235449E+02  0.35794706163E+02  0.00000000000E+00 0.  1.
          5    1    4    4  501    0 -0.65289242037E+02 -0.11571225472E+02  0.28154218070E+03  0.28927504264E+03  0.41800000000E+01 0. -1.
         -5    1    4    4    0  501  0.38114742199E+02  0.56977423733E+02  0.23556096371E+03  0.24536829545E+03  0.41800000000E+01 0. -1.
</event>
<event>
11    1  0.6763327E-009  0.1354346E+03  0.7561462E-02  0.1112766E+00
         22   -1    0    0    0    0  0.00000000000E+00  0.00000000000E+00  0.85934465674E+03  0.85934465674E+03  0.00000000000E+00 0.  1.
         22   -1    0    0    0    0 -0.00000000000E+00 -0.00000000000E+00 -0.20045411889E+03  0.20045411889E+03  0.00000000000E+00 0.  1.
        -24    2    1    2    0    0 -0.52217172628E+02 -0.11813823134E+02 -0.16144136660E+03  0.18799936059E+03  0.80088982999E+02 0.  0.
         25    2    1    2    0    0  0.31952006864E+02 -0.70986442451E+01  0.15890648418E+03  0.20486522808E+03  0.12508864644E+03 0.  0.
         24    2    1    2    0    0  0.20265165764E+02  0.18912467379E+02  0.66142542027E+03  0.66693418696E+03  0.80927528007E+02 0.  0.
        -11    1    5    5    0    0  0.37117534982E+01  0.17730340554E+02  0.63782933148E+03  0.63808651309E+03  0.00000000000E+00 0.  1.
         12    1    5    5    0    0  0.16553412266E+02  0.11821268252E+01  0.23596088787E+02  0.28847673867E+02  0.00000000000E+00 0. -1.
         11    1    3    3    0    0  0.19249311635E+02 -0.78550369635E+01 -0.17228956248E+02  0.27001380289E+02  0.00000000000E+00 0. -1.
        -12    1    3    3    0    0 -0.71466484263E+02 -0.39587861708E+01 -0.14421241036E+03  0.16099798030E+03  0.00000000000E+00 0.  1.
          5    1    4    4  501    0  0.42411282981E+02 -0.51781527283E+02  0.13965907789E+03  0.15492635001E+03  0.41800000000E+01 0.  1.
         -5    1    4    4    0  501 -0.10459276117E+02  0.44682883038E+02  0.19247406294E+02  0.49938878067E+02  0.41800000000E+01 0.  1.
</event>
<event>
11    1  0.6763327E-009  0.1434688E+03  0.7561462E-02  0.1103746E+00
         22   -1    0    0    0    0  0.00000000000E+00  0.00000000000E+00  0.18501829088E+04  0.18501829088E+04  0.00000000000E+00 0. -1.
         22   -1    0    0    0    0 -0.00000000000E+00 -0.00000000000E+00 -0.24809860133E+03  0.24809860133E+03  0.00000000000E+00 0. -1.
        -24    2    1    2    0    0  0.52868114958E+02  0.55926077497E+00 -0.20857537794E+03  0.22907956832E+03  0.78602862482E+02 0.  0.
         25    2    1    2    0    0 -0.97197718038E+02 -0.52287733047E+02  0.22528302917E+03  0.28032580520E+03  0.12509480569E+03 0.  0.
         24    2    1    2    0    0  0.44329603080E+02  0.51728472272E+02  0.15853766562E+04  0.15888761366E+04  0.80419442804E+02 0.  0.
        -11    1    5    5    0    0 -0.12889004362E+01 -0.10466604114E+02  0.34339098362E+02  0.35921925649E+02  0.00000000000E+00 0.  1.
         12    1    5    5    0    0  0.45618503516E+02  0.62195076386E+02  0.15510375579E+04  0.15529542110E+04  0.00000000000E+00 0. -1.
         11    1    3    3    0    0  0.52333290292E+02  0.25006958423E+02 -0.83699040674E+02  0.10183148164E+03  0.00000000000E+00 0. -1.
        -12    1    3    3    0    0  0.53482466559E+00 -0.24447697648E+02 -0.12487633726E+03  0.12724808669E+03  0.00000000000E+00 0.  1.
          5    1    4    4  501    0 -0.73399570035E+02 -0.86362821690E+02  0.20408448550E+03  0.23348229798E+03  0.41800000000E+01 0.  1.
         -5    1    4    4    0  501 -0.23798148003E+02  0.34075088643E+02  0.21198543672E+02  0.46843507215E+02  0.41800000000E+01 0.  1.
</event>
<event>
11    1  0.6763327E-009  0.1625379E+03  0.7561462E-02  0.1084714E+00
         22   -1    0    0    0    0  0.00000000000E+00  0.00000000000E+00  0.19321753808E+04  0.19321753808E+04  0.00000000000E+00 0. -1.
         22   -1    0    0    0    0 -0.00000000000E+00 -0.00000000000E+00 -0.51700081296E+03  0.51700081296E+03  0.00000000000E+00 0.  1.
        -24    2    1    2    0    0 -0.97906132505E+02 -0.41043660917E+02 -0.48255297797E+03  0.50062418403E+03  0.80603996235E+02 0.  0.
         25    2    1    2    0    0  0.59695031492E+02 -0.12558854929E+02  0.17880948599E+03  0.22658687641E+03  0.12509020209E+03 0.  0.
         24    2    1    2    0    0  0.38211101014E+02  0.53602515846E+02  0.17189180598E+04  0.17219651333E+04  0.78430262338E+02 0.  0.
        -11    1    5    5    0    0  0.44852675747E+01 -0.19640596914E+02  0.23690777787E+03  0.23776283538E+03  0.00000000000E+00 0.  1.
         12    1    5    5    0    0  0.33725833439E+02  0.73243112760E+02  0.14820102819E+04  0.14842022979E+04  0.00000000000E+00 0. -1.
         13    1    3    3    0    0 -0.47705911338E+02 -0.41634873992E+02 -0.13095107382E+03  0.14545618049E+03  0.00000000000E+00 0. -1.
        -14    1    3    3    0    0 -0.50200221167E+02  0.59121307454E+00 -0.35160190415E+03  0.35516800354E+03  0.00000000000E+00 0.  1.
          5    1    4    4  501    0  0.64521812244E+02  0.38506489788E+02  0.57166182859E+02  0.94505337805E+02  0.41800000000E+01 0. -1.
         -5    1    4    4    0  501 -0.48267807520E+01 -0.51065344716E+02  0.12164330313E+03  0.13208153861E+03  0.41800000000E+01 0. -1.
</event>
<event>
11    1  0.6763327E-009  0.1304908E+03  0.7561462E-02  0.1118667E+00
         22   -1    0    0    0    0  0.00000000000E+00  0.00000000000E+00  0.21856541617E+04  0.21856541617E+04  0.00000000000E+00 0.  1.
         22   -1    0    0    0    0 -0.00000000000E+00 -0.00000000000E+00 -0.25516029825E+02  0.25516029825E+02  0.00000000000E+00 0. -1.
         24    2    1    2    0    0  0.11081500033E+02  0.14723203299E+02  0.73730061911E+02  0.11051294556E+03  0.80233513868E+02 0.  0.
         25    2    1    2    0    0  0.26529735379E+02 -0.18955532479E+00  0.71674411160E+03  0.72806126147E+03  0.12508883302E+03 0.  0.
        -24    2    1    2    0    0 -0.37611235411E+02 -0.14533647974E+02  0.13696639584E+04  0.13725959845E+04  0.80090860131E+02 0.  0.
        -11    1    3    3    0    0 -0.24707155846E+02  0.31061712513E+02  0.52481887817E+02  0.65799863853E+02  0.00000000000E+00 0.  1.
         12    1    3    3    0    0  0.35788655879E+02 -0.16338509214E+02  0.21248174094E+02  0.44713081702E+02  0.00000000000E+00 0. -1.
         11    1    5    5    0    0 -0.48840772517E+02  0.18637983008E+02  0.96698548103E+03  0.96839749896E+03  0.00000000000E+00 0. -1.
        -12    1    5    5    0    0  0.11229537105E+02 -0.33171630983E+02  0.40267847733E+03  0.40419848554E+03  0.00000000000E+00 0.  1.
          5    1    4    4  501    0  0.19522662917E+02  0.11041482331E+01  0.71917269670E+03  0.71945061928E+03  0.41800000000E+01 0. -1.
         -5    1    4    4    0  501  0.70070724623E+01 -0.12937035579E+01 -0.24285850921E+01  0.86106421907E+01  0.41800000000E+01 0. -1.
</event>
<event>
11    1  0.6763327E-009  0.1743075E+03  0.7561462E-02  0.1074343E+00
         22   -1    0    0    0    0  0.00000000000E+00  0.00000000000E+00  0.39688538095E+03  0.39688538095E+03  0.00000000000E+00 0. -1.
         22   -1    0    0    0    0 -0.00000000000E+00 -0.00000000000E+00 -0.26934378915E+04  0.26934378915E+04  0.00000000000E+00 0.  1.
        -24    2    1    2    0    0  0.86141405200E+02  0.88329146545E+02 -0.24783046485E+04  0.24826473487E+04  0.79508157908E+02 0.  0.
         25    2    1    2    0    0 -0.33575091614E+02 -0.95949275331E+02 -0.17527729397E+03  0.23812384383E+03  0.12508910825E+03 0.  0.
         24    2    1    2    0    0 -0.52566313586E+02  0.76201287861E+01  0.35702943194E+03  0.36955207996E+03  0.79230302549E+02 0.  0.
        -11    1    5    5    0    0  0.10884782179E+02  0.15150960059E+02  0.23740150785E+02  0.30193125593E+02  0.00000000000E+00 0.  1.
         12    1    5    5    0    0 -0.63451095765E+02 -0.75308312731E+01  0.33328928116E+03  0.33935895436E+03  0.00000000000E+00 0. -1.
         13    1    3    3    0    0  0.24847400660E+02  0.72473865698E+02 -0.97292114608E+03  0.97593309762E+03  0.00000000000E+00 0. -1.
        -14    1    3    3    0    0  0.61294004540E+02  0.15855280846E+02 -0.15053835024E+04  0.15067142511E+04  0.00000000000E+00 0.  1.
          5    1    4    4  501    0 -0.33617386776E+02 -0.10660651097E+03 -0.18938683439E+03  0.21995436417E+03  0.41800000000E+01 0. -1.
         -5    1    4    4    0  501  0.42295161716E-01  0.10657235635E+02  0.14109540421E+02  0.18169479661E+02  0.41800000000E+01 0. -1.
</event>
<event>
11    1  0.6763327E-009  0.1535445E+03  0.7561462E-02  0.1093311E+00
         22   -1    0    0    0    0  0.00000000000E+00  0.00000000000E+00  0.18994830548E+04  0.18994830548E+04  0.00000000000E+00 0. -1.
         22   -1    0    0    0    0 -0.00000000000E+00 -0.00000000000E+00 -0.39600960846E+02  0.39600960846E+02  0.00000000000E+00 0.  1.
        -24    2    1    2    0    0  0.19416478003E+02  0.23941874358E+02  0.49744280735E+02  0.10158852757E+03  0.83039282883E+02 0.  0.
         25    2    1    2    0    0  0.73613048487E+02 -0.20802330348E+02  0.48412689977E+03  0.50584340362E+03  0.12508827301E+03 0.  0.
         24    2    1    2    0    0 -0.93029526490E+02 -0.31395440101E+01  0.13260109135E+04  0.13316520845E+04  0.79548613659E+02 0.  0.
        -11    1    5    5    0    0 -0.30414661008E+02  0.31657920636E+02  0.30655429148E+03  0.30968178695E+03  0.00000000000E+00 0.  1.
         12    1    5    5    0    0 -0.62614865482E+02 -0.34797464646E+02  0.10194566220E+04  0.10219702976E+04  0.00000000000E+00 0. -1.
         11    1    3    3    0    0  0.19094421940E+02  0.34851921978E+02  0.68901361957E+02  0.79540248266E+02  0.00000000000E+00 0. -1.
        -12    1    3    3    0    0  0.32205606344E+00 -0.10910047620E+02 -0.19157081222E+02  0.22048279301E+02  0.00000000000E+00 0.  1.
          5    1    4    4  501    0  0.27481016530E+02 -0.51791182644E+02  0.40392408580E+03  0.40817848101E+03  0.41800000000E+01 0.  1.
         -5    1    4    4    0  501  0.46132031957E+02  0.30988852296E+02  0.80202813973E+02  0.97664922609E+02  0.41800000000E+01 0.  1.
</event>
<event>
11    1  0.6763327E-009  0.1723104E+03  0.7561462E-02  0.1076038E+00
         22   -1    0    0    0    0  0.00000000000E+00  0.00000000000E+00  0.87629607501E+02  0.87629607501E+02  0.00000000000E+00 0. -1.
         22   -1    0    0    0    0 -0.00000000000E+00 -0.00000000000E+00 -0.17750692412E+04  0.17750692412E+04  0.00000000000E+00 0. -1.
         24    2    1    2    0    0  0.53614771380E+02 -0.28567465480E+01 -0.14395121244E+04  0.14427880890E+04  0.80991410267E+02 0.  0.
         25    2    1    2    0    0 -0.10987021864E+03  0.83358389333E+02 -0.94708176424E+02  0.20889505550E+03  0.12508964591E+03 0.  0.
        -24    2    1    2    0    0  0.56255447265E+02 -0.80501642785E+02 -0.15321933278E+03  0.21101570418E+03  0.10680015747E+03 0.  0.
        -13    1    3    3    0    0  0.23318615400E+02 -0.18580861230E+02 -0.15609476129E+03  0.15891689882E+03  0.00000000000E+00 0.  1.
         14    1    3    3    0    0  0.30296155980E+02  0.15724114682E+02 -0.12834173632E+04  0.12838711901E+04  0.00000000000E+00 0. -1.
         13    1    5    5    0    0  0.42757947555E+02 -0.37662111974E+02 -0.62325087877E+01  0.57319463738E+02  0.00000000000E+00 0. -1.
        -14    1    5    5    0    0  0.13497499709E+02 -0.42839530812E+02 -0.14698682400E+03  0.15369624045E+03  0.00000000000E+00 0.  1.
          5    1    4    4  501    0 -0.64073683130E+02  0.26590414137E+02 -0.11383704604E+03  0.13337478189E+03  0.41800000000E+01 0. -1.
         -5    1    4    4    0  501 -0.45796535514E+02  0.56767975196E+02  0.19128869617E+02  0.75520273608E+02  0.41800000000E+01 0. -1.
</event>
<event>
11    1  0.6763327E-009  0.1402005E+03  0.7561462E-02  0.1107335E+00
         22   -1    0    0    0    0  0.00000000000E+00  0.00000000000E+00  0.17006117525E+03  0.17006117525E+03  0.00000000000E+00 0.  1.
         22   -1    0    0    0    0 -0.00000000000E+00 -0.00000000000E+00 -0.21991631801E+03  0.21991631801E+03  0.00000000000E+00 0.  1.
         24    2    1    2    0    0  0.43904207902E+02 -0.20281699983E+02 -0.65533848290E+02  0.13120274375E+03  0.10286179014E+03 0.  0.
         25    2    1    2    0    0 -0.95129926391E+02  0.35456978546E+02  0.61077237983E+01  0.16122504909E+03  0.12509720996E+03 0.  0.
        -24    2    1    2    0    0  0.51225718489E+02 -0.15175278563E+02  0.95709817318E+01  0.97549700426E+02  0.81055394933E+02 0.  0.
        -13    1    3    3    0    0  0.34269358579E+02 -0.17708747677E+02 -0.93696638353E+02  0.10132644630E+03  0.00000000000E+00 0.  1.
         14    1    3    3    0    0  0.96348493235E+01 -0.25729523051E+01  0.28162790063E+02  0.29876297448E+02  0.00000000000E+00 0. -1.
         11    1    5    5    0    0 -0.11346487682E+02  0.30789218293E+01 -0.22137497500E+02  0.25065740322E+02  0.00000000000E+00 0. -1.
        -12    1    5    5    0    0  0.62572206171E+02 -0.18254200393E+02  0.31708479232E+02  0.72483960103E+02  0.00000000000E+00 0.  1.
          5    1    4    4  501    0 -0.90562767137E+02  0.56684103976E+02 -0.36699481604E+02  0.11304435760E+03  0.41800000000E+01 0. -1.
         -5    1    4    4    0  501 -0.45671592537E+01 -0.21227125430E+02  0.42807205403E+02  0.48180691486E+02  0.41800000000E+01 0. -1.
</event>
<event>
11    1  0.6763327E-009  0.2026836E+03  0.7561462E-02  0.1052642E+00
         22   -1    0    0    0    0  0.00000000000E+00  0.00000000000E+00  0.15445257766E+04  0.15445257766E+04  0.00000000000E+00 0. -1.
         22   -1    0    0    0    0 -0.00000000000E+00 -0.00000000000E+00 -0.42307640639E+03  0.42307640639E+03  0.00000000000E+00 0. -1.
        -24    2    1    2    0    0  0.11336945915E+01 -0.15974564389E+03 -0.36822647514E+03  0.40936285050E+03  0.80419216445E+02 0.  0.
         25    2    1    2    0    0  0.14104731499E+02  0.15553501929E+03  0.27173182730E+03  0.33745408060E+03  0.12508790856E+03 0.  0.
         24    2    1    2    0    0 -0.15238426091E+02  0.42106246027E+01  0.12179440180E+04  0.12207852519E+04  0.81725523079E+02 0.  0.
        -11    1    5    5    0    0  0.30199994429E+02  0.65027390529E+01  0.27216865559E+03  0.27391623238E+03  0.00000000000E+00 0.  1.
         12    1    5    5    0    0 -0.45438420519E+02 -0.22921144502E+01  0.94577536245E+03  0.94686901949E+03  0.00000000000E+00 0. -1.
         13    1    3    3    0    0 -0.20526404792E+01 -0.16898269811E+03 -0.35079220327E+03  0.38937711215E+03  0.00000000000E+00 0. -1.
        -14    1    3    3    0    0  0.31863350707E+01  0.92370542191E+01 -0.17434271871E+02  0.19985738353E+02  0.00000000000E+00 0.  1.
          5    1    4    4  501    0  0.27696830711E+01 -0.18002864696E+02  0.63122423596E+02  0.65830745418E+02  0.41800000000E+01 0. -1.
         -5    1    4    4    0  501  0.11335048428E+02  0.17353788398E+03  0.20860940371E+03  0.27162333518E+03  0.41800000000E+01 0. -1.
</event>
<event>
11    1  0.6763327E-009  0.1847935E+03  0.7561462E-02  0.1065830E+00
         22   -1    0    0    0    0  0.00000000000E+00  0.00000000000E+00  0.10623015752E+04  0.10623015752E+04  0.00000000000E+00 0. -1.
         22   -1    0    0    0    0 -0.00000000000E+00 -0.00000000000E+00 -0.96935370165E+03  0.96935370165E+03  0.00000000000E+00 0.  1.
        -24    2    1    2    0    0 -0.13974702397E+02  0.12895205253E+03 -0.79699674181E+03  0.81144086974E+03  0.80053447573E+02 0.  0.
         25    2    1    2    0    0 -0.18796378453E+02 -0.23850316249E+03 -0.45909964596E+02  0.27385027245E+03  0.12509670064E+03 0.  0.
         24    2    1    2    0    0  0.32771080850E+02  0.10955110996E+03  0.93585457998E+03  0.94636413470E+03  0.81889505602E+02 0.  0.
        -13    1    5    5    0    0  0.19557043020E+01  0.10884431146E+03  0.67985662815E+03  0.68851720658E+03  0.00000000000E+00 0.  1.
         14    1    5    5    0    0  0.30815376548E+02  0.70679850236E+00  0.25599795183E+03  0.25784692811E+03  0.00000000000E+00 0. -1.
         13    1    3    3    0    0  0.25374309006E+02  0.31541959432E+02 -0.12810011342E+03  0.13434429583E+03  0.00000000000E+00 0. -1.
        -14    1    3    3    0    0 -0.39349011403E+02  0.97410093100E+02 -0.66889662838E+03  0.67709657391E+03  0.00000000000E+00 0.  1.
          5    1    4    4  501    0 -0.16058920184E+02 -0.27956357628E+02  0.35427319004E+02  0.48083408585E+02  0.41800000000E+01 0. -1.
         -5    1    4    4    0  501 -0.27374582696E+01 -0.21054680487E+03 -0.81337283600E+02  0.22576686387E+03  0.41800000000E+01 0. -1.
</event>
<event>
11    1  0.6763327E-009  0.2277540E+03  0.7561462E-02  0.1036466E+00
         22   -1    0    0    0    0  0.00000000000E+00  0.00000000000E+00  0.43392333386E+03  0.43392333386E+03  0.00000000000E+00 0. -1.
         22   -1    0    0    0    0 -0.00000000000E+00 -0.00000000000E+00 -0.94403172109E+03  0.94403172109E+03  0.00000000000E+00 0.  1.
         24    2    1    2    0    0  0.31713861579E+02 -0.15684191045E+03 -0.46835216962E+03  0.50125646014E+03  0.79367059639E+02 0.  0.
         25    2    1    2    0    0 -0.11182829324E+03  0.29218529942E+03 -0.37211506760E+03  0.50199042798E+03  0.12508776871E+03 0.  0.
        -24    2    1    2    0    0  0.80114431664E+02 -0.13534338897E+03  0.33035885000E+03  0.37470816683E+03  0.80827504098E+02 0.  0.
        -11    1    3    3    0    0  0.25667273018E+02 -0.17215080436E+02 -0.15646010571E+03  0.15948333010E+03  0.00000000000E+00 0.  1.
         12    1    3    3    0    0  0.60465885614E+01 -0.13962683002E+03 -0.31189206390E+03  0.34177313004E+03  0.00000000000E+00 0. -1.
         13    1    5    5    0    0  0.69964342250E+02 -0.13028363761E+03  0.33181207894E+03  0.36327412672E+03  0.00000000000E+00 0. -1.
        -14    1    5    5    0    0  0.10150089414E+02 -0.50597513506E+01 -0.14532289383E+01  0.11434040108E+02  0.00000000000E+00 0.  1.
          5    1    4    4  501    0 -0.57032889458E+02  0.22934201832E+02 -0.57730616665E+02  0.84433551353E+02  0.41800000000E+01 0. -1.
         -5    1    4    4    0  501 -0.54795403785E+02  0.26925109758E+03 -0.31438445094E+03  0.41755687663E+03  0.41800000000E+01 0. -1.
</event>
<event>
11    1  0.6763327E-009  0.1310778E+03  0.7561462E-02  0.1117952E+00
         22   -1    0    0    0    0  0.00000000000E+00  0.00000000000E+00  0.69568222212E+03  0.69568222212E+03  0.00000000000E+00 0.  1.
         22   -1    0    0    0    0 -0.00000000000E+00 -0.00000000000E+00 -0.72010038160E+02  0.72010038160E+02  0.00000000000E+00 0.  1.
        -24    2    1    2    0    0  0.95526501625E+01 -0.36841306599E+02 -0.19840890373E+01  0.87616137439E+02  0.78893066447E+02 0.  0.
         25    2    1    2    0    0 -0.15158397325E+02  0.41494155529E+02  0.16265682420E+03  0.20989449228E+03  0.12508762320E+03 0.  0.
         24    2    1    2    0    0  0.56057471629E+01 -0.46528489303E+01  0.46299944879E+03  0.47018163055E+03  0.81542643613E+02 0.  0.
        -13    1    5    5    0    0  0.42726006051E+02  0.98149669520E+00  0.29183602369E+03  0.29494870681E+03  0.00000000000E+00 0.  1.
         14    1    5    5    0    0 -0.37120258888E+02 -0.56343456255E+01  0.17116342510E+03  0.17523292374E+03  0.00000000000E+00 0. -1.
         11    1    3    3    0    0  0.22574418754E+02 -0.24879848310E+02  0.33828880422E+02  0.47676035748E+02  0.00000000000E+00 0. -1.
        -12    1    3    3    0    0 -0.13021768592E+02 -0.11961458288E+02 -0.35812969459E+02  0.39940101691E+02  0.00000000000E+00 0.  1.
          5    1    4    4  501    0 -0.10031481740E+02 -0.15045958649E+02 -0.14667866474E+02  0.23656504485E+02  0.41800000000E+01 0. -1.
         -5    1    4    4    0  501 -0.51269155857E+01  0.56540114178E+02  0.17732469068E+03  0.18623798780E+03  0.41800000000E+01 0. -1.
</event>
<event>
11    1  0.6763327E-009  0.1403719E+03  0.7561462E-02  0.1107144E+00
         22   -1    0    0    0    0  0.00000000000E+00  0.00000000000E+00  0.18123501050E+04  0.18123501050E+04  0.00000000000E+00 0.  1.
         22   -1    0    0    0    0 -0.00000000000E+00 -0.00000000000E+00 -0.38965290494E+03  0.38965290494E+03  0.00000000000E+00 0.  1.
         24    2    1    2    0    0  0.74884673358E+01 -0.62353712241E+02 -0.36416740331E+03  0.37814801099E+03  0.80211956792E+02 0.  0.
         25    2    1    2    0    0 -0.18627203698E+02  0.12128011414E+03  0.44554318631E+03  0.47876090236E+03  0.12508969565E+03 0.  0.
        -24    2    1    2    0    0  0.11138736362E+02 -0.58926401898E+02  0.13413214170E+04  0.13450940966E+04  0.80861564164E+02 0.  0.
        -13    1    3    3    0    0  0.61275696711E+01 -0.79623530335E+02 -0.33347929341E+03  0.34290799470E+03  0.00000000000E+00 0.  1.
         14    1    3    3    0    0  0.13608976647E+01  0.17269818094E+02 -0.30688109891E+02  0.35240016290E+02  0.00000000000E+00 0. -1.
         13    1    5    5    0    0  0.29860379796E+02  0.60403608827E+01  0.28852523897E+03  0.29012918117E+03  0.00000000000E+00 0. -1.
        -14    1    5    5    0    0 -0.18721643433E+02 -0.64966762781E+02  0.10527961781E+04  0.10549649154E+04  0.00000000000E+00 0.  1.
          5    1    4    4  501    0 -0.28323614706E+02 -0.14810642981E+02  0.43249454879E+02  0.53940430504E+02  0.41800000000E+01 0.  1.
         -5    1    4    4    0  501  0.96964110081E+01  0.13609075712E+03  0.40229373143E+03  0.42482047185E+03  0.41800000000E+01 0.  1.
</event>
<event>
11    1  0.6763327E-009  0.2746064E+03  0.7561462E-02  0.1011551E+00
         22   -1    0    0    0    0  0.00000000000E+00  0.00000000000E+00  0.70772305487E+03  0.70772305487E+03  0.00000000000E+00 0.  1.
         22   -1    0    0    0    0 -0.00000000000E+00 -0.00000000000E+00 -0.29485379878E+03  0.29485379878E+03  0.00000000000E+00 0.  1.
        -24    2    1    2    0    0  0.12792981101E+03  0.33448887218E+03  0.56101708833E+02  0.37104626206E+03  0.79240675753E+02 0.  0.
         25    2    1    2    0    0 -0.11098952886E+03 -0.14995639750E+03  0.59654655661E+01  0.22471264702E+03  0.12511830514E+03 0.  0.
         24    2    1    2    0    0 -0.16940282148E+02 -0.18453247468E+03  0.35080208169E+03  0.40681794457E+03  0.89997400731E+02 0.  0.
        -13    1    5    5    0    0 -0.40621578585E+02 -0.15849516905E+03  0.32258722929E+03  0.36170893238E+03  0.00000000000E+00 0.  1.
         14    1    5    5    0    0  0.23681296437E+02 -0.26037305634E+02  0.28214852395E+02  0.45109012196E+02  0.00000000000E+00 0. -1.
         11    1    3    3    0    0  0.10216553468E+03  0.19428622407E+03  0.62866502538E+02  0.22833556552E+03  0.00000000000E+00 0. -1.
        -12    1    3    3    0    0  0.25764276330E+02  0.14020264811E+03 -0.67647937050E+01  0.14271069654E+03  0.00000000000E+00 0.  1.
          5    1    4    4  501    0 -0.11060711394E+03 -0.49462139909E+02  0.20915194990E+02  0.12302582948E+03  0.41800000000E+01 0. -1.
         -5    1    4    4    0  501 -0.38241491870E+00 -0.10049425759E+03 -0.14949729424E+02  0.10168681753E+03  0.41800000000E+01 0. -1.
</event>
<event>
11    1  0.6763327E-009  0.1359928E+03  0.7561462E-02  0.1112117E+00
         22   -1    0    0    0    0  0.00000000000E+00  0.00000000000E+00  0.24152105917E+03  0.24152105917E+03  0.00000000000E+00 0. -1.
         22   -1    0    0    0    0 -0.00000000000E+00 -0.00000000000E+00 -0.80905637712E+03  0.80905637712E+03  0.00000000000E+00 0. -1.
        -24    2    1    2    0    0  0.51870360637E+02  0.22265213769E+02 -0.69840104881E+03  0.70607527684E+03  0.87132069500E+02 0.  0.
         25    2    1    2    0    0  0.42850559076E+01 -0.44807651371E+02 -0.45575560936E+02  0.14053842867E+03  0.12509129008E+03 0.  0.
         24    2    1    2    0    0 -0.56155416544E+02  0.22542437602E+02  0.17644129179E+03  0.20396373078E+03  0.82511100631E+02 0.  0.
        -11    1    5    5    0    0 -0.77462265315E+02  0.12359352905E+02  0.12918631614E+03  0.15113656219E+03  0.00000000000E+00 0.  1.
         12    1    5    5    0    0  0.21306848771E+02  0.10183084697E+02  0.47254975648E+02  0.52827168597E+02  0.00000000000E+00 0. -1.
         11    1    3    3    0    0  0.32991873058E+02  0.24234090999E+02 -0.67360831312E+03  0.67485103124E+03  0.00000000000E+00 0. -1.
        -12    1    3    3    0    0  0.18878487579E+02 -0.19688772303E+01 -0.24792735683E+02  0.31224245603E+02  0.00000000000E+00 0.  1.
          5    1    4    4  501    0  0.51747277055E+02  0.47084223133E+00 -0.53240573638E+02  0.74364194720E+02  0.41800000000E+01 0. -1.
         -5    1    4    4    0  501 -0.47462221148E+02 -0.45278493602E+02  0.76650127023E+01  0.66174233950E+02  0.41800000000E+01 0. -1.
</event>
<event>
11    1  0.6763327E-009  0.1667252E+03  0.7561462E-02  0.1080917E+00
         22   -1    0    0    0    0  0.00000000000E+00  0.00000000000E+00  0.43566581366E+03  0.43566581366E+03  0.00000000000E+00 0. -1.
         22   -1    0    0    0    0 -0.00000000000E+00 -0.00000000000E+00 -0.15031325880E+04  0.15031325880E+04  0.00000000000E+00 0.  1.
         24    2    1    2    0    0  0.80349811275E+02 -0.75611667642E+02 -0.14385003734E+04  0.14450712023E+04  0.82305764394E+02 0.  0.
         25    2    1    2    0    0  0.62024141438E+02  0.14817781537E+02  0.11002563115E+03  0.17838132505E+03  0.12509075444E+03 0.  0.
        -24    2    1    2    0    0 -0.14237395271E+03  0.60793886105E+02  0.26100796790E+03  0.31534587437E+03  0.85741601201E+02 0.  0.
        -13    1    3    3    0    0  0.57461490538E+02 -0.29051579123E+02 -0.11596031810E+04  0.11613894069E+04  0.00000000000E+00 0.  1.
         14    1    3    3    0    0  0.22888320738E+02 -0.46560088519E+02 -0.27889719244E+03  0.28368179537E+03  0.00000000000E+00 0. -1.
         11    1    5    5    0    0 -0.14376735193E+03  0.75090842388E+02  0.23339254477E+03  0.28421781444E+03  0.00000000000E+00 0. -1.
        -12    1    5    5    0    0  0.13933992172E+01 -0.14296956283E+02  0.27615423130E+02  0.31128059930E+02  0.00000000000E+00 0.  1.
          5    1    4    4  501    0  0.73883145531E+02 -0.24034453740E+02  0.11326721856E+03  0.13741655417E+03  0.41800000000E+01 0. -1.
         -5    1    4    4    0  501 -0.11859004093E+02  0.38852235278E+02 -0.32415874097E+01  0.40964770878E+02  0.41800000000E+01 0. -1.
</event>
<event>
11    1  0.6763327E-009  0.1270126E+03  0.7561462E-02  0.1122995E+00
         22   -1    0    0    0    0  0.00000000000E+00  0.00000000000E+00  0.19070611380E+03  0.19070611380E+03  0.00000000000E+00 0.  1.
         22   -1    0    0    0    0 -0.00000000000E+00 -0.00000000000E+00 -0.45743515121E+03  0.45743515121E+03  0.00000000000E+00 0. -1.
        -24    2    1    2    0    0 -0.50844969629E+00  0.74858625261E+01 -0.35124877894E+03  0.36016485673E+03  0.79288855848E+02 0.  0.
         25    2    1    2    0    0 -0.20137858577E+02  0.11590139064E+01 -0.44779701103E+02  0.13438921511E+03  0.12509341648E+03 0.  0.
         24    2    1    2    0    0  0.20646308273E+02 -0.86448764325E+01  0.12929944263E+03  0.15358719316E+03  0.79810250618E+02 0.  0.
        -11    1    5    5    0    0  0.23135603994E+02 -0.26810290967E+02  0.13049350173E+03  0.13521317195E+03  0.00000000000E+00 0.  1.
         12    1    5    5    0    0 -0.24892957201E+01  0.18165414534E+02 -0.11940590988E+01  0.18374021212E+02  0.00000000000E+00 0. -1.
         13    1    3    3    0    0 -0.23200180279E+02  0.31192332774E+02 -0.26586271176E+03  0.26868976812E+03  0.00000000000E+00 0. -1.
        -14    1    3    3    0    0  0.22691730582E+02 -0.23706470247E+02 -0.85386067174E+02  0.91475088608E+02  0.00000000000E+00 0.  1.
          5    1    4    4  501    0  0.39813322435E+02  0.25798915157E+02 -0.50218304582E+02  0.69210080059E+02  0.41800000000E+01 0.  1.
         -5    1    4    4    0  501 -0.59951181013E+02 -0.24639901251E+02  0.54386034793E+01  0.65179135053E+02  0.41800000000E+01 0.  1.
</event>
<event>
11    1  0.6763327E-009  0.1319685E+03  0.7561462E-02  0.1116874E+00
         22   -1    0    0    0    0  0.00000000000E+00  0.00000000000E+00  0.16537071956E+04  0.16537071956E+04  0.00000000000E+00 0. -1.
         22   -1    0    0    0    0 -0.00000000000E+00 -0.00000000000E+00 -0.20095255357E+03  0.20095255357E+03  0.00000000000E+00 0.  1.
         24    2    1    2    0    0 -0.13730584750E+02 -0.23320210025E+02 -0.12686086034E+03  0.15333500363E+03  0.81765422404E+02 0.  0.
         25    2    1    2    0    0 -0.13680308919E+02  0.54954103077E+02  0.19639068921E+02  0.13870976783E+03  0.12509037679E+03 0.  0.
        -24    2    1    2    0    0  0.27410893669E+02 -0.31633893052E+02  0.15599764334E+04  0.15626149777E+04  0.80542134094E+02 0.  0.
        -13    1    3    3    0    0  0.33628188372E+02 -0.18865381060E+02 -0.56398967482E+02  0.68319844766E+02  0.00000000000E+00 0.  1.
         14    1    3    3    0    0 -0.47358773123E+02 -0.44548289650E+01 -0.70461892854E+02  0.85015158868E+02  0.00000000000E+00 0. -1.
         13    1    5    5    0    0 -0.20850017600E+02 -0.25885798848E+02  0.99400061920E+03  0.99455619690E+03  0.00000000000E+00 0. -1.
        -14    1    5    5    0    0  0.48260911270E+02 -0.57480942040E+01  0.56597581424E+03  0.56805878081E+03  0.00000000000E+00 0.  1.
          5    1    4    4  501    0 -0.43123190651E+02  0.57339104214E+02 -0.32316038186E+02  0.78798357648E+02  0.41800000000E+01 0. -1.
         -5    1    4    4    0  501  0.29442881731E+02 -0.23850011373E+01  0.51955107107E+02  0.59911410178E+02  0.41800000000E+01 0. -1.
</event>
<event>
11    1  0.6763327E-009  0.1799339E+03  0.7561462E-02  0.1069696E+00
         22   -1    0    0    0    0  0.00000000000E+00  0.00000000000E+00  0.14113983439E+03  0.14113983439E+03  0.00000000000E+00 0. -1.
         22   -1    0    0    0    0 -0.00000000000E+00 -0.00000000000E+00 -0.23381634593E+04  0.23381634593E+04  0.00000000000E+00 0.  1.
        -24    2    1    2    0    0 -0.20901389604E+01 -0.10715710132E+02 -0.13714456830E+04  0.13743193476E+04  0.88154480650E+02 0.  0.
         25    2    1    2    0    0  0.12740107547E+03 -0.21444974006E+02 -0.90529974774E+03  0.92298756822E+03  0.12508995522E+03 0.  0.
         24    2    1    2    0    0 -0.12531093651E+03  0.32160684137E+02  0.79721805846E+02  0.18199637793E+03  0.10014976205E+03 0.  0.
        -11    1    5    5    0    0 -0.12732908071E+02  0.30223535914E+02 -0.13844816158E+02  0.35598707919E+02  0.00000000000E+00 0.  1.
         12    1    5    5    0    0 -0.11257802844E+03  0.19371482234E+01  0.93566622004E+02  0.14639767001E+03  0.00000000000E+00 0. -1.
         11    1    3    3    0    0  0.29342974016E+02 -0.28156245985E+02 -0.36989451283E+03  0.37212327922E+03  0.00000000000E+00 0. -1.
        -12    1    3    3    0    0 -0.31433112976E+02  0.17440535853E+02 -0.10015511702E+04  0.10021960684E+04  0.00000000000E+00 0.  1.
          5    1    4    4  501    0  0.49720944642E+02 -0.52953761875E+00 -0.83679926647E+02  0.97428205720E+02  0.41800000000E+01 0.  1.
         -5    1    4    4    0  501  0.77680130827E+02 -0.20915436387E+02 -0.82161982109E+03  0.82555936250E+03  0.41800000000E+01 0.  1.
</event>
<event>
11    1  0.6763327E-009  0.1533080E+03  0.7561462E-02  0.1093546E+00
         22   -1    0    0    0    0  0.00000000000E+00  0.00000000000E+00  0.10411036735E+04  0.10411036735E+04  0.00000000000E+00 0.  1.
         22   -1    0    0    0    0 -0.00000000000E+00 -0.00000000000E+00 -0.13783112814E+03  0.13783112814E+03  0.00000000000E+00 0. -1.
         24    2    1    2    0    0 -0.13034240189E+02 -0.43153669915E+02 -0.60515123690E+02  0.11053819453E+03  0.80774263290E+02 0.  0.
         25    2    1    2    0    0  0.52769616480E+02 -0.38747031215E+02  0.54321771265E+02  0.15127507671E+03  0.12508928471E+03 0.  0.
        -24    2    1    2    0    0 -0.39735376291E+02  0.81900701130E+02  0.90946589775E+03  0.91712153037E+03  0.75478853449E+02 0.  0.
        -13    1    3    3    0    0  0.53532967478E+01 -0.63948695578E+02 -0.36458219010E+02  0.73805793713E+02  0.00000000000E+00 0.  1.
         14    1    3    3    0    0 -0.18387536937E+02  0.20795025663E+02 -0.24056904680E+02  0.36732400816E+02  0.00000000000E+00 0. -1.
         11    1    5    5    0    0 -0.24373219705E+01  0.35060795162E+02  0.11139645422E+03  0.11680911740E+03  0.00000000000E+00 0. -1.
        -12    1    5    5    0    0 -0.37298054320E+02  0.46839905968E+02  0.79806944353E+03  0.80031241297E+03  0.00000000000E+00 0.  1.
          5    1    4    4  501    0  0.89290335641E+02 -0.24842263007E+01  0.31331243777E+02  0.94752597092E+02  0.41800000000E+01 0. -1.
         -5    1    4    4    0  501 -0.36520719161E+02 -0.36262804915E+02  0.22990527488E+02  0.56522479621E+02  0.41800000000E+01 0. -1.
</event>
<event>
11    1  0.6763327E-009  0.1850986E+03  0.7561462E-02  0.1065592E+00
         22   -1    0    0    0    0  0.00000000000E+00  0.00000000000E+00  0.54134936565E+03  0.54134936565E+03  0.00000000000E+00 0. -1.
         22   -1    0    0    0    0 -0.00000000000E+00 -0.00000000000E+00 -0.57212369412E+03  0.57212369412E+03  0.00000000000E+00 0.  1.
        -24    2    1    2    0    0 -0.12991716973E+03 -0.72256933697E+02 -0.48418883456E+03  0.51255936922E+03  0.78604987174E+02 0.  0.
         25    2    1    2    0    0  0.79941046732E+02 -0.37484999945E+02  0.33952313147E+02  0.15684581904E+03  0.12510857368E+03 0.  0.
         24    2    1    2    0    0  0.49976122996E+02  0.10974193364E+03  0.41946219294E+03  0.44406787150E+03  0.81895288786E+02 0.  0.
        -11    1    5    5    0    0  0.15731561155E+02  0.96427652330E+01  0.19557112701E+03  0.19643963616E+03  0.00000000000E+00 0.  1.
         12    1    5    5    0    0  0.34244561841E+02  0.10009916841E+03  0.22389106593E+03  0.24762823534E+03  0.00000000000E+00 0. -1.
         11    1    3    3    0    0 -0.65246544531E+02 -0.69347983308E+02 -0.36161643990E+03  0.37394211312E+03  0.00000000000E+00 0. -1.
        -12    1    3    3    0    0 -0.64670625197E+02 -0.29089503888E+01 -0.12257239467E+03  0.13861725610E+03  0.00000000000E+00 0.  1.
          5    1    4    4  501    0  0.64862273554E+02  0.20688365312E+02 -0.24915042348E+02  0.72617867809E+02  0.41800000000E+01 0. -1.
         -5    1    4    4    0  501  0.15078773178E+02 -0.58173365256E+02  0.58867355495E+02  0.84227951233E+02  0.41800000000E+01 0. -1.
</event>
<event>
11    1  0.6763327E-009  0.1726236E+03  0.7561462E-02  0.1075771E+00
         22   -1    0    0    0    0  0.00000000000E+00  0.00000000000E+00  0.36737033034E+03  0.36737033034E+03  0.00000000000E+00 0. -1.
         22   -1    0    0    0    0 -0.00000000000E+00 -0.00000000000E+00 -0.46925494264E+03  0.46925494264E+03  0.00000000000E+00 0.  1.
         24    2    1    2    0    0  0.18950968177E+02  0.11085707922E+03 -0.34802887054E+03  0.37445031130E+03  0.80252786235E+02 0.  0.
         25    2    1    2    0    0 -0.75477862468E+02 -0.19649125663E+03  0.95121629516E+02  0.26268153529E+03  0.12509093863E+03 0.  0.
        -24    2    1    2    0    0  0.56526894291E+02  0.85634177409E+02  0.15102262871E+03  0.19949342638E+03  0.80382153913E+02 0.  0.
        -11    1    3    3    0    0 -0.34750046416E+01  0.11435295435E+03 -0.30594861536E+03  0.32663929504E+03  0.00000000000E+00 0.  1.
         12    1    3    3    0    0  0.22425972819E+02 -0.34958751319E+01 -0.42080255180E+02  0.47811016260E+02  0.00000000000E+00 0. -1.
         11    1    5    5    0    0  0.45279115950E+02  0.81539008238E+01  0.86763996423E+02  0.98207308869E+02  0.00000000000E+00 0. -1.
        -12    1    5    5    0    0  0.11247778341E+02  0.77480276585E+02  0.64258632292E+02  0.10128611752E+03  0.00000000000E+00 0.  1.
          5    1    4    4  501    0 -0.35916296094E+02 -0.14953655158E+03  0.12119071812E+03  0.19584642745E+03  0.41800000000E+01 0. -1.
         -5    1    4    4    0  501 -0.39561566374E+02 -0.46954705049E+02 -0.26069088606E+02  0.66835107847E+02  0.41800000000E+01 0. -1.
</event>
<event>
11    1  0.6763327E-009  0.1593874E+03  0.7561462E-02  0.1087655E+00
         22   -1    0    0    0    0  0.00000000000E+00  0.00000000000E+00  0.13888979518E+03  0.13888979518E+03  0.00000000000E+00 0. -1.
         22   -1    0    0    0    0 -0.00000000000E+00 -0.00000000000E+00 -0.10722295053E+04  0.10722295053E+04  0.00000000000E+00 0. -1.
         24    2    1    2    0    0 -0.84755462475E+02 -0.44956041584E+02 -0.85905071201E+03  0.86814696143E+03  0.80662796498E+02 0.  0.
         25    2    1    2    0    0  0.11039624875E+03  0.58184354493E+02 -0.14552284020E+03  0.22890365396E+03  0.12508890810E+03 0.  0.
        -24    2    1    2    0    0 -0.25640786278E+02 -0.13228312909E+02  0.71233842109E+02  0.11406868506E+03  0.84290963140E+02 0.  0.
        -13    1    3    3    0    0 -0.16467673263E+01  0.17743567581E+02 -0.68887701175E+02  0.71155192406E+02  0.00000000000E+00 0.  1.
         14    1    3    3    0    0 -0.83108695148E+02 -0.62699609164E+02 -0.79016301083E+03  0.79699176902E+03  0.00000000000E+00 0. -1.
         13    1    5    5    0    0 -0.46592487868E+02 -0.22706008039E+02  0.74589369203E+02  0.90829492595E+02  0.00000000000E+00 0. -1.
        -14    1    5    5    0    0  0.20951701590E+02  0.94776951300E+01 -0.33555270949E+01  0.23239192468E+02  0.00000000000E+00 0.  1.
          5    1    4    4  501    0  0.12337734291E+03  0.58609049451E+02 -0.15904794210E+03  0.20969194002E+03  0.41800000000E+01 0. -1.
         -5    1    4    4    0  501 -0.12981094157E+02 -0.42469495862E+00  0.13525101900E+02  0.19211713946E+02  0.41800000000E+01 0. -1.
</event>
<event>
11    1  0.6763327E-009  0.1336145E+03  0.7561462E-02  0.1114906E+00
         22   -1    0    0    0    0  0.00000000000E+00  0.00000000000E+00  0.32860440458E+03  0.32860440458E+03  0.00000000000E+00 0.  1.
         22   -1    0    0    0    0 -0.00000000000E+00 -0.00000000000E+00 -0.47436863188E+03  0.47436863188E+03  0.00000000000E+00 0. -1.
         24    2    1    2    0    0 -0.15060752066E+02 -0.91198419757E+01 -0.40464613757E+03  0.41281910273E+03  0.79819278083E+02 0.  0.
         25    2    1    2    0    0 -0.31723971704E+02 -0.62961673897E+01  0.16573859797E+02  0.13026121158E+03  0.12508892160E+03 0.  0.
        -24    2    1    2    0    0  0.46784723771E+02  0.15416009365E+02  0.24230805047E+03  0.25989272216E+03  0.80028569815E+02 0.  0.
        -13    1    3    3    0    0 -0.62531425045E+01 -0.34706158672E+01  0.83740809290E+00  0.72005706714E+01  0.00000000000E+00 0.  1.
         14    1    3    3    0    0 -0.88076095618E+01 -0.56492261085E+01 -0.40548354566E+03  0.40561853205E+03  0.00000000000E+00 0. -1.
         11    1    5    5    0    0  0.11044468896E+02  0.13475152342E+02  0.27058755697E+01  0.17631840132E+02  0.00000000000E+00 0. -1.
        -12    1    5    5    0    0  0.35740254874E+02  0.19408570235E+01  0.23960217490E+03  0.24226088203E+03  0.00000000000E+00 0.  1.
          5    1    4    4  501    0 -0.72178224337E+02 -0.32206140680E+02  0.20855702051E+02  0.81849644312E+02  0.41800000000E+01 0.  1.
         -5    1    4    4    0  501  0.40454252632E+02  0.25909973290E+02 -0.42818422539E+01  0.48411567265E+02  0.41800000000E+01 0.  1.
</event>
<event>
11    1  0.6763327E-009  0.1747372E+03  0.7561462E-02  0.1073981E+00
         22   -1    0    0    0    0  0.00000000000E+00  0.00000000000E+00  0.26102272620E+04  0.26102272620E+04  0.00000000000E+00 0. -1.
         22   -1    0    0    0    0 -0.00000000000E+00 -0.00000000000E+00 -0.13048583425E+03  0.13048583425E+03  0.00000000000E+00 0.  1.
         24    2    1    2    0    0  0.90213531499E+02  0.69978111211E+02 -0.74569208855E+01  0.13889435744E+03  0.78744012753E+02 0.  0.
         25    2    1    2    0    0 -0.94369253615E+02 -0.10700057481E+03  0.10287615348E+03  0.21583710521E+03  0.12508986367E+03 0.  0.
        -24    2    1    2    0    0  0.41557221155E+01  0.37022463596E+02  0.23843221952E+04  0.23859816336E+04  0.80796613454E+02 0.  0.
        -11    1    3    3    0    0  0.76718595931E+02  0.87166461212E+02 -0.11438911256E+02  0.11668154787E+03  0.00000000000E+00 0.  1.
         12    1    3    3    0    0  0.13494935568E+02 -0.17188350000E+02  0.39819903703E+01  0.22212809571E+02  0.00000000000E+00 0. -1.
         13    1    5    5    0    0 -0.47013360900E+01 -0.16990929646E+02  0.14186182615E+04  0.14187277985E+04  0.00000000000E+00 0. -1.
        -14    1    5    5    0    0  0.88570582055E+01  0.54013393242E+02  0.96570393366E+03  0.96725383515E+03  0.00000000000E+00 0.  1.
          5    1    4    4  501    0 -0.35154630884E+02 -0.94918274638E+02  0.58778525930E+01  0.10147585173E+03  0.41800000000E+01 0.  1.
         -5    1    4    4    0  501 -0.59214622731E+02 -0.12082300170E+02  0.96998300892E+02  0.11436125348E+03  0.41800000000E+01 0.  1.
</event>
<event>
11    1  0.6763327E-009  0.1498433E+03  0.7561462E-02  0.1097039E+00
         22   -1    0    0    0    0  0.00000000000E+00  0.00000000000E+00  0.25210529016E+03  0.25210529016E+03  0.00000000000E+00 0.  1.
         22   -1    0    0    0    0 -0.00000000000E+00 -0.00000000000E+00 -0.13756967588E+04  0.13756967588E+04  0.00000000000E+00 0.  1.
         24    2    1    2    0    0  0.45951366192E+01  0.12106577482E+02 -0.66626970439E+03  0.67114733762E+03  0.79722928395E+02 0.  0.
         25    2    1    2    0    0  0.68096934746E+02  0.27318199415E+02 -0.68507118166E+03  0.70025236096E+03  0.12508944217E+03 0.  0.
        -24    2    1    2    0    0 -0.72692071365E+02 -0.39424776897E+02  0.22774941743E+03  0.25640235036E+03  0.83868455663E+02 0.  0.
        -13    1    3    3    0    0 -0.93335497108E+01  0.22771291387E+02 -0.63349701273E+03  0.63397485124E+03  0.00000000000E+00 0.  1.
         14    1    3    3    0    0  0.13928686330E+02 -0.10664713905E+02 -0.32772691658E+02  0.37172486385E+02  0.00000000000E+00 0. -1.
         11    1    5    5    0    0 -0.23862556739E+02  0.32777062169E+01  0.52663213970E+01  0.24655610177E+02  0.00000000000E+00 0. -1.
        -12    1    5    5    0    0 -0.48829514627E+02 -0.42702483114E+02  0.22248309603E+03  0.23174674018E+03  0.00000000000E+00 0.  1.
          5    1    4    4  501    0  0.15067300185E+02  0.25328896410E+02 -0.59414661292E+03  0.59489179400E+03  0.41800000000E+01 0. -1.
         -5    1    4    4    0  501  0.53029634561E+02  0.19893030047E+01 -0.90924568738E+02  0.10536056695E+03  0.41800000000E+01 0. -1.
</event>
<event>
11    1  0.6763327E-009  0.1662184E+03  0.7561462E-02  0.1081370E+00
         22   -1    0    0    0    0  0.00000000000E+00  0.00000000000E+00  0.44726931213E+03  0.44726931213E+03  0.00000000000E+00 0.  1.
         22   -1    0    0    0    0 -0.00000000000E+00 -0.00000000000E+00 -0.55846634273E+03  0.55846634273E+03  0.00000000000E+00 0.  1.
         24    2    1    2    0    0 -0.63335352501E+02 -0.89612433513E+02 -0.50941564310E+03  0.52724107352E+03  0.80231521593E+02 0.  0.
         25    2    1    2    0    0  0.86184512535E+02  0.64635521293E+02  0.18301905613E+03  0.24647421422E+03  0.12509213627E+03 0.  0.
        -24    2    1    2    0    0 -0.22849160034E+02  0.24976912220E+02  0.21519955637E+03  0.23202036712E+03  0.79854063387E+02 0.  0.
        -13    1    3    3    0    0 -0.69308073881E+02 -0.35059995634E+02 -0.35400622581E+03  0.36242684822E+03  0.00000000000E+00 0.  1.
         14    1    3    3    0    0  0.59727213805E+01 -0.54552437878E+02 -0.15540941729E+03  0.16481422530E+03  0.00000000000E+00 0. -1.
         13    1    5    5    0    0  0.28705389174E+02 -0.14291891180E+01  0.75759160584E+02  0.81027725882E+02  0.00000000000E+00 0. -1.
        -14    1    5    5    0    0 -0.51554549208E+02  0.26406101338E+02  0.13944039579E+03  0.15099264124E+03  0.00000000000E+00 0.  1.
          5    1    4    4  501    0 -0.11635352616E+02  0.55888002460E+02  0.30059998048E+02  0.64652348233E+02  0.41800000000E+01 0. -1.
         -5    1    4    4    0  501  0.97819865151E+02  0.87475188333E+01  0.15295905808E+03  0.18182186599E+03  0.41800000000E+01 0. -1.
</event>
<event>
11    1  0.6763327E-009  0.1862984E+03  0.7561462E-02  0.1064659E+00
         22   -1    0    0    0    0  0.00000000000E+00  0.00000000000E+00  0.88386168348E+03  0.88386168348E+03  0.00000000000E+00 0. -1.
         22   -1    0    0    0    0 -0.00000000000E+00 -0.00000000000E+00 -0.16920121906E+04  0.16920121906E+04  0.00000000000E+00 0. -1.
         24    2    1    2    0    0 -0.63860840655E+01  0.67070482481E+02 -0.16549792427E+04  0.16583360989E+04  0.81136251555E+02 0.  0.
         25    2    1    2    0    0 -0.50806445359E+02  0.87898739262E+02  0.29551773466E+03  0.33657667407E+03  0.12508254383E+03 0.  0.
        -24    2    1    2    0    0  0.57192529424E+02 -0.15496922174E+03  0.55131100096E+03  0.58096110111E+03  0.79281373006E+02 0.  0.
        -13    1    3    3    0    0 -0.25839253643E+02  0.48505861131E+02 -0.49438876196E+03  0.49743414996E+03  0.00000000000E+00 0.  1.
         14    1    3    3    0    0  0.19453169578E+02  0.18564621350E+02 -0.11605904808E+04  0.11609019489E+04  0.00000000000E+00 0. -1.
         13    1    5    5    0    0  0.36697418984E+02 -0.15138421114E+03  0.52378421075E+03  0.54645565179E+03  0.00000000000E+00 0. -1.
        -14    1    5    5    0    0  0.20495110440E+02 -0.35850106026E+01  0.27526790208E+02  0.34505449311E+02  0.00000000000E+00 0.  1.
          5    1    4    4  501    0 -0.53131092865E+02 -0.24087663092E+01  0.43538409089E+02  0.68860588511E+02  0.41800000000E+01 0. -1.
         -5    1    4    4    0  501  0.23246475060E+01  0.90307505571E+02  0.25197932557E+03  0.26771608555E+03  0.41800000000E+01 0. -1.
</event>
<event>
11    1  0.6763327E-009  0.2056653E+03  0.7561462E-02  0.1050588E+00
         22   -1    0    0    0    0  0.00000000000E+00  0.00000000000E+00  0.57190816014E+03  0.57190816014E+03  0.00000000000E+00 0.  1.
         22   -1    0    0    0    0 -0.00000000000E+00 -0.00000000000E+00 -0.67985325429E+03  0.67985325429E+03  0.00000000000E+00 0. -1.
         24    2    1    2    0    0  0.86098646869E+02 -0.13208561968E+03 -0.53286128529E+03  0.56159458954E+03  0.81164929176E+02 0.  0.
         25    2    1    2    0    0 -0.77794613026E+02  0.20007901225E+03 -0.40967405845E+01  0.24849126158E+03  0.12509001094E+03 0.  0.
        -24    2    1    2    0    0 -0.83040338424E+01 -0.67993392572E+02  0.42901293172E+03  0.44167556331E+03  0.79581085884E+02 0.  0.
        -11    1    3    3    0    0  0.26555519518E+02  0.54759781718E+01 -0.70047908736E+02  0.75112525401E+02  0.00000000000E+00 0.  1.
         12    1    3    3    0    0  0.59543127351E+02 -0.13756159785E+03 -0.46281337655E+03  0.48648206414E+03  0.00000000000E+00 0. -1.
         13    1    5    5    0    0 -0.10154348805E+02  0.17098376656E+02  0.82523545999E+02  0.84885811112E+02  0.00000000000E+00 0. -1.
        -14    1    5    5    0    0  0.18503149625E+01 -0.85091769228E+02  0.34648938572E+03  0.35678975220E+03  0.00000000000E+00 0.  1.
          5    1    4    4  501    0 -0.81853100876E+02  0.49849756128E+02 -0.17650221551E+02  0.97539381943E+02  0.41800000000E+01 0.  1.
         -5    1    4    4    0  501  0.40584878498E+01  0.15022925612E+03  0.13553480966E+02  0.15095187963E+03  0.41800000000E+01 0.  1.
</event>
<event>
11    1  0.6763327E-009  0.1762295E+03  0.7561462E-02  0.1072734E+00
         22   -1    0    0    0    0  0.00000000000E+00  0.00000000000E+00  0.26327971771E+04  0.26327971771E+04  0.00000000000E+00 0.  1.
         22   -1    0    0    0    0 -0.00000000000E+00 -0.00000000000E+00 -0.38491708446E+03  0.38491708446E+03  0.00000000000E+00 0. -1.
        -24    2    1    2    0    0  0.37400277896E+02 -0.65920291920E+02 -0.35454348821E+03  0.37128345097E+03  0.80037805176E+02 0.  0.
         25    2    1    2    0    0 -0.84116188225E+01  0.18001294640E+03  0.59807513335E+03  0.63703811733E+03  0.12509309176E+03 0.  0.
         24    2    1    2    0    0 -0.28988659073E+02 -0.11409265448E+03  0.20043484475E+04  0.20093926932E+04  0.79930097525E+02 0.  0.
        -11    1    5    5    0    0 -0.50667675737E+02 -0.10861950498E+03  0.17121745728E+04  0.17163645236E+04  0.00000000000E+00 0.  1.
         12    1    5    5    0    0  0.21679016664E+02 -0.54731495015E+01  0.29217387470E+03  0.29302816962E+03  0.00000000000E+00 0. -1.
         13    1    3    3    0    0 -0.17036148056E+02 -0.49861139470E+02 -0.14873018794E+03  0.15778793482E+03  0.00000000000E+00 0. -1.
        -14    1    3    3    0    0  0.54436425951E+02 -0.16059152449E+02 -0.20581330028E+03  0.21349551615E+03  0.00000000000E+00 0.  1.
          5    1    4    4  501    0 -0.55577128196E+02  0.66240484371E+02  0.15949411903E+03  0.18147304305E+03  0.41800000000E+01 0.  1.
         -5    1    4    4    0  501  0.47165509373E+02  0.11377246203E+03  0.43858101431E+03  0.45556507428E+03  0.41800000000E+01 0.  1.
</event>
<event>
11    1  0.6763327E-009  0.1995297E+03  0.7561462E-02  0.1054857E+00
         22   -1    0    0    0    0  0.00000000000E+00  0.00000000000E+00  0.71985388053E+03  0.71985388053E+03  0.00000000000E+00 0.  1.
         22   -1    0    0    0    0 -0.00000000000E+00 -0.00000000000E+00 -0.26416099797E+04  0.26416099797E+04  0.00000000000E+00 0.  1.
         24    2    1    2    0    0  0.15074012858E+03  0.36310724582E+02 -0.25316884056E+04  0.25377151290E+04  0.80689761536E+02 0.  0.
         25    2    1    2    0    0 -0.17469244541E+03 -0.10053102518E+01  0.79539623471E+01  0.21500914251E+03  0.12508878731E+03 0.  0.
        -24    2    1    2    0    0  0.23952316830E+02 -0.35305414330E+02  0.60197834406E+03  0.60873958878E+03  0.79785803648E+02 0.  0.
        -13    1    3    3    0    0  0.13396656361E+03  0.49149512150E+02 -0.24089172286E+04  0.24131400558E+04  0.00000000000E+00 0.  1.
         14    1    3    3    0    0  0.16773564977E+02 -0.12838787568E+02 -0.12277117699E+03  0.12457507314E+03  0.00000000000E+00 0. -1.
         11    1    5    5    0    0  0.59897415026E+01 -0.22061740247E+01  0.49982438637E+03  0.49986514323E+03  0.00000000000E+00 0. -1.
        -12    1    5    5    0    0  0.17962575327E+02 -0.33099240306E+02  0.10215395770E+03  0.10887444555E+03  0.00000000000E+00 0.  1.
          5    1    4    4  501    0 -0.78584277693E+01 -0.16073356907E+02 -0.37179834402E+02  0.41471920325E+02  0.41800000000E+01 0.  1.
         -5    1    4    4    0  501 -0.16683401764E+03  0.15068046655E+02  0.45133796749E+02  0.17353722218E+03  0.41800000000E+01 0.  1.
</event>
<event>
11    1  0.6763327E-009  0.2043205E+03  0.7561462E-02  0.1051510E+00
         22   -1    0    0    0    0  0.00000000000E+00  0.00000000000E+00  0.21702460057E+04  0.21702460057E+04  0.00000000000E+00 0.  1.
         22   -1    0    0    0    0 -0.00000000000E+00 -0.00000000000E+00 -0.65107717028E+03  0.65107717028E+03  0.00000000000E+00 0. -1.
        -24    2    1    2    0    0 -0.16064642110E+03  0.11872069006E+01 -0.60973129885E+03  0.63559266042E+03  0.79981817386E+02 0.  0.
         25    2    1    2    0    0  0.19792654863E+03 -0.44380531922E+02  0.50050421705E+03  0.55434310169E+03  0.12508897967E+03 0.  0.
         24    2    1    2    0    0 -0.37280127533E+02  0.43193325022E+02  0.16283959172E+04  0.16313874139E+04  0.80598757308E+02 0.  0.
        -13    1    5    5    0    0  0.44621859338E+01 -0.14564683754E+02  0.73363408518E+03  0.73379221314E+03  0.00000000000E+00 0.  1.
         14    1    5    5    0    0 -0.41742313467E+02  0.57758008776E+02  0.89476183203E+03  0.89759520073E+03  0.00000000000E+00 0. -1.
         11    1    3    3    0    0 -0.13479932680E+03 -0.28879454822E+02 -0.50901260341E+03  0.52735065359E+03  0.00000000000E+00 0. -1.
        -12    1    3    3    0    0 -0.25847094296E+02  0.30066661722E+02 -0.10071869545E+03  0.10824200683E+03  0.00000000000E+00 0.  1.
          5    1    4    4  501    0 -0.36841017524E+01  0.19058573342E+02  0.15235403980E+02  0.25027819681E+02  0.41800000000E+01 0.  1.
         -5    1    4    4    0  501  0.20161065038E+03 -0.63439105265E+02  0.48526881307E+03  0.52931528200E+03  0.41800000000E+01 0.  1.
</event>
<event>
11    1  0.6763327E-009  0.2909398E+03  0.7561462E-02  0.1004100E+00
         22   -1    0    0    0    0  0.00000000000E+00  0.00000000000E+00  0.21891063883E+04  0.21891063883E+04  0.00000000000E+00 0.  1.
         22   -1    0    0    0    0 -0.00000000000E+00 -0.00000000000E+00 -0.27865655483E+03  0.27865655483E+03  0.00000000000E+00 0. -1.
        -24    2    1    2    0    0  0.69184105545E+02 -0.65775062602E+02 -0.17977069724E+03  0.22049974495E+03  0.84792892479E+02 0.  0.
         25    2    1    2    0    0  0.19853288591E+03  0.10397594464E+03  0.17429583290E+03  0.31024972616E+03  0.12509816691E+03 0.  0.
         24    2    1    2    0    0 -0.26771699145E+03 -0.38200882041E+02  0.19159246978E+04  0.19370134720E+04  0.90122406714E+02 0.  0.
        -13    1    5    5    0    0 -0.20230951989E+03  0.10227160954E+02  0.14405283902E+04  0.14547012681E+04  0.00000000000E+00 0.  1.
         14    1    5    5    0    0 -0.65407471569E+02 -0.48428042995E+02  0.47539630768E+03  0.48231220391E+03  0.00000000000E+00 0. -1.
         11    1    3    3    0    0 -0.66610799948E+01 -0.26295173872E+02 -0.99815615324E+02  0.10343579273E+03  0.00000000000E+00 0. -1.
        -12    1    3    3    0    0  0.75845185540E+02 -0.39479888730E+02 -0.79955081915E+02  0.11706395221E+03  0.00000000000E+00 0.  1.
          5    1    4    4  501    0  0.30971708643E+02  0.75219955039E+02  0.28655830200E+02  0.86347654147E+02  0.41800000000E+01 0.  1.
         -5    1    4    4    0  501  0.16756117727E+03  0.28755989604E+02  0.14564000270E+03  0.22390207201E+03  0.41800000000E+01 0.  1.
</event>
<event>
11    1  0.6763327E-009  0.1648706E+03  0.7561462E-02  0.1082584E+00
         22   -1    0    0    0    0  0.00000000000E+00  0.00000000000E+00  0.28817658273E+03  0.28817658273E+03  0.00000000000E+00 0. -1.
         22   -1    0    0    0    0 -0.00000000000E+00 -0.00000000000E+00 -0.93018288979E+03  0.93018288979E+03  0.00000000000E+00 0.  1.
         24    2    1    2    0    0 -0.63712629958E+02 -0.27890061153E+02 -0.83233874972E+03  0.83908381237E+03  0.80229016953E+02 0.  0.
         25    2    1    2    0    0  0.95032103277E+02  0.11576112356E+03  0.71027169516E+02  0.20766372714E+03  0.12509047277E+03 0.  0.
        -24    2    1    2    0    0 -0.31319473320E+02 -0.87871062412E+02  0.11930527315E+03  0.17161193301E+03  0.80713532528E+02 0.  0.
        -11    1    3    3    0    0 -0.75818871963E+02 -0.10613573844E+02 -0.75655161703E+03  0.76041534606E+03  0.00000000000E+00 0.  1.
         12    1    3    3    0    0  0.12106242006E+02 -0.17276487308E+02 -0.75787132691E+02  0.78668466304E+02  0.00000000000E+00 0. -1.
         13    1    5    5    0    0  0.12768584592E+02 -0.65918649385E+02  0.95934676245E+02  0.11709725529E+03  0.00000000000E+00 0. -1.
        -14    1    5    5    0    0 -0.44088057912E+02 -0.21952413027E+02  0.23370596904E+02  0.54514677728E+02  0.00000000000E+00 0.  1.
          5    1    4    4  501    0  0.29293004738E+02 -0.23113975892E+02  0.31363177161E+02  0.48922973026E+02  0.41800000000E+01 0.  1.
         -5    1    4    4    0  501  0.65739098540E+02  0.13887509946E+03  0.39663992355E+02  0.15874075411E+03  0.41800000000E+01 0.  1.
</event>
<event>
11    1  0.6763327E-009  0.1696755E+03  0.7561462E-02  0.1078314E+00
         22   -1    0    0    0    0  0.00000000000E+00  0.00000000000E+00  0.41892863891E+03  0.41892863891E+03  0.00000000000E+00 0. -1.
         22   -1    0    0    0    0 -0.00000000000E+00 -0.00000000000E+00 -0.34528107757E+04  0.34528107757E+04  0.00000000000E+00 0.  1.
        -24    2    1    2    0    0 -0.11183287694E+03 -0.29648554825E+02 -0.30438718167E+04  0.30471718856E+04  0.81946535424E+02 0.  0.
         25    2    1    2    0    0  0.10482600868E+03  0.98929405540E+01 -0.38633076331E+03  0.41950702632E+03  0.12509326154E+03 0.  0.
         24    2    1    2    0    0  0.70068682579E+01  0.19755614271E+02  0.39632044318E+03  0.40506050275E+03  0.81023062809E+02 0.  0.
        -11    1    5    5    0    0 -0.14024981301E+02 -0.27713634562E+02  0.17469104328E+03  0.17743084918E+03  0.00000000000E+00 0.  1.
         12    1    5    5    0    0  0.21031849559E+02  0.47469248833E+02  0.22162939990E+03  0.22762965356E+03  0.00000000000E+00 0. -1.
         11    1    3    3    0    0 -0.14303739189E+02 -0.17307025576E+02 -0.15397123872E+03  0.15559971864E+03  0.00000000000E+00 0. -1.
        -12    1    3    3    0    0 -0.97529137747E+02 -0.12341529249E+02 -0.28899005779E+04  0.28915721669E+04  0.00000000000E+00 0.  1.
          5    1    4    4  501    0  0.61619716723E+02 -0.22541738973E+02 -0.60972829416E+02  0.89667596220E+02  0.41800000000E+01 0. -1.
         -5    1    4    4    0  501  0.43206291955E+02  0.32434679527E+02 -0.32535793390E+03  0.32983943010E+03  0.41800000000E+01 0. -1.
</event>
<event>
11    1  0.6763327E-009  0.1494947E+03  0.7561462E-02  0.1097396E+00
         22   -1    0    0    0    0  0.00000000000E+00  0.00000000000E+00  0.29246081408E+03  0.29246081408E+03  0.00000000000E+00 0.  1.
         22   -1    0    0    0    0 -0.00000000000E+00 -0.00000000000E+00 -0.45466825268E+03  0.45466825268E+03  0.00000000000E+00 0.  1.
         24    2    1    2    0    0  0.10672835782E+01 -0.16401049607E+01 -0.31069074971E+03  0.32124464423E+03  0.81642822393E+02 0.  0.
         25    2    1    2    0    0 -0.49299181312E+02 -0.64595452259E+02 -0.80846445219E+02  0.16966253609E+03  0.12508495800E+03 0.  0.
        -24    2    1    2    0    0  0.48231897733E+02  0.66235557220E+02  0.22932975633E+03  0.25622188645E+03  0.79649563452E+02 0.  0.
        -11    1    3    3    0    0 -0.18011837408E+02  0.23592790933E+02 -0.25862041415E+03  0.26031819891E+03  0.00000000000E+00 0.  1.
         12    1    3    3    0    0  0.19079120986E+02 -0.25232895894E+02 -0.52070335568E+02  0.60926445317E+02  0.00000000000E+00 0. -1.
         11    1    5    5    0    0  0.23675174917E+02  0.36422722054E+00  0.96517483552E+01  0.25569568145E+02  0.00000000000E+00 0. -1.
        -12    1    5    5    0    0  0.24556722816E+02  0.65871330000E+02  0.21967800797E+03  0.23065231830E+03  0.00000000000E+00 0.  1.
          5    1    4    4  501    0 -0.36205757565E+02 -0.10240486529E+03 -0.63172524258E+02  0.12572133286E+03  0.41800000000E+01 0. -1.
         -5    1    4    4    0  501 -0.13093423746E+02  0.37809413028E+02 -0.17673920960E+02  0.43941203227E+02  0.41800000000E+01 0. -1.
</event>
<event>
11    1  0.6763327E-009  0.1399971E+03  0.7561462E-02  0.1107562E+00
         22   -1    0    0    0    0  0.00000000000E+00  0.00000000000E+00  0.12269181376E+04  0.12269181376E+04  0.00000000000E+00 0. -1.
         22   -1    0    0    0    0 -0.00000000000E+00 -0.00000000000E+00 -0.47040847714E+02  0.47040847714E+02  0.00000000000E+00 0. -1.
         24    2    1    2    0    0  0.35136477935E+02 -0.50399314306E+02  0.61073414436E+02  0.11801303798E+03  0.80140203503E+02 0.  0.
         25    2    1    2    0    0 -0.32457856072E+02  0.59872480095E+02  0.29110576461E+03  0.32407953727E+03  0.12508698571E+03 0.  0.
        -24    2    1    2    0    0 -0.26786218631E+01 -0.94731657889E+01  0.82769811081E+03  0.83186641004E+03  0.82587200120E+02 0.  0.
        -13    1    3    3    0    0 -0.22961663875E+02 -0.87880679077E+01  0.33187889819E+02  0.41302592849E+02  0.00000000000E+00 0.  1.
         14    1    3    3    0    0  0.58098141810E+02 -0.41611246398E+02  0.27885524617E+02  0.76710445128E+02  0.00000000000E+00 0. -1.
         13    1    5    5    0    0 -0.35300689325E+02  0.17855434232E+02  0.46514973475E+03  0.46682890971E+03  0.00000000000E+00 0. -1.
        -14    1    5    5    0    0  0.32622067462E+02 -0.27328600021E+02  0.36254837605E+03  0.36503750033E+03  0.00000000000E+00 0.  1.
          5    1    4    4  501    0 -0.47571542545E+02  0.77046156018E+02  0.28633372754E+03  0.30033920447E+03  0.41800000000E+01 0. -1.
         -5    1    4    4    0  501  0.15113686473E+02 -0.17173675923E+02  0.47720370703E+01  0.23740332797E+02  0.41800000000E+01 0. -1.
</event>
<event>
11    1  0.6763327E-009  0.1282661E+03  0.7561462E-02  0.1121418E+00
         22   -1    0    0    0    0  0.00000000000E+00  0.00000000000E+00  0.14427913821E+04  0.14427913821E+04  0.00000000000E+00 0. -1.
         22   -1    0    0    0    0 -0.00000000000E+00 -0.00000000000E+00 -0.22520722823E+03  0.22520722823E+03  0.00000000000E+00 0.  1.
        -24    2    1    2    0    0 -0.27881724657E+02  0.66326634322E+01 -0.20643666350E+03  0.22387386209E+03  0.81743668224E+02 0.  0.
         25    2    1    2    0    0  0.73143189171E+01 -0.19060753857E+02  0.48918439355E+03  0.50533724881E+03  0.12509017762E+03 0.  0.
         24    2    1    2    0    0  0.20567405740E+02  0.12428090425E+02  0.93483642382E+03  0.93878749943E+03  0.82615701692E+02 0.  0.
        -13    1    5    5    0    0 -0.13551859358E+02  0.28522965561E+02  0.16306268514E+03  0.16609229887E+03  0.00000000000E+00 0.  1.
         14    1    5    5    0    0  0.34119265097E+02 -0.16094875136E+02  0.77177373868E+03  0.77269520056E+03  0.00000000000E+00 0. -1.
         13    1    3    3    0    0  0.87950829775E+00 -0.35549917278E+02 -0.83380733288E+02  0.90647210862E+02  0.00000000000E+00 0. -1.
        -14    1    3    3    0    0 -0.28761232955E+02  0.42182580710E+02 -0.12305593021E+03  0.13322665123E+03  0.00000000000E+00 0.  1.
          5    1    4    4  501    0  0.64832856980E+02 -0.22963191967E+02  0.25994563376E+03  0.26892343230E+03  0.41800000000E+01 0.  1.
         -5    1    4    4    0  501 -0.57518538062E+02  0.39024381096E+01  0.22923875979E+03  0.23641381651E+03  0.41800000000E+01 0.  1.
</event>
<event>
11    1  0.6763327E-009  0.1346023E+03  0.7561462E-02  0.1113740E+00
         22   -1    0    0    0    0  0.00000000000E+00  0.00000000000E+00  0.11107570701E+04  0.11107570701E+04  0.00000000000E+00 0.  1.
         22   -1    0    0    0    0 -0.00000000000E+00 -0.00000000000E+00 -0.30718384466E+03  0.30718384466E+03  0.00000000000E+00 0. -1.
         24    2    1    2    0    0 -0.26482758817E+02 -0.23978759726E+02 -0.28688677863E+03  0.30017269115E+03  0.80766969296E+02 0.  0.
         25    2    1    2    0    0  0.30283833789E+01  0.64713655901E+02  0.47571200686E+03  0.49613167536E+03  0.12509075686E+03 0.  0.
        -24    2    1    2    0    0  0.23454375438E+02 -0.40734896175E+02  0.61474799721E+03  0.62163654825E+03  0.79419509917E+02 0.  0.
        -11    1    3    3    0    0 -0.39055700508E+02 -0.19117571796E+02 -0.67004542086E+02  0.79877643642E+02  0.00000000000E+00 0.  1.
         12    1    3    3    0    0  0.12572941691E+02 -0.48611879291E+01 -0.21988223654E+03  0.22029504751E+03  0.00000000000E+00 0. -1.
         11    1    5    5    0    0 -0.18385417939E+01 -0.44879074003E+02  0.16051586961E+03  0.16668190038E+03  0.00000000000E+00 0. -1.
        -12    1    5    5    0    0  0.25292917232E+02  0.41441778274E+01  0.45423212760E+03  0.45495464787E+03  0.00000000000E+00 0.  1.
          5    1    4    4  501    0 -0.50822522176E+02  0.64846002323E+01  0.10377083498E+03  0.11580516997E+03  0.41800000000E+01 0.  1.
         -5    1    4    4    0  501  0.53850905555E+02  0.58229055668E+02  0.37194117188E+03  0.38032650538E+03  0.41800000000E+01 0.  1.
</event>
<event>
11    1  0.9193979E-009  0.2156695E+03  0.7561462E-02  0.1043965E+00
         22   -1    0    0    0    0  0.00000000000E+00  0.00000000000E+00  0.74179577220E+03  0.74179577220E+03  0.00000000000E+00 0. -1.
         22   -1    0    0    0    0 -0.00000000000E+00 -0.00000000000E+00 -0.20315576492E+04  0.20315576492E+04  0.00000000000E+00 0.  1.
        -24    2    1    2    0    0  0.57223715883E+02  0.27148612895E+02 -0.89353160265E+03  0.89935107846E+03  0.80137610036E+02 0.  0.
         25    2    1    2    0    0 -0.18843839976E+03 -0.14294291444E+03 -0.11063246989E+04  0.11382188707E+04  0.12508457511E+03 0.  0.
         24    2    1    2    0    0  0.13121468388E+03  0.11579430154E+03  0.71009442450E+03  0.73578347230E+03  0.80731733934E+02 0.  0.
        -13    1    5    5    0    0  0.11912869980E+03  0.73917878327E+02  0.62061158852E+03  0.63625014237E+03  0.00000000000E+00 0.  1.
         14    1    5    5    0    0  0.12085984084E+02  0.41876423216E+02  0.89482835974E+02  0.99533329928E+02  0.00000000000E+00 0. -1.
         13    1    3    3    0    0  0.46285652820E+02  0.22129649971E+02 -0.22759480180E+03  0.23330554402E+03  0.00000000000E+00 0. -1.
        -14    1    3    3    0    0  0.10938063064E+02  0.50189629241E+01 -0.66593680085E+03  0.66604553444E+03  0.00000000000E+00 0.  1.
          5    1    4    4  501    0 -0.28212523562E+02 -0.87509942169E+02 -0.28239595125E+03  0.29701663614E+03  0.41800000000E+01 0. -1.
         -5    1    4    4    0  501 -0.16022587620E+03 -0.55432972269E+02 -0.82392874763E+03  0.84120223453E+03  0.41800000000E+01 0. -1.
</event>
<event>
11    1  0.6763327E-009  0.1502130E+03  0.7561462E-02  0.1096661E+00
         22   -1    0    0    0    0  0.00000000000E+00  0.00000000000E+00  0.40731313700E+03  0.40731313700E+03  0.00000000000E+00 0.  1.
         22   -1    0    0    0    0 -0.00000000000E+00 -0.00000000000E+00 -0.18152027727E+04  0.18152027727E+04  0.00000000000E+00 0. -1.
        -24    2    1    2    0    0  0.73959516087E+02 -0.35350236396E+02 -0.14861469450E+04  0.14909167262E+04  0.86488687398E+02 0.  0.
         25    2    1    2    0    0 -0.10283280809E+03 -0.18911019535E+01 -0.30123558510E+03  0.34200794479E+03  0.12509354051E+03 0.  0.
         24    2    1    2    0    0  0.28873292002E+02  0.37241338350E+02  0.37949289449E+03  0.38959123864E+03  0.74470745821E+02 0.  0.
        -13    1    5    5    0    0  0.38085607456E+02  0.44319778152E+02  0.37000635031E+03  0.37459238580E+03  0.00000000000E+00 0.  1.
         14    1    5    5    0    0 -0.92123154536E+01 -0.70784398022E+01  0.94865441871E+01  0.14998852845E+02  0.00000000000E+00 0. -1.
         11    1    3    3    0    0  0.88823972567E+02 -0.32822865847E+02 -0.14162393852E+04  0.14194016467E+04  0.00000000000E+00 0. -1.
        -12    1    3    3    0    0 -0.14864456480E+02 -0.25273705491E+01 -0.69907559857E+02  0.71515079483E+02  0.00000000000E+00 0.  1.
          5    1    4    4  501    0 -0.12883921239E+03  0.14032607398E+00 -0.20456949970E+03  0.24179684644E+03  0.41800000000E+01 0. -1.
         -5    1    4    4    0  501  0.26006404302E+02 -0.20314280275E+01 -0.96666085406E+02  0.10021109835E+03  0.41800000000E+01 0. -1.
</event>
<event>
11    1  0.6763327E-009  0.1338719E+03  0.7561462E-02  0.1114601E+00
         22   -1    0    0    0    0  0.00000000000E+00  0.00000000000E+00  0.18246594643E+03  0.18246594643E+03  0.00000000000E+00 0.  1.
         22   -1    0    0    0    0 -0.00000000000E+00 -0.00000000000E+00 -0.23618151446E+03  0.23618151446E+03  0.00000000000E+00 0.  1.
        -24    2    1    2    0    0  0.63622292161E+01 -0.35570846733E+02 -0.12633813903E+03  0.15430009721E+03  0.80879116747E+02 0.  0.
         25    2    1    2    0    0 -0.55152431487E+01 -0.19488695263E+02 -0.23170532397E+02  0.12881945456E+03  0.12508937265E+03 0.  0.
         24    2    1    2    0    0 -0.84698606734E+00  0.55059541996E+02  0.95793103400E+02  0.13552790913E+03  0.78480729761E+02 0.  0.
        -11    1    5    5    0    0  0.13070937956E+02 -0.76377080135E+01  0.60254755902E+02  0.62127446524E+02  0.00000000000E+00 0.  1.
         12    1    5    5    0    0 -0.13917924023E+02  0.62697250009E+02  0.35538347498E+02  0.73400462606E+02  0.00000000000E+00 0. -1.
         11    1    3    3    0    0  0.90161252356E+01 -0.40316532390E+02 -0.16752761780E+02  0.44579909438E+02  0.00000000000E+00 0. -1.
        -12    1    3    3    0    0 -0.26538960195E+01  0.47456856568E+01 -0.10958537725E+03  0.10972018777E+03  0.00000000000E+00 0.  1.
          5    1    4    4  501    0  0.42007087987E+02 -0.26310288287E+02 -0.52566120700E+02  0.72370547575E+02  0.41800000000E+01 0. -1.
         -5    1    4    4    0  501 -0.47522331135E+02  0.68215930246E+01  0.29395588303E+02  0.56448906984E+02  0.41800000000E+01 0. -1.
</event>
<event>
11    1  0.6763327E-009  0.2480351E+03  0.7561462E-02  0.1024951E+00
         22   -1    0    0    0    0  0.00000000000E+00  0.00000000000E+00  0.28654164080E+04  0.28654164080E+04  0.00000000000E+00 0.  1.
         22   -1    0    0    0    0 -0.00000000000E+00 -0.00000000000E+00 -0.10864845509E+04  0.10864845509E+04  0.00000000000E+00 0.  1.
         24    2    1    2    0    0  0.20896711656E+03 -0.42443073056E+02 -0.99890195102E+03  0.10246231479E+04  0.81109907855E+02 0.  0.
         25    2    1    2    0    0 -0.21515934067E+03  0.10681531120E+03  0.17507347646E+03  0.32249129060E+03  0.12508740051E+03 0.  0.
        -24    2    1    2    0    0  0.61922241142E+01 -0.64372238148E+02  0.26027603317E+04  0.26047865204E+04  0.79808169479E+02 0.  0.
        -13    1    3    3    0    0  0.21468276849E+03 -0.48195000181E+02 -0.96221150493E+03  0.98704732883E+03  0.00000000000E+00 0.  1.
         14    1    3    3    0    0 -0.57156519271E+01  0.57519271250E+01 -0.36690446095E+02  0.37575819050E+02  0.00000000000E+00 0. -1.
         13    1    5    5    0    0 -0.31328539534E+02 -0.75855217371E+01  0.59457662516E+03  0.59544972980E+03  0.00000000000E+00 0. -1.
        -14    1    5    5    0    0  0.37520763649E+02 -0.56786716411E+02  0.20081837066E+04  0.20093367906E+04  0.00000000000E+00 0.  1.
          5    1    4    4  501    0 -0.87565757953E+02  0.86657304605E+02  0.14402016197E+03  0.18956932732E+03  0.41800000000E+01 0. -1.
         -5    1    4    4    0  501 -0.12759358272E+03  0.20158006599E+02  0.31053314492E+02  0.13292196328E+03  0.41800000000E+01 0. -1.
</event>
<event>
11    1  0.6763327E-009  0.1622038E+03  0.7561462E-02  0.1085023E+00
         22   -1    0    0    0    0  0.00000000000E+00  0.00000000000E+00  0.22474718882E+03  0.22474718882E+03  0.00000000000E+00 0. -1.
         22   -1    0    0    0    0 -0.00000000000E+00 -0.00000000000E+00 -0.96537703573E+03  0.96537703573E+03  0.00000000000E+00 0.  1.
        -24    2    1    2    0    0  0.72664053424E+02 -0.67606560212E+02 -0.80580908754E+03  0.81586179472E+03  0.80321048846E+02 0.  0.
         25    2    1    2    0    0 -0.11265671230E+03  0.13388611265E+03 -0.42337239487E+02  0.21921907019E+03  0.12509009914E+03 0.  0.
         24    2    1    2    0    0  0.39992658875E+02 -0.66279552441E+02  0.10751648011E+03  0.15504335963E+03  0.80537308345E+02 0.  0.
        -11    1    5    5    0    0 -0.11586744879E+02 -0.40889271536E+02  0.13048633090E+02  0.44457305464E+02  0.00000000000E+00 0.  1.
         12    1    5    5    0    0  0.51579403753E+02 -0.25390280905E+02  0.94467847022E+02  0.11058605417E+03  0.00000000000E+00 0. -1.
         13    1    3    3    0    0  0.65814483353E+02 -0.12284743460E+02 -0.32445521325E+03  0.33129087905E+03  0.00000000000E+00 0. -1.
        -14    1    3    3    0    0  0.68495700717E+01 -0.55321816752E+02 -0.48135387429E+03  0.48457091567E+03  0.00000000000E+00 0.  1.
          5    1    4    4  501    0 -0.78702746161E+02  0.56981161906E+02  0.36514539627E+02  0.10388339169E+03  0.41800000000E+01 0. -1.
         -5    1    4    4    0  501 -0.33953966137E+02  0.76904950747E+02 -0.78851779114E+02  0.11533567850E+03  0.41800000000E+01 0. -1.
</event>
<event>
11    1  0.6763327E-009  0.1505109E+03  0.7561462E-02  0.1096358E+00
         22   -1    0    0    0    0  0.00000000000E+00  0.00000000000E+00  0.94427296170E+03  0.94427296170E+03  0.00000000000E+00 0.  1.
         22   -1    0    0    0    0 -0.00000000000E+00 -0.00000000000E+00 -0.17255278392E+03  0.17255278392E+03  0.00000000000E+00 0. -1.
        -24    2    1    2    0    0 -0.78796246952E+01 -0.39072036087E+02 -0.14130807593E+03  0.16592804650E+03  0.77300917212E+02 0.  0.
         25    2    1    2    0    0  0.87721693261E+02  0.36047354091E+02  0.51488944227E+03  0.53828685801E+03  0.12508835493E+03 0.  0.
         24    2    1    2    0    0 -0.79842068566E+02  0.30246819962E+01  0.39813881143E+03  0.41261084111E+03  0.73138829778E+02 0.  0.
        -13    1    5    5    0    0 -0.69045418758E+02  0.81442763785E+01  0.16349782196E+03  0.17766580109E+03  0.00000000000E+00 0.  1.
         14    1    5    5    0    0 -0.10796649808E+02 -0.51195943823E+01  0.23464098947E+03  0.23494504003E+03  0.00000000000E+00 0. -1.
         13    1    3    3    0    0 -0.42272655577E+02 -0.23549839160E+02 -0.67751210837E+02  0.83257425518E+02  0.00000000000E+00 0. -1.
        -14    1    3    3    0    0  0.34393030882E+02 -0.15522196927E+02 -0.73556865094E+02  0.82670620980E+02  0.00000000000E+00 0.  1.
          5    1    4    4  501    0  0.72181739607E+01 -0.28171897352E+02  0.28304796524E+03  0.28456876297E+03  0.41800000000E+01 0. -1.
         -5    1    4    4    0  501  0.80503519301E+02  0.64219251443E+02  0.23184147704E+03  0.25371809504E+03  0.41800000000E+01 0. -1.
</event>
<event>
11    1  0.6763327E-009  0.2792623E+03  0.7561462E-02  0.1009371E+00
         22   -1    0    0    0    0  0.00000000000E+00  0.00000000000E+00  0.43042526924E+03  0.43042526924E+03  0.00000000000E+00 0.  1.
         22   -1    0    0    0    0 -0.00000000000E+00 -0.00000000000E+00 -0.76671585885E+03  0.76671585885E+03  0.00000000000E+00 0. -1.
        -24    2    1    2    0    0 -0.25227218308E+03 -0.24717011240E+02 -0.54335388489E+03  0.60493139052E+03  0.80351465488E+02 0.  0.
         25    2    1    2    0    0  0.23301761492E+03 -0.18221216883E+03  0.64312944007E+02  0.32753902688E+03  0.12508867267E+03 0.  0.
         24    2    1    2    0    0  0.19254568158E+02  0.20692918007E+03  0.14275035128E+03  0.26467071070E+03  0.80513963724E+02 0.  0.
        -11    1    5    5    0    0  0.18286106570E+02  0.41668586917E+02  0.71388958868E+02  0.84658350311E+02  0.00000000000E+00 0.  1.
         12    1    5    5    0    0  0.96846158803E+00  0.16526059315E+03  0.71361392408E+02  0.18001236039E+03  0.00000000000E+00 0. -1.
         11    1    3    3    0    0 -0.25826447237E+03 -0.21703030914E+02 -0.53097983103E+03  0.59085627711E+03  0.00000000000E+00 0. -1.
        -12    1    3    3    0    0  0.59922892953E+01 -0.30139803267E+01 -0.12374053860E+02  0.14075113404E+02  0.00000000000E+00 0.  1.
          5    1    4    4  501    0  0.21279822590E+03 -0.11931923074E+03  0.84682751283E+02  0.25828047649E+03  0.41800000000E+01 0. -1.
         -5    1    4    4    0  501  0.20219389016E+02 -0.62892938084E+02 -0.20369807276E+02  0.69258550385E+02  0.41800000000E+01 0. -1.
</event>
<event>
11    1  0.6763327E-009  0.2298559E+03  0.7561462E-02  0.1035213E+00
         22   -1    0    0    0    0  0.00000000000E+00  0.00000000000E+00  0.45492740668E+03  0.45492740668E+03  0.00000000000E+00 0.  1.
         22   -1    0    0    0    0 -0.00000000000E+00 -0.00000000000E+00 -0.54304685914E+03  0.54304685914E+03  0.00000000000E+00 0. -1.
        -24    2    1    2    0    0 -0.15763420138E+03 -0.76683327271E+02 -0.30161587179E+03  0.35791890086E+03  0.80030814979E+02 0.  0.
         25    2    1    2    0    0  0.22646053962E+03  0.11602766960E+03 -0.10502074346E+03  0.30234903761E+03  0.12505513931E+03 0.  0.
         24    2    1    2    0    0 -0.68826338237E+02 -0.39344342328E+02  0.31851716279E+03  0.33770632736E+03  0.79418753686E+02 0.  0.
        -11    1    5    5    0    0 -0.42817153350E+02 -0.43054748517E+02  0.29866978980E+03  0.30477969638E+03  0.00000000000E+00 0.  1.
         12    1    5    5    0    0 -0.26009184888E+02  0.37104061894E+01  0.19847372998E+02  0.32926630978E+02  0.00000000000E+00 0. -1.
         11    1    3    3    0    0 -0.92840198780E+02 -0.79794181596E+02 -0.23478053052E+03  0.26477974136E+03  0.00000000000E+00 0. -1.
        -12    1    3    3    0    0 -0.64794002602E+02  0.31108543248E+01 -0.66835341276E+02  0.93139159494E+02  0.00000000000E+00 0.  1.
          5    1    4    4  501    0  0.15354215373E+03  0.59723666842E+02 -0.12638680688E+03  0.20768535506E+03  0.41800000000E+01 0. -1.
         -5    1    4    4    0  501  0.72918385892E+02  0.56304002757E+02  0.21366063419E+02  0.94663682548E+02  0.41800000000E+01 0. -1.
</event>
<event>
11    1  0.6763327E-009  0.1759647E+03  0.7561462E-02  0.1072954E+00
         22   -1    0    0    0    0  0.00000000000E+00  0.00000000000E+00  0.23822334328E+04  0.23822334328E+04  0.00000000000E+00 0. -1.
         22   -1    0    0    0    0 -0.00000000000E+00 -0.00000000000E+00 -0.39468904052E+03  0.39468904052E+03  0.00000000000E+00 0. -1.
        -24    2    1    2    0    0  0.42893849627E+02 -0.19615804147E+02 -0.33850158218E+03  0.35128920446E+03  0.81216512605E+02 0.  0.
         25    2    1    2    0    0 -0.16222553647E+03  0.41978962964E+02  0.18411168620E+03  0.27861581814E+03  0.12510117150E+03 0.  0.
         24    2    1    2    0    0  0.11933168685E+03 -0.22363158817E+02  0.21419342882E+04  0.21470174507E+04  0.84031399196E+02 0.  0.
        -11    1    5    5    0    0  0.93391079203E+02 -0.25172830398E+02  0.97381250856E+03  0.97860429536E+03  0.00000000000E+00 0.  1.
         12    1    5    5    0    0  0.25940607643E+02  0.28096715819E+01  0.11681217797E+04  0.11684131553E+04  0.00000000000E+00 0. -1.
         11    1    3    3    0    0  0.28217921064E+01 -0.36702762308E+01 -0.27192313252E+03  0.27196254050E+03  0.00000000000E+00 0. -1.
        -12    1    3    3    0    0  0.40072057521E+02 -0.15945527916E+02 -0.66578449669E+02  0.79326663959E+02  0.00000000000E+00 0.  1.
          5    1    4    4  501    0 -0.13720903024E+03  0.35988781512E+02  0.20210092248E+03  0.24694891302E+03  0.41800000000E+01 0. -1.
         -5    1    4    4    0  501 -0.25016506234E+02  0.59901814514E+01 -0.17989236285E+02  0.31666905123E+02  0.41800000000E+01 0. -1.
</event>
<event>
11    1  0.6763327E-009  0.1475710E+03  0.7561462E-02  0.1099387E+00
         22   -1    0    0    0    0  0.00000000000E+00  0.00000000000E+00  0.13694337474E+03  0.13694337474E+03  0.00000000000E+00 0. -1.
         22   -1    0    0    0    0 -0.00000000000E+00 -0.00000000000E+00 -0.17433177340E+04  0.17433177340E+04  0.00000000000E+00 0. -1.
        -24    2    1    2    0    0 -0.30717341468E+02 -0.35371537342E+02 -0.14912445383E+04  0.14942844353E+04  0.82951790724E+02 0.  0.
         25    2    1    2    0    0 -0.13827484680E+02 -0.35055548335E+02 -0.20419197781E+03  0.24240688089E+03  0.12508653524E+03 0.  0.
         24    2    1    2    0    0  0.44544826148E+02  0.70427085676E+02  0.89062156911E+02  0.14356979257E+03  0.75736395559E+02 0.  0.
        -13    1    5    5    0    0 -0.97360433361E+01 -0.59624749532E+01  0.31707291363E+02  0.33700058946E+02  0.00000000000E+00 0.  1.
         14    1    5    5    0    0  0.54280869484E+02  0.76389560630E+02  0.57354865548E+02  0.10986973363E+03  0.00000000000E+00 0. -1.
         13    1    3    3    0    0 -0.38253161665E+02 -0.23965206067E+02 -0.14524559097E+04  0.14531571853E+04  0.00000000000E+00 0. -1.
        -14    1    3    3    0    0  0.75358201970E+01 -0.11406331275E+02 -0.38788628628E+02  0.41127249969E+02  0.00000000000E+00 0.  1.
          5    1    4    4  501    0  0.41458017299E+02 -0.61905316112E+01 -0.17654996726E+02  0.45675608255E+02  0.41800000000E+01 0. -1.
         -5    1    4    4    0  501 -0.55285501979E+02 -0.28865016724E+02 -0.18653698109E+03  0.19673127264E+03  0.41800000000E+01 0. -1.
</event>
<event>
11    1  0.6763327E-009  0.1732205E+03  0.7561462E-02  0.1075263E+00
         22   -1    0    0    0    0  0.00000000000E+00  0.00000000000E+00  0.37189727722E+04  0.37189727722E+04  0.00000000000E+00 0.  1.
         22   -1    0    0    0    0 -0.00000000000E+00 -0.00000000000E+00 -0.20103831316E+03  0.20103831316E+03  0.00000000000E+00 0. -1.
         24    2    1    2    0    0  0.85173101219E+01 -0.45701100981E+02 -0.15717034214E+03  0.18292105499E+03  0.81218598278E+02 0.  0.
         25    2    1    2    0    0 -0.10126355448E+03 -0.31923454715E+02  0.19904531628E+03  0.25795148719E+03  0.12508603991E+03 0.  0.
        -24    2    1    2    0    0  0.92746244353E+02  0.77624555696E+02  0.34760594849E+04  0.34791385432E+04  0.82389457351E+02 0.  0.
        -13    1    3    3    0    0  0.11559543054E+02 -0.68604607719E+01  0.63193726775E+01  0.14853397883E+02  0.00000000000E+00 0.  1.
         14    1    3    3    0    0 -0.30422329322E+01 -0.38840640209E+02 -0.16348971482E+03  0.16806765711E+03  0.00000000000E+00 0. -1.
         13    1    5    5    0    0  0.72678382063E+02  0.83529702164E+01  0.15409143956E+04  0.15426500231E+04  0.00000000000E+00 0. -1.
        -14    1    5    5    0    0  0.20067862291E+02  0.69271585479E+02  0.19351450893E+04  0.19364885201E+04  0.00000000000E+00 0.  1.
          5    1    4    4  501    0 -0.10024825649E+03  0.27846203348E+02  0.12434902121E+03  0.16218901149E+03  0.41800000000E+01 0.  1.
         -5    1    4    4    0  501 -0.10152979842E+01 -0.59769658063E+02  0.74696295070E+02  0.95762475700E+02  0.41800000000E+01 0.  1.
</event>
<event>
11    1  0.6763327E-009  0.1524729E+03  0.7561462E-02  0.1094378E+00
         22   -1    0    0    0    0  0.00000000000E+00  0.00000000000E+00  0.95706692720E+03  0.95706692720E+03  0.00000000000E+00 0.  1.
         22   -1    0    0    0    0 -0.00000000000E+00 -0.00000000000E+00 -0.85618795233E+03  0.85618795233E+03  0.00000000000E+00 0. -1.
        -24    2    1    2    0    0 -0.42344127301E+02 -0.72006937509E+02 -0.72099402092E+03  0.73032354180E+03  0.81006625275E+02 0.  0.
         25    2    1    2    0    0  0.72958840600E+02  0.12163049064E+03 -0.57820785460E+02  0.19775788602E+03  0.12509184456E+03 0.  0.
         24    2    1    2    0    0 -0.30614713298E+02 -0.49623553133E+02  0.87969378124E+03  0.88517345172E+03  0.79190486591E+02 0.  0.
        -11    1    5    5    0    0 -0.49470916793E+02 -0.32160220653E+02  0.77970559813E+03  0.78193508116E+03  0.00000000000E+00 0.  1.
         12    1    5    5    0    0  0.18856203494E+02 -0.17463332481E+02  0.99988183117E+02  0.10323837055E+03  0.00000000000E+00 0. -1.
         13    1    3    3    0    0 -0.25032950384E+02 -0.67379366740E+02 -0.28375477813E+03  0.29271727277E+03  0.00000000000E+00 0. -1.
        -14    1    3    3    0    0 -0.17311176917E+02 -0.46275707689E+01 -0.43723924279E+03  0.43760626902E+03  0.00000000000E+00 0.  1.
          5    1    4    4  501    0  0.87362744615E+02  0.81696899465E+02 -0.85340902101E+02  0.14699379069E+03  0.41800000000E+01 0.  1.
         -5    1    4    4    0  501 -0.14403904015E+02  0.39933591177E+02  0.27520116641E+02  0.50764095334E+02  0.41800000000E+01 0.  1.
</event>
<event>
11    1  0.6763327E-009  0.1448410E+03  0.7561462E-02  0.1102270E+00
         22   -1    0    0    0    0  0.00000000000E+00  0.00000000000E+00  0.46656788926E+03  0.46656788926E+03  0.00000000000E+00 0. -1.
         22   -1    0    0    0    0 -0.00000000000E+00 -0.00000000000E+00 -0.75007361576E+03  0.75007361576E+03  0.00000000000E+00 0. -1.
        -24    2    1    2    0    0  0.26902019399E+02  0.24952515961E+02 -0.64841286905E+03  0.65491970122E+03  0.84464309608E+02 0.  0.
         25    2    1    2    0    0 -0.49002800523E+02 -0.91859960039E+02 -0.17574086676E+02  0.16369540494E+03  0.12509120816E+03 0.  0.
         24    2    1    2    0    0  0.22100781124E+02  0.66907444077E+02  0.38248122922E+03  0.39802639886E+03  0.84664472393E+02 0.  0.
        -11    1    5    5    0    0  0.39627659769E+01  0.10335202039E+01 -0.38971951055E+01  0.56533006191E+01  0.00000000000E+00 0.  1.
         12    1    5    5    0    0  0.18138015147E+02  0.65873923874E+02  0.38637842432E+03  0.39237309824E+03  0.00000000000E+00 0. -1.
         11    1    3    3    0    0  0.38602636207E+02  0.31139461475E+02 -0.63149460482E+03  0.63343923584E+03  0.00000000000E+00 0. -1.
        -12    1    3    3    0    0 -0.11700616808E+02 -0.61869455133E+01 -0.16918264226E+02  0.21480465379E+02  0.00000000000E+00 0.  1.
          5    1    4    4  501    0 -0.18602549081E+02 -0.70676507693E+02 -0.68716841382E+02  0.10040269051E+03  0.41800000000E+01 0. -1.
         -5    1    4    4    0  501 -0.30400251441E+02 -0.21183452346E+02  0.51142754706E+02  0.63292714430E+02  0.41800000000E+01 0. -1.
</event>
<event>
11    1  0.6763327E-009  0.1356893E+03  0.7561462E-02  0.1112470E+00
         22   -1    0    0    0    0  0.00000000000E+00  0.00000000000E+00  0.51385770621E+03  0.51385770621E+03  0.00000000000E+00 0. -1.
         22   -1    0    0    0    0 -0.00000000000E+00 -0.00000000000E+00 -0.51948113702E+03  0.51948113702E+03  0.00000000000E+00 0.  1.
         24    2    1    2    0    0 -0.47299244507E+01 -0.11110578365E+02 -0.47917976219E+03  0.48620515771E+03  0.81464064208E+02 0.  0.
         25    2    1    2    0    0  0.54528034799E+02  0.23351122120E+02  0.12741648708E+03  0.18815236938E+03  0.12509105259E+03 0.  0.
        -24    2    1    2    0    0 -0.49798110349E+02 -0.12240543756E+02  0.34613984430E+03  0.35898131614E+03  0.80156788990E+02 0.  0.
        -11    1    3    3    0    0  0.38363856666E+02 -0.32172674652E+01 -0.21612990337E+03  0.21953193717E+03  0.00000000000E+00 0.  1.
         12    1    3    3    0    0 -0.43093781117E+02 -0.78933108995E+01 -0.26304985882E+03  0.26667322054E+03  0.00000000000E+00 0. -1.
         11    1    5    5    0    0 -0.19743030976E+02 -0.43708635682E+02  0.23022931482E+03  0.23517178723E+03  0.00000000000E+00 0. -1.
        -12    1    5    5    0    0 -0.30055079373E+02  0.31468091926E+02  0.11591052947E+03  0.12380952891E+03  0.00000000000E+00 0.  1.
          5    1    4    4  501    0  0.48325286324E+01 -0.94854825591E+01 -0.23345542808E+02  0.25996432089E+02  0.41800000000E+01 0. -1.
         -5    1    4    4    0  501  0.49695506167E+02  0.32836604680E+02  0.15076202989E+03  0.16215593729E+03  0.41800000000E+01 0. -1.
</event>
<event>
11    1  0.6763327E-009  0.1422806E+03  0.7561462E-02  0.1105038E+00
         22   -1    0    0    0    0  0.00000000000E+00  0.00000000000E+00  0.44265047092E+03  0.44265047092E+03  0.00000000000E+00 0.  1.
         22   -1    0    0    0    0 -0.00000000000E+00 -0.00000000000E+00 -0.12604080182E+03  0.12604080182E+03  0.00000000000E+00 0. -1.
         24    2    1    2    0    0 -0.53747507950E+02  0.25500532307E+02 -0.21944591963E+02  0.10151726773E+03  0.79278740986E+02 0.  0.
         25    2    1    2    0    0  0.58669188161E+02 -0.79558362408E+02  0.56454369149E+02  0.16913368764E+03  0.12508997494E+03 0.  0.
        -24    2    1    2    0    0 -0.49216802116E+01  0.54057830101E+02  0.28209989191E+03  0.29804031737E+03  0.79380160164E+02 0.  0.
        -13    1    3    3    0    0 -0.67662610886E+02  0.40186933165E+02 -0.14906282266E+02  0.80096290552E+02  0.00000000000E+00 0.  1.
         14    1    3    3    0    0  0.13915102936E+02 -0.14686400859E+02 -0.70383096971E+01  0.21420977179E+02  0.00000000000E+00 0. -1.
         11    1    5    5    0    0  0.71054669231E+01 -0.98445662345E+01  0.45344975211E+01  0.12960123931E+02  0.00000000000E+00 0. -1.
        -12    1    5    5    0    0 -0.12027147135E+02  0.63902396336E+02  0.27756539439E+03  0.28508019343E+03  0.00000000000E+00 0.  1.
          5    1    4    4  501    0  0.21229858462E+02  0.33183314023E+02  0.62802846203E+01  0.40109270684E+02  0.41800000000E+01 0.  1.
         -5    1    4    4    0  501  0.37439329699E+02 -0.11274167643E+03  0.50174084529E+02  0.12902441696E+03  0.41800000000E+01 0.  1.
</event>
<event>
11    1  0.6763327E-009  0.1418207E+03  0.7561462E-02  0.1105542E+00
         22   -1    0    0    0    0  0.00000000000E+00  0.00000000000E+00  0.42832865311E+03  0.42832865311E+03  0.00000000000E+00 0.  1.
         22   -1    0    0    0    0 -0.00000000000E+00 -0.00000000000E+00 -0.11280150175E+04  0.11280150175E+04  0.00000000000E+00 0.  1.
         24    2    1    2    0    0  0.42825704024E+02 -0.31498728146E+02 -0.90330748458E+03  0.90846145039E+03  0.80694388668E+02 0.  0.
         25    2    1    2    0    0 -0.73646784141E+02  0.89283190242E+02 -0.18240358084E+03  0.24963080616E+03  0.12509650756E+03 0.  0.
        -24    2    1    2    0    0  0.30821080117E+02 -0.57784462096E+02  0.38602470105E+03  0.39825141404E+03  0.72802032410E+02 0.  0.
        -11    1    3    3    0    0  0.52223060122E+02 -0.16622063980E+01 -0.75930201356E+03  0.76109760132E+03  0.00000000000E+00 0.  1.
         12    1    3    3    0    0 -0.93973560974E+01 -0.29836521748E+02 -0.14400547101E+03  0.14736384907E+03  0.00000000000E+00 0. -1.
         13    1    5    5    0    0 -0.22416723098E+02 -0.12815211442E+02  0.69392695063E+02  0.74041105116E+02  0.00000000000E+00 0. -1.
        -14    1    5    5    0    0  0.53237803215E+02 -0.44969250654E+02  0.31663200599E+03  0.32421030892E+03  0.00000000000E+00 0.  1.
          5    1    4    4  501    0 -0.29804376702E+02 -0.30437846788E+02 -0.48609676803E+02  0.64769873140E+02  0.41800000000E+01 0.  1.
         -5    1    4    4    0  501 -0.43842407439E+02  0.11972103703E+03 -0.13379390404E+03  0.18486093302E+03  0.41800000000E+01 0.  1.
</event>
<event>
11    1  0.6763327E-009  0.1415715E+03  0.7561462E-02  0.1105816E+00
         22   -1    0    0    0    0  0.00000000000E+00  0.00000000000E+00  0.12133258202E+04  0.12133258202E+04  0.00000000000E+00 0.  1.
         22   -1    0    0    0    0 -0.00000000000E+00 -0.00000000000E+00 -0.18810094654E+03  0.18810094654E+03  0.00000000000E+00 0. -1.
         24    2    1    2    0    0 -0.60925046586E+02 -0.31755133713E+02 -0.14274462878E+03  0.17745824212E+03  0.79969674448E+02 0.  0.
         25    2    1    2    0    0  0.35621090778E+02  0.24756864765E+02  0.14087157120E+03  0.19332527703E+03  0.12509236070E+03 0.  0.
        -24    2    1    2    0    0  0.25303955808E+02  0.69982689484E+01  0.10270979312E+04  0.10306432476E+04  0.81277779708E+02 0.  0.
        -13    1    3    3    0    0  0.10460507191E+02 -0.31834124172E+02 -0.37527533782E+02  0.50310530352E+02  0.00000000000E+00 0.  1.
         14    1    3    3    0    0 -0.71385553777E+02  0.78990458253E-01 -0.10521709500E+03  0.12714771177E+03  0.00000000000E+00 0. -1.
         13    1    5    5    0    0 -0.25354572083E+02  0.32234854396E+01  0.15727650491E+03  0.15933971313E+03  0.00000000000E+00 0. -1.
        -14    1    5    5    0    0  0.50658527891E+02  0.37747835088E+01  0.86982142634E+03  0.87130353445E+03  0.00000000000E+00 0.  1.
          5    1    4    4  501    0  0.16000528946E+02  0.12517208272E+02 -0.21141685979E+02  0.29616561508E+02  0.41800000000E+01 0. -1.
         -5    1    4    4    0  501  0.19620561832E+02  0.12239656493E+02  0.16201325718E+03  0.16370871552E+03  0.41800000000E+01 0. -1.
</event>
<event>
11    1  0.6763327E-009  0.1743538E+03  0.7561462E-02  0.1074304E+00
         22   -1    0    0    0    0  0.00000000000E+00  0.00000000000E+00  0.18709234099E+03  0.18709234099E+03  0.00000000000E+00 0.  1.
         22   -1    0    0    0    0 -0.00000000000E+00 -0.00000000000E+00 -0.96799703782E+03  0.96799703782E+03  0.00000000000E+00 0.  1.
        -24    2    1    2    0    0  0.91019479694E+02  0.81000484164E+02 -0.79029173069E+03  0.80385683019E+03  0.82335652781E+02 0.  0.
         25    2    1    2    0    0 -0.13351396104E+03 -0.24504161844E+02 -0.92325964710E+02  0.20639350301E+03  0.12509101721E+03 0.  0.
         24    2    1    2    0    0  0.42494481347E+02 -0.56496322321E+02  0.10171299857E+03  0.14483904561E+03  0.75067967021E+02 0.  0.
        -13    1    5    5    0    0  0.14571562784E+02  0.24395495243E+01  0.71417629261E+02  0.72929826636E+02  0.00000000000E+00 0.  1.
         14    1    5    5    0    0  0.27922918563E+02 -0.58935871845E+02  0.30295369313E+02  0.71909218971E+02  0.00000000000E+00 0. -1.
         11    1    3    3    0    0  0.42892788348E+02 -0.57866178811E+01 -0.15783286255E+03  0.16365967353E+03  0.00000000000E+00 0. -1.
        -12    1    3    3    0    0  0.48126691345E+02  0.86787102045E+02 -0.63245886814E+03  0.64019715666E+03  0.00000000000E+00 0.  1.
          5    1    4    4  501    0 -0.97207252695E+02 -0.29880368190E+02 -0.12209232951E+03  0.15895312423E+03  0.41800000000E+01 0. -1.
         -5    1    4    4    0  501 -0.36306708345E+02  0.53762063460E+01  0.29766364796E+02  0.47440378779E+02  0.41800000000E+01 0. -1.
</event>
<event>
11    1  0.6763327E-009  0.1586768E+03  0.7561462E-02  0.1088328E+00
         22   -1    0    0    0    0  0.00000000000E+00  0.00000000000E+00  0.42176702582E+03  0.42176702582E+03  0.00000000000E+00 0.  1.
         22   -1    0    0    0    0 -0.00000000000E+00 -0.00000000000E+00 -0.77189153455E+03  0.77189153455E+03  0.00000000000E+00 0.  1.
        -24    2    1    2    0    0 -0.86698417983E+02 -0.51951938724E+02 -0.71087892529E+03  0.72254513224E+03  0.80665990934E+02 0.  0.
         25    2    1    2    0    0  0.38908706346E+02  0.18155962838E+02  0.44783719260E+02  0.13964806415E+03  0.12510984731E+03 0.  0.
         24    2    1    2    0    0  0.47789711637E+02  0.33795975886E+02  0.31597069730E+03  0.33146536397E+03  0.81275958538E+02 0.  0.
        -13    1    5    5    0    0  0.13007356393E+02  0.29623191970E+02  0.27771502937E+03  0.27959320872E+03  0.00000000000E+00 0.  1.
         14    1    5    5    0    0  0.34782355244E+02  0.41727839162E+01  0.38255667928E+02  0.51872155252E+02  0.00000000000E+00 0. -1.
         11    1    3    3    0    0  0.27262351504E+01 -0.30115330494E+02 -0.91599133176E+02  0.96461218567E+02  0.00000000000E+00 0. -1.
        -12    1    3    3    0    0 -0.89424653133E+02 -0.21836608229E+02 -0.61927979211E+03  0.62608391368E+03  0.00000000000E+00 0.  1.
          5    1    4    4  501    0  0.74161621164E+02  0.66000527552E+01 -0.79957243053E+01  0.74999405046E+02  0.41800000000E+01 0.  1.
         -5    1    4    4    0  501 -0.35252914818E+02  0.11555910083E+02  0.52779443565E+02  0.64648659105E+02  0.41800000000E+01 0.  1.
</event>
<event>
11    1  0.6763327E-009  0.2395093E+03  0.7561462E-02  0.1029641E+00
         22   -1    0    0    0    0  0.00000000000E+00  0.00000000000E+00  0.25229633534E+03  0.25229633534E+03  0.00000000000E+00 0. -1.
         22   -1    0    0    0    0 -0.00000000000E+00 -0.00000000000E+00 -0.13302575880E+04  0.13302575880E+04  0.00000000000E+00 0. -1.
         24    2    1    2    0    0  0.49463245144E+02 -0.33830366493E+02 -0.74105286682E+03  0.74774622460E+03  0.79837075738E+02 0.  0.
         25    2    1    2    0    0 -0.12720899602E+03  0.21756995669E+03 -0.49381753388E+03  0.56835011065E+03  0.12508907543E+03 0.  0.
        -24    2    1    2    0    0  0.77745750881E+02 -0.18373959019E+03  0.15690914801E+03  0.26645758811E+03  0.81083455475E+02 0.  0.
        -11    1    3    3    0    0  0.38970534371E+02  0.17057985781E+02 -0.21748029164E+03  0.22160179304E+03  0.00000000000E+00 0.  1.
         12    1    3    3    0    0  0.10492710773E+02 -0.50888352274E+02 -0.52357257518E+03  0.52614443156E+03  0.00000000000E+00 0. -1.
         13    1    5    5    0    0  0.85446308126E+02 -0.13111328162E+03  0.88444921691E+02  0.17976169882E+03  0.00000000000E+00 0. -1.
        -14    1    5    5    0    0 -0.77005572454E+01 -0.52626308576E+02  0.68464226315E+02  0.86695889298E+02  0.00000000000E+00 0.  1.
          5    1    4    4  501    0 -0.97004862557E+02  0.17864822839E+03 -0.47271945925E+03  0.51459332722E+03  0.41800000000E+01 0. -1.
         -5    1    4    4    0  501 -0.30204133468E+02  0.38921728296E+02 -0.21098074632E+02  0.53756783435E+02  0.41800000000E+01 0. -1.
</event>
<event>
11    1  0.6763327E-009  0.1325527E+03  0.7561462E-02  0.1116172E+00
         22   -1    0    0    0    0  0.00000000000E+00  0.00000000000E+00  0.49002658245E+02  0.49002658245E+02  0.00000000000E+00 0. -1.
         22   -1    0    0    0    0 -0.00000000000E+00 -0.00000000000E+00 -0.11579503348E+04  0.11579503348E+04  0.00000000000E+00 0.  1.
        -24    2    1    2    0    0  0.12231069344E+02  0.35089352992E+02 -0.73377002149E+03  0.73902924012E+03  0.79780395896E+02 0.  0.
         25    2    1    2    0    0  0.19053001181E+02 -0.62232448207E+02 -0.34333127841E+03  0.37116177009E+03  0.12509515728E+03 0.  0.
         24    2    1    2    0    0 -0.31284070525E+02  0.27143095215E+02 -0.31846376636E+02  0.96761982817E+02  0.81444759974E+02 0.  0.
        -11    1    5    5    0    0 -0.13938494866E+00  0.66468206181E+00 -0.51429738507E+02  0.51434222394E+02  0.00000000000E+00 0.  1.
         12    1    5    5    0    0 -0.31144685577E+02  0.26478413153E+02  0.19583361871E+02  0.45327760422E+02  0.00000000000E+00 0. -1.
         11    1    3    3    0    0 -0.33475550708E+02  0.76213270612E+01 -0.25576043733E+03  0.25805444857E+03  0.00000000000E+00 0. -1.
        -12    1    3    3    0    0  0.45706620052E+02  0.27468025931E+02 -0.47800958416E+03  0.48097479156E+03  0.00000000000E+00 0.  1.
          5    1    4    4  501    0  0.34267929757E+02 -0.96599151044E+02 -0.23479015165E+03  0.25622172957E+03  0.41800000000E+01 0. -1.
         -5    1    4    4    0  501 -0.15214928576E+02  0.34366702838E+02 -0.10854112676E+03  0.11494004052E+03  0.41800000000E+01 0. -1.
</event>
<event>
11    1  0.6763327E-009  0.1608934E+03  0.7561462E-02  0.1086240E+00
         22   -1    0    0    0    0  0.00000000000E+00  0.00000000000E+00  0.36034705444E+03  0.36034705444E+03  0.00000000000E+00 0. -1.
         22   -1    0    0    0    0 -0.00000000000E+00 -0.00000000000E+00 -0.27415295415E+03  0.27415295415E+03  0.00000000000E+00 0.  1.
         24    2    1    2    0    0 -0.92850409343E+02  0.45221412826E+02 -0.15992444466E+03  0.20627997783E+03  0.79431898898E+02 0.  0.
         25    2    1    2    0    0  0.94081358134E+02 -0.21393944600E+02 -0.10752598482E+02  0.15834471020E+03  0.12509366915E+03 0.  0.
        -24    2    1    2    0    0 -0.12309487911E+01 -0.23827468226E+02  0.25687114344E+03  0.26987532055E+03  0.79250494220E+02 0.  0.
        -11    1    3    3    0    0 -0.67814729256E+02 -0.76207293890E+01 -0.10972387615E+03  0.12921393895E+03  0.00000000000E+00 0.  1.
         12    1    3    3    0    0 -0.25035680086E+02  0.52842142215E+02 -0.50200568511E+02  0.77066038889E+02  0.00000000000E+00 0. -1.
         13    1    5    5    0    0 -0.17390639167E+02  0.11650258554E+02  0.19900073034E+03  0.20009860952E+03  0.00000000000E+00 0. -1.
        -14    1    5    5    0    0  0.16159690376E+02 -0.35477726780E+02  0.57870413102E+02  0.69776711037E+02  0.00000000000E+00 0.  1.
          5    1    4    4  501    0  0.11831075061E+03 -0.41357714241E+02 -0.15366578586E+02  0.12633882371E+03  0.41800000000E+01 0.  1.
         -5    1    4    4    0  501 -0.24229392479E+02  0.19963769641E+02  0.46139801037E+01  0.32005886499E+02  0.41800000000E+01 0.  1.
</event>
<event>
11    1  0.6763327E-009  0.1269702E+03  0.7561462E-02  0.1123049E+00
         22   -1    0    0    0    0  0.00000000000E+00  0.00000000000E+00  0.23490786448E+04  0.23490786448E+04  0.00000000000E+00 0.  1.
         22   -1    0    0    0    0 -0.00000000000E+00 -0.00000000000E+00 -0.10222765211E+03  0.10222765211E+03  0.00000000000E+00 0.  1.
         24    2    1    2    0    0 -0.18829281931E+02 -0.15763135861E+02 -0.70251683987E+02  0.10741396856E+03  0.77456072896E+02 0.  0.
         25    2    1    2    0    0  0.17572147836E+02 -0.70277822619E+01  0.30686477470E+03  0.33192109313E+03  0.12508977580E+03 0.  0.
        -24    2    1    2    0    0  0.12571340948E+01  0.22790918123E+02  0.20102379020E+04  0.20119712352E+04  0.80317012264E+02 0.  0.
        -11    1    3    3    0    0  0.18902255937E+02  0.26565564124E+01 -0.61672525434E+02  0.64558910809E+02  0.00000000000E+00 0.  1.
         12    1    3    3    0    0 -0.37731537868E+02 -0.18419692273E+02 -0.85791585538E+01  0.42855057751E+02  0.00000000000E+00 0. -1.
         11    1    5    5    0    0  0.10886540879E+02  0.32356422601E+02  0.34644189972E+03  0.34811987122E+03  0.00000000000E+00 0. -1.
        -12    1    5    5    0    0 -0.96294067842E+01 -0.95655044779E+01  0.16637960022E+04  0.16638513640E+04  0.00000000000E+00 0.  1.
          5    1    4    4  501    0 -0.35197326214E+02  0.40913090116E+02  0.11236377548E+03  0.12472298568E+03  0.41800000000E+01 0. -1.
         -5    1    4    4    0  501  0.52769474050E+02 -0.47940872378E+02  0.19450099922E+03  0.20719810745E+03  0.41800000000E+01 0. -1.
</event>
<event>
11    1  0.6763327E-009  0.1888771E+03  0.7561462E-02  0.1062680E+00
         22   -1    0    0    0    0  0.00000000000E+00  0.00000000000E+00  0.35572536871E+03  0.35572536871E+03  0.00000000000E+00 0.  1.
         22   -1    0    0    0    0 -0.00000000000E+00 -0.00000000000E+00 -0.53355888988E+03  0.53355888988E+03  0.00000000000E+00 0. -1.
         24    2    1    2    0    0  0.15344172484E+03  0.67353338269E+01 -0.32821743915E+03  0.37168388200E+03  0.82658896309E+02 0.  0.
         25    2    1    2    0    0 -0.11749291797E+03  0.30426190136E+02 -0.13261118705E+03  0.21900153179E+03  0.12508239356E+03 0.  0.
        -24    2    1    2    0    0 -0.35948806865E+02 -0.37161523963E+02  0.28299510502E+03  0.29859884478E+03  0.80010905890E+02 0.  0.
        -13    1    3    3    0    0  0.55019870016E+02 -0.23812988540E+02 -0.62136156367E+02  0.86343189934E+02  0.00000000000E+00 0.  1.
         14    1    3    3    0    0  0.98421854822E+02  0.30548322367E+02 -0.26608128278E+03  0.28534069207E+03  0.00000000000E+00 0. -1.
         11    1    5    5    0    0 -0.45884667566E+02  0.50688210359E+01  0.19629491912E+03  0.20165016970E+03  0.00000000000E+00 0. -1.
        -12    1    5    5    0    0  0.99358607008E+01 -0.42230344998E+02  0.86700185897E+02  0.96948675087E+02  0.00000000000E+00 0.  1.
          5    1    4    4  501    0 -0.63222967128E+02  0.80297752079E+01 -0.14536542413E+03  0.15877720174E+03  0.41800000000E+01 0. -1.
         -5    1    4    4    0  501 -0.54269950844E+02  0.22396414928E+02  0.12754237081E+02  0.60224330048E+02  0.41800000000E+01 0. -1.
</event>
<event>
11    1  0.6763327E-009  0.1312470E+03  0.7561462E-02  0.1117746E+00
         22   -1    0    0    0    0  0.00000000000E+00  0.00000000000E+00  0.23729094978E+03  0.23729094978E+03  0.00000000000E+00 0.  1.
         22   -1    0    0    0    0 -0.00000000000E+00 -0.00000000000E+00 -0.20509678698E+03  0.20509678698E+03  0.00000000000E+00 0.  1.
        -24    2    1    2    0    0  0.24322370392E+02 -0.18689190543E+02 -0.56580133099E+02  0.10333832743E+03  0.80849458314E+02 0.  0.
         25    2    1    2    0    0 -0.42073684374E+02  0.36016913094E+02 -0.75833989078E+02  0.15641369267E+03  0.12508811458E+03 0.  0.
         24    2    1    2    0    0  0.17751313982E+02 -0.17327722552E+02  0.16460828498E+03  0.18263571666E+03  0.75130276172E+02 0.  0.
        -11    1    5    5    0    0 -0.25737169339E+02  0.54540345148E+01  0.86202096094E+02  0.90127408423E+02  0.00000000000E+00 0.  1.
         12    1    5    5    0    0  0.43488483321E+02 -0.22781757066E+02  0.78406188890E+02  0.92508308237E+02  0.00000000000E+00 0. -1.
         11    1    3    3    0    0 -0.23194629302E+02 -0.20224939969E+01 -0.46472690007E+02  0.51978767078E+02  0.00000000000E+00 0. -1.
        -12    1    3    3    0    0  0.47516999694E+02 -0.16666696546E+02 -0.10107443091E+02  0.51359560351E+02  0.00000000000E+00 0.  1.
          5    1    4    4  501    0 -0.18266517790E+02 -0.15263329298E+02  0.28685393355E+02  0.37509453280E+02  0.41800000000E+01 0.  1.
         -5    1    4    4    0  501 -0.23807166584E+02  0.51280242393E+02 -0.10451938243E+03  0.11890423939E+03  0.41800000000E+01 0.  1.
</event>
<event>
11    1  0.6763327E-009  0.2757867E+03  0.7561462E-02  0.1010994E+00
         22   -1    0    0    0    0  0.00000000000E+00  0.00000000000E+00  0.24172410054E+04  0.24172410054E+04  0.00000000000E+00 0. -1.
         22   -1    0    0    0    0 -0.00000000000E+00 -0.00000000000E+00 -0.15912600794E+03  0.15912600794E+03  0.00000000000E+00 0.  1.
        -24    2    1    2    0    0 -0.48012890003E+02 -0.54883080145E+02 -0.45813301284E+02  0.11908040077E+03  0.82242891363E+02 0.  0.
         25    2    1    2    0    0 -0.19931283168E+03  0.78173671410E+01  0.13325870982E+03  0.27053826127E+03  0.12508537472E+03 0.  0.
         24    2    1    2    0    0  0.24732572168E+03  0.47065713004E+02  0.21706695889E+04  0.21867483512E+04  0.81711037466E+02 0.  0.
        -11    1    5    5    0    0  0.13271432330E+00 -0.10778925635E+02  0.96390259181E+02  0.96991158957E+02  0.00000000000E+00 0.  1.
         12    1    5    5    0    0  0.24719300736E+03  0.57844638639E+02  0.20742793297E+04  0.20897571923E+04  0.00000000000E+00 0. -1.
         11    1    3    3    0    0 -0.28244270347E+02 -0.33015221176E+02  0.19347828886E+02  0.47561351109E+02  0.00000000000E+00 0. -1.
        -12    1    3    3    0    0 -0.19768619656E+02 -0.21867858969E+02 -0.65161130170E+02  0.71519049659E+02  0.00000000000E+00 0.  1.
          5    1    4    4  501    0 -0.64479895765E+01  0.72849356613E+01 -0.21011225938E+02  0.23528511907E+02  0.41800000000E+01 0.  1.
         -5    1    4    4    0  501 -0.19286484211E+03  0.53243147979E+00  0.15426993576E+03  0.24700974937E+03  0.41800000000E+01 0.  1.
</event>
<event>
11    1  0.6763327E-009  0.1271793E+03  0.7561462E-02  0.1122784E+00
         22   -1    0    0    0    0  0.00000000000E+00  0.00000000000E+00  0.13360453188E+04  0.13360453188E+04  0.00000000000E+00 0. -1.
         22   -1    0    0    0    0 -0.00000000000E+00 -0.00000000000E+00 -0.96032299040E+03  0.96032299040E+03  0.00000000000E+00 0.  1.
        -24    2    1    2    0    0  0.23016317296E+02 -0.30999470501E+00 -0.94617869945E+03  0.95244270592E+03  0.10659798219E+03 0.  0.
         25    2    1    2    0    0 -0.12668258237E+02  0.27448232719E+02  0.45503741025E+03  0.47288550735E+03  0.12509103919E+03 0.  0.
         24    2    1    2    0    0 -0.10348059059E+02 -0.27138238014E+02  0.86686361765E+03  0.87104009599E+03  0.80092140237E+02 0.  0.
        -11    1    5    5    0    0  0.25620608830E+02  0.14864227770E+02  0.33666038007E+03  0.33796090362E+03  0.00000000000E+00 0.  1.
         12    1    5    5    0    0 -0.35968667888E+02 -0.42002465784E+02  0.53020323758E+03  0.53307919237E+03  0.00000000000E+00 0. -1.
         13    1    3    3    0    0 -0.41250675227E+02  0.11890465562E+02 -0.42926844664E+03  0.43140978276E+03  0.00000000000E+00 0. -1.
        -14    1    3    3    0    0  0.64266992522E+02 -0.12200460267E+02 -0.51691025281E+03  0.52103292316E+03  0.00000000000E+00 0.  1.
          5    1    4    4  501    0 -0.31191168370E+02  0.38706237247E+02  0.44640318771E+03  0.44918185648E+03  0.41800000000E+01 0. -1.
         -5    1    4    4    0  501  0.18522910133E+02 -0.11258004528E+02  0.86342225351E+01  0.23703650870E+02  0.41800000000E+01 0. -1.
</event>
<event>
11    1  0.6763327E-009  0.1595383E+03  0.7561462E-02  0.1087512E+00
         22   -1    0    0    0    0  0.00000000000E+00  0.00000000000E+00  0.10042139447E+04  0.10042139447E+04  0.00000000000E+00 0.  1.
         22   -1    0    0    0    0 -0.00000000000E+00 -0.00000000000E+00 -0.99451581407E+03  0.99451581407E+03  0.00000000000E+00 0. -1.
         24    2    1    2    0    0 -0.60300130155E+02 -0.62379197263E+01 -0.69364204479E+03  0.70090940048E+03  0.80372159610E+02 0.  0.
         25    2    1    2    0    0  0.15791827284E+03 -0.56689606204E+01 -0.25927955763E+03  0.32839620619E+03  0.12509141149E+03 0.  0.
        -24    2    1    2    0    0 -0.97618142681E+02  0.11906880347E+02  0.96261973301E+03  0.96942415205E+03  0.58952189335E+02 0.  0.
        -11    1    3    3    0    0  0.13092549738E+02  0.18973208298E+02 -0.16435052073E+03  0.16595930572E+03  0.00000000000E+00 0.  1.
         12    1    3    3    0    0 -0.73392679893E+02 -0.25211128024E+02 -0.52929152406E+03  0.53495009476E+03  0.00000000000E+00 0. -1.
         13    1    5    5    0    0  0.51388873806E+01  0.93595061340E+01  0.14017603177E+03  0.14058210555E+03  0.00000000000E+00 0. -1.
        -14    1    5    5    0    0 -0.10275703006E+03  0.25473742127E+01  0.82244370124E+03  0.82884204650E+03  0.00000000000E+00 0.  1.
          5    1    4    4  501    0  0.24816924058E+02  0.56018551881E+01 -0.15961113892E+03  0.16168008093E+03  0.41800000000E+01 0. -1.
         -5    1    4    4    0  501  0.13310134878E+03 -0.11270815809E+02 -0.99668418708E+02  0.16671612526E+03  0.41800000000E+01 0. -1.
</event>
<event>
11    1  0.6763327E-009  0.1388218E+03  0.7561462E-02  0.1108881E+00
         22   -1    0    0    0    0  0.00000000000E+00  0.00000000000E+00  0.10265732053E+03  0.10265732053E+03  0.00000000000E+00 0. -1.
         22   -1    0    0    0    0 -0.00000000000E+00 -0.00000000000E+00 -0.65583467463E+03  0.65583467463E+03  0.00000000000E+00 0.  1.
         24    2    1    2    0    0  0.25169995986E+02 -0.12968951447E+02 -0.47145013329E+03  0.47895636288E+03  0.79575416844E+02 0.  0.
         25    2    1    2    0    0 -0.64736522571E+00 -0.47080454807E+02 -0.10844191908E+03  0.17211778580E+03  0.12509154275E+03 0.  0.
        -24    2    1    2    0    0 -0.24522630761E+02  0.60049406253E+02  0.26714698262E+02  0.10741784648E+03  0.81348804714E+02 0.  0.
        -11    1    3    3    0    0 -0.18649545276E+02  0.16518903362E+02 -0.25248346598E+03  0.25370963778E+03  0.00000000000E+00 0.  1.
         12    1    3    3    0    0  0.43819541262E+02 -0.29487854809E+02 -0.21896666730E+03  0.22524672510E+03  0.00000000000E+00 0. -1.
         13    1    5    5    0    0 -0.43790325806E+02  0.57777743288E+02  0.41034071507E+02  0.83304593379E+02  0.00000000000E+00 0. -1.
        -14    1    5    5    0    0  0.19267695045E+02  0.22716629656E+01 -0.14319373245E+02  0.24113253101E+02  0.00000000000E+00 0.  1.
          5    1    4    4  501    0  0.65624372168E+01 -0.64189664282E+02 -0.27412815944E+01  0.64717583450E+02  0.41800000000E+01 0.  1.
         -5    1    4    4    0  501 -0.72098024425E+01  0.17109209475E+02 -0.10570063748E+03  0.10740020235E+03  0.41800000000E+01 0.  1.
</event>
<event>
11    1  0.6763327E-009  0.1375937E+03  0.7561462E-02  0.1110276E+00
         22   -1    0    0    0    0  0.00000000000E+00  0.00000000000E+00  0.45625807886E+03  0.45625807886E+03  0.00000000000E+00 0. -1.
         22   -1    0    0    0    0 -0.00000000000E+00 -0.00000000000E+00 -0.86992916046E+03  0.86992916046E+03  0.00000000000E+00 0. -1.
        -24    2    1    2    0    0  0.78040350227E+01  0.43725127569E+02 -0.37551716058E+03  0.38784668474E+03  0.86250352066E+02 0.  0.
         25    2    1    2    0    0 -0.36245089502E+02 -0.92934953379E+02 -0.46944273607E+03  0.49595810212E+03  0.12508934621E+03 0.  0.
         24    2    1    2    0    0  0.28441054480E+02  0.49209825809E+02  0.43128881505E+03  0.44238245246E+03  0.80384648532E+02 0.  0.
        -13    1    5    5    0    0 -0.19187053066E+02 -0.58718526615E+01  0.44722953967E+02  0.49017999455E+02  0.00000000000E+00 0.  1.
         14    1    5    5    0    0  0.47628107546E+02  0.55081678471E+02  0.38656586109E+03  0.39336445301E+03  0.00000000000E+00 0. -1.
         13    1    3    3    0    0  0.31637290717E+02  0.52076246676E+02 -0.16631494520E+03  0.17712570290E+03  0.00000000000E+00 0. -1.
        -14    1    3    3    0    0 -0.23833255694E+02 -0.83511191072E+01 -0.20920221538E+03  0.21072098184E+03  0.00000000000E+00 0.  1.
          5    1    4    4  501    0 -0.55422872226E+02 -0.24451989585E+02 -0.82080177183E+02  0.10209908152E+03  0.41800000000E+01 0.  1.
         -5    1    4    4    0  501  0.19177782724E+02 -0.68482963793E+02 -0.38736255889E+03  0.39385902060E+03  0.41800000000E+01 0.  1.
</event>
<event>
11    1  0.6763327E-009  0.1320484E+03  0.7561462E-02  0.1116777E+00
         22   -1    0    0    0    0  0.00000000000E+00  0.00000000000E+00  0.19004540337E+03  0.19004540337E+03  0.00000000000E+00 0. -1.
         22   -1    0    0    0    0 -0.00000000000E+00 -0.00000000000E+00 -0.27067576672E+03  0.27067576672E+03  0.00000000000E+00 0.  1.
         24    2    1    2    0    0  0.18168041245E+01  0.20218803133E+01 -0.19395177160E+03  0.21022123556E+03  0.81044983796E+02 0.  0.
         25    2    1    2    0    0 -0.36075374516E+02  0.22571077527E+02  0.60979834260E+02  0.14552340141E+03  0.12509050317E+03 0.  0.
        -24    2    1    2    0    0  0.34258570391E+02 -0.24592957840E+02  0.52341573983E+02  0.10497653312E+03  0.80634787271E+02 0.  0.
        -13    1    3    3    0    0 -0.45740737350E+01 -0.80316718146E+01 -0.19755828542E+03  0.19777438166E+03  0.00000000000E+00 0.  1.
         14    1    3    3    0    0  0.63908778595E+01  0.10053552128E+02  0.36065138206E+01  0.12446853905E+02  0.00000000000E+00 0. -1.
         13    1    5    5    0    0 -0.30131481444E+01 -0.76818129490E+01  0.62307780539E+02  0.62851800512E+02  0.00000000000E+00 0. -1.
        -14    1    5    5    0    0  0.37271718536E+02 -0.16911144891E+02 -0.99662065564E+01  0.42124732608E+02  0.00000000000E+00 0.  1.
          5    1    4    4  501    0 -0.33475548877E+02 -0.37812788667E+02 -0.10574485440E+02  0.51765929932E+02  0.41800000000E+01 0. -1.
         -5    1    4    4    0  501 -0.25998256386E+01  0.60383866194E+02  0.71554319699E+02  0.93757471476E+02  0.41800000000E+01 0. -1.
</event>
<event>
11    1  0.6763327E-009  0.1606965E+03  0.7561462E-02  0.1086424E+00
         22   -1    0    0    0    0  0.00000000000E+00  0.00000000000E+00  0.47848754650E+03  0.47848754650E+03  0.00000000000E+00 0.  1.
         22   -1    0    0    0    0 -0.00000000000E+00 -0.00000000000E+00 -0.36020093092E+03  0.36020093092E+03  0.00000000000E+00 0.  1.
         24    2    1    2    0    0  0.91901280109E+02  0.39624568362E+02 -0.30388058173E+03  0.32959145475E+03  0.79190702644E+02 0.  0.
         25    2    1    2    0    0 -0.84290915952E+02 -0.96942838042E+02  0.22078613276E+03  0.28442348434E+03  0.12508928677E+03 0.  0.
        -24    2    1    2    0    0 -0.76103641566E+01  0.57318269680E+02  0.20138106455E+03  0.22467353833E+03  0.81120675446E+02 0.  0.
        -11    1    3    3    0    0  0.24948677134E+02 -0.15508743969E+02 -0.15092245443E+03  0.15375482067E+03  0.00000000000E+00 0.  1.
         12    1    3    3    0    0  0.66952602975E+02  0.55133312332E+02 -0.15295812731E+03  0.17583663408E+03  0.00000000000E+00 0. -1.
         11    1    5    5    0    0  0.30230105267E+02  0.48279206779E+02  0.88225398775E+02  0.10501648471E+03  0.00000000000E+00 0. -1.
        -12    1    5    5    0    0 -0.37840469423E+02  0.90390629009E+01  0.11315566578E+03  0.11965705362E+03  0.00000000000E+00 0.  1.
          5    1    4    4  501    0 -0.81351617748E+01 -0.75979565080E+02  0.38396012665E+02  0.85620099015E+02  0.41800000000E+01 0. -1.
         -5    1    4    4    0  501 -0.76155754178E+02 -0.20963272963E+02  0.18239012009E+03  0.19880338532E+03  0.41800000000E+01 0. -1.
</event>
<event>
11    1  0.6763327E-009  0.2117890E+03  0.7561462E-02  0.1046486E+00
         22   -1    0    0    0    0  0.00000000000E+00  0.00000000000E+00  0.54530606762E+03  0.54530606762E+03  0.00000000000E+00 0. -1.
         22   -1    0    0    0    0 -0.00000000000E+00 -0.00000000000E+00 -0.47091689048E+03  0.47091689048E+03  0.00000000000E+00 0. -1.
        -24    2    1    2    0    0  0.41786392271E+01  0.79140924021E+01 -0.32005118886E+03  0.33045258992E+03  0.81768311775E+02 0.  0.
         25    2    1    2    0    0  0.69889039255E+02 -0.16112799865E+03 -0.33455783483E+02  0.21820322630E+03  0.12508656507E+03 0.  0.
         24    2    1    2    0    0 -0.74067678482E+02  0.15321390625E+03  0.42789614948E+03  0.46756714187E+03  0.81014784778E+02 0.  0.
        -11    1    5    5    0    0 -0.38373456178E+02  0.14550006722E+03  0.31896108346E+03  0.35267402011E+03  0.00000000000E+00 0.  1.
         12    1    5    5    0    0 -0.35694222304E+02  0.77138390302E+01  0.10893506603E+03  0.11489312176E+03  0.00000000000E+00 0. -1.
         11    1    3    3    0    0  0.15880768787E+02  0.14742958363E+01 -0.31612972089E+03  0.31653178797E+03  0.00000000000E+00 0. -1.
        -12    1    3    3    0    0 -0.11702129560E+02  0.64397965658E+01 -0.39214679764E+01  0.13920801957E+02  0.00000000000E+00 0.  1.
          5    1    4    4  501    0  0.99566599655E+02 -0.75959001214E+02 -0.21304033265E+02  0.12710079412E+03  0.41800000000E+01 0.  1.
         -5    1    4    4    0  501 -0.29677560400E+02 -0.85168997438E+02 -0.12151750218E+02  0.91102432181E+02  0.41800000000E+01 0.  1.
</event>
<event>
11    1  0.6763327E-009  0.1646960E+03  0.7561462E-02  0.1082742E+00
         22   -1    0    0    0    0  0.00000000000E+00  0.00000000000E+00  0.39115760372E+03  0.39115760372E+03  0.00000000000E+00 0. -1.
         22   -1    0    0    0    0 -0.00000000000E+00 -0.00000000000E+00 -0.11544605104E+04  0.11544605104E+04  0.00000000000E+00 0. -1.
         24    2    1    2    0    0  0.10026987630E+03 -0.51795867291E+01 -0.59086869904E+03  0.60500499616E+03  0.82609622059E+02 0.  0.
         25    2    1    2    0    0 -0.66047119062E+02 -0.97209340415E+02 -0.53098327409E+03  0.55802476610E+03  0.12504608917E+03 0.  0.
        -24    2    1    2    0    0 -0.34222757234E+02  0.10238892714E+03  0.35854906646E+03  0.38258835187E+03  0.78496652238E+02 0.  0.
        -11    1    3    3    0    0  0.72110895780E+01  0.27372189044E+02 -0.84106084964E+02  0.88741591567E+02  0.00000000000E+00 0.  1.
         12    1    3    3    0    0  0.93058786717E+02 -0.32551775774E+02 -0.50676261408E+03  0.51626340459E+03  0.00000000000E+00 0. -1.
         13    1    5    5    0    0 -0.94610587930E+01  0.81221098613E+02  0.32761225571E+03  0.33766280309E+03  0.00000000000E+00 0. -1.
        -14    1    5    5    0    0 -0.24761698441E+02  0.21167828531E+02  0.30936810744E+02  0.44925548782E+02  0.00000000000E+00 0.  1.
          5    1    4    4  501    0  0.17772967554E+02  0.19962445353E+02 -0.99179435259E+02  0.10280277418E+03  0.41800000000E+01 0.  1.
         -5    1    4    4    0  501 -0.83820086616E+02 -0.11717178577E+03 -0.43180383884E+03  0.45522199193E+03  0.41800000000E+01 0.  1.
</event>
<event>
11    1  0.6763327E-009  0.1954389E+03  0.7561462E-02  0.1057797E+00
         22   -1    0    0    0    0  0.00000000000E+00  0.00000000000E+00  0.11515645653E+03  0.11515645653E+03  0.00000000000E+00 0.  1.
         22   -1    0    0    0    0 -0.00000000000E+00 -0.00000000000E+00 -0.26030743371E+04  0.26030743371E+04  0.00000000000E+00 0. -1.
        -24    2    1    2    0    0 -0.14374706363E+03  0.18115417755E+02 -0.19302938573E+04  0.19374228601E+04  0.81126916180E+02 0.  0.
         25    2    1    2    0    0  0.17199284727E+03 -0.52790803779E+02 -0.62802920104E+03  0.66515536075E+03  0.12507025264E+03 0.  0.
         24    2    1    2    0    0 -0.28245783646E+02  0.34675386024E+02  0.70405177773E+02  0.11565257281E+03  0.80115053833E+02 0.  0.
        -11    1    5    5    0    0 -0.21679089247E+02  0.28634773567E+02  0.88482116625E+02  0.95493550203E+02  0.00000000000E+00 0.  1.
         12    1    5    5    0    0 -0.65666943991E+01  0.60406124570E+01 -0.18076938853E+02  0.20159022607E+02  0.00000000000E+00 0. -1.
         11    1    3    3    0    0 -0.15172517975E+03  0.94089405817E+01 -0.18538469795E+04  0.18600692680E+04  0.00000000000E+00 0. -1.
        -12    1    3    3    0    0  0.79781161241E+01  0.87064771734E+01 -0.76446877773E+02  0.77353592049E+02  0.00000000000E+00 0.  1.
          5    1    4    4  501    0  0.62083573000E+02  0.12945568365E+02 -0.79105998766E+02  0.10147506697E+03  0.41800000000E+01 0.  1.
         -5    1    4    4    0  501  0.10990927427E+03 -0.65736372144E+02 -0.54892320227E+03  0.56368029377E+03  0.41800000000E+01 0.  1.
</event>
<event>
11    1  0.6763327E-009  0.1407061E+03  0.7561462E-02  0.1106773E+00
         22   -1    0    0    0    0  0.00000000000E+00  0.00000000000E+00  0.29106268113E+03  0.29106268113E+03  0.00000000000E+00 0.  1.
         22   -1    0    0    0    0 -0.00000000000E+00 -0.00000000000E+00 -0.50711890443E+03  0.50711890443E+03  0.00000000000E+00 0.  1.
        -24    2    1    2    0    0  0.37591523065E-02 -0.10739773008E+02 -0.38850319279E+03  0.39677578911E+03  0.79880869292E+02 0.  0.
         25    2    1    2    0    0 -0.42412455222E+02  0.58153627843E+02 -0.52117662956E+02  0.15343793939E+03  0.12508512967E+03 0.  0.
         24    2    1    2    0    0  0.42408696069E+02 -0.47413854835E+02  0.22456463244E+03  0.24796785705E+03  0.83738956596E+02 0.  0.
        -13    1    5    5    0    0  0.28120986612E+02 -0.56157578906E+02  0.22237582070E+03  0.23107459659E+03  0.00000000000E+00 0.  1.
         14    1    5    5    0    0  0.14287709457E+02  0.87437240705E+01  0.21888117458E+01  0.16893260462E+02  0.00000000000E+00 0. -1.
         13    1    3    3    0    0 -0.28279214469E+02  0.11760806161E+02 -0.72378511327E+02  0.78591853486E+02  0.00000000000E+00 0. -1.
        -14    1    3    3    0    0  0.28282973622E+02 -0.22500579168E+02 -0.31612468146E+03  0.31818393562E+03  0.00000000000E+00 0.  1.
          5    1    4    4  501    0 -0.59331425024E+00  0.37574919138E+02  0.36923369425E+02  0.52849164419E+02  0.41800000000E+01 0. -1.
         -5    1    4    4    0  501 -0.41819140971E+02  0.20578708705E+02 -0.89041032381E+02  0.10058877497E+03  0.41800000000E+01 0. -1.
</event>
<event>
11    1  0.6763327E-009  0.2387590E+03  0.7561462E-02  0.1030064E+00
         22   -1    0    0    0    0  0.00000000000E+00  0.00000000000E+00  0.30205570414E+03  0.30205570414E+03  0.00000000000E+00 0. -1.
         22   -1    0    0    0    0 -0.00000000000E+00 -0.00000000000E+00 -0.10162382238E+04  0.10162382238E+04  0.00000000000E+00 0.  1.
        -24    2    1    2    0    0  0.18407390039E+03 -0.19809673226E+03 -0.71484172740E+03  0.76829142856E+03  0.78406044558E+02 0.  0.
         25    2    1    2    0    0  0.46612469014E+02  0.14175236202E+03 -0.15965918969E+03  0.25181234702E+03  0.12510774097E+03 0.  0.
         24    2    1    2    0    0 -0.23068636941E+03  0.56344370239E+02  0.16031839746E+03  0.29819015234E+03  0.82610467246E+02 0.  0.
        -11    1    5    5    0    0 -0.20292009499E+03  0.70120577824E+02  0.11576678724E+03  0.24391680839E+03  0.00000000000E+00 0.  1.
         12    1    5    5    0    0 -0.27766274417E+02 -0.13776207585E+02  0.44551610220E+02  0.54273343951E+02  0.00000000000E+00 0. -1.
         11    1    3    3    0    0  0.55424517302E+02 -0.79740697027E+02 -0.16640198564E+03  0.19266571232E+03  0.00000000000E+00 0. -1.
        -12    1    3    3    0    0  0.12864938309E+03 -0.11835603523E+03 -0.54843974176E+03  0.57562571624E+03  0.00000000000E+00 0.  1.
          5    1    4    4  501    0  0.80957536599E+02  0.13450296338E+03 -0.14429113897E+03  0.21326644151E+03  0.41800000000E+01 0. -1.
         -5    1    4    4    0  501 -0.34345067584E+02  0.72493986405E+01 -0.15368050723E+02  0.38545905503E+02  0.41800000000E+01 0. -1.
</event>
<event>
11    1  0.6763327E-009  0.1474085E+03  0.7561462E-02  0.1099557E+00
         22   -1    0    0    0    0  0.00000000000E+00  0.00000000000E+00  0.29303867593E+03  0.29303867593E+03  0.00000000000E+00 0.  1.
         22   -1    0    0    0    0 -0.00000000000E+00 -0.00000000000E+00 -0.10837236581E+04  0.10837236581E+04  0.00000000000E+00 0.  1.
         24    2    1    2    0    0 -0.32455802901E+02  0.80023497710E+01 -0.72423251831E+03  0.72944611171E+03  0.80383285350E+02 0.  0.
         25    2    1    2    0    0  0.90772962944E+02  0.42847164415E+02 -0.32690626142E+03  0.36412944473E+03  0.12508772308E+03 0.  0.
        -24    2    1    2    0    0 -0.58317160043E+02 -0.50849514186E+02  0.26045379760E+03  0.28318677755E+03  0.79824846057E+02 0.  0.
        -13    1    3    3    0    0 -0.52821447034E+02  0.31314241931E+01 -0.65454887791E+03  0.65668420467E+03  0.00000000000E+00 0.  1.
         14    1    3    3    0    0  0.20365644133E+02  0.48709255778E+01 -0.69683640396E+02  0.72761907038E+02  0.00000000000E+00 0. -1.
         13    1    5    5    0    0  0.11831702718E+02 -0.37306281608E+02  0.78673880480E+02  0.87871083449E+02  0.00000000000E+00 0. -1.
        -14    1    5    5    0    0 -0.70148862761E+02 -0.13543232578E+02  0.18177991712E+03  0.19531569411E+03  0.00000000000E+00 0.  1.
          5    1    4    4  501    0  0.11964105445E+03  0.25343555962E+02 -0.21753660229E+03  0.24959151323E+03  0.41800000000E+01 0.  1.
         -5    1    4    4    0  501 -0.28868091501E+02  0.17503608454E+02 -0.10936965912E+03  0.11453793150E+03  0.41800000000E+01 0.  1.
</event>
<event>
11    1  0.6763327E-009  0.1477134E+03  0.7561462E-02  0.1099238E+00
         22   -1    0    0    0    0  0.00000000000E+00  0.00000000000E+00  0.25394557284E+04  0.25394557284E+04  0.00000000000E+00 0.  1.
         22   -1    0    0    0    0 -0.00000000000E+00 -0.00000000000E+00 -0.54560701791E+02  0.54560701791E+02  0.00000000000E+00 0. -1.
        -24    2    1    2    0    0  0.50946859358E+01  0.70050879505E+02  0.81049487349E+02  0.13257986126E+03  0.77944330566E+02 0.  0.
         25    2    1    2    0    0  0.34223286919E+02 -0.96169705379E+02  0.20644069102E+03  0.26207773007E+03  0.12508849703E+03 0.  0.
         24    2    1    2    0    0 -0.39317972855E+02  0.26118825874E+02  0.21974048482E+04  0.21993588388E+04  0.79769285892E+02 0.  0.
        -11    1    5    5    0    0 -0.29333172568E+02  0.48924940694E+02  0.19176854547E+04  0.19185337078E+04  0.00000000000E+00 0.  1.
         12    1    5    5    0    0 -0.99848002863E+01 -0.22806114820E+02  0.27971939356E+03  0.28082513107E+03  0.00000000000E+00 0. -1.
         13    1    3    3    0    0 -0.10629793565E+02  0.45672791328E+02  0.42517964969E+00  0.46895385238E+02  0.00000000000E+00 0. -1.
        -14    1    3    3    0    0  0.15724479501E+02  0.24378088178E+02  0.80624307699E+02  0.85684476020E+02  0.00000000000E+00 0.  1.
          5    1    4    4  501    0 -0.32094460343E+02 -0.87322191732E+02  0.13608021961E+03  0.16489547636E+03  0.41800000000E+01 0. -1.
         -5    1    4    4    0  501  0.66317747262E+02 -0.88475136478E+01  0.70360471413E+02  0.97182253715E+02  0.41800000000E+01 0. -1.
</event>
<event>
11    1  0.6763327E-009  0.1369292E+03  0.7561462E-02  0.1111037E+00
         22   -1    0    0    0    0  0.00000000000E+00  0.00000000000E+00  0.13693684421E+02  0.13693684421E+02  0.00000000000E+00 0.  1.
         22   -1    0    0    0    0 -0.00000000000E+00 -0.00000000000E+00 -0.31721311200E+04  0.31721311200E+04  0.00000000000E+00 0. -1.
        -24    2    1    2    0    0  0.18500241133E+01 -0.42215580402E+02 -0.14573967704E+04  0.14601684248E+04  0.79378238622E+02 0.  0.
         25    2    1    2    0    0 -0.43367460313E+01  0.91111972121E+02 -0.14360590012E+04  0.14443798908E+04  0.12509042749E+03 0.  0.
         24    2    1    2    0    0  0.24867219181E+01 -0.48896391719E+02 -0.26498166400E+03  0.28127648883E+03  0.80648248607E+02 0.  0.
        -11    1    5    5    0    0 -0.23792644062E+02 -0.15910083047E+02 -0.26212766882E+02  0.38811464822E+02  0.00000000000E+00 0.  1.
         12    1    5    5    0    0  0.26279365981E+02 -0.32986308672E+02 -0.23876889712E+03  0.24246502401E+03  0.00000000000E+00 0. -1.
         13    1    3    3    0    0  0.24781745013E+02 -0.25911732162E+02 -0.12842492392E+04  0.12847496492E+04  0.00000000000E+00 0. -1.
        -14    1    3    3    0    0 -0.22931720900E+02 -0.16303848240E+02 -0.17314753114E+03  0.17541877559E+03  0.00000000000E+00 0.  1.
          5    1    4    4  501    0 -0.36054482253E+02  0.10359668945E+03 -0.12741030554E+04  0.12788230010E+04  0.41800000000E+01 0.  1.
         -5    1    4    4    0  501  0.31717736222E+02 -0.12484717331E+02 -0.16195594580E+03  0.16555688973E+03  0.41800000000E+01 0.  1.
</event>
<event>
11    1  0.6763327E-009  0.1356850E+03  0.7561462E-02  0.1112475E+00
         22   -1    0    0    0    0  0.00000000000E+00  0.00000000000E+00  0.14088569544E+03  0.14088569544E+03  0.00000000000E+00 0.  1.
         22   -1    0    0    0    0 -0.00000000000E+00 -0.00000000000E+00 -0.17085761098E+04  0.17085761098E+04  0.00000000000E+00 0.  1.
         24    2    1    2    0    0 -0.25116919159E+02  0.32681463918E+02 -0.15067032567E+04  0.15094454331E+04  0.81067095742E+02 0.  0.
         25    2    1    2    0    0  0.58439620683E+02 -0.67695197253E+02 -0.14697734370E+03  0.21271571758E+03  0.12509119852E+03 0.  0.
        -24    2    1    2    0    0 -0.33322701524E+02  0.35013733335E+02  0.85990186032E+02  0.12730065457E+03  0.80466021404E+02 0.  0.
        -13    1    3    3    0    0 -0.46834254405E+01  0.13487552056E+02 -0.13607077892E+04  0.13607826925E+04  0.00000000000E+00 0.  1.
         14    1    3    3    0    0 -0.20433493719E+02  0.19193911862E+02 -0.14599546750E+03  0.14866274062E+03  0.00000000000E+00 0. -1.
         13    1    5    5    0    0 -0.77435125817E+01 -0.15247386378E+02 -0.70545915100E+01  0.18498974021E+02  0.00000000000E+00 0. -1.
        -14    1    5    5    0    0 -0.25579188942E+02  0.50261119713E+02  0.93044777542E+02  0.10880168055E+03  0.00000000000E+00 0.  1.
          5    1    4    4  501    0  0.27609600080E+02 -0.14262871508E+02  0.18262663849E+02  0.36286592719E+02  0.41800000000E+01 0.  1.
         -5    1    4    4    0  501  0.30830020603E+02 -0.53432325745E+02 -0.16524000755E+03  0.17642912486E+03  0.41800000000E+01 0.  1.
</event>
<event>
11    1  0.6763327E-009  0.1507390E+03  0.7561462E-02  0.1096126E+00
         22   -1    0    0    0    0  0.00000000000E+00  0.00000000000E+00  0.15396601885E+03  0.15396601885E+03  0.00000000000E+00 0.  1.
         22   -1    0    0    0    0 -0.00000000000E+00 -0.00000000000E+00 -0.13745792560E+04  0.13745792560E+04  0.00000000000E+00 0.  1.
        -24    2    1    2    0    0  0.65503258697E+02 -0.50582241891E+02 -0.12451573068E+04  0.12505600194E+04  0.81451847267E+02 0.  0.
         25    2    1    2    0    0 -0.90490175052E+02  0.84888065344E+02 -0.19581836640E+02  0.17727247301E+03  0.12509047103E+03 0.  0.
         24    2    1    2    0    0  0.24986916355E+02 -0.34305823452E+02  0.44125906244E+02  0.10071278245E+03  0.79967077198E+02 0.  0.
        -11    1    5    5    0    0  0.80411629962E+01 -0.56902640905E+02  0.44147718515E+02  0.72467868013E+02  0.00000000000E+00 0.  1.
         12    1    5    5    0    0  0.16945753359E+02  0.22596817452E+02 -0.21812271095E-01  0.28244914439E+02  0.00000000000E+00 0. -1.
         13    1    3    3    0    0  0.31334821996E+02  0.12659531701E+01 -0.13207725248E+03  0.13574930692E+03  0.00000000000E+00 0. -1.
        -14    1    3    3    0    0  0.34168436700E+02 -0.51848195061E+02 -0.11130800543E+04  0.11148107125E+04  0.00000000000E+00 0.  1.
          5    1    4    4  501    0  0.20052250396E+01  0.26548725197E+02 -0.55825478842E+02  0.61990420429E+02  0.41800000000E+01 0. -1.
         -5    1    4    4    0  501 -0.92495400091E+02  0.58339340146E+02  0.36243642202E+02  0.11528205258E+03  0.41800000000E+01 0. -1.
</event>
<event>
11    1  0.6763327E-009  0.1897381E+03  0.7561462E-02  0.1062027E+00
         22   -1    0    0    0    0  0.00000000000E+00  0.00000000000E+00  0.22370997184E+04  0.22370997184E+04  0.00000000000E+00 0.  1.
         22   -1    0    0    0    0 -0.00000000000E+00 -0.00000000000E+00 -0.27929379439E+04  0.27929379439E+04  0.00000000000E+00 0.  1.
         24    2    1    2    0    0 -0.10678084041E+01  0.16461492188E+02 -0.25280270724E+04  0.25292893529E+04  0.78176921267E+02 0.  0.
         25    2    1    2    0    0 -0.59250706558E+02  0.11303948991E+03 -0.23063855386E+03  0.29176288231E+03  0.12507143743E+03 0.  0.
        -24    2    1    2    0    0  0.60318514962E+02 -0.12950098209E+03  0.22028274008E+04  0.22089854270E+04  0.82214544589E+02 0.  0.
        -13    1    3    3    0    0 -0.32368059086E+02  0.20834327946E+02 -0.19642455679E+04  0.19646227148E+04  0.00000000000E+00 0.  1.
         14    1    3    3    0    0  0.31300250682E+02 -0.43728357582E+01 -0.56378150451E+03  0.56466663813E+03  0.00000000000E+00 0. -1.
         13    1    5    5    0    0  0.22372704839E+02  0.22555898782E+01  0.55809302923E+03  0.55854583955E+03  0.00000000000E+00 0. -1.
        -14    1    5    5    0    0  0.37945810123E+02 -0.13175657197E+03  0.16447343716E+04  0.16504395875E+04  0.00000000000E+00 0.  1.
          5    1    4    4  501    0  0.47212208826E+01  0.88699508631E+02 -0.58426601675E+02  0.10640034277E+03  0.41800000000E+01 0. -1.
         -5    1    4    4    0  501 -0.63971927440E+02  0.24339981276E+02 -0.17221195218E+03  0.18536253954E+03  0.41800000000E+01 0. -1.
</event>
<event>
11    1  0.6763327E-009  0.1494758E+03  0.7561462E-02  0.1097416E+00
         22   -1    0    0    0    0  0.00000000000E+00  0.00000000000E+00  0.24790616019E+03  0.24790616019E+03  0.00000000000E+00 0.  1.
         22   -1    0    0    0    0 -0.00000000000E+00 -0.00000000000E+00 -0.12290295275E+04  0.12290295275E+04  0.00000000000E+00 0.  1.
        -24    2    1    2    0    0  0.57598494480E+02  0.14654303102E+02 -0.25277119018E+03  0.27151924899E+03  0.79354223736E+02 0.  0.
         25    2    1    2    0    0 -0.45816859297E+02  0.66624407999E+02 -0.94679112749E+03  0.95843823193E+03  0.12510958790E+03 0.  0.
         24    2    1    2    0    0 -0.11781635183E+02 -0.81278711101E+02  0.21843895034E+03  0.24697820678E+03  0.80855573677E+02 0.  0.
        -13    1    5    5    0    0  0.19986808868E+02 -0.71067852816E+02  0.18735139433E+03  0.20137193745E+03  0.00000000000E+00 0.  1.
         14    1    5    5    0    0 -0.31768444051E+02 -0.10210858285E+02  0.31087556006E+02  0.45606269336E+02  0.00000000000E+00 0. -1.
         11    1    3    3    0    0  0.46783270328E+02 -0.28284122601E+02 -0.13113443540E+03  0.14207359403E+03  0.00000000000E+00 0. -1.
        -12    1    3    3    0    0  0.10815224152E+02  0.42938425703E+02 -0.12163675478E+03  0.12944565496E+03  0.00000000000E+00 0.  1.
          5    1    4    4  501    0  0.20763989098E+02  0.70432708764E+02 -0.33327705400E+03  0.34129602522E+03  0.41800000000E+01 0. -1.
         -5    1    4    4    0  501 -0.66580848395E+02 -0.38083007646E+01 -0.61351407349E+03  0.61714220671E+03  0.41800000000E+01 0. -1.
</event>
<event>
11    1  0.6763327E-009  0.1675017E+03  0.7561462E-02  0.1080226E+00
         22   -1    0    0    0    0  0.00000000000E+00  0.00000000000E+00  0.71218182447E+03  0.71218182447E+03  0.00000000000E+00 0.  1.
         22   -1    0    0    0    0 -0.00000000000E+00 -0.00000000000E+00 -0.12870944668E+04  0.12870944668E+04  0.00000000000E+00 0.  1.
         24    2    1    2    0    0 -0.85908736166E+02  0.71261217838E+02 -0.12109174049E+04  0.12193183807E+04  0.89206950839E+02 0.  0.
         25    2    1    2    0    0  0.89008755769E+02 -0.59152184523E+02  0.28474591294E+02  0.16697185185E+03  0.12508899801E+03 0.  0.
        -24    2    1    2    0    0 -0.31000196036E+01 -0.12109033315E+02  0.60753017121E+03  0.61298605872E+03  0.80639695207E+02 0.  0.
        -13    1    3    3    0    0 -0.18064481509E+02  0.25667359495E+02 -0.78504973285E+03  0.78567691953E+03  0.00000000000E+00 0.  1.
         14    1    3    3    0    0 -0.67844254657E+02  0.45593858343E+02 -0.42586767201E+03  0.43364146120E+03  0.00000000000E+00 0. -1.
         13    1    5    5    0    0  0.33138502920E+02 -0.26583040614E+02  0.33158998556E+03  0.33430036935E+03  0.00000000000E+00 0. -1.
        -14    1    5    5    0    0 -0.36238522524E+02  0.14474007298E+02  0.27594018565E+03  0.27868568937E+03  0.00000000000E+00 0.  1.
          5    1    4    4  501    0  0.28320194188E+02 -0.83250038556E+02 -0.13745784716E+02  0.89101185827E+02  0.41800000000E+01 0.  1.
         -5    1    4    4    0  501  0.60688561581E+02  0.24097854033E+02  0.42220376011E+02  0.77870666019E+02  0.41800000000E+01 0.  1.
</event>
<event>
11    1  0.6763327E-009  0.1520903E+03  0.7561462E-02  0.1094762E+00
         22   -1    0    0    0    0  0.00000000000E+00  0.00000000000E+00  0.34717800024E+03  0.34717800024E+03  0.00000000000E+00 0.  1.
         22   -1    0    0    0    0 -0.00000000000E+00 -0.00000000000E+00 -0.20042196278E+03  0.20042196278E+03  0.00000000000E+00 0.  1.
         24    2    1    2    0    0 -0.86978328592E+01 -0.93005090981E+02 -0.13347303333E+03  0.18157004942E+03  0.80168778049E+02 0.  0.
         25    2    1    2    0    0  0.77296632108E+01  0.42729601569E+02  0.12165294749E+03  0.17981110832E+03  0.12508808296E+03 0.  0.
        -24    2    1    2    0    0  0.96816964837E+00  0.50275489411E+02  0.15857612330E+03  0.18621880529E+03  0.83680908053E+02 0.  0.
        -11    1    3    3    0    0  0.12775573574E+02 -0.90357830406E+02 -0.13119844447E+03  0.15981484483E+03  0.00000000000E+00 0.  1.
         12    1    3    3    0    0 -0.21473406433E+02 -0.26472605747E+01 -0.22745888659E+01  0.21755204593E+02  0.00000000000E+00 0. -1.
         11    1    5    5    0    0 -0.69695028384E+01 -0.22892501784E+02  0.42617773034E+02  0.48876530013E+02  0.00000000000E+00 0. -1.
        -12    1    5    5    0    0  0.79376724868E+01  0.73167991196E+02  0.11595835027E+03  0.13734227527E+03  0.00000000000E+00 0.  1.
          5    1    4    4  501    0 -0.36738768671E-01 -0.14888434469E+02  0.12052294486E+03  0.12151098497E+03  0.41800000000E+01 0. -1.
         -5    1    4    4    0  501  0.77664019795E+01  0.57618036038E+02  0.11300026330E+01  0.58300123349E+02  0.41800000000E+01 0. -1.
</event>
<event>
11    1  0.6763327E-009  0.1916377E+03  0.7561462E-02  0.1060600E+00
         22   -1    0    0    0    0  0.00000000000E+00  0.00000000000E+00  0.10649586777E+04  0.10649586777E+04  0.00000000000E+00 0. -1.
         22   -1    0    0    0    0 -0.00000000000E+00 -0.00000000000E+00 -0.88601842645E+03  0.88601842645E+03  0.00000000000E+00 0.  1.
         24    2    1    2    0    0  0.21727553976E+02  0.19133853701E+01 -0.80274251135E+03  0.80721339867E+03  0.81988925014E+02 0.  0.
         25    2    1    2    0    0  0.11000994493E+03 -0.66820701710E+02  0.35426372380E+02  0.18294201593E+03  0.12508220965E+03 0.  0.
        -24    2    1    2    0    0 -0.13173749891E+03  0.64907316340E+02  0.94625639022E+03  0.96082168954E+03  0.78799966528E+02 0.  0.
        -13    1    3    3    0    0  0.15356880670E+02 -0.33070902287E+02 -0.61830587034E+03  0.61938006721E+03  0.00000000000E+00 0.  1.
         14    1    3    3    0    0  0.63706733052E+01  0.34984287657E+02 -0.18443664101E+03  0.18783333146E+03  0.00000000000E+00 0. -1.
         13    1    5    5    0    0 -0.93389448427E+02  0.62848521091E+02  0.84609623050E+03  0.85355161352E+03  0.00000000000E+00 0. -1.
        -14    1    5    5    0    0 -0.38348050481E+02  0.20587952485E+01  0.10016015972E+03  0.10727007602E+03  0.00000000000E+00 0.  1.
          5    1    4    4  501    0  0.70980210023E+02 -0.47044483451E+02  0.82429834820E+02  0.11858972850E+03  0.41800000000E+01 0. -1.
         -5    1    4    4    0  501  0.39029734909E+02 -0.19776218259E+02 -0.47003462440E+02  0.64352287427E+02  0.41800000000E+01 0. -1.
</event>
<event>
11    1  0.6763327E-009  0.1566372E+03  0.7561462E-02  0.1090283E+00
         22   -1    0    0    0    0  0.00000000000E+00  0.00000000000E+00  0.12316368892E+04  0.12316368892E+04  0.00000000000E+00 0.  1.
         22   -1    0    0    0    0 -0.00000000000E+00 -0.00000000000E+00 -0.47897974488E+02  0.47897974488E+02  0.00000000000E+00 0.  1.
         24    2    1    2    0    0 -0.77250066372E+01  0.16342790311E+02  0.24483340612E+02  0.85160560994E+02  0.79536938957E+02 0.  0.
         25    2    1    2    0    0 -0.87667337791E+02  0.16682282251E+02  0.73677242383E+03  0.75262519720E+03  0.12508885754E+03 0.  0.
        -24    2    1    2    0    0  0.95392344428E+02 -0.33025072562E+02  0.42248315030E+03  0.44174910553E+03  0.80373535161E+02 0.  0.
        -13    1    3    3    0    0 -0.41463973594E+02 -0.47856857992E+01  0.13408647020E+02  0.43840115302E+02  0.00000000000E+00 0.  1.
         14    1    3    3    0    0  0.33738966957E+02  0.21128476110E+02  0.11074693592E+02  0.41320445692E+02  0.00000000000E+00 0. -1.
         13    1    5    5    0    0  0.13966271245E+02  0.53758526438E+01  0.21569833185E+03  0.21621685153E+03  0.00000000000E+00 0. -1.
        -14    1    5    5    0    0  0.81426073183E+02 -0.38400925206E+02  0.20678481845E+03  0.22553225400E+03  0.00000000000E+00 0.  1.
          5    1    4    4  501    0 -0.81593701412E+02  0.50825599078E+02  0.31398720348E+03  0.32839946708E+03  0.41800000000E+01 0.  1.
         -5    1    4    4    0  501 -0.60736363794E+01 -0.34143316827E+02  0.42278522035E+03  0.42422573012E+03  0.41800000000E+01 0.  1.
</event>
<event>
11    1  0.6763327E-009  0.1312480E+03  0.7561462E-02  0.1117745E+00
         22   -1    0    0    0    0  0.00000000000E+00  0.00000000000E+00  0.22576053601E+03  0.22576053601E+03  0.00000000000E+00 0. -1.
         22   -1    0    0    0    0 -0.00000000000E+00 -0.00000000000E+00 -0.37357480587E+04  0.37357480587E+04  0.00000000000E+00 0.  1.
         24    2    1    2    0    0  0.38666332560E+02 -0.80365516026E+01 -0.36524883894E+04  0.36539287203E+04  0.94678334877E+02 0.  0.
         25    2    1    2    0    0 -0.65413938605E+02 -0.64116395532E+00 -0.65342341648E+00  0.14116134522E+03  0.12508678574E+03 0.  0.
        -24    2    1    2    0    0  0.26747606045E+02  0.86777155579E+01  0.14315429010E+03  0.16641852919E+03  0.80070212347E+02 0.  0.
        -11    1    3    3    0    0  0.43942809784E+02 -0.23197501511E+02 -0.35349449077E+04  0.35352941314E+04  0.00000000000E+00 0.  1.
         12    1    3    3    0    0 -0.52764772244E+01  0.15160949908E+02 -0.11754348162E+03  0.11863458891E+03  0.00000000000E+00 0. -1.
         11    1    5    5    0    0  0.40593964852E+02  0.32736790971E+02  0.11778441493E+03  0.12881279388E+03  0.00000000000E+00 0. -1.
        -12    1    5    5    0    0 -0.13846358807E+02 -0.24059075413E+02  0.25369875170E+02  0.37605735309E+02  0.00000000000E+00 0.  1.
          5    1    4    4  501    0 -0.79127601913E+02  0.29727645875E+02 -0.36388838853E+02  0.92122365943E+02  0.41800000000E+01 0.  1.
         -5    1    4    4    0  501  0.13713663309E+02 -0.30368809830E+02  0.35735415437E+02  0.49038979275E+02  0.41800000000E+01 0.  1.
</event>
<event>
11    1  0.6763327E-009  0.1271433E+03  0.7561462E-02  0.1122830E+00
         22   -1    0    0    0    0  0.00000000000E+00  0.00000000000E+00  0.13510442673E+04  0.13510442673E+04  0.00000000000E+00 0. -1.
         22   -1    0    0    0    0 -0.00000000000E+00 -0.00000000000E+00 -0.92862364089E+03  0.92862364089E+03  0.00000000000E+00 0. -1.
         24    2    1    2    0    0 -0.12017180386E+01 -0.22507119599E+02 -0.86445575426E+03  0.86900213970E+03  0.85865902293E+02 0.  0.
         25    2    1    2    0    0  0.17359655178E+02  0.29041358455E+02  0.87175998038E+01  0.12987412328E+03  0.12508610323E+03 0.  0.
        -24    2    1    2    0    0 -0.16157937139E+02 -0.65342388552E+01  0.12781587809E+04  0.12807916452E+04  0.80209688535E+02 0.  0.
        -13    1    3    3    0    0  0.15201376197E+01 -0.41010865131E+02 -0.19436050391E+03  0.19864593466E+03  0.00000000000E+00 0.  1.
         14    1    3    3    0    0 -0.27218556583E+01  0.18503745531E+02 -0.67009525035E+03  0.67035620505E+03  0.00000000000E+00 0. -1.
         13    1    5    5    0    0 -0.43261467667E+02  0.13721424374E+02  0.55996415817E+03  0.56180040095E+03  0.00000000000E+00 0. -1.
        -14    1    5    5    0    0  0.27103530528E+02 -0.20255663229E+02  0.71819462273E+03  0.71899124430E+03  0.00000000000E+00 0.  1.
          5    1    4    4  501    0  0.61032036063E+02  0.45279293633E+02 -0.14768842692E+02  0.77528800922E+02  0.41800000000E+01 0.  1.
         -5    1    4    4    0  501 -0.43672380886E+02 -0.16237935179E+02  0.23486442496E+02  0.52345322353E+02  0.41800000000E+01 0.  1.
</event>
<event>
11    1  0.6763327E-009  0.1348404E+03  0.7561462E-02  0.1113461E+00
         22   -1    0    0    0    0  0.00000000000E+00  0.00000000000E+00  0.19155422260E+04  0.19155422260E+04  0.00000000000E+00 0. -1.
         22   -1    0    0    0    0 -0.00000000000E+00 -0.00000000000E+00 -0.20334546705E+03  0.20334546705E+03  0.00000000000E+00 0.  1.
        -24    2    1    2    0    0  0.42967339470E-01 -0.45690239532E+02 -0.17963789334E+03  0.20177580920E+03  0.79725181831E+02 0.  0.
         25    2    1    2    0    0  0.49877188837E+02  0.46758568568E+02  0.44792289622E+03  0.47005734410E+03  0.12507952704E+03 0.  0.
         24    2    1    2    0    0 -0.49920156176E+02 -0.10683290356E+01  0.14439117561E+04  0.14470545398E+04  0.81194324597E+02 0.  0.
        -13    1    5    5    0    0 -0.26780832125E+00  0.13273952812E+02  0.39103530478E+02  0.41295951865E+02  0.00000000000E+00 0.  1.
         14    1    5    5    0    0 -0.49652347855E+02 -0.14342281847E+02  0.14048082256E+04  0.14057585879E+04  0.00000000000E+00 0. -1.
         13    1    3    3    0    0  0.16210178209E+02 -0.82312488145E+00 -0.33042519793E+00  0.16234426167E+02  0.00000000000E+00 0. -1.
        -14    1    3    3    0    0 -0.16167210870E+02 -0.44867114651E+02 -0.17930746815E+03  0.18554138303E+03  0.00000000000E+00 0.  1.
          5    1    4    4  501    0 -0.30355502003E+02 -0.54407148526E+01  0.22876066419E+03  0.23086786645E+03  0.41800000000E+01 0. -1.
         -5    1    4    4    0  501  0.80232690840E+02  0.52199283421E+02  0.21916223203E+03  0.23918947765E+03  0.41800000000E+01 0. -1.
</event>
<event>
11    1  0.6763327E-009  0.1387721E+03  0.7561462E-02  0.1108937E+00
         22   -1    0    0    0    0  0.00000000000E+00  0.00000000000E+00  0.67184560258E+03  0.67184560258E+03  0.00000000000E+00 0.  1.
         22   -1    0    0    0    0 -0.00000000000E+00 -0.00000000000E+00 -0.87210289708E+02  0.87210289708E+02  0.00000000000E+00 0. -1.
        -24    2    1    2    0    0 -0.94097780867E+01 -0.10714715232E+02 -0.10743071479E+02  0.82689047949E+02  0.80738565876E+02 0.  0.
         25    2    1    2    0    0 -0.51460463260E+02  0.16421244745E+02  0.95478117767E+02  0.16636795018E+03  0.12507752523E+03 0.  0.
         24    2    1    2    0    0  0.60870241347E+02 -0.57065295128E+01  0.49990026658E+03  0.50999889415E+03  0.80379380114E+02 0.  0.
        -13    1    5    5    0    0  0.75274422811E+01 -0.36151401895E+02  0.24713100693E+03  0.24987461022E+03  0.00000000000E+00 0.  1.
         14    1    5    5    0    0  0.53342799066E+02  0.30444872382E+02  0.25276925965E+03  0.26012428393E+03  0.00000000000E+00 0. -1.
         11    1    3    3    0    0 -0.59652261827E+01 -0.13104419094E+02 -0.45477602524E+02  0.47702432376E+02  0.00000000000E+00 0. -1.
        -12    1    3    3    0    0 -0.34445519040E+01  0.23897038617E+01  0.34734531045E+02  0.34986615573E+02  0.00000000000E+00 0.  1.
          5    1    4    4  501    0 -0.25887958411E+02 -0.27306189949E+02 -0.18079302812E+02  0.41954117681E+02  0.41800000000E+01 0. -1.
         -5    1    4    4    0  501 -0.25572504849E+02  0.43727434694E+02  0.11355742058E+03  0.12441383250E+03  0.41800000000E+01 0. -1.
</event>
<event>
11    1  0.6763327E-009  0.1489370E+03  0.7561462E-02  0.1097970E+00
         22   -1    0    0    0    0  0.00000000000E+00  0.00000000000E+00  0.96326798410E+03  0.96326798410E+03  0.00000000000E+00 0. -1.
         22   -1    0    0    0    0 -0.00000000000E+00 -0.00000000000E+00 -0.32209389422E+03  0.32209389422E+03  0.00000000000E+00 0.  1.
         24    2    1    2    0    0 -0.10362708208E+02  0.97259202551E+01 -0.19717016631E+03  0.21268891210E+03  0.78476235909E+02 0.  0.
         25    2    1    2    0    0 -0.13913801450E+02  0.67784656059E+02 -0.68461141946E+02  0.15850318937E+03  0.12509188469E+03 0.  0.
        -24    2    1    2    0    0  0.24276509658E+02 -0.77510576314E+02  0.90680539814E+03  0.91416977685E+03  0.82541580145E+02 0.  0.
        -13    1    3    3    0    0  0.18018196137E+02 -0.35319170229E+01 -0.17068019545E+03  0.17166496133E+03  0.00000000000E+00 0.  1.
         14    1    3    3    0    0 -0.28380904345E+02  0.13257837278E+02 -0.26489970858E+02  0.41023950770E+02  0.00000000000E+00 0. -1.
         13    1    5    5    0    0 -0.22307706200E+02 -0.14497458068E+02  0.44241107281E+03  0.44321029702E+03  0.00000000000E+00 0. -1.
        -14    1    5    5    0    0  0.46584215858E+02 -0.63013118246E+02  0.46439432533E+03  0.47095947983E+03  0.00000000000E+00 0.  1.
          5    1    4    4  501    0  0.81779547024E+01 -0.34618221220E+02 -0.30361105513E+02  0.46952841358E+02  0.41800000000E+01 0. -1.
         -5    1    4    4    0  501 -0.22091756152E+02  0.10240287728E+03 -0.38100036432E+02  0.11155034801E+03  0.41800000000E+01 0. -1.
</event>
<event>
11    1  0.6763327E-009  0.1301017E+03  0.7561462E-02  0.1119144E+00
         22   -1    0    0    0    0  0.00000000000E+00  0.00000000000E+00  0.71266662428E+03  0.71266662428E+03  0.00000000000E+00 0.  1.
         22   -1    0    0    0    0 -0.00000000000E+00 -0.00000000000E+00 -0.40235335784E+03  0.40235335784E+03  0.00000000000E+00 0. -1.
         24    2    1    2    0    0 -0.35880045004E+02 -0.35652918396E+00 -0.35851825315E+03  0.36919439594E+03  0.80508753643E+02 0.  0.
         25    2    1    2    0    0 -0.38978843164E+01 -0.62708839098E+01  0.83540533711E+02  0.15060270956E+03  0.12509051870E+03 0.  0.
        -24    2    1    2    0    0  0.39777929320E+02  0.66274130937E+01  0.58529098588E+03  0.59522287661E+03  0.10049143456E+03 0.  0.
        -13    1    3    3    0    0 -0.11317705771E+02 -0.37835305352E+02 -0.22271340779E+03  0.22618767165E+03  0.00000000000E+00 0.  1.
         14    1    3    3    0    0 -0.24562339233E+02  0.37478776169E+02 -0.13580484536E+03  0.14300672430E+03  0.00000000000E+00 0. -1.
         11    1    5    5    0    0  0.52887444143E+02 -0.35346838789E+02  0.37848777334E+03  0.38379613772E+03  0.00000000000E+00 0. -1.
        -12    1    5    5    0    0 -0.13109514823E+02  0.41974251883E+02  0.20680321254E+03  0.21142673889E+03  0.00000000000E+00 0.  1.
          5    1    4    4  501    0  0.52173667354E+02  0.15075267976E+02  0.70451913035E+02  0.89052230292E+02  0.41800000000E+01 0.  1.
         -5    1    4    4    0  501 -0.56071551671E+02 -0.21346151885E+02  0.13088620676E+02  0.61550479269E+02  0.41800000000E+01 0.  1.
</event>
<event>
11    1  0.6763327E-009  0.1812872E+03  0.7561462E-02  0.1068606E+00
         22   -1    0    0    0    0  0.00000000000E+00  0.00000000000E+00  0.35997195824E+03  0.35997195824E+03  0.00000000000E+00 0.  1.
         22   -1    0    0    0    0 -0.00000000000E+00 -0.00000000000E+00 -0.41357579303E+03  0.41357579303E+03  0.00000000000E+00 0.  1.
         24    2    1    2    0    0 -0.64440551076E+02 -0.10668529492E+03 -0.27644035049E+03  0.31383638344E+03  0.80868234905E+02 0.  0.
         25    2    1    2    0    0  0.18573236481E+03  0.12303240304E+03  0.12876823448E+03  0.28611557563E+03  0.12508949143E+03 0.  0.
        -24    2    1    2    0    0 -0.12129181374E+03 -0.16347108124E+02  0.94068281206E+02  0.17359579220E+03  0.79421190613E+02 0.  0.
        -13    1    3    3    0    0 -0.83337458194E+02 -0.94149525060E+02 -0.23926152397E+03  0.27028751703E+03  0.00000000000E+00 0.  1.
         14    1    3    3    0    0  0.18896907118E+02 -0.12535769861E+02 -0.37178826517E+02  0.43548866413E+02  0.00000000000E+00 0. -1.
         11    1    5    5    0    0 -0.37576203016E+01  0.18454633080E+02 -0.40209872616E+00  0.18837592093E+02  0.00000000000E+00 0. -1.
        -12    1    5    5    0    0 -0.11753419344E+03 -0.34801741204E+02  0.94470379932E+02  0.15475820011E+03  0.00000000000E+00 0.  1.
          5    1    4    4  501    0  0.20077829500E+03  0.95516153797E+02  0.10193000835E+03  0.24462718243E+03  0.41800000000E+01 0. -1.
         -5    1    4    4    0  501 -0.15045930192E+02  0.27516249248E+02  0.26838226135E+02  0.41488393198E+02  0.41800000000E+01 0. -1.
</event>
<event>
11    1  0.6763327E-009  0.2561618E+03  0.7561462E-02  0.1020667E+00
         22   -1    0    0    0    0  0.00000000000E+00  0.00000000000E+00  0.48338170090E+03  0.48338170090E+03  0.00000000000E+00 0.  1.
         22   -1    0    0    0    0 -0.00000000000E+00 -0.00000000000E+00 -0.15553685152E+04  0.15553685152E+04  0.00000000000E+00 0.  1.
        -24    2    1    2    0    0 -0.35894416117E+01  0.45989389219E+02 -0.14154447327E+04  0.14184381457E+04  0.79718717183E+02 0.  0.
         25    2    1    2    0    0  0.17270503118E+03 -0.17503042099E+03  0.11773653302E+03  0.29995132130E+03  0.12508488269E+03 0.  0.
         24    2    1    2    0    0 -0.16911558957E+03  0.12904103177E+03  0.22572138542E+03  0.32036074906E+03  0.80182262291E+02 0.  0.
        -11    1    5    5    0    0 -0.15175486677E+03  0.11097382537E+03  0.22763339938E+03  0.29523159387E+03  0.00000000000E+00 0.  1.
         12    1    5    5    0    0 -0.17360722793E+02  0.18067206400E+02 -0.19120139595E+01  0.25129155186E+02  0.00000000000E+00 0. -1.
         13    1    3    3    0    0 -0.20170687195E+02  0.30041800757E+02 -0.23502715425E+03  0.23779640378E+03  0.00000000000E+00 0. -1.
        -14    1    3    3    0    0  0.16581245583E+02  0.15947588462E+02 -0.11804175785E+04  0.11806417420E+04  0.00000000000E+00 0.  1.
          5    1    4    4  501    0  0.93229883545E+02 -0.15025458297E+02  0.21335731795E+02  0.96903361315E+02  0.41800000000E+01 0. -1.
         -5    1    4    4    0  501  0.79475147632E+02 -0.16000496269E+03  0.96400801224E+02  0.20304795998E+03  0.41800000000E+01 0. -1.
</event>
<event>
11    1  0.6763327E-009  0.1702953E+03  0.7561462E-02  0.1077775E+00
         22   -1    0    0    0    0  0.00000000000E+00  0.00000000000E+00  0.90444789055E+03  0.90444789055E+03  0.00000000000E+00 0. -1.
         22   -1    0    0    0    0 -0.00000000000E+00 -0.00000000000E+00 -0.11598348935E+03  0.11598348935E+03  0.00000000000E+00 0.  1.
         24    2    1    2    0    0  0.26915161533E+02  0.56759556217E+02 -0.39572323129E+02  0.10670518525E+03  0.76641729233E+02 0.  0.
         25    2    1    2    0    0  0.51850670343E+02 -0.13532926987E+03  0.22601588140E+03  0.29619730488E+03  0.12508861449E+03 0.  0.
        -24    2    1    2    0    0 -0.78765831875E+02  0.78569713649E+02  0.60202084293E+03  0.61752888977E+03  0.80842923052E+02 0.  0.
        -11    1    3    3    0    0 -0.19832002948E+01  0.67716539754E+02 -0.22422175368E+02  0.71359770094E+02  0.00000000000E+00 0.  1.
         12    1    3    3    0    0  0.28898361827E+02 -0.10956983537E+02 -0.17150147762E+02  0.35345415159E+02  0.00000000000E+00 0. -1.
         13    1    5    5    0    0 -0.59287462111E+02  0.92862847339E+02  0.53649476495E+03  0.54769073792E+03  0.00000000000E+00 0. -1.
        -14    1    5    5    0    0 -0.19478369764E+02 -0.14293133690E+02  0.65526077976E+02  0.69838151853E+02  0.00000000000E+00 0.  1.
          5    1    4    4  501    0 -0.35883903961E+02 -0.95169070049E+01  0.35073037175E+02  0.51242720645E+02  0.41800000000E+01 0. -1.
         -5    1    4    4    0  501  0.87734574304E+02 -0.12581236286E+03  0.19094284423E+03  0.24495458424E+03  0.41800000000E+01 0. -1.
</event>
<event>
11    1  0.6763327E-009  0.1738755E+03  0.7561462E-02  0.1074707E+00
         22   -1    0    0    0    0  0.00000000000E+00  0.00000000000E+00  0.44772311961E+03  0.44772311961E+03  0.00000000000E+00 0.  1.
         22   -1    0    0    0    0 -0.00000000000E+00 -0.00000000000E+00 -0.41853583229E+03  0.41853583229E+03  0.00000000000E+00 0.  1.
        -24    2    1    2    0    0 -0.66078531385E+01  0.33119047693E+02 -0.31602160891E+03  0.32790565098E+03  0.80696490663E+02 0.  0.
         25    2    1    2    0    0  0.12559625553E+03 -0.39509929975E+02  0.23979616911E+02  0.18318897154E+03  0.12509086017E+03 0.  0.
         24    2    1    2    0    0 -0.11898840239E+03  0.63908822821E+01  0.32122927932E+03  0.35516432937E+03  0.93564778016E+02 0.  0.
        -13    1    5    5    0    0 -0.75479598763E+02  0.48550881392E+02  0.21293668029E+03  0.23107658411E+03  0.00000000000E+00 0.  1.
         14    1    5    5    0    0 -0.43508803626E+02 -0.42159999110E+02  0.10829259903E+03  0.12408774526E+03  0.00000000000E+00 0. -1.
         11    1    3    3    0    0 -0.63192227458E+00  0.54293582034E+02 -0.13435983588E+03  0.14491638235E+03  0.00000000000E+00 0. -1.
        -12    1    3    3    0    0 -0.59759308639E+01 -0.21174534341E+02 -0.18166177303E+03  0.18298926863E+03  0.00000000000E+00 0.  1.
          5    1    4    4  501    0  0.29758656181E+02 -0.73222840446E+02  0.18939280313E+02  0.81383848026E+02  0.41800000000E+01 0.  1.
         -5    1    4    4    0  501  0.95837599348E+02  0.33712910471E+02  0.50403365984E+01  0.10180512352E+03  0.41800000000E+01 0.  1.
</event>
<event>
11    1  0.6763327E-009  0.1327834E+03  0.7561462E-02  0.1115896E+00
         22   -1    0    0    0    0  0.00000000000E+00  0.00000000000E+00  0.39799767873E+03  0.39799767873E+03  0.00000000000E+00 0.  1.
         22   -1    0    0    0    0 -0.00000000000E+00 -0.00000000000E+00 -0.53420404286E+03  0.53420404286E+03  0.00000000000E+00 0. -1.
         24    2    1    2    0    0 -0.31730063365E+02  0.32192372093E+02 -0.39657869617E+03  0.41163246329E+03  0.10061549004E+03 0.  0.
         25    2    1    2    0    0  0.60979803115E+02  0.87079304740E+01 -0.84732323401E+02  0.16316191131E+03  0.12509147946E+03 0.  0.
        -24    2    1    2    0    0 -0.29249739751E+02 -0.40900302567E+02  0.34510465545E+03  0.35740734698E+03  0.78194670146E+02 0.  0.
        -11    1    3    3    0    0  0.20133849638E+02  0.32296948982E+02 -0.59800762807E+02  0.70884385072E+02  0.00000000000E+00 0.  1.
         12    1    3    3    0    0 -0.51863913002E+02 -0.10457688926E+00 -0.33677793337E+03  0.34074807822E+03  0.00000000000E+00 0. -1.
         13    1    5    5    0    0 -0.52450073886E+02 -0.17423564876E+02  0.26621091077E+03  0.27188755005E+03  0.00000000000E+00 0. -1.
        -14    1    5    5    0    0  0.23200334136E+02 -0.23476737691E+02  0.78893744681E+02  0.85519796927E+02  0.00000000000E+00 0.  1.
          5    1    4    4  501    0 -0.63176614501E+01  0.54117090083E+02 -0.16647202901E+02  0.57124198460E+02  0.41800000000E+01 0. -1.
         -5    1    4    4    0  501  0.67297464565E+02 -0.45409159609E+02 -0.68085120500E+02  0.10603771285E+03  0.41800000000E+01 0. -1.
</event>
<event>
11    1  0.6763327E-009  0.1456237E+03  0.7561462E-02  0.1101436E+00
         22   -1    0    0    0    0  0.00000000000E+00  0.00000000000E+00  0.68502944306E+03  0.68502944306E+03  0.00000000000E+00 0.  1.
         22   -1    0    0    0    0 -0.00000000000E+00 -0.00000000000E+00 -0.12662532109E+04  0.12662532109E+04  0.00000000000E+00 0. -1.
        -24    2    1    2    0    0  0.34433341063E+02 -0.66260871392E+02 -0.12128783871E+04  0.12179517859E+04  0.82197401309E+02 0.  0.
         25    2    1    2    0    0 -0.35017409364E+02  0.60181804110E+02  0.58776046636E+02  0.15475959087E+03  0.12509132186E+03 0.  0.
         24    2    1    2    0    0  0.58406830090E+00  0.60790672819E+01  0.57287857262E+03  0.57857127722E+03  0.80731453974E+02 0.  0.
        -13    1    5    5    0    0  0.25899821576E+02 -0.82398303259E+01  0.48971276051E+03  0.49046639372E+03  0.00000000000E+00 0.  1.
         14    1    5    5    0    0 -0.25315753275E+02  0.14318897608E+02  0.83165812109E+02  0.88104883499E+02  0.00000000000E+00 0. -1.
         11    1    3    3    0    0  0.13324619011E+02 -0.69860539917E+02 -0.11337100901E+04  0.11359386467E+04  0.00000000000E+00 0. -1.
        -12    1    3    3    0    0  0.21108722052E+02  0.35996685253E+01 -0.79168296999E+02  0.82013139251E+02  0.00000000000E+00 0.  1.
          5    1    4    4  501    0  0.27161319883E+02 -0.25306254738E+02  0.16302698248E+02  0.40760203592E+02  0.41800000000E+01 0.  1.
         -5    1    4    4    0  501 -0.62178729247E+02  0.85488058848E+02  0.42473348388E+02  0.11399938728E+03  0.41800000000E+01 0.  1.
</event>
<event>
11    1  0.6763327E-009  0.1770123E+03  0.7561462E-02  0.1072086E+00
         22   -1    0    0    0    0  0.00000000000E+00  0.00000000000E+00  0.23152795384E+03  0.23152795384E+03  0.00000000000E+00 0. -1.
         22   -1    0    0    0    0 -0.00000000000E+00 -0.00000000000E+00 -0.88513714137E+03  0.88513714137E+03  0.00000000000E+00 0.  1.
        -24    2    1    2    0    0 -0.12119404197E+03 -0.24716457607E+02 -0.76756045251E+03  0.78154659272E+03  0.79794293323E+02 0.  0.
         25    2    1    2    0    0  0.16061832973E+03  0.45194471647E+02  0.12631039717E+03  0.24380753656E+03  0.12508801037E+03 0.  0.
         24    2    1    2    0    0 -0.39424287756E+02 -0.20478014040E+02 -0.12359132181E+02  0.91310965926E+02  0.78811933272E+02 0.  0.
        -13    1    5    5    0    0  0.23792298488E+02 -0.42238024975E+01 -0.95338335593E+01  0.25977065985E+02  0.00000000000E+00 0.  1.
         14    1    5    5    0    0 -0.63216586243E+02 -0.16254211543E+02 -0.28252986218E+01  0.65333899941E+02  0.00000000000E+00 0. -1.
         13    1    3    3    0    0 -0.46013570236E+02  0.63570007980E+01 -0.11642645015E+03  0.12535062185E+03  0.00000000000E+00 0. -1.
        -14    1    3    3    0    0 -0.75180471736E+02 -0.31073458405E+02 -0.65113400237E+03  0.65619597087E+03  0.00000000000E+00 0.  1.
          5    1    4    4  501    0  0.54888299187E+02 -0.31373336198E+02  0.18405481779E+01  0.63386683376E+02  0.41800000000E+01 0. -1.
         -5    1    4    4    0  501  0.10573003054E+03  0.76567807845E+02  0.12446984899E+03  0.18042085319E+03  0.41800000000E+01 0. -1.
</event>
<event>
11    1  0.6763327E-009  0.1311054E+03  0.7561462E-02  0.1117918E+00
         22   -1    0    0    0    0  0.00000000000E+00  0.00000000000E+00  0.19288849168E+04  0.19288849168E+04  0.00000000000E+00 0.  1.
         22   -1    0    0    0    0 -0.00000000000E+00 -0.00000000000E+00 -0.29225950473E+03  0.29225950473E+03  0.00000000000E+00 0. -1.
         24    2    1    2    0    0  0.86561914993E+01  0.23981626541E+02 -0.22485565628E+03  0.24085840236E+03  0.82478213869E+02 0.  0.
         25    2    1    2    0    0 -0.44478305301E+02 -0.78525986743E+01  0.17559519080E+02  0.13414996513E+03  0.12509154042E+03 0.  0.
        -24    2    1    2    0    0  0.35822113802E+02 -0.16129027867E+02  0.18439215493E+04  0.18461360540E+04  0.81414254413E+02 0.  0.
        -13    1    3    3    0    0  0.11650108256E+02  0.21266860176E+01  0.27733627168E+01  0.12163032375E+02  0.00000000000E+00 0.  1.
         14    1    3    3    0    0 -0.29939167565E+01  0.21854940523E+02 -0.22762901899E+03  0.22869536998E+03  0.00000000000E+00 0. -1.
         11    1    5    5    0    0  0.20380641263E+02 -0.22760133580E+02  0.21828526650E+03  0.22041291203E+03  0.00000000000E+00 0. -1.
        -12    1    5    5    0    0  0.15441472539E+02  0.66311057132E+01  0.16256362828E+04  0.16257231420E+04  0.00000000000E+00 0.  1.
          5    1    4    4  501    0  0.26227871140E+02  0.21080410177E+01 -0.36004716598E+02  0.44790144884E+02  0.41800000000E+01 0.  1.
         -5    1    4    4    0  501 -0.70706176441E+02 -0.99606396920E+01  0.53564235677E+02  0.89359820242E+02  0.41800000000E+01 0.  1.
</event>
<event>
11    1  0.6763327E-009  0.2058417E+03  0.7561462E-02  0.1050468E+00
         22   -1    0    0    0    0  0.00000000000E+00  0.00000000000E+00  0.74685221977E+03  0.74685221977E+03  0.00000000000E+00 0.  1.
         22   -1    0    0    0    0 -0.00000000000E+00 -0.00000000000E+00 -0.18309129940E+04  0.18309129940E+04  0.00000000000E+00 0. -1.
         24    2    1    2    0    0  0.15326409906E+03  0.53845429914E+02 -0.16665760097E+04  0.16764070298E+04  0.80471853405E+02 0.  0.
         25    2    1    2    0    0 -0.18651248189E+03 -0.11811589252E+02 -0.74751235172E+02  0.23698673046E+03  0.12509413940E+03 0.  0.
        -24    2    1    2    0    0  0.33248382824E+02 -0.42033840663E+02  0.65726647062E+03  0.66437145351E+03  0.80733612098E+02 0.  0.
        -13    1    3    3    0    0  0.57626628720E+01 -0.10772203100E+02 -0.32050056133E+03  0.32073331360E+03  0.00000000000E+00 0.  1.
         14    1    3    3    0    0  0.14750143619E+03  0.64617633015E+02 -0.13460754484E+04  0.13556737162E+04  0.00000000000E+00 0. -1.
         13    1    5    5    0    0 -0.71328543311E+01 -0.20193848459E+02  0.39762994230E+02  0.45163755785E+02  0.00000000000E+00 0. -1.
        -14    1    5    5    0    0  0.40381237155E+02 -0.21839992204E+02  0.61750347639E+03  0.61920769773E+03  0.00000000000E+00 0.  1.
          5    1    4    4  501    0  0.15090390743E+02 -0.17081227253E+02 -0.79498655764E+01  0.24498183197E+02  0.41800000000E+01 0.  1.
         -5    1    4    4    0  501 -0.20160287263E+03  0.52696380016E+01 -0.66801369596E+02  0.21248854726E+03  0.41800000000E+01 0.  1.
</event>
<event>
11    1  0.6763327E-009  0.1455230E+03  0.7561462E-02  0.1101543E+00
         22   -1    0    0    0    0  0.00000000000E+00  0.00000000000E+00  0.41780959034E+03  0.41780959034E+03  0.00000000000E+00 0. -1.
         22   -1    0    0    0    0 -0.00000000000E+00 -0.00000000000E+00 -0.76008956792E+03  0.76008956792E+03  0.00000000000E+00 0. -1.
         24    2    1    2    0    0  0.56917000297E+02 -0.57781819789E+02 -0.61199091963E+03  0.62248374589E+03  0.79842623742E+02 0.  0.
         25    2    1    2    0    0 -0.19542812661E+02  0.29628289121E+02 -0.10678047803E+03  0.16825174663E+03  0.12508726038E+03 0.  0.
        -24    2    1    2    0    0 -0.37374187636E+02  0.28153530668E+02  0.37649142008E+03  0.38716366575E+03  0.77204038083E+02 0.  0.
        -13    1    3    3    0    0 -0.12205350342E+02 -0.32337528372E+02 -0.11556480812E+03  0.12062301271E+03  0.00000000000E+00 0.  1.
         14    1    3    3    0    0  0.69122350639E+02 -0.25444291417E+02 -0.49642611150E+03  0.50186073318E+03  0.00000000000E+00 0. -1.
         11    1    5    5    0    0 -0.79084241028E+01  0.45421455964E+02  0.29825842886E+03  0.30180083204E+03  0.00000000000E+00 0. -1.
        -12    1    5    5    0    0 -0.29465763533E+02 -0.17267925296E+02  0.78232991214E+02  0.85362833710E+02  0.00000000000E+00 0.  1.
          5    1    4    4  501    0  0.48824576794E+02 -0.12958414951E+01 -0.67589228398E+02  0.83494279443E+02  0.41800000000E+01 0.  1.
         -5    1    4    4    0  501 -0.68367389455E+02  0.30924130616E+02 -0.39191249637E+02  0.84757467183E+02  0.41800000000E+01 0.  1.
</event>
<event>
11    1  0.7631532E-009  0.1523903E+03  0.7561462E-02  0.1094461E+00
         22   -1    0    0    0    0  0.00000000000E+00  0.00000000000E+00  0.90173831268E+03  0.90173831268E+03  0.00000000000E+00 0. -1.
         22   -1    0    0    0    0 -0.00000000000E+00 -0.00000000000E+00 -0.41386444560E+03  0.41386444560E+03  0.00000000000E+00 0.  1.
         24    2    1    2    0    0  0.59805981529E+02 -0.30977850972E+02 -0.31805735589E+03  0.33521850429E+03  0.81698110795E+02 0.  0.
         25    2    1    2    0    0 -0.11077014801E+03 -0.38881482183E+02  0.57873767388E+01  0.17164590383E+03  0.12508807787E+03 0.  0.
        -24    2    1    2    0    0  0.50964166477E+02  0.69859333156E+02  0.80014384623E+03  0.80873835016E+03  0.79686081997E+02 0.  0.
        -11    1    3    3    0    0  0.72621499504E+02 -0.53195285090E+00 -0.22849848541E+03  0.23976180471E+03  0.00000000000E+00 0.  1.
         12    1    3    3    0    0 -0.12815517974E+02 -0.30445898122E+02 -0.89558870477E+02  0.95456699579E+02  0.00000000000E+00 0. -1.
         11    1    5    5    0    0  0.57210494072E+02  0.84246217886E+02  0.68345789214E+03  0.69100300736E+03  0.00000000000E+00 0. -1.
        -12    1    5    5    0    0 -0.62463275952E+01 -0.14386884730E+02  0.11668595409E+03  0.11773534280E+03  0.00000000000E+00 0.  1.
          5    1    4    4  501    0 -0.55829948564E+02 -0.83579345164E+02  0.31009011509E+01  0.10064580509E+03  0.41800000000E+01 0. -1.
         -5    1    4    4    0  501 -0.54940199442E+02  0.44697862981E+02  0.26864755879E+01  0.71000098739E+02  0.41800000000E+01 0. -1.
</event>
<event>
11    1  0.6763327E-009  0.1492661E+03  0.7561462E-02  0.1097631E+00
         22   -1    0    0    0    0  0.00000000000E+00  0.00000000000E+00  0.10394230757E+04  0.10394230757E+04  0.00000000000E+00 0. -1.
         22   -1    0    0    0    0 -0.00000000000E+00 -0.00000000000E+00 -0.30621809794E+04  0.30621809794E+04  0.00000000000E+00 0. -1.
         24    2    1    2    0    0  0.80994265870E+02  0.97038541062E+01 -0.30436120121E+04  0.30457892419E+04  0.81263706195E+02 0.  0.
         25    2    1    2    0    0 -0.44665822695E+02 -0.21798190785E+02  0.29119262779E+03  0.32079510913E+03  0.12508460627E+03 0.  0.
        -24    2    1    2    0    0 -0.36328443176E+02  0.12094336679E+02  0.72966148057E+03  0.73501970408E+03  0.79887798727E+02 0.  0.
        -13    1    3    3    0    0  0.17958554593E+02  0.40168612489E+02 -0.97391665031E+03  0.97491008245E+03  0.00000000000E+00 0.  1.
         14    1    3    3    0    0  0.63035711277E+02 -0.30464758383E+02 -0.20696953618E+04  0.20708791595E+04  0.00000000000E+00 0. -1.
         11    1    5    5    0    0 -0.21283657286E+02  0.62930719588E+01  0.70621580443E+03  0.70656447635E+03  0.00000000000E+00 0. -1.
        -12    1    5    5    0    0 -0.15044785890E+02  0.58012647198E+01  0.23445676145E+02  0.28455227722E+02  0.00000000000E+00 0.  1.
          5    1    4    4  501    0 -0.33831897077E+02  0.22700277113E+02  0.19722430643E+02  0.45457084281E+02  0.41800000000E+01 0. -1.
         -5    1    4    4    0  501 -0.10833925617E+02 -0.44498467898E+02  0.27147019715E+03  0.27533802485E+03  0.41800000000E+01 0. -1.
</event>
<event>
11    1  0.6763327E-009  0.1499156E+03  0.7561462E-02  0.1096965E+00
         22   -1    0    0    0    0  0.00000000000E+00  0.00000000000E+00  0.43308720237E+04  0.43308720237E+04  0.00000000000E+00 0.  1.
         22   -1    0    0    0    0 -0.00000000000E+00 -0.00000000000E+00 -0.96432328477E+01  0.96432328477E+01  0.00000000000E+00 0.  1.
         24    2    1    2    0    0  0.10226633075E+03 -0.60750934978E+02  0.11832791499E+04  0.11920041018E+04  0.81087321985E+02 0.  0.
         25    2    1    2    0    0 -0.14534171533E+02  0.49512286037E+02  0.13475256505E+04  0.13543024777E+04  0.12508842339E+03 0.  0.
        -24    2    1    2    0    0 -0.87732159221E+02  0.11238648941E+02  0.17904239905E+04  0.17942086771E+04  0.75785698179E+02 0.  0.
        -11    1    3    3    0    0  0.89670216873E+02 -0.76252915951E+02  0.11035968531E+04  0.11098564183E+04  0.00000000000E+00 0.  1.
         12    1    3    3    0    0  0.12596113882E+02  0.15501980973E+02  0.79682296727E+02  0.82147683538E+02  0.00000000000E+00 0. -1.
         13    1    5    5    0    0  0.58904252961E+01 -0.17255015656E+02  0.33810358683E+03  0.33859484359E+03  0.00000000000E+00 0. -1.
        -14    1    5    5    0    0 -0.93622584518E+02  0.28493664597E+02  0.14523204037E+04  0.14556138335E+04  0.00000000000E+00 0.  1.
          5    1    4    4  501    0 -0.29737682139E+02 -0.27608006570E+02  0.20212384584E+03  0.20619906213E+03  0.41800000000E+01 0. -1.
         -5    1    4    4    0  501  0.15203510605E+02  0.77120292607E+02  0.11454018046E+04  0.11481034155E+04  0.41800000000E+01 0. -1.
</event>
<event>
11    1  0.6763327E-009  0.3030685E+03  0.7561462E-02  0.9989009E-01
         22   -1    0    0    0    0  0.00000000000E+00  0.00000000000E+00  0.19130528095E+03  0.19130528095E+03  0.00000000000E+00 0.  1.
         22   -1    0    0    0    0 -0.00000000000E+00 -0.00000000000E+00 -0.20686715279E+04  0.20686715279E+04  0.00000000000E+00 0. -1.
         24    2    1    2    0    0  0.76447253406E+02 -0.10177329334E+03 -0.13356537462E+04  0.13441478550E+04  0.80997164045E+02 0.  0.
         25    2    1    2    0    0 -0.23557242075E+03  0.29561480934E+03 -0.51616401534E+03  0.65188575402E+03  0.12508902689E+03 0.  0.
        -24    2    1    2    0    0  0.15912516734E+03 -0.19384151600E+03 -0.25548485398E+02  0.26394319982E+03  0.78217232224E+02 0.  0.
        -13    1    3    3    0    0  0.31974985850E+01  0.26143715219E+00 -0.68161723521E+00  0.32797787487E+01  0.00000000000E+00 0.  1.
         14    1    3    3    0    0  0.73249754821E+02 -0.10203473049E+03 -0.13349721289E+04  0.13408680762E+04  0.00000000000E+00 0. -1.
         11    1    5    5    0    0  0.54260958946E+02 -0.19059619960E+02 -0.16860874440E+02  0.59931710018E+02  0.00000000000E+00 0. -1.
        -12    1    5    5    0    0  0.10486420839E+03 -0.17478189604E+03 -0.86876109589E+01  0.20401148980E+03  0.00000000000E+00 0.  1.
          5    1    4    4  501    0 -0.39292023326E+02  0.81859692749E+01 -0.10892672879E+03  0.11616099963E+03  0.41800000000E+01 0. -1.
         -5    1    4    4    0  501 -0.19628039742E+03  0.28742884007E+03 -0.40723728655E+03  0.53572475439E+03  0.41800000000E+01 0. -1.
</event>
<event>
11    1  0.6763327E-009  0.1522447E+03  0.7561462E-02  0.1094607E+00
         22   -1    0    0    0    0  0.00000000000E+00  0.00000000000E+00  0.19441151646E+04  0.19441151646E+04  0.00000000000E+00 0. -1.
         22   -1    0    0    0    0 -0.00000000000E+00 -0.00000000000E+00 -0.13168316637E+04  0.13168316637E+04  0.00000000000E+00 0. -1.
         24    2    1    2    0    0 -0.77537765419E+02 -0.37975667391E+02 -0.12369378315E+04  0.12428804353E+04  0.85336516654E+02 0.  0.
         25    2    1    2    0    0  0.11169499209E+03 -0.42788460837E+00  0.17233835449E+02  0.16858484887E+03  0.12509153385E+03 0.  0.
        -24    2    1    2    0    0 -0.34157226672E+02  0.38403551999E+02  0.18469874969E+04  0.18494815441E+04  0.81102523113E+02 0.  0.
        -11    1    3    3    0    0 -0.76424982454E+02  0.55881476858E+01 -0.86863325481E+03  0.87200672973E+03  0.00000000000E+00 0.  1.
         12    1    3    3    0    0 -0.11127829652E+01 -0.43563815076E+02 -0.36830457666E+03  0.37087370554E+03  0.00000000000E+00 0. -1.
         11    1    5    5    0    0 -0.25057193158E+02  0.62095613744E+02  0.10796733355E+04  0.10817477708E+04  0.00000000000E+00 0. -1.
        -12    1    5    5    0    0 -0.91000335136E+01 -0.23692061745E+02  0.76731416145E+03  0.76773377336E+03  0.00000000000E+00 0.  1.
          5    1    4    4  501    0  0.76941025308E+02  0.29095458912E+00  0.70766030414E+02  0.10461983316E+03  0.41800000000E+01 0.  1.
         -5    1    4    4    0  501  0.34753966783E+02 -0.71883919750E+00 -0.53532194966E+02  0.63965015710E+02  0.41800000000E+01 0.  1.
</event>
<event>
11    1  0.6763327E-009  0.1540725E+03  0.7561462E-02  0.1092789E+00
         22   -1    0    0    0    0  0.00000000000E+00  0.00000000000E+00  0.26834053915E+04  0.26834053915E+04  0.00000000000E+00 0.  1.
         22   -1    0    0    0    0 -0.00000000000E+00 -0.00000000000E+00 -0.22755958017E+04  0.22755958017E+04  0.00000000000E+00 0. -1.
         24    2    1    2    0    0  0.71267438602E+02  0.57895711248E+02 -0.20745160795E+04  0.20775188577E+04  0.63534864373E+02 0.  0.
         25    2    1    2    0    0 -0.52675791444E+02 -0.29847223439E+02 -0.17458328390E+03  0.22314104392E+03  0.12508799589E+03 0.  0.
        -24    2    1    2    0    0 -0.18591647157E+02 -0.28048487808E+02  0.26569089532E+04  0.26583412915E+04  0.80503848228E+02 0.  0.
        -11    1    3    3    0    0 -0.60582322855E+01  0.21456267299E+02 -0.24683003765E+03  0.24783490689E+03  0.00000000000E+00 0.  1.
         12    1    3    3    0    0  0.77325670887E+02  0.36439443949E+02 -0.18276860418E+04  0.18296839509E+04  0.00000000000E+00 0. -1.
         13    1    5    5    0    0  0.22070279313E+02 -0.26238060441E+02  0.56678784684E+03  0.56782391317E+03  0.00000000000E+00 0. -1.
        -14    1    5    5    0    0 -0.40661926471E+02 -0.18104273678E+01  0.20901211064E+04  0.20905173784E+04  0.00000000000E+00 0.  1.
          5    1    4    4  501    0  0.23463668764E+02  0.26943775747E+02 -0.85880837585E+02  0.93110157704E+02  0.41800000000E+01 0. -1.
         -5    1    4    4    0  501 -0.76139460209E+02 -0.56790999186E+02 -0.88702446313E+02  0.13003088622E+03  0.41800000000E+01 0. -1.
</event>
<event>
11    1  0.6763327E-009  0.1420249E+03  0.7561462E-02  0.1105318E+00
         22   -1    0    0    0    0  0.00000000000E+00  0.00000000000E+00  0.21739515880E+04  0.21739515880E+04  0.00000000000E+00 0. -1.
         22   -1    0    0    0    0 -0.00000000000E+00 -0.00000000000E+00 -0.50077712912E+02  0.50077712912E+02  0.00000000000E+00 0. -1.
         24    2    1    2    0    0 -0.26476739443E+02 -0.60121211832E+02  0.54827333049E+02  0.11807082777E+03  0.81357888841E+02 0.  0.
         25    2    1    2    0    0  0.62459014422E+01  0.75685565142E+02  0.28802853470E+03  0.32307132878E+03  0.12508929060E+03 0.  0.
        -24    2    1    2    0    0  0.20230838001E+02 -0.15564353310E+02  0.17810180073E+04  0.17828871443E+04  0.77523487902E+02 0.  0.
        -13    1    3    3    0    0 -0.22123824926E+02 -0.80786884232E+01 -0.17155884790E+02  0.29138517789E+02  0.00000000000E+00 0.  1.
         14    1    3    3    0    0 -0.43529145170E+01 -0.52042523409E+02  0.71983217839E+02  0.88932309978E+02  0.00000000000E+00 0. -1.
         11    1    5    5    0    0  0.13344070208E+02 -0.72674599656E+01  0.17496800799E+04  0.17497460564E+04  0.00000000000E+00 0. -1.
        -12    1    5    5    0    0  0.68867677930E+01 -0.82968933441E+01  0.31337927454E+02  0.33141087895E+02  0.00000000000E+00 0.  1.
          5    1    4    4  501    0  0.21875707213E+02  0.45419872148E+02  0.28405397126E+03  0.28852320936E+03  0.41800000000E+01 0. -1.
         -5    1    4    4    0  501 -0.15629805771E+02  0.30265692994E+02  0.39745634423E+01  0.34548119420E+02  0.41800000000E+01 0. -1.
</event>
<event>
11    1  0.6763327E-009  0.1389143E+03  0.7561462E-02  0.1108777E+00
         22   -1    0    0    0    0  0.00000000000E+00  0.00000000000E+00  0.74264463969E+03  0.74264463969E+03  0.00000000000E+00 0. -1.
         22   -1    0    0    0    0 -0.00000000000E+00 -0.00000000000E+00 -0.79781675234E+02  0.79781675234E+02  0.00000000000E+00 0.  1.
         24    2    1    2    0    0 -0.53884909939E+02 -0.28215482548E+02 -0.17037864627E+02  0.10176252702E+03  0.79784873879E+02 0.  0.
         25    2    1    2    0    0  0.48502250382E+02  0.31740179629E+02  0.27814206273E+03  0.31043150103E+03  0.12507918483E+03 0.  0.
        -24    2    1    2    0    0  0.53826595573E+01 -0.35246970815E+01  0.40175876636E+03  0.41023228687E+03  0.82698405891E+02 0.  0.
        -13    1    3    3    0    0 -0.18342503832E+02  0.84897436757E+00 -0.44585972440E+02  0.48219053731E+02  0.00000000000E+00 0.  1.
         14    1    3    3    0    0 -0.35542406107E+02 -0.29064456916E+02  0.27548107814E+02  0.53543473289E+02  0.00000000000E+00 0. -1.
         13    1    5    5    0    0  0.13141371181E+02 -0.30641011105E+02  0.34736167589E+03  0.34895802194E+03  0.00000000000E+00 0. -1.
        -14    1    5    5    0    0 -0.77587116234E+01  0.27116314024E+02  0.54397090467E+02  0.61274264937E+02  0.00000000000E+00 0.  1.
          5    1    4    4  501    0 -0.52882387800E+01  0.65518186138E+02  0.88006285711E+02  0.10992350481E+03  0.41800000000E+01 0.  1.
         -5    1    4    4    0  501  0.53790489162E+02 -0.33778006509E+02  0.19013577702E+03  0.20050799622E+03  0.41800000000E+01 0.  1.
</event>
<event>
11    1  0.6763327E-009  0.2158772E+03  0.7561462E-02  0.1043831E+00
         22   -1    0    0    0    0  0.00000000000E+00  0.00000000000E+00  0.24327695196E+03  0.24327695196E+03  0.00000000000E+00 0.  1.
         22   -1    0    0    0    0 -0.00000000000E+00 -0.00000000000E+00 -0.18417399798E+04  0.18417399798E+04  0.00000000000E+00 0.  1.
        -24    2    1    2    0    0 -0.52632784351E+01  0.25822037423E+02 -0.11724967436E+04  0.11752527501E+04  0.75999560208E+02 0.  0.
         25    2    1    2    0    0  0.10231624915E+03  0.12235581701E+03 -0.60928356480E+03  0.64211286677E+03  0.12507162163E+03 0.  0.
         24    2    1    2    0    0 -0.97052970715E+02 -0.14817785443E+03  0.18331728053E+03  0.26765131492E+03  0.81584590251E+02 0.  0.
        -11    1    5    5    0    0 -0.89149290761E+02 -0.12194631466E+03  0.18657731776E+03  0.24006164876E+03  0.00000000000E+00 0.  1.
         12    1    5    5    0    0 -0.79036799544E+01 -0.26231539770E+02 -0.32600372366E+01  0.27589666151E+02  0.00000000000E+00 0. -1.
         11    1    3    3    0    0  0.70997522463E+01 -0.24876077509E+02 -0.26591747438E+03  0.26717284461E+03  0.00000000000E+00 0. -1.
        -12    1    3    3    0    0 -0.12363030681E+02  0.50698114932E+02 -0.90657926922E+03  0.90807990550E+03  0.00000000000E+00 0.  1.
          5    1    4    4  501    0  0.47578495279E+02  0.23480160522E+02 -0.55480962803E+02  0.76880691885E+02  0.41800000000E+01 0. -1.
         -5    1    4    4    0  501  0.54737753872E+02  0.98875656489E+02 -0.55380260200E+03  0.56523217488E+03  0.41800000000E+01 0. -1.
</event>
<event>
11    1  0.6763327E-009  0.1315795E+03  0.7561462E-02  0.1117343E+00
         22   -1    0    0    0    0  0.00000000000E+00  0.00000000000E+00  0.46644982845E+03  0.46644982845E+03  0.00000000000E+00 0.  1.
         22   -1    0    0    0    0 -0.00000000000E+00 -0.00000000000E+00 -0.15246520655E+04  0.15246520655E+04  0.00000000000E+00 0. -1.
         24    2    1    2    0    0 -0.92128349383E+01 -0.38298414685E+02 -0.13353207055E+04  0.13383350407E+04  0.80670005431E+02 0.  0.
         25    2    1    2    0    0  0.32635925248E+02  0.60999210348E+02 -0.15567284362E+03  0.21134633021E+03  0.12508888748E+03 0.  0.
        -24    2    1    2    0    0 -0.23423090309E+02 -0.22700795663E+02  0.43279131202E+03  0.44142052307E+03  0.80497149899E+02 0.  0.
        -11    1    3    3    0    0 -0.18215250240E+02 -0.12996107243E+02 -0.90519484857E+02  0.93244148790E+02  0.00000000000E+00 0.  1.
         12    1    3    3    0    0  0.90024153014E+01 -0.25302307442E+02 -0.12448012206E+04  0.12450908919E+04  0.00000000000E+00 0. -1.
         11    1    5    5    0    0 -0.15510467633E+02 -0.17629900613E+01  0.11145070219E+02  0.19180597757E+02  0.00000000000E+00 0. -1.
        -12    1    5    5    0    0 -0.79126226765E+01 -0.20937805601E+02  0.42164624180E+03  0.42223992531E+03  0.00000000000E+00 0.  1.
          5    1    4    4  501    0  0.45775532994E+02  0.95155283909E+02 -0.12242554590E+03  0.16172635582E+03  0.41800000000E+01 0.  1.
         -5    1    4    4    0  501 -0.13139607746E+02 -0.34156073561E+02 -0.33247297715E+02  0.49619974387E+02  0.41800000000E+01 0.  1.
</event>
<event>
11    1  0.6763327E-009  0.3765955E+03  0.7561462E-02  0.9721455E-01
         22   -1    0    0    0    0  0.00000000000E+00  0.00000000000E+00  0.40253345583E+03  0.40253345583E+03  0.00000000000E+00 0. -1.
         22   -1    0    0    0    0 -0.00000000000E+00 -0.00000000000E+00 -0.36437626519E+03  0.36437626519E+03  0.00000000000E+00 0.  1.
        -24    2    1    2    0    0  0.35571671076E+02  0.21287339213E+03 -0.14446401489E+03  0.27230086177E+03  0.81838150402E+02 0.  0.
         25    2    1    2    0    0 -0.12101265813E+02  0.59309338709E+02 -0.27330887955E+02  0.14162869022E+03  0.12509064779E+03 0.  0.
         24    2    1    2    0    0 -0.23470405264E+02 -0.27218273084E+03  0.20995209348E+03  0.35298016904E+03  0.76686500011E+02 0.  0.
        -13    1    5    5    0    0  0.25113832037E+02 -0.45994843297E+02  0.39025239798E+02  0.65339111647E+02  0.00000000000E+00 0.  1.
         14    1    5    5    0    0 -0.48584237301E+02 -0.22618788754E+03  0.17092685369E+03  0.28764105739E+03  0.00000000000E+00 0. -1.
         13    1    3    3    0    0  0.40147831151E+02  0.83845837960E+02 -0.24677234983E+02  0.96181800855E+02  0.00000000000E+00 0. -1.
        -14    1    3    3    0    0 -0.45761600747E+01  0.12902755417E+03 -0.11978677991E+03  0.17611906091E+03  0.00000000000E+00 0.  1.
          5    1    4    4  501    0  0.52710130680E+02  0.13466817311E+02  0.70498389076E+01  0.55017139814E+02  0.41800000000E+01 0. -1.
         -5    1    4    4    0  501 -0.64811396492E+02  0.45842521398E+02 -0.34380726862E+02  0.86611550402E+02  0.41800000000E+01 0. -1.
</event>
<event>
11    1  0.6763327E-009  0.1481715E+03  0.7561462E-02  0.1098762E+00
         22   -1    0    0    0    0  0.00000000000E+00  0.00000000000E+00  0.29855956564E+03  0.29855956564E+03  0.00000000000E+00 0.  1.
         22   -1    0    0    0    0 -0.00000000000E+00 -0.00000000000E+00 -0.10369494459E+04  0.10369494459E+04  0.00000000000E+00 0. -1.
        -24    2    1    2    0    0 -0.43496496475E+02 -0.20469251523E+02 -0.65694300926E+03  0.66373480839E+03  0.81601734004E+02 0.  0.
         25    2    1    2    0    0  0.53062948966E+02  0.98515425050E+02 -0.34585085700E+03  0.38442294978E+03  0.12508886242E+03 0.  0.
         24    2    1    2    0    0 -0.95664524916E+01 -0.78046173528E+02  0.26440398600E+03  0.28735125338E+03  0.80489457626E+02 0.  0.
        -11    1    5    5    0    0  0.18026819448E+02 -0.40039064196E+02  0.21399203891E+03  0.21845064797E+03  0.00000000000E+00 0.  1.
         12    1    5    5    0    0 -0.27593271940E+02 -0.38007109332E+02  0.50411947088E+02  0.68900605406E+02  0.00000000000E+00 0. -1.
         13    1    3    3    0    0 -0.22768124213E+02 -0.10904324482E+02 -0.61856772074E+03  0.61908264142E+03  0.00000000000E+00 0. -1.
        -14    1    3    3    0    0 -0.20728372261E+02 -0.95649270408E+01 -0.38375288523E+02  0.44652166970E+02  0.00000000000E+00 0.  1.
          5    1    4    4  501    0  0.92888157799E+02  0.64379011564E+02 -0.20604006703E+03  0.23503797270E+03  0.41800000000E+01 0. -1.
         -5    1    4    4    0  501 -0.39825208833E+02  0.34136413486E+02 -0.13981078998E+03  0.14938497708E+03  0.41800000000E+01 0. -1.
</event>
<event>
11    1  0.6763327E-009  0.2157156E+03  0.7561462E-02  0.1043935E+00
         22   -1    0    0    0    0  0.00000000000E+00  0.00000000000E+00  0.10999065141E+03  0.10999065141E+03  0.00000000000E+00 0.  1.
         22   -1    0    0    0    0 -0.00000000000E+00 -0.00000000000E+00 -0.38862197019E+04  0.38862197019E+04  0.00000000000E+00 0.  1.
         24    2    1    2    0    0  0.66785846237E+02  0.16285691190E+03 -0.35263383702E+04  0.35315905322E+04  0.78017065992E+02 0.  0.
         25    2    1    2    0    0 -0.18397626683E+02 -0.17757458079E+03 -0.28734295392E+03  0.36067693462E+03  0.12510265221E+03 0.  0.
        -24    2    1    2    0    0 -0.48388219554E+02  0.14717668897E+02  0.37452273623E+02  0.10394288655E+03  0.82724973831E+02 0.  0.
        -13    1    3    3    0    0  0.16915544400E+02  0.11486854161E+03 -0.26410652954E+04  0.26436162376E+04  0.00000000000E+00 0.  1.
         14    1    3    3    0    0  0.49870301837E+02  0.47988370284E+02 -0.88527307486E+03  0.88797429454E+03  0.00000000000E+00 0. -1.
         13    1    5    5    0    0 -0.15370138476E+02  0.98740871485E+00 -0.26512314431E+02  0.30661359221E+02  0.00000000000E+00 0. -1.
        -14    1    5    5    0    0 -0.33018081077E+02  0.13730260182E+02  0.63964588054E+02  0.73281527329E+02  0.00000000000E+00 0.  1.
          5    1    4    4  501    0 -0.39244708705E+02 -0.39150713546E+02 -0.16705774789E+03  0.17606444577E+03  0.41800000000E+01 0.  1.
         -5    1    4    4    0  501  0.20847082022E+02 -0.13842386725E+03 -0.12028520603E+03  0.18461248885E+03  0.41800000000E+01 0.  1.
</event>
<event>
11    1  0.6763327E-009  0.1302786E+03  0.7561462E-02  0.1118927E+00
         22   -1    0    0    0    0  0.00000000000E+00  0.00000000000E+00  0.76970152424E+03  0.76970152424E+03  0.00000000000E+00 0. -1.
         22   -1    0    0    0    0 -0.00000000000E+00 -0.00000000000E+00 -0.11991146379E+03  0.11991146379E+03  0.00000000000E+00 0. -1.
         24    2    1    2    0    0  0.28877052196E+02  0.35767054383E+01 -0.81268269803E+02  0.11811035261E+03  0.80615425018E+02 0.  0.
         25    2    1    2    0    0 -0.53969555705E+02 -0.22181778275E+02  0.27777866005E+03  0.31018467681E+03  0.12509518583E+03 0.  0.
        -24    2    1    2    0    0  0.25092503509E+02  0.18605072837E+02  0.45327967020E+03  0.46131795862E+03  0.79849965928E+02 0.  0.
        -11    1    3    3    0    0 -0.14943130517E+02 -0.18206250649E+02 -0.36229650168E+00  0.23556229985E+02  0.00000000000E+00 0.  1.
         12    1    3    3    0    0  0.43820182713E+02  0.21782956087E+02 -0.80905973301E+02  0.94554122622E+02  0.00000000000E+00 0. -1.
         11    1    5    5    0    0  0.32448188839E+02 -0.20230225989E+01  0.42133239790E+03  0.42258486378E+03  0.00000000000E+00 0. -1.
        -12    1    5    5    0    0 -0.73556853303E+01  0.20628095436E+02  0.31947272303E+02  0.38733094836E+02  0.00000000000E+00 0.  1.
          5    1    4    4  501    0 -0.54040738861E+02 -0.63512869713E+02  0.11454198343E+03  0.14174492740E+03  0.41800000000E+01 0. -1.
         -5    1    4    4    0  501  0.71183156891E-01  0.41331091438E+02  0.16323667662E+03  0.16843974941E+03  0.41800000000E+01 0. -1.
</event>
<event>
11    1  0.6763327E-009  0.1488893E+03  0.7561462E-02  0.1098019E+00
         22   -1    0    0    0    0  0.00000000000E+00  0.00000000000E+00  0.15173405202E+03  0.15173405202E+03  0.00000000000E+00 0. -1.
         22   -1    0    0    0    0 -0.00000000000E+00 -0.00000000000E+00 -0.28429066939E+04  0.28429066939E+04  0.00000000000E+00 0.  1.
        -24    2    1    2    0    0 -0.83516665672E+01  0.17233106903E+02 -0.26791740112E+04  0.26804217073E+04  0.79501044789E+02 0.  0.
         25    2    1    2    0    0 -0.73825232824E+02 -0.98755703759E+01 -0.93298443704E+02  0.17291570172E+03  0.12509016113E+03 0.  0.
         24    2    1    2    0    0  0.82176899391E+02 -0.73575365271E+01  0.81299813087E+02  0.14130333688E+03  0.80930817789E+02 0.  0.
        -11    1    5    5    0    0  0.23413436599E+02  0.26144291630E+02 -0.57526886918E+00  0.35100483365E+02  0.00000000000E+00 0.  1.
         12    1    5    5    0    0  0.58763462792E+02 -0.33501828157E+02  0.81875081956E+02  0.10620285351E+03  0.00000000000E+00 0. -1.
         13    1    3    3    0    0 -0.12228910733E+02  0.30994320659E+02 -0.46135866892E+03  0.46256028317E+03  0.00000000000E+00 0. -1.
        -14    1    3    3    0    0  0.38772441655E+01 -0.13761213756E+02 -0.22178153423E+04  0.22178614241E+04  0.00000000000E+00 0.  1.
          5    1    4    4  501    0 -0.74572173608E+02 -0.59110521105E+02 -0.52039981942E+02  0.10853890962E+03  0.41800000000E+01 0. -1.
         -5    1    4    4    0  501  0.74694078359E+00  0.49234950729E+02 -0.41258461761E+02  0.64376792097E+02  0.41800000000E+01 0. -1.
</event>
<event>
11    1  0.6763327E-009  0.1318226E+03  0.7561462E-02  0.1117050E+00
         22   -1    0    0    0    0  0.00000000000E+00  0.00000000000E+00  0.33696130375E+03  0.33696130375E+03  0.00000000000E+00 0.  1.
         22   -1    0    0    0    0 -0.00000000000E+00 -0.00000000000E+00 -0.36623057394E+03  0.36623057394E+03  0.00000000000E+00 0. -1.
         24    2    1    2    0    0  0.22210419369E+02  0.20919669780E+02 -0.27219433949E+03  0.28613930943E+03  0.82794991619E+02 0.  0.
         25    2    1    2    0    0 -0.49644414612E+02  0.10355317859E+02 -0.22420862388E+02  0.13682772018E+03  0.12508928583E+03 0.  0.
        -24    2    1    2    0    0  0.27433995243E+02 -0.31274987639E+02  0.26534593168E+03  0.28022484808E+03  0.79917163841E+02 0.  0.
        -11    1    3    3    0    0 -0.15256088162E+02  0.10003364576E+01 -0.57453228419E+01  0.16332716663E+02  0.00000000000E+00 0.  1.
         12    1    3    3    0    0  0.37466507531E+02  0.19919333322E+02 -0.26644901665E+03  0.26980659276E+03  0.00000000000E+00 0. -1.
         11    1    5    5    0    0 -0.28911723453E+01 -0.54100707753E+01 -0.44007329265E+01  0.75494498882E+01  0.00000000000E+00 0. -1.
        -12    1    5    5    0    0  0.30325167588E+02 -0.25864916864E+02  0.26974666461E+03  0.27267539819E+03  0.00000000000E+00 0.  1.
          5    1    4    4  501    0  0.97234328370E+01 -0.45097782779E+02 -0.29907225475E+02  0.55138640655E+02  0.41800000000E+01 0. -1.
         -5    1    4    4    0  501 -0.59367847449E+02  0.55453100638E+02  0.74863630875E+01  0.81689079523E+02  0.41800000000E+01 0. -1.
</event>
<event>
11    1  0.6763327E-009  0.1405462E+03  0.7561462E-02  0.1106950E+00
         22   -1    0    0    0    0  0.00000000000E+00  0.00000000000E+00  0.51890355385E+03  0.51890355385E+03  0.00000000000E+00 0. -1.
         22   -1    0    0    0    0 -0.00000000000E+00 -0.00000000000E+00 -0.52258556092E+03  0.52258556092E+03  0.00000000000E+00 0.  1.
        -24    2    1    2    0    0  0.42650060973E+02 -0.85663854566E+00 -0.40092054119E+03  0.41112375426E+03  0.80409573011E+02 0.  0.
         25    2    1    2    0    0 -0.10330024673E+03 -0.12025560099E+02 -0.51036649119E+02  0.17049456344E+03  0.12509237203E+03 0.  0.
         24    2    1    2    0    0  0.60650185753E+02  0.12882198645E+02  0.44827518324E+03  0.45987079707E+03  0.81768661542E+02 0.  0.
        -11    1    5    5    0    0  0.45745646302E+02  0.11019952058E+01  0.88823553116E+02  0.99917476636E+02  0.00000000000E+00 0.  1.
         12    1    5    5    0    0  0.14904539451E+02  0.11780203439E+02  0.35945163013E+03  0.35995332043E+03  0.00000000000E+00 0. -1.
         13    1    3    3    0    0  0.54141946998E+01  0.49741228262E+00  0.25013651289E+01  0.59847932909E+01  0.00000000000E+00 0. -1.
        -14    1    3    3    0    0  0.37235866273E+02 -0.13540508283E+01 -0.40342190632E+03  0.40513896097E+03  0.00000000000E+00 0.  1.
          5    1    4    4  501    0 -0.10066278346E+03  0.40508096422E+02 -0.44394111336E+02  0.11731245190E+03  0.41800000000E+01 0. -1.
         -5    1    4    4    0  501 -0.26374632706E+01 -0.52533656521E+02 -0.66425377837E+01  0.53182111543E+02  0.41800000000E+01 0. -1.
</event>
<event>
11    1  0.6763327E-009  0.2744285E+03  0.7561462E-02  0.1011635E+00
         22   -1    0    0    0    0  0.00000000000E+00  0.00000000000E+00  0.71823646784E+03  0.71823646784E+03  0.00000000000E+00 0. -1.
         22   -1    0    0    0    0 -0.00000000000E+00 -0.00000000000E+00 -0.18543698815E+04  0.18543698815E+04  0.00000000000E+00 0.  1.
        -24    2    1    2    0    0 -0.30046821058E+02 -0.71194154527E+01 -0.15723954013E+04  0.15747821004E+04  0.80980664412E+02 0.  0.
         25    2    1    2    0    0  0.24098086405E+03 -0.11171241576E+03 -0.16941925795E+03  0.33897288326E+03  0.12509312511E+03 0.  0.
         24    2    1    2    0    0 -0.21093404299E+03  0.11883183121E+03  0.60568124563E+03  0.65885136570E+03  0.92850289033E+02 0.  0.
        -13    1    5    5    0    0 -0.93002153896E+02  0.60631718999E+02  0.16428777051E+03  0.19828282204E+03  0.00000000000E+00 0.  1.
         14    1    5    5    0    0 -0.11793188910E+03  0.58200112209E+02  0.44139347511E+03  0.46056854365E+03  0.00000000000E+00 0. -1.
         11    1    3    3    0    0  0.18997775994E+02 -0.25647161403E+02 -0.78108571766E+03  0.78173754593E+03  0.00000000000E+00 0. -1.
        -12    1    3    3    0    0 -0.49044597052E+02  0.18527745950E+02 -0.79130968368E+03  0.79304455445E+03  0.00000000000E+00 0.  1.
          5    1    4    4  501    0  0.17523822264E+02  0.16314038675E+02 -0.48891874365E+02  0.54599633548E+02  0.41800000000E+01 0.  1.
         -5    1    4    4    0  501  0.22345704179E+03 -0.12802645443E+03 -0.12052738358E+03  0.28437324971E+03  0.41800000000E+01 0.  1.
</event>
<event>
11    1  0.6763327E-009  0.1785035E+03  0.7561462E-02  0.1070860E+00
         22   -1    0    0    0    0  0.00000000000E+00  0.00000000000E+00  0.46142157903E+03  0.46142157903E+03  0.00000000000E+00 0. -1.
         22   -1    0    0    0    0 -0.00000000000E+00 -0.00000000000E+00 -0.17434081016E+04  0.17434081016E+04  0.00000000000E+00 0. -1.
        -24    2    1    2    0    0  0.12680642293E+03 -0.10916137400E+02 -0.16883493126E+04  0.16949056450E+04  0.77348001319E+02 0.  0.
         25    2    1    2    0    0 -0.13466250041E+03 -0.34962208126E+02  0.15881699441E+03  0.24541249956E+03  0.12509241469E+03 0.  0.
         24    2    1    2    0    0  0.78560774806E+01  0.45878345526E+02  0.24754579564E+03  0.26451153601E+03  0.80752035289E+02 0.  0.
        -13    1    5    5    0    0  0.10907517517E+02 -0.11654763823E+02  0.74786569930E+01  0.17627755631E+02  0.00000000000E+00 0.  1.
         14    1    5    5    0    0 -0.30514400362E+01  0.57533109350E+02  0.24006713864E+03  0.24688378038E+03  0.00000000000E+00 0. -1.
         11    1    3    3    0    0  0.96635985827E+02 -0.39594654773E+02 -0.13435857968E+04  0.13476383208E+04  0.00000000000E+00 0. -1.
        -12    1    3    3    0    0  0.30170437104E+02  0.28678517373E+02 -0.34476351583E+03  0.34726732423E+03  0.00000000000E+00 0.  1.
          5    1    4    4  501    0 -0.11410842242E+03  0.29376884208E+02  0.85520258294E+02  0.14565342554E+03  0.41800000000E+01 0.  1.
         -5    1    4    4    0  501 -0.20554077995E+02 -0.64339092334E+02  0.73296736119E+02  0.99759074025E+02  0.41800000000E+01 0.  1.
</event>
<event>
11    1  0.6763327E-009  0.1787180E+03  0.7561462E-02  0.1070685E+00
         22   -1    0    0    0    0  0.00000000000E+00  0.00000000000E+00  0.64906087370E+03  0.64906087370E+03  0.00000000000E+00 0.  1.
         22   -1    0    0    0    0 -0.00000000000E+00 -0.00000000000E+00 -0.14098223313E+04  0.14098223313E+04  0.00000000000E+00 0. -1.
         24    2    1    2    0    0  0.10358556260E+03  0.57016156492E+02 -0.13495747530E+04  0.13571565127E+04  0.80876295231E+02 0.  0.
         25    2    1    2    0    0 -0.44048757457E+02  0.80831407814E+02  0.10143201886E+03  0.18549999706E+03  0.12509110654E+03 0.  0.
        -24    2    1    2    0    0 -0.59536805140E+02 -0.13784756431E+03  0.48738127649E+03  0.51622669530E+03  0.80018186143E+02 0.  0.
        -13    1    3    3    0    0  0.14327615990E+02 -0.19282536717E+02 -0.15891165009E+03  0.16071717188E+03  0.00000000000E+00 0.  1.
         14    1    3    3    0    0  0.89257946608E+02  0.76298693210E+02 -0.11906631029E+04  0.11964393408E+04  0.00000000000E+00 0. -1.
         13    1    5    5    0    0 -0.12613211053E+01 -0.15274592748E+01  0.12059830535E+03  0.12061457340E+03  0.00000000000E+00 0. -1.
        -14    1    5    5    0    0 -0.58275484035E+02 -0.13632010503E+03  0.36678297113E+03  0.39561212189E+03  0.00000000000E+00 0.  1.
          5    1    4    4  501    0 -0.25501390968E+02 -0.51000754139E+00 -0.23686664134E+02  0.35058686609E+02  0.41800000000E+01 0.  1.
         -5    1    4    4    0  501 -0.18547366490E+02  0.81341415355E+02  0.12511868300E+03  0.15044131045E+03  0.41800000000E+01 0.  1.
</event>
<event>
11    1  0.6763327E-009  0.1867041E+03  0.7561462E-02  0.1064345E+00
         22   -1    0    0    0    0  0.00000000000E+00  0.00000000000E+00  0.69293233012E+03  0.69293233012E+03  0.00000000000E+00 0.  1.
         22   -1    0    0    0    0 -0.00000000000E+00 -0.00000000000E+00 -0.96788507379E+03  0.96788507379E+03  0.00000000000E+00 0.  1.
         24    2    1    2    0    0  0.33705277239E+01 -0.13887237012E+03 -0.89693501093E+03  0.91116704036E+03  0.80225095640E+02 0.  0.
         25    2    1    2    0    0  0.12682509246E+02  0.13302221585E+03  0.74441512051E+02  0.19759616349E+03  0.12508776582E+03 0.  0.
        -24    2    1    2    0    0 -0.16053036970E+02  0.58501542623E+01  0.54754075521E+03  0.55205420006E+03  0.68344984362E+02 0.  0.
        -13    1    3    3    0    0  0.14891053952E+02 -0.46027574117E+02 -0.54041502925E+03  0.54257597156E+03  0.00000000000E+00 0.  1.
         14    1    3    3    0    0 -0.11520526228E+02 -0.92844795998E+02 -0.35651998167E+03  0.36859106880E+03  0.00000000000E+00 0. -1.
         13    1    5    5    0    0 -0.30175808121E+01  0.43730800600E+01  0.10623144674E+01  0.54183147930E+01  0.00000000000E+00 0. -1.
        -14    1    5    5    0    0 -0.13035456158E+02  0.14770742023E+01  0.54647844074E+03  0.54663588527E+03  0.00000000000E+00 0.  1.
          5    1    4    4  501    0  0.12529057657E+02  0.28981864186E+02 -0.34461323187E+02  0.46925269667E+02  0.41800000000E+01 0.  1.
         -5    1    4    4    0  501  0.15345158899E+00  0.10404035167E+03  0.10890283524E+03  0.15067089382E+03  0.41800000000E+01 0.  1.
</event>
<event>
11    1  0.6763327E-009  0.1464626E+03  0.7561462E-02  0.1100549E+00
         22   -1    0    0    0    0  0.00000000000E+00  0.00000000000E+00  0.11186761981E+03  0.11186761981E+03  0.00000000000E+00 0. -1.
         22   -1    0    0    0    0 -0.00000000000E+00 -0.00000000000E+00 -0.18495227384E+04  0.18495227384E+04  0.00000000000E+00 0.  1.
         24    2    1    2    0    0  0.17514040068E+02 -0.75382817158E+02 -0.16643627639E+04  0.16681039663E+04  0.80486779286E+02 0.  0.
         25    2    1    2    0    0 -0.17619554498E+02  0.54723828376E+02 -0.13261313357E+03  0.19115104902E+03  0.12508930511E+03 0.  0.
        -24    2    1    2    0    0  0.10551442978E+00  0.20658988782E+02  0.59320778931E+02  0.10213534290E+03  0.80534889984E+02 0.  0.
        -13    1    3    3    0    0  0.23250015863E+02 -0.91090502149E+02 -0.14807447263E+04  0.14837260486E+04  0.00000000000E+00 0.  1.
         14    1    3    3    0    0 -0.57359757951E+01  0.15707684991E+02 -0.18361803766E+03  0.18437791772E+03  0.00000000000E+00 0. -1.
         11    1    5    5    0    0 -0.14874232445E+02 -0.31853842583E+01  0.70288390858E+02  0.71915557101E+02  0.00000000000E+00 0. -1.
        -12    1    5    5    0    0  0.14979746875E+02  0.23844373040E+02 -0.10967611927E+02  0.30219785795E+02  0.00000000000E+00 0.  1.
          5    1    4    4  501    0 -0.12806451286E+02  0.90859907761E+02 -0.59769803736E+02  0.10958754433E+03  0.41800000000E+01 0.  1.
         -5    1    4    4    0  501 -0.48131032119E+01 -0.36136079385E+02 -0.72843329833E+02  0.81563504688E+02  0.41800000000E+01 0.  1.
</event>
<event>
11    1  0.6763327E-009  0.1774995E+03  0.7561462E-02  0.1071684E+00
         22   -1    0    0    0    0  0.00000000000E+00  0.00000000000E+00  0.17916206177E+03  0.17916206177E+03  0.00000000000E+00 0. -1.
         22   -1    0    0    0    0 -0.00000000000E+00 -0.00000000000E+00 -0.23772564214E+04  0.23772564214E+04  0.00000000000E+00 0. -1.
         24    2    1    2    0    0  0.41198775707E+02  0.10758447583E+02 -0.20592261858E+04  0.20612275053E+04  0.80207611757E+02 0.  0.
         25    2    1    2    0    0 -0.12237623071E+03 -0.10132034293E+03 -0.24218033877E+03  0.31550140113E+03  0.12509222156E+03 0.  0.
        -24    2    1    2    0    0  0.81177455007E+02  0.90561895344E+02  0.10331216492E+03  0.17968957677E+03  0.82605717051E+02 0.  0.
        -11    1    3    3    0    0  0.40246425688E+02 -0.29449871010E+02 -0.10094462121E+04  0.10106773594E+04  0.00000000000E+00 0.  1.
         12    1    3    3    0    0  0.95235001862E+00  0.40208318593E+02 -0.10497799737E+04  0.10505501459E+04  0.00000000000E+00 0. -1.
         13    1    5    5    0    0  0.81380694137E+02  0.31046834574E+02  0.67851745745E+02  0.11041097190E+03  0.00000000000E+00 0. -1.
        -14    1    5    5    0    0 -0.20323912974E+00  0.59515060770E+02  0.35460419173E+02  0.69278604869E+02  0.00000000000E+00 0.  1.
          5    1    4    4  501    0 -0.11006283384E+03 -0.12267661495E+03 -0.23892593652E+03  0.29028684915E+03  0.41800000000E+01 0. -1.
         -5    1    4    4    0  501 -0.12313396873E+02  0.21356272028E+02 -0.32544022533E+01  0.25214551979E+02  0.41800000000E+01 0. -1.
</event>
<event>
11    1  0.6763327E-009  0.1453532E+03  0.7561462E-02  0.1101724E+00
         22   -1    0    0    0    0  0.00000000000E+00  0.00000000000E+00  0.31464384439E+02  0.31464384439E+02  0.00000000000E+00 0.  1.
         22   -1    0    0    0    0 -0.00000000000E+00 -0.00000000000E+00 -0.10719175733E+04  0.10719175733E+04  0.00000000000E+00 0. -1.
        -24    2    1    2    0    0  0.38315152195E+02 -0.81189887756E+02 -0.52813719157E+03  0.54165773431E+03  0.80027240758E+02 0.  0.
         25    2    1    2    0    0 -0.35172869240E+02  0.30931108669E+02 -0.33072334650E+03  0.35667864628E+03  0.12509140889E+03 0.  0.
         24    2    1    2    0    0 -0.31422829555E+01  0.50258779087E+02 -0.18159265081E+03  0.20504557716E+03  0.80820659905E+02 0.  0.
        -13    1    5    5    0    0 -0.21811265516E+02  0.40096506905E+02 -0.36609350175E+02  0.58512440469E+02  0.00000000000E+00 0.  1.
         14    1    5    5    0    0  0.18668982561E+02  0.10162272182E+02 -0.14498330063E+03  0.14653313669E+03  0.00000000000E+00 0. -1.
         13    1    3    3    0    0  0.40265141994E+02 -0.69362869800E+02 -0.52212271581E+03  0.52824674134E+03  0.00000000000E+00 0. -1.
        -14    1    3    3    0    0 -0.19499897992E+01 -0.11827017956E+02 -0.60144757526E+01  0.13410992973E+02  0.00000000000E+00 0.  1.
          5    1    4    4  501    0 -0.22058938212E+02  0.18628750206E+02 -0.33616825194E+03  0.33743176066E+03  0.41800000000E+01 0.  1.
         -5    1    4    4    0  501 -0.13113931028E+02  0.12302358463E+02  0.54449054430E+01  0.19246885619E+02  0.41800000000E+01 0.  1.
</event>
<event>
11    1  0.6763327E-009  0.1251085E+03  0.7561462E-02  0.1125430E+00
         22   -1    0    0    0    0  0.00000000000E+00  0.00000000000E+00  0.31419008333E+03  0.31419008333E+03  0.00000000000E+00 0. -1.
         22   -1    0    0    0    0 -0.00000000000E+00 -0.00000000000E+00 -0.10596801990E+03  0.10596801990E+03  0.00000000000E+00 0. -1.
         24    2    1    2    0    0  0.49843406481E+02  0.32723960565E+01 -0.43325133407E+02  0.85662845115E+02  0.54460830906E+02 0.  0.
         25    2    1    2    0    0 -0.36018811460E+02 -0.36896200802E+00  0.10779315583E+03  0.16900949447E+03  0.12508938350E+03 0.  0.
        -24    2    1    2    0    0 -0.13824595021E+02 -0.29034340485E+01  0.14375404101E+03  0.16548576364E+03  0.80751249555E+02 0.  0.
        -11    1    3    3    0    0 -0.22722271203E+01  0.19251794759E+02 -0.11017846734E+02  0.22297703115E+02  0.00000000000E+00 0.  1.
         12    1    3    3    0    0  0.52115633601E+02 -0.15979398703E+02 -0.32307286674E+02  0.63365142001E+02  0.00000000000E+00 0. -1.
         13    1    5    5    0    0 -0.16268279726E+01  0.30808255619E+02  0.11632282456E+03  0.12034448345E+03  0.00000000000E+00 0. -1.
        -14    1    5    5    0    0 -0.12197767049E+02 -0.33711689668E+02  0.27431216447E+02  0.45141280188E+02  0.00000000000E+00 0.  1.
          5    1    4    4  501    0 -0.26551554774E+02 -0.44722171874E+02  0.11171182859E+03  0.12329664539E+03  0.41800000000E+01 0.  1.
         -5    1    4    4    0  501 -0.94672566850E+01  0.44353209866E+02 -0.39186727582E+01  0.45712849077E+02  0.41800000000E+01 0.  1.
</event>
<event>
11    1  0.6763327E-009  0.1525396E+03  0.7561462E-02  0.1094312E+00
         22   -1    0    0    0    0  0.00000000000E+00  0.00000000000E+00  0.29403800356E+04  0.29403800356E+04  0.00000000000E+00 0.  1.
         22   -1    0    0    0    0 -0.00000000000E+00 -0.00000000000E+00 -0.13925690076E+03  0.13925690076E+03  0.00000000000E+00 0.  1.
        -24    2    1    2    0    0  0.12162335407E+02 -0.21657239055E+02 -0.11744149958E+03  0.14573064305E+03  0.82631447362E+02 0.  0.
         25    2    1    2    0    0  0.41335516572E+02  0.87509867552E+02  0.10776449670E+04  0.10891892925E+04  0.12509211890E+03 0.  0.
         24    2    1    2    0    0 -0.53497851979E+02 -0.65852628497E+02  0.18409196674E+04  0.18447170008E+04  0.82443934155E+02 0.  0.
        -13    1    5    5    0    0 -0.57779495148E+02 -0.82608503424E+02  0.16070198319E+04  0.16101786779E+04  0.00000000000E+00 0.  1.
         14    1    5    5    0    0  0.42816431690E+01  0.16755874927E+02  0.23389983554E+03  0.23453832283E+03  0.00000000000E+00 0. -1.
         11    1    3    3    0    0 -0.26998293163E+02  0.15557636891E+02 -0.32172724350E+02  0.44788749608E+02  0.00000000000E+00 0. -1.
        -12    1    3    3    0    0  0.39160628570E+02 -0.37214875946E+02 -0.85268775229E+02  0.10094189344E+03  0.00000000000E+00 0.  1.
          5    1    4    4  501    0 -0.45030309177E+02  0.27991109922E+02  0.36564344865E+03  0.36949131914E+03  0.41800000000E+01 0. -1.
         -5    1    4    4    0  501  0.86365825749E+02  0.59518757630E+02  0.71200151836E+03  0.71969797340E+03  0.41800000000E+01 0. -1.
</event>
<event>
11    1  0.6763327E-009  0.1549493E+03  0.7561462E-02  0.1091926E+00
         22   -1    0    0    0    0  0.00000000000E+00  0.00000000000E+00  0.37319199447E+03  0.37319199447E+03  0.00000000000E+00 0.  1.
         22   -1    0    0    0    0 -0.00000000000E+00 -0.00000000000E+00 -0.35369572419E+03  0.35369572419E+03  0.00000000000E+00 0.  1.
         24    2    1    2    0    0  0.14727724399E+02  0.10563232977E+03 -0.25500105112E+03  0.28781071555E+03  0.80214568222E+02 0.  0.
         25    2    1    2    0    0  0.13013766968E+02 -0.38025155346E+02 -0.12850529041E+02  0.13200679926E+03  0.12508152695E+03 0.  0.
        -24    2    1    2    0    0 -0.27741491366E+02 -0.67607174420E+02  0.28734785043E+03  0.30707020386E+03  0.79893695451E+02 0.  0.
        -13    1    3    3    0    0  0.28286820417E+02  0.39033854362E+02 -0.18111172751E+03  0.18741729866E+03  0.00000000000E+00 0.  1.
         14    1    3    3    0    0 -0.13559096018E+02  0.66598475404E+02 -0.73889323606E+02  0.10039341689E+03  0.00000000000E+00 0. -1.
         13    1    5    5    0    0 -0.39889606472E+02 -0.48936215486E+02  0.99053660100E+02  0.11746302171E+03  0.00000000000E+00 0. -1.
        -14    1    5    5    0    0  0.12148115106E+02 -0.18670958934E+02  0.18829419033E+03  0.18960718214E+03  0.00000000000E+00 0.  1.
          5    1    4    4  501    0 -0.50132498243E+02 -0.44937724785E+02 -0.10792716294E+02  0.68312675354E+02  0.41800000000E+01 0. -1.
         -5    1    4    4    0  501  0.63146265211E+02  0.69125694388E+01 -0.20578127468E+01  0.63694123902E+02  0.41800000000E+01 0. -1.
</event>
<event>
11    1  0.6763327E-009  0.3438718E+03  0.7561462E-02  0.9831628E-01
         22   -1    0    0    0    0  0.00000000000E+00  0.00000000000E+00  0.37292184658E+04  0.37292184658E+04  0.00000000000E+00 0.  1.
         22   -1    0    0    0    0 -0.00000000000E+00 -0.00000000000E+00 -0.40639137516E+03  0.40639137516E+03  0.00000000000E+00 0.  1.
         24    2    1    2    0    0  0.10336005450E+03 -0.15295668581E+02 -0.33184555046E+03  0.35711267308E+03  0.80565089037E+02 0.  0.
         25    2    1    2    0    0 -0.34348775878E+03 -0.18102921798E+03  0.72958347309E+03  0.83587987497E+03  0.12509077896E+03 0.  0.
        -24    2    1    2    0    0  0.24012770428E+03  0.19632488656E+03  0.29250891680E+04  0.29426172929E+04  0.81517582208E+02 0.  0.
        -11    1    3    3    0    0  0.26755249858E+02 -0.27026236701E+02 -0.20475961164E+03  0.20826127682E+03  0.00000000000E+00 0.  1.
         12    1    3    3    0    0  0.76604804638E+02  0.11730568120E+02 -0.12708593883E+03  0.14885139626E+03  0.00000000000E+00 0. -1.
         11    1    5    5    0    0  0.97136772536E+02  0.12280306399E+03  0.12317553176E+04  0.12416671485E+04  0.00000000000E+00 0. -1.
        -12    1    5    5    0    0  0.14299093174E+03  0.73521822571E+02  0.16933338504E+04  0.17009501444E+04  0.00000000000E+00 0.  1.
          5    1    4    4  501    0 -0.34815847410E+02  0.19188097008E+02  0.69864130228E+02  0.80490964649E+02  0.41800000000E+01 0.  1.
         -5    1    4    4    0  501 -0.30867191137E+03 -0.20021731498E+03  0.65971934286E+03  0.75538891032E+03  0.41800000000E+01 0.  1.
</event>
<event>
11    1  0.6763327E-009  0.1271130E+03  0.7561462E-02  0.1122868E+00
         22   -1    0    0    0    0  0.00000000000E+00  0.00000000000E+00  0.12309230680E+04  0.12309230680E+04  0.00000000000E+00 0.  1.
         22   -1    0    0    0    0 -0.00000000000E+00 -0.00000000000E+00 -0.33257345708E+03  0.33257345708E+03  0.00000000000E+00 0. -1.
         24    2    1    2    0    0  0.53017489522E+01  0.23425058337E+02 -0.25667494315E+03  0.27002957658E+03  0.80356106706E+02 0.  0.
         25    2    1    2    0    0  0.94974064488E+01 -0.12231187839E+02 -0.92028999211E+01  0.12637832518E+03  0.12508790918E+03 0.  0.
        -24    2    1    2    0    0 -0.14799155401E+02 -0.11193870498E+02  0.11642274540E+04  0.11670886234E+04  0.79535981366E+02 0.  0.
        -11    1    3    3    0    0 -0.19222711037E+02  0.19926369811E+02 -0.25848696705E+02  0.37877802930E+02  0.00000000000E+00 0.  1.
         12    1    3    3    0    0  0.24524459989E+02  0.34986885257E+01 -0.23082624645E+03  0.23215177365E+03  0.00000000000E+00 0. -1.
         13    1    5    5    0    0 -0.12160086903E+02  0.23451292920E+02  0.15295175097E+03  0.15521620076E+03  0.00000000000E+00 0. -1.
        -14    1    5    5    0    0 -0.26390684979E+01 -0.34645163418E+02  0.10112757031E+04  0.10118724226E+04  0.00000000000E+00 0.  1.
          5    1    4    4  501    0 -0.46249711883E+02  0.28859981306E+02  0.70250882385E+01  0.55124936599E+02  0.41800000000E+01 0. -1.
         -5    1    4    4    0  501  0.55747118332E+02 -0.41091169145E+02 -0.16227988160E+02  0.71253388577E+02  0.41800000000E+01 0. -1.
</event>
<event>
11    1  0.6763327E-009  0.1284105E+03  0.7561462E-02  0.1121238E+00
         22   -1    0    0    0    0  0.00000000000E+00  0.00000000000E+00  0.37203702244E+03  0.37203702244E+03  0.00000000000E+00 0.  1.
         22   -1    0    0    0    0 -0.00000000000E+00 -0.00000000000E+00 -0.33446198954E+03  0.33446198954E+03  0.00000000000E+00 0.  1.
        -24    2    1    2    0    0  0.18973453483E+01  0.18253768317E+02 -0.29707057208E+03  0.30733003056E+03  0.76576908436E+02 0.  0.
         25    2    1    2    0    0 -0.14837572659E+02  0.15653821631E+02  0.21377909155E+03  0.24862481525E+03  0.12509037966E+03 0.  0.
         24    2    1    2    0    0  0.12940227311E+02 -0.33907589948E+02  0.12086651345E+03  0.15054416617E+03  0.82083236756E+02 0.  0.
        -11    1    5    5    0    0  0.20540757658E+02 -0.50971299892E+02  0.11983615321E+03  0.13183588189E+03  0.00000000000E+00 0.  1.
         12    1    5    5    0    0 -0.76005303471E+01  0.17063709944E+02  0.10303602409E+01  0.18708284284E+02  0.00000000000E+00 0. -1.
         13    1    3    3    0    0 -0.17780030795E+02 -0.47642270940E+01 -0.15296678316E+02  0.23933568944E+02  0.00000000000E+00 0. -1.
        -14    1    3    3    0    0  0.19677376144E+02  0.23017995411E+02 -0.28177389377E+03  0.28339646161E+03  0.00000000000E+00 0.  1.
          5    1    4    4  501    0 -0.54174690418E+02  0.40588097970E+02  0.17565009437E+03  0.18828892381E+03  0.41800000000E+01 0. -1.
         -5    1    4    4    0  501  0.39337117759E+02 -0.24934276339E+02  0.38128997180E+02  0.60335891442E+02  0.41800000000E+01 0. -1.
</event>
<event>
11    1  0.6763327E-009  0.1318597E+03  0.7561462E-02  0.1117005E+00
         22   -1    0    0    0    0  0.00000000000E+00  0.00000000000E+00  0.91548809463E+02  0.91548809463E+02  0.00000000000E+00 0.  1.
         22   -1    0    0    0    0 -0.00000000000E+00 -0.00000000000E+00 -0.20354261101E+04  0.20354261101E+04  0.00000000000E+00 0. -1.
        -24    2    1    2    0    0  0.40280238965E+02 -0.10631842228E+02 -0.17074952672E+04  0.17098457285E+04  0.79352339751E+02 0.  0.
         25    2    1    2    0    0 -0.45409373351E+02 -0.78049142818E+01 -0.28937468718E+03  0.31860395876E+03  0.12509134694E+03 0.  0.
         24    2    1    2    0    0  0.51291343862E+01  0.18436756510E+02  0.52992653712E+02  0.98525232401E+02  0.80825602763E+02 0.  0.
        -11    1    5    5    0    0  0.21195533831E+02  0.54093049086E+01  0.68990968084E+02  0.72375858621E+02  0.00000000000E+00 0.  1.
         12    1    5    5    0    0 -0.16066399445E+02  0.13027451601E+02 -0.15998314372E+02  0.26149373780E+02  0.00000000000E+00 0. -1.
         11    1    3    3    0    0  0.44425562284E+02 -0.36635952225E+01 -0.42619604975E+03  0.42852085753E+03  0.00000000000E+00 0. -1.
        -12    1    3    3    0    0 -0.41453233192E+01 -0.69682470058E+01 -0.12812992175E+04  0.12813248709E+04  0.00000000000E+00 0.  1.
          5    1    4    4  501    0 -0.75685459074E+02 -0.33898320525E+02 -0.13011901405E+03  0.15435613065E+03  0.41800000000E+01 0.  1.
         -5    1    4    4    0  501  0.30276085723E+02  0.26093406243E+02 -0.15925567313E+03  0.16424782811E+03  0.41800000000E+01 0.  1.
</event>
<event>
11    1  0.6763327E-009  0.1401203E+03  0.7561462E-02  0.1107424E+00
         22   -1    0    0    0    0  0.00000000000E+00  0.00000000000E+00  0.14442960195E+04  0.14442960195E+04  0.00000000000E+00 0. -1.
         22   -1    0    0    0    0 -0.00000000000E+00 -0.00000000000E+00 -0.23092494866E+03  0.23092494866E+03  0.00000000000E+00 0. -1.
        -24    2    1    2    0    0 -0.36023431077E+02 -0.30654546146E+02 -0.18953611749E+03  0.21147344387E+03  0.80991906038E+02 0.  0.
         25    2    1    2    0    0 -0.27944980687E+02  0.42520863758E+02  0.13222214692E+03  0.18900175560E+03  0.12510004670E+03 0.  0.
         24    2    1    2    0    0  0.63968411764E+02 -0.11866317612E+02  0.12706850414E+04  0.12747457687E+04  0.78125112102E+02 0.  0.
        -13    1    5    5    0    0  0.48224081124E+02 -0.50629386928E+01  0.29875533571E+03  0.30266474185E+03  0.00000000000E+00 0.  1.
         14    1    5    5    0    0  0.15744330641E+02 -0.68033789189E+01  0.97192970570E+03  0.97208102684E+03  0.00000000000E+00 0. -1.
         11    1    3    3    0    0 -0.30510017637E+02 -0.57078099756E+02 -0.11177224142E+03  0.12915806053E+03  0.00000000000E+00 0. -1.
        -12    1    3    3    0    0 -0.55134134406E+01  0.26423553609E+02 -0.77763876071E+02  0.82315383342E+02  0.00000000000E+00 0.  1.
          5    1    4    4  501    0 -0.58238422059E+00  0.15402140252E+02  0.14675072147E+03  0.14761711197E+03  0.41800000000E+01 0.  1.
         -5    1    4    4    0  501 -0.27362596467E+02  0.27118723506E+02 -0.14528574546E+02  0.41384643629E+02  0.41800000000E+01 0.  1.
</event>
<event>
11    1  0.6763327E-009  0.2142144E+03  0.7561462E-02  0.1044903E+00
         22   -1    0    0    0    0  0.00000000000E+00  0.00000000000E+00  0.57975714844E+03  0.57975714844E+03  0.00000000000E+00 0. -1.
         22   -1    0    0    0    0 -0.00000000000E+00 -0.00000000000E+00 -0.21834058680E+03  0.21834058680E+03  0.00000000000E+00 0. -1.
         24    2    1    2    0    0 -0.13388153585E+03 -0.13683714207E+03 -0.81903007012E+02  0.22272094502E+03  0.79043328003E+02 0.  0.
         25    2    1    2    0    0  0.96210230025E+02  0.98562526907E+02  0.85526968294E+02  0.20477645373E+03  0.12509018197E+03 0.  0.
        -24    2    1    2    0    0  0.37671305828E+02  0.38274615165E+02  0.35779260035E+03  0.37060033648E+03  0.80280701824E+02 0.  0.
        -11    1    3    3    0    0  0.37723036164E+01 -0.43872253509E+00 -0.18410912271E+02  0.18798522354E+02  0.00000000000E+00 0.  1.
         12    1    3    3    0    0 -0.13765383947E+03 -0.13639841954E+03 -0.63492094741E+02  0.20392242267E+03  0.00000000000E+00 0. -1.
         11    1    5    5    0    0  0.35088155463E+02 -0.12807661081E+02  0.22894679047E+03  0.23197380823E+03  0.00000000000E+00 0. -1.
        -12    1    5    5    0    0  0.25831503647E+01  0.51082276246E+02  0.12884580988E+03  0.13862652825E+03  0.00000000000E+00 0.  1.
          5    1    4    4  501    0 -0.21358248932E+02  0.22301201879E+02 -0.12639530648E+02  0.33626604611E+02  0.41800000000E+01 0. -1.
         -5    1    4    4    0  501  0.11756847896E+03  0.76261325028E+02  0.98166498943E+02  0.17114984912E+03  0.41800000000E+01 0. -1.
</event>
<event>
11    1  0.6763327E-009  0.1382054E+03  0.7561462E-02  0.1109579E+00
         22   -1    0    0    0    0  0.00000000000E+00  0.00000000000E+00  0.12176806542E+04  0.12176806542E+04  0.00000000000E+00 0.  1.
         22   -1    0    0    0    0 -0.00000000000E+00 -0.00000000000E+00 -0.13604276200E+03  0.13604276200E+03  0.00000000000E+00 0.  1.
         24    2    1    2    0    0 -0.14879631907E+02  0.17907262521E+02 -0.88869141313E+02  0.12051260450E+03  0.77996731139E+02 0.  0.
         25    2    1    2    0    0  0.63966209884E+02 -0.47126649729E+02  0.16032047587E+03  0.21831479412E+03  0.12508436043E+03 0.  0.
        -24    2    1    2    0    0 -0.49086577977E+02  0.29219387208E+02  0.10101865576E+04  0.10148960176E+04  0.79207200075E+02 0.  0.
        -11    1    3    3    0    0 -0.43349435064E+02  0.34175529582E+00 -0.69342060157E+02  0.81777818654E+02  0.00000000000E+00 0.  1.
         12    1    3    3    0    0  0.28469803157E+02  0.17565507225E+02 -0.19527081156E+02  0.38734785843E+02  0.00000000000E+00 0. -1.
         13    1    5    5    0    0 -0.45819340469E+02 -0.18326708332E+02  0.45529054781E+03  0.45795716298E+03  0.00000000000E+00 0. -1.
        -14    1    5    5    0    0 -0.32672375080E+01  0.47546095540E+02  0.55489600981E+03  0.55693885458E+03  0.00000000000E+00 0.  1.
          5    1    4    4  501    0 -0.21998059837E+02  0.25817149606E+02  0.26253871469E+02  0.43094988310E+02  0.41800000000E+01 0. -1.
         -5    1    4    4    0  501  0.85964269721E+02 -0.72943799335E+02  0.13406660441E+03  0.17521980581E+03  0.41800000000E+01 0. -1.
</event>
<event>
11    1  0.6763327E-009  0.1377622E+03  0.7561462E-02  0.1110083E+00
         22   -1    0    0    0    0  0.00000000000E+00  0.00000000000E+00  0.31718381423E+04  0.31718381423E+04  0.00000000000E+00 0. -1.
         22   -1    0    0    0    0 -0.00000000000E+00 -0.00000000000E+00 -0.61804354778E+03  0.61804354778E+03  0.00000000000E+00 0.  1.
        -24    2    1    2    0    0 -0.82545900597E+00  0.57611326287E+02 -0.58177457837E+03  0.58985101102E+03  0.78376073330E+02 0.  0.
         25    2    1    2    0    0  0.27371972989E+02 -0.60967303251E+02  0.12723005004E+03  0.19052899174E+03  0.12509026376E+03 0.  0.
         24    2    1    2    0    0 -0.26546513983E+02  0.33559769646E+01  0.30083391229E+04  0.30095016873E+04  0.79247384805E+02 0.  0.
        -11    1    5    5    0    0 -0.15938823122E+02 -0.20440751078E+02  0.32369888769E+03  0.32473503088E+03  0.00000000000E+00 0.  1.
         12    1    5    5    0    0 -0.10607690861E+02  0.23796728043E+02  0.26846402352E+04  0.26847666565E+04  0.00000000000E+00 0. -1.
         13    1    3    3    0    0 -0.10223975866E+02 -0.18137456915E+02 -0.13740714668E+03  0.13897561291E+03  0.00000000000E+00 0. -1.
        -14    1    3    3    0    0  0.93985168599E+01  0.75748783202E+02 -0.44436743169E+03  0.45087539811E+03  0.00000000000E+00 0.  1.
          5    1    4    4  501    0  0.33865338822E+02 -0.73516971515E+02  0.14580578520E+03  0.16681848120E+03  0.41800000000E+01 0.  1.
         -5    1    4    4    0  501 -0.64933658324E+01  0.12549668264E+02 -0.18575735154E+02  0.23710510536E+02  0.41800000000E+01 0.  1.
</event>
<event>
11    1  0.6763327E-009  0.1916391E+03  0.7561462E-02  0.1060599E+00
         22   -1    0    0    0    0  0.00000000000E+00  0.00000000000E+00  0.10766914519E+04  0.10766914519E+04  0.00000000000E+00 0. -1.
         22   -1    0    0    0    0 -0.00000000000E+00 -0.00000000000E+00 -0.36308789947E+03  0.36308789947E+03  0.00000000000E+00 0. -1.
         24    2    1    2    0    0 -0.99165493790E+02  0.11018667624E+03 -0.31440481436E+03  0.35798074540E+03  0.85585793256E+02 0.  0.
         25    2    1    2    0    0  0.74801033865E+02 -0.75522725843E+02  0.25368334689E+03  0.30216200738E+03  0.12509101257E+03 0.  0.
        -24    2    1    2    0    0  0.24364459926E+02 -0.34663950393E+02  0.77432501988E+03  0.77963659857E+03  0.80366492120E+02 0.  0.
        -13    1    3    3    0    0  0.15036523417E+02  0.23052437670E+02 -0.51181418340E+02  0.58112386823E+02  0.00000000000E+00 0.  1.
         14    1    3    3    0    0 -0.11420201721E+03  0.87134238566E+02 -0.26322339602E+03  0.29986835858E+03  0.00000000000E+00 0. -1.
         13    1    5    5    0    0  0.37954399037E+02 -0.48799697738E+02  0.70146667294E+03  0.70418565744E+03  0.00000000000E+00 0. -1.
        -14    1    5    5    0    0 -0.13589939112E+02  0.14135747345E+02  0.72858346942E+02  0.75450941129E+02  0.00000000000E+00 0.  1.
          5    1    4    4  501    0 -0.20108690322E+02 -0.54933862446E+02  0.52449443615E+02  0.78679763633E+02  0.41800000000E+01 0.  1.
         -5    1    4    4    0  501  0.94909724187E+02 -0.20588863396E+02  0.20123390327E+03  0.22348224374E+03  0.41800000000E+01 0.  1.
</event>
<event>
11    1  0.6763327E-009  0.1271608E+03  0.7561462E-02  0.1122807E+00
         22   -1    0    0    0    0  0.00000000000E+00  0.00000000000E+00  0.49883842611E+03  0.49883842611E+03  0.00000000000E+00 0.  1.
         22   -1    0    0    0    0 -0.00000000000E+00 -0.00000000000E+00 -0.13550894652E+04  0.13550894652E+04  0.00000000000E+00 0. -1.
         24    2    1    2    0    0  0.10069328820E+02 -0.21049819443E+01 -0.10883568426E+04  0.10913561875E+04  0.80199056950E+02 0.  0.
         25    2    1    2    0    0 -0.14072912075E+02 -0.20389119822E+02 -0.24615615769E+03  0.27722669255E+03  0.12509205422E+03 0.  0.
        -24    2    1    2    0    0  0.40035832554E+01  0.22494101766E+02  0.47826196117E+03  0.48534501133E+03  0.79393093051E+02 0.  0.
        -11    1    3    3    0    0  0.21104785198E+02  0.71166113833E+01 -0.84186264562E+02  0.87082634645E+02  0.00000000000E+00 0.  1.
         12    1    3    3    0    0 -0.11035456378E+02 -0.92215933276E+01 -0.10041705780E+04  0.10042735528E+04  0.00000000000E+00 0. -1.
         11    1    5    5    0    0 -0.27942001855E+02 -0.15550916816E+02  0.15248081469E+03  0.15579789899E+03  0.00000000000E+00 0. -1.
        -12    1    5    5    0    0  0.31945585110E+02  0.38045018582E+02  0.32578114648E+03  0.32954711234E+03  0.00000000000E+00 0.  1.
          5    1    4    4  501    0 -0.38682291041E+02  0.39912211545E+02 -0.70723332380E+02  0.90047578610E+02  0.41800000000E+01 0. -1.
         -5    1    4    4    0  501  0.24609378966E+02 -0.60301331366E+02 -0.17543282531E+03  0.18717911394E+03  0.41800000000E+01 0. -1.
</event>
<event>
11    1  0.6763327E-009  0.1847371E+03  0.7561462E-02  0.1065874E+00
         22   -1    0    0    0    0  0.00000000000E+00  0.00000000000E+00  0.70359880588E+03  0.70359880588E+03  0.00000000000E+00 0. -1.
         22   -1    0    0    0    0 -0.00000000000E+00 -0.00000000000E+00 -0.33785473168E+03  0.33785473168E+03  0.00000000000E+00 0. -1.
         24    2    1    2    0    0 -0.26046558751E+02 -0.11559485950E+02 -0.27972786507E+03  0.29249346057E+03  0.80577298533E+02 0.  0.
         25    2    1    2    0    0  0.11751433036E+03 -0.85516582959E+02  0.19953565849E+03  0.27673483580E+03  0.12507992059E+03 0.  0.
        -24    2    1    2    0    0 -0.91467771605E+02  0.97076068910E+02  0.44593628079E+03  0.47222524120E+03  0.79670543462E+02 0.  0.
        -11    1    3    3    0    0  0.56615529935E+01 -0.37014274167E+02 -0.75717169276E+02  0.84470109492E+02  0.00000000000E+00 0.  1.
         12    1    3    3    0    0 -0.31708111744E+02  0.25454788216E+02 -0.20401069580E+03  0.20802335108E+03  0.00000000000E+00 0. -1.
         11    1    5    5    0    0  0.12129660468E+02  0.20511998941E+02  0.10730591865E+03  0.10992011163E+03  0.00000000000E+00 0. -1.
        -12    1    5    5    0    0 -0.10359743207E+03  0.76564069968E+02  0.33863036214E+03  0.36230512956E+03  0.00000000000E+00 0.  1.
          5    1    4    4  501    0  0.36322414620E+02  0.31794691954E+02  0.60120983292E+02  0.77215447110E+02  0.41800000000E+01 0.  1.
         -5    1    4    4    0  501  0.81191915735E+02 -0.11731127491E+03  0.13941467519E+03  0.19951938869E+03  0.41800000000E+01 0.  1.
</event>
<event>
11    1  0.6763327E-009  0.1260525E+03  0.7561462E-02  0.1124217E+00
         22   -1    0    0    0    0  0.00000000000E+00  0.00000000000E+00  0.60358658312E+03  0.60358658312E+03  0.00000000000E+00 0. -1.
         22   -1    0    0    0    0 -0.00000000000E+00 -0.00000000000E+00 -0.46775171788E+03  0.46775171788E+03  0.00000000000E+00 0.  1.
         24    2    1    2    0    0  0.12896018998E+02 -0.10218053300E+02 -0.40375844058E+03  0.41229691454E+03  0.81836125757E+02 0.  0.
         25    2    1    2    0    0 -0.45606911285E+01 -0.47005445197E+01  0.13031197419E+02  0.12593783466E+03  0.12509049153E+03 0.  0.
        -24    2    1    2    0    0 -0.83353278698E+01  0.14918597819E+02  0.52656210840E+03  0.53310355181E+03  0.81484358589E+02 0.  0.
        -11    1    3    3    0    0 -0.34031394921E+01 -0.36378061550E+02 -0.33450175430E+03  0.33649126044E+03  0.00000000000E+00 0.  1.
         12    1    3    3    0    0  0.16299158490E+02  0.26160008251E+02 -0.69256686272E+02  0.75805654094E+02  0.00000000000E+00 0. -1.
         11    1    5    5    0    0  0.54218976634E+01  0.10888557468E+02  0.51369955796E+03  0.51384354964E+03  0.00000000000E+00 0. -1.
        -12    1    5    5    0    0 -0.13757225533E+02  0.40300403511E+01  0.12862550436E+02  0.19260002163E+02  0.00000000000E+00 0.  1.
          5    1    4    4  501    0  0.14212276874E+02 -0.37735276599E+02  0.55545512989E+02  0.68765662414E+02  0.41800000000E+01 0. -1.
         -5    1    4    4    0  501 -0.18772968003E+02  0.33034732079E+02 -0.42514315570E+02  0.57172172248E+02  0.41800000000E+01 0. -1.
</event>
<event>
11    1  0.6763327E-009  0.2102823E+03  0.7561462E-02  0.1047482E+00
         22   -1    0    0    0    0  0.00000000000E+00  0.00000000000E+00  0.72218653029E+03  0.72218653029E+03  0.00000000000E+00 0. -1.
         22   -1    0    0    0    0 -0.00000000000E+00 -0.00000000000E+00 -0.94703086151E+03  0.94703086151E+03  0.00000000000E+00 0. -1.
        -24    2    1    2    0    0 -0.35945665429E+02  0.39386130308E+02 -0.88566441246E+03  0.89092366027E+03  0.80623562368E+02 0.  0.
         25    2    1    2    0    0  0.13037806162E+03  0.10532119901E+03  0.25238006193E+03  0.32777158257E+03  0.12509005063E+03 0.  0.
         24    2    1    2    0    0 -0.94432396192E+02 -0.14470732931E+03  0.40844001930E+03  0.45052214895E+03  0.79304909821E+02 0.  0.
        -13    1    5    5    0    0  0.10209199428E+02 -0.48174515848E+01  0.56407955749E+02  0.57526455344E+02  0.00000000000E+00 0.  1.
         14    1    5    5    0    0 -0.10464159562E+03 -0.13988987773E+03  0.35203206356E+03  0.39299569361E+03  0.00000000000E+00 0. -1.
         13    1    3    3    0    0  0.19198262257E+01  0.51954452567E+02 -0.63269013891E+03  0.63482262306E+03  0.00000000000E+00 0. -1.
        -14    1    3    3    0    0 -0.37865491654E+02 -0.12568322259E+02 -0.25297427355E+03  0.25610103721E+03  0.00000000000E+00 0.  1.
          5    1    4    4  501    0  0.74864731520E+02  0.76607692362E+02  0.24146318264E+03  0.26418820474E+03  0.41800000000E+01 0.  1.
         -5    1    4    4    0  501  0.55513330101E+02  0.28713506643E+02  0.10916879294E+02  0.63583377829E+02  0.41800000000E+01 0.  1.
</event>
<event>
11    1  0.6763327E-009  0.2750493E+03  0.7561462E-02  0.1011341E+00
         22   -1    0    0    0    0  0.00000000000E+00  0.00000000000E+00  0.30828281135E+04  0.30828281135E+04  0.00000000000E+00 0.  1.
         22   -1    0    0    0    0 -0.00000000000E+00 -0.00000000000E+00 -0.21091499013E+03  0.21091499013E+03  0.00000000000E+00 0.  1.
        -24    2    1    2    0    0  0.31942576300E+02 -0.19093601399E+03 -0.10244233395E+03  0.23347167593E+03  0.80856057644E+02 0.  0.
         25    2    1    2    0    0 -0.11957032798E+03 -0.67719046439E+02  0.20569613931E+03  0.27720017210E+03  0.12508437593E+03 0.  0.
         24    2    1    2    0    0  0.87627751678E+02  0.25865506043E+03  0.27686593180E+04  0.27830712556E+04  0.73689425429E+02 0.  0.
        -11    1    5    5    0    0  0.53346800598E+02  0.15873137584E+03  0.20301386159E+04  0.20370332178E+04  0.00000000000E+00 0.  1.
         12    1    5    5    0    0  0.34280951080E+02  0.99923684590E+02  0.73852070211E+03  0.74603803776E+03  0.00000000000E+00 0. -1.
         13    1    3    3    0    0 -0.25702434100E+02 -0.78271071079E+02 -0.30171654694E+02  0.87734283114E+02  0.00000000000E+00 0. -1.
        -14    1    3    3    0    0  0.57645010400E+02 -0.11266494291E+03 -0.72270679253E+02  0.14573739282E+03  0.00000000000E+00 0.  1.
          5    1    4    4  501    0 -0.54164477438E+02 -0.72543241748E+02  0.18867775269E+03  0.20931574068E+03  0.41800000000E+01 0. -1.
         -5    1    4    4    0  501 -0.65405850540E+02  0.48241953090E+01  0.17018386623E+02  0.67884431415E+02  0.41800000000E+01 0. -1.
</event>
<event>
11    1  0.6763327E-009  0.1520300E+03  0.7561462E-02  0.1094822E+00
         22   -1    0    0    0    0  0.00000000000E+00  0.00000000000E+00  0.81229489971E+03  0.81229489971E+03  0.00000000000E+00 0.  1.
         22   -1    0    0    0    0 -0.00000000000E+00 -0.00000000000E+00 -0.17348381924E+03  0.17348381924E+03  0.00000000000E+00 0.  1.
        -24    2    1    2    0    0  0.52705878950E+00  0.15352586841E+01 -0.13922351935E+03  0.16062503035E+03  0.80091055822E+02 0.  0.
         25    2    1    2    0    0  0.43437370173E+02 -0.75469292938E+02  0.36490794452E+03  0.39546226576E+03  0.12510066492E+03 0.  0.
         24    2    1    2    0    0 -0.43964428962E+02  0.73934034254E+02  0.41312665530E+03  0.42969142285E+03  0.81006006634E+02 0.  0.
        -13    1    5    5    0    0 -0.55562881416E+02  0.85267936065E+02  0.34805301451E+03  0.36262757151E+03  0.00000000000E+00 0.  1.
         14    1    5    5    0    0  0.11598452454E+02 -0.11333901811E+02  0.65073640798E+02  0.67063851338E+02  0.00000000000E+00 0. -1.
         13    1    3    3    0    0  0.28698031303E+02 -0.80621355439E+01 -0.15946080030E+02  0.33806101498E+02  0.00000000000E+00 0. -1.
        -14    1    3    3    0    0 -0.28170972513E+02  0.95973942280E+01 -0.12327743932E+03  0.12681892885E+03  0.00000000000E+00 0.  1.
          5    1    4    4  501    0  0.15606785453E+02  0.31756322435E+02  0.48390318465E+02  0.60092687475E+02  0.41800000000E+01 0.  1.
         -5    1    4    4    0  501  0.27830584719E+02 -0.10722561537E+03  0.31651762605E+03  0.33536957829E+03  0.41800000000E+01 0.  1.
</event>
<event>
11    1  0.6763327E-009  0.2708861E+03  0.7561462E-02  0.1013326E+00
         22   -1    0    0    0    0  0.00000000000E+00  0.00000000000E+00  0.56045931500E+03  0.56045931500E+03  0.00000000000E+00 0. -1.
         22   -1    0    0    0    0 -0.00000000000E+00 -0.00000000000E+00 -0.85930788757E+03  0.85930788757E+03  0.00000000000E+00 0. -1.
         24    2    1    2    0    0  0.11146233499E+03 -0.21523926447E+03 -0.67562448632E+03  0.72252009469E+03  0.82553301696E+02 0.  0.
         25    2    1    2    0    0 -0.12052472854E+03  0.19683416220E+03 -0.44904430956E+02  0.26633169566E+03  0.12508503747E+03 0.  0.
        -24    2    1    2    0    0  0.90623935519E+01  0.18405102279E+02  0.42168034470E+03  0.43091541222E+03  0.86330206833E+02 0.  0.
        -13    1    3    3    0    0  0.31578767898E+01  0.52491846235E+01 -0.50355375109E+02  0.50726619515E+02  0.00000000000E+00 0.  1.
         14    1    3    3    0    0  0.10830445820E+03 -0.22048844910E+03 -0.62526911121E+03  0.67179347517E+03  0.00000000000E+00 0. -1.
         11    1    5    5    0    0  0.19372897554E+02 -0.31657411266E+02  0.20046608530E+03  0.20387288247E+03  0.00000000000E+00 0. -1.
        -12    1    5    5    0    0 -0.10310504002E+02  0.50062513545E+02  0.22121425940E+03  0.22704252975E+03  0.00000000000E+00 0.  1.
          5    1    4    4  501    0  0.16981521776E+01  0.37276396896E+02  0.33722588497E+02  0.50468790964E+02  0.41800000000E+01 0. -1.
         -5    1    4    4    0  501 -0.12222288072E+03  0.15955776530E+03 -0.78627019453E+02  0.21586290470E+03  0.41800000000E+01 0. -1.
</event>
<event>
11    1  0.6763327E-009  0.2128844E+03  0.7561462E-02  0.1045769E+00
         22   -1    0    0    0    0  0.00000000000E+00  0.00000000000E+00  0.11070625861E+04  0.11070625861E+04  0.00000000000E+00 0.  1.
         22   -1    0    0    0    0 -0.00000000000E+00 -0.00000000000E+00 -0.31926317463E+03  0.31926317463E+03  0.00000000000E+00 0.  1.
        -24    2    1    2    0    0 -0.23835477430E+02 -0.83549901237E+02 -0.14242213927E+03  0.19373766463E+03  0.98496197705E+02 0.  0.
         25    2    1    2    0    0  0.66361304393E+02  0.24505966047E+03 -0.10974573044E+01  0.28303320793E+03  0.12509409446E+03 0.  0.
         24    2    1    2    0    0 -0.42525826963E+02 -0.16150975923E+03  0.93131900807E+03  0.94955488820E+03  0.80034633916E+02 0.  0.
        -13    1    5    5    0    0 -0.41835250244E+01 -0.10308907646E+03  0.71024594418E+03  0.71770060665E+03  0.00000000000E+00 0.  1.
         14    1    5    5    0    0 -0.38342301939E+02 -0.58420682776E+02  0.22107306389E+03  0.23185428155E+03  0.00000000000E+00 0. -1.
         13    1    3    3    0    0  0.16093711644E+02  0.14002542292E+02 -0.77003037988E+01  0.22679802109E+02  0.00000000000E+00 0. -1.
        -14    1    3    3    0    0 -0.39929189074E+02 -0.97552443529E+02 -0.13472183547E+03  0.17105786252E+03  0.00000000000E+00 0.  1.
          5    1    4    4  501    0  0.49303579127E+02  0.10987584312E+03 -0.59902189786E+02  0.13457075669E+03  0.41800000000E+01 0. -1.
         -5    1    4    4    0  501  0.17057725266E+02  0.13518381735E+03  0.58804732482E+02  0.14846245124E+03  0.41800000000E+01 0. -1.
</event>
<event>
11    1  0.6763327E-009  0.1509708E+03  0.7561462E-02  0.1095891E+00
         22   -1    0    0    0    0  0.00000000000E+00  0.00000000000E+00  0.15378067789E+04  0.15378067789E+04  0.00000000000E+00 0.  1.
         22   -1    0    0    0    0 -0.00000000000E+00 -0.00000000000E+00 -0.56949269034E+03  0.56949269034E+03  0.00000000000E+00 0. -1.
         24    2    1    2    0    0 -0.60836817503E+02 -0.57629233196E+01 -0.54719478310E+03  0.55649936138E+03  0.80839834926E+02 0.  0.
         25    2    1    2    0    0  0.90459019708E+02 -0.69568754293E+02  0.47766559952E+03  0.50678855728E+03  0.12509025144E+03 0.  0.
        -24    2    1    2    0    0 -0.29622202205E+02  0.75331677613E+02  0.10378432721E+04  0.10440115505E+04  0.79303995446E+02 0.  0.
        -13    1    3    3    0    0  0.14674274946E+02 -0.13197351114E+02 -0.53826419592E+02  0.57330514281E+02  0.00000000000E+00 0.  1.
         14    1    3    3    0    0 -0.75511092449E+02  0.74344277942E+01 -0.49336836351E+03  0.49916884710E+03  0.00000000000E+00 0. -1.
         11    1    5    5    0    0  0.95354486036E+01  0.33933740533E+02  0.73556823244E+03  0.73641228133E+03  0.00000000000E+00 0. -1.
        -12    1    5    5    0    0 -0.39157650809E+02  0.41397937080E+02  0.30227503967E+03  0.30759926921E+03  0.00000000000E+00 0.  1.
          5    1    4    4  501    0  0.86842567654E+02 -0.34117861876E+02  0.14686105723E+03  0.17404396740E+03  0.41800000000E+01 0.  1.
         -5    1    4    4    0  501  0.36164520542E+01 -0.35450892418E+02  0.33080454229E+03  0.33274458988E+03  0.41800000000E+01 0.  1.
</event>
<event>
11    1  0.6763327E-009  0.1511161E+03  0.7561462E-02  0.1095744E+00
         22   -1    0    0    0    0  0.00000000000E+00  0.00000000000E+00  0.25366430178E+04  0.25366430178E+04  0.00000000000E+00 0. -1.
         22   -1    0    0    0    0 -0.00000000000E+00 -0.00000000000E+00 -0.63511611072E+02  0.63511611072E+02  0.00000000000E+00 0.  1.
        -24    2    1    2    0    0  0.69671585012E+01  0.16387551038E+02  0.54410283019E+01  0.83359293029E+02  0.81253146515E+02 0.  0.
         25    2    1    2    0    0 -0.88087649016E+02 -0.38580720395E+02  0.24708472446E+03  0.29316579269E+03  0.12508962806E+03 0.  0.
         24    2    1    2    0    0  0.81120490515E+02  0.22193169357E+02  0.22206056539E+04  0.22236295431E+04  0.79785988724E+02 0.  0.
        -11    1    5    5    0    0  0.47735467473E+02  0.49741959470E+02  0.10764302105E+04  0.10786356824E+04  0.00000000000E+00 0.  1.
         12    1    5    5    0    0  0.33385023042E+02 -0.27548790113E+02  0.11441754435E+04  0.11449938607E+04  0.00000000000E+00 0. -1.
         13    1    3    3    0    0  0.79016368606E+01  0.12405354152E+02  0.43068212471E+02  0.45510433992E+02  0.00000000000E+00 0. -1.
        -14    1    3    3    0    0 -0.93447835933E+00  0.39821968857E+01 -0.37627184169E+02  0.37848859036E+02  0.00000000000E+00 0.  1.
          5    1    4    4  501    0 -0.62589732725E+02 -0.71828784707E+02  0.22759449175E+03  0.24676623357E+03  0.41800000000E+01 0. -1.
         -5    1    4    4    0  501 -0.25497916291E+02  0.33248064312E+02  0.19490232705E+02  0.46399559121E+02  0.41800000000E+01 0. -1.
</event>
<event>
11    1  0.6763327E-009  0.1719605E+03  0.7561462E-02  0.1076338E+00
         22   -1    0    0    0    0  0.00000000000E+00  0.00000000000E+00  0.46358907846E+03  0.46358907846E+03  0.00000000000E+00 0. -1.
         22   -1    0    0    0    0 -0.00000000000E+00 -0.00000000000E+00 -0.13960725744E+04  0.13960725744E+04  0.00000000000E+00 0.  1.
        -24    2    1    2    0    0  0.23634392004E+02 -0.18544238200E+02 -0.13177750611E+04  0.13205386039E+04  0.79928839945E+02 0.  0.
         25    2    1    2    0    0 -0.94148885740E+02 -0.76070679913E+02  0.60014092188E+02  0.18411653021E+03  0.12508574822E+03 0.  0.
         24    2    1    2    0    0  0.70514493736E+02  0.94614918113E+02  0.32527747300E+03  0.35500651872E+03  0.79372018588E+02 0.  0.
        -13    1    5    5    0    0  0.55844041966E+02  0.12085653619E+02  0.10930486103E+03  0.12333763696E+03  0.00000000000E+00 0.  1.
         14    1    5    5    0    0  0.14670451770E+02  0.82529264494E+02  0.21597261197E+03  0.23166888176E+03  0.00000000000E+00 0. -1.
         11    1    3    3    0    0  0.18077130930E+02  0.11634623481E+02 -0.95971956977E+02  0.98350209213E+02  0.00000000000E+00 0. -1.
        -12    1    3    3    0    0  0.55572610739E+01 -0.30178861681E+02 -0.12218031041E+04  0.12221883947E+04  0.00000000000E+00 0.  1.
          5    1    4    4  501    0  0.95081700666E+01  0.73318973952E+01 -0.23682924187E+02  0.26879645003E+02  0.41800000000E+01 0.  1.
         -5    1    4    4    0  501 -0.10365705581E+03 -0.83402577308E+02  0.83697016376E+02  0.15723688521E+03  0.41800000000E+01 0.  1.
</event>
<event>
11    1  0.6763327E-009  0.1406177E+03  0.7561462E-02  0.1106871E+00
         22   -1    0    0    0    0  0.00000000000E+00  0.00000000000E+00  0.33516526583E+03  0.33516526583E+03  0.00000000000E+00 0. -1.
         22   -1    0    0    0    0 -0.00000000000E+00 -0.00000000000E+00 -0.54804229912E+03  0.54804229912E+03  0.00000000000E+00 0.  1.
         24    2    1    2    0    0 -0.55835371042E+02  0.36662240831E+02 -0.41219436073E+03  0.42465893997E+03  0.77261346843E+02 0.  0.
         25    2    1    2    0    0  0.56379383803E+02 -0.42697809483E+00 -0.83879653674E+02  0.16081873420E+03  0.12509217298E+03 0.  0.
        -24    2    1    2    0    0 -0.54401276028E+00 -0.36235262737E+02  0.28319698111E+03  0.29772989078E+03  0.84434990023E+02 0.  0.
        -13    1    3    3    0    0  0.98786728673E+01  0.34158466382E+02 -0.12010062964E+03  0.12525394302E+03  0.00000000000E+00 0.  1.
         14    1    3    3    0    0 -0.65714043910E+02  0.25037744490E+01 -0.29209373109E+03  0.29940499695E+03  0.00000000000E+00 0. -1.
         11    1    5    5    0    0 -0.17992187641E+02 -0.45156958173E+02  0.26943205303E+03  0.27378184909E+03  0.00000000000E+00 0. -1.
        -12    1    5    5    0    0  0.17448174881E+02  0.89216954365E+01  0.13764928077E+02  0.23948041697E+02  0.00000000000E+00 0.  1.
          5    1    4    4  501    0 -0.38600474814E+02  0.64479663695E+01 -0.11108200204E+02  0.40895445198E+02  0.41800000000E+01 0.  1.
         -5    1    4    4    0  501  0.94979858616E+02 -0.68749444644E+01 -0.72771453470E+02  0.11992328900E+03  0.41800000000E+01 0.  1.
</event>
<event>
11    1  0.6763327E-009  0.1367552E+03  0.7561462E-02  0.1111237E+00
         22   -1    0    0    0    0  0.00000000000E+00  0.00000000000E+00  0.58503170975E+03  0.58503170975E+03  0.00000000000E+00 0.  1.
         22   -1    0    0    0    0 -0.00000000000E+00 -0.00000000000E+00 -0.96395455051E+03  0.96395455051E+03  0.00000000000E+00 0.  1.
        -24    2    1    2    0    0  0.95762755764E+01 -0.25062807915E+02 -0.82150725023E+03  0.82586075725E+03  0.80324210465E+02 0.  0.
         25    2    1    2    0    0 -0.58809642250E+02  0.48912349133E+02 -0.96895817825E+02  0.17575067784E+03  0.12509400197E+03 0.  0.
         24    2    1    2    0    0  0.49233366673E+02 -0.23849541218E+02  0.53948022730E+03  0.54737482517E+03  0.74749973716E+02 0.  0.
        -13    1    5    5    0    0  0.67800116176E+02 -0.28171118398E+02  0.44025524601E+03  0.44633524318E+03  0.00000000000E+00 0.  1.
         14    1    5    5    0    0 -0.18566749503E+02  0.43215771796E+01  0.99224981284E+02  0.10103958198E+03  0.00000000000E+00 0. -1.
         13    1    3    3    0    0  0.38643027541E+02 -0.27623979552E+02 -0.32011118582E+03  0.32361634556E+03  0.00000000000E+00 0. -1.
        -14    1    3    3    0    0 -0.29066751964E+02  0.25611716372E+01 -0.50139606441E+03  0.50224441169E+03  0.00000000000E+00 0.  1.
          5    1    4    4  501    0 -0.90527607448E+02  0.11092878147E+02 -0.38263814150E+02  0.98994401504E+02  0.41800000000E+01 0.  1.
         -5    1    4    4    0  501  0.31717965198E+02  0.37819470986E+02 -0.58632003675E+02  0.76756276336E+02  0.41800000000E+01 0.  1.
</event>
<event>
11    1  0.6763327E-009  0.1603885E+03  0.7561462E-02  0.1086712E+00
         22   -1    0    0    0    0  0.00000000000E+00  0.00000000000E+00  0.42352606285E+03  0.42352606285E+03  0.00000000000E+00 0. -1.
         22   -1    0    0    0    0 -0.00000000000E+00 -0.00000000000E+00 -0.78986266525E+03  0.78986266525E+03  0.00000000000E+00 0. -1.
         24    2    1    2    0    0  0.59802618565E+02  0.77512093774E+02 -0.69182559526E+03  0.70363057129E+03  0.82999088745E+02 0.  0.
         25    2    1    2    0    0 -0.10990446116E+03 -0.10224294609E+03  0.29775615647E+02  0.19765299908E+03  0.12509000820E+03 0.  0.
        -24    2    1    2    0    0  0.50101842597E+02  0.24730852318E+02  0.29571337721E+03  0.31210515772E+03  0.82712866771E+02 0.  0.
        -11    1    3    3    0    0  0.54432309946E+00 -0.10246969486E+02 -0.21249335918E+03  0.21274097952E+03  0.00000000000E+00 0.  1.
         12    1    3    3    0    0  0.59258295466E+02  0.87759063261E+02 -0.47933223607E+03  0.49088959177E+03  0.00000000000E+00 0. -1.
         13    1    5    5    0    0  0.39402984209E+02  0.16387126579E+02  0.29546937582E+03  0.29853523264E+03  0.00000000000E+00 0. -1.
        -14    1    5    5    0    0  0.10698858388E+02  0.83437257390E+01  0.24400138907E+00  0.13569925080E+02  0.00000000000E+00 0.  1.
          5    1    4    4  501    0  0.26389442132E+02 -0.17137443619E+02  0.17986652235E+02  0.36484060746E+02  0.41800000000E+01 0.  1.
         -5    1    4    4    0  501 -0.13629390329E+03 -0.85105502473E+02  0.11788963412E+02  0.16116893834E+03  0.41800000000E+01 0.  1.
</event>
<event>
11    1  0.6763327E-009  0.1723016E+03  0.7561462E-02  0.1076046E+00
         22   -1    0    0    0    0  0.00000000000E+00  0.00000000000E+00  0.35372549112E+03  0.35372549112E+03  0.00000000000E+00 0. -1.
         22   -1    0    0    0    0 -0.00000000000E+00 -0.00000000000E+00 -0.12646545424E+04  0.12646545424E+04  0.00000000000E+00 0. -1.
         24    2    1    2    0    0 -0.11551067168E+03 -0.25087687919E+02 -0.11635115691E+04  0.11724165320E+04  0.82639249599E+02 0.  0.
         25    2    1    2    0    0  0.10021341035E+03  0.14276060232E+03  0.10079147979E+03  0.23712409424E+03  0.12508235879E+03 0.  0.
        -24    2    1    2    0    0  0.15297261325E+02 -0.11767291440E+03  0.15179103808E+03  0.20883940730E+03  0.80575789231E+02 0.  0.
        -11    1    3    3    0    0 -0.30565398750E+02  0.15263029084E+02 -0.61134425835E+03  0.61229813479E+03  0.00000000000E+00 0.  1.
         12    1    3    3    0    0 -0.84945272928E+02 -0.40350717003E+02 -0.55216731079E+03  0.56011839718E+03  0.00000000000E+00 0. -1.
         11    1    5    5    0    0  0.71172380761E+00 -0.43710034959E+02  0.52317342931E+01  0.44027772492E+02  0.00000000000E+00 0. -1.
        -12    1    5    5    0    0  0.14585537517E+02 -0.73962879446E+02  0.14655930379E+03  0.16481163480E+03  0.00000000000E+00 0.  1.
          5    1    4    4  501    0 -0.86762745869E+01  0.20886511800E+02 -0.22641471997E+02  0.32274336091E+02  0.41800000000E+01 0.  1.
         -5    1    4    4    0  501  0.10888968494E+03  0.12187409052E+03  0.12343295179E+03  0.20484975815E+03  0.41800000000E+01 0.  1.
</event>
<event>
11    1  0.6763327E-009  0.1287352E+03  0.7561462E-02  0.1120833E+00
         22   -1    0    0    0    0  0.00000000000E+00  0.00000000000E+00  0.31495967509E+03  0.31495967509E+03  0.00000000000E+00 0.  1.
         22   -1    0    0    0    0 -0.00000000000E+00 -0.00000000000E+00 -0.39808523121E+03  0.39808523121E+03  0.00000000000E+00 0.  1.
        -24    2    1    2    0    0  0.28164234800E+02  0.14289263290E+02 -0.34021782380E+03  0.35090751033E+03  0.79940640543E+02 0.  0.
         25    2    1    2    0    0 -0.11604001439E+02 -0.17680753764E+01  0.43785684132E+02  0.13305063620E+03  0.12508999448E+03 0.  0.
         24    2    1    2    0    0 -0.16560233362E+02 -0.12521187913E+02  0.21330658354E+03  0.22908675976E+03  0.80932215097E+02 0.  0.
        -13    1    5    5    0    0 -0.40360703588E+02 -0.22835861206E+02  0.18486631572E+03  0.19059385520E+03  0.00000000000E+00 0.  1.
         14    1    5    5    0    0  0.23800470226E+02  0.10314673293E+02  0.28440267823E+02  0.38492904566E+02  0.00000000000E+00 0. -1.
         13    1    3    3    0    0  0.73142834840E+00  0.15197854401E+02 -0.73282153864E+01  0.16888235745E+02  0.00000000000E+00 0. -1.
        -14    1    3    3    0    0  0.27432806452E+02 -0.90859111103E+00 -0.33288960841E+03  0.33401927458E+03  0.00000000000E+00 0.  1.
          5    1    4    4  501    0 -0.19492711358E+02 -0.61695872843E+02  0.26506095981E+02  0.70045642592E+02  0.41800000000E+01 0. -1.
         -5    1    4    4    0  501  0.78887099191E+01  0.59927797467E+02  0.17279588151E+02  0.63004993612E+02  0.41800000000E+01 0. -1.
</event>
<event>
11    1  0.6763327E-009  0.1458999E+03  0.7561462E-02  0.1101143E+00
         22   -1    0    0    0    0  0.00000000000E+00  0.00000000000E+00  0.32965721061E+03  0.32965721061E+03  0.00000000000E+00 0.  1.
         22   -1    0    0    0    0 -0.00000000000E+00 -0.00000000000E+00 -0.16008820339E+04  0.16008820339E+04  0.00000000000E+00 0. -1.
         24    2    1    2    0    0 -0.38280218610E+02 -0.34761547252E+02 -0.14133076333E+04  0.14165424426E+04  0.80500217235E+02 0.  0.
         25    2    1    2    0    0  0.73888027671E+02 -0.32110573061E+02 -0.14369956397E+03  0.20685431806E+03  0.12509442306E+03 0.  0.
        -24    2    1    2    0    0 -0.35607809061E+02  0.66872120313E+02  0.28578237402E+03  0.30714248384E+03  0.83217447330E+02 0.  0.
        -13    1    3    3    0    0 -0.25276773976E+01  0.46471522651E+01 -0.51602219600E+01  0.73900654853E+01  0.00000000000E+00 0.  1.
         14    1    3    3    0    0 -0.35752541213E+02 -0.39408699517E+02 -0.14081474113E+04  0.14091523771E+04  0.00000000000E+00 0. -1.
         13    1    5    5    0    0  0.19149078722E+02  0.41845646735E+02  0.75575440846E+02  0.88483855169E+02  0.00000000000E+00 0. -1.
        -14    1    5    5    0    0 -0.54756887783E+02  0.25026473577E+02  0.21020693317E+03  0.21865862867E+03  0.00000000000E+00 0.  1.
          5    1    4    4  501    0  0.83689361982E+02 -0.67821215769E+02 -0.12530603412E+03  0.16529579911E+03  0.41800000000E+01 0.  1.
         -5    1    4    4    0  501 -0.98013343106E+01  0.35710642708E+02 -0.18393529851E+02  0.41558518949E+02  0.41800000000E+01 0.  1.
</event>
<event>
11    1  0.6763327E-009  0.1425875E+03  0.7561462E-02  0.1104703E+00
         22   -1    0    0    0    0  0.00000000000E+00  0.00000000000E+00  0.16126134162E+03  0.16126134162E+03  0.00000000000E+00 0. -1.
         22   -1    0    0    0    0 -0.00000000000E+00 -0.00000000000E+00 -0.49240394578E+03  0.49240394578E+03  0.00000000000E+00 0. -1.
        -24    2    1    2    0    0 -0.48803234098E+02 -0.62202757241E+02 -0.30081502823E+03  0.32136230060E+03  0.80827646080E+02 0.  0.
         25    2    1    2    0    0  0.95197371843E+01  0.43381510043E+02 -0.13767539122E+03  0.19124246700E+03  0.12508631831E+03 0.  0.
         24    2    1    2    0    0  0.39283496913E+02  0.18821247198E+02  0.10734781529E+03  0.14106051979E+03  0.80480334999E+02 0.  0.
        -13    1    5    5    0    0  0.36207107212E+02  0.22422073727E+02  0.10193112482E+02  0.43790450386E+02  0.00000000000E+00 0.  1.
         14    1    5    5    0    0  0.30763897009E+01 -0.36008265291E+01  0.97154702806E+02  0.97270069408E+02  0.00000000000E+00 0. -1.
         11    1    3    3    0    0 -0.47324135924E+02 -0.71188434055E+02 -0.30031251247E+03  0.31224184878E+03  0.00000000000E+00 0. -1.
        -12    1    3    3    0    0 -0.14790981736E+01  0.89856768142E+01 -0.50251575594E+00  0.91204518146E+01  0.00000000000E+00 0.  1.
          5    1    4    4  501    0 -0.51108789893E+02  0.44815226881E+02 -0.49706726471E+02  0.84313367986E+02  0.41800000000E+01 0.  1.
         -5    1    4    4    0  501  0.60628527078E+02 -0.14337168375E+01 -0.87968664745E+02  0.10692909902E+03  0.41800000000E+01 0.  1.
</event>
<event>
11    1  0.6763327E-009  0.2013358E+03  0.7561462E-02  0.1053583E+00
         22   -1    0    0    0    0  0.00000000000E+00  0.00000000000E+00  0.85141230140E+03  0.85141230140E+03  0.00000000000E+00 0. -1.
         22   -1    0    0    0    0 -0.00000000000E+00 -0.00000000000E+00 -0.54226616012E+03  0.54226616012E+03  0.00000000000E+00 0. -1.
         24    2    1    2    0    0 -0.94484537807E+01 -0.10898584062E+00 -0.31376504871E+03  0.32280409930E+03  0.75264171949E+02 0.  0.
         25    2    1    2    0    0 -0.14675624769E+03  0.24975448304E+02 -0.17004804662E+03  0.25831018093E+03  0.12508653868E+03 0.  0.
        -24    2    1    2    0    0  0.15620470147E+03 -0.24866462463E+02  0.79295923661E+03  0.81256418128E+03  0.80361359203E+02 0.  0.
        -13    1    3    3    0    0 -0.15440387581E+02 -0.27117451192E+02 -0.60891779410E+02  0.68422003241E+02  0.00000000000E+00 0.  1.
         14    1    3    3    0    0  0.59919338008E+01  0.27008465351E+02 -0.25287326930E+03  0.25438209606E+03  0.00000000000E+00 0. -1.
         11    1    5    5    0    0  0.75874831863E+02 -0.52180908134E+02  0.38269317900E+03  0.39361644597E+03  0.00000000000E+00 0. -1.
        -12    1    5    5    0    0  0.80329869608E+02  0.27314445670E+02  0.41026605761E+03  0.41894773531E+03  0.00000000000E+00 0.  1.
          5    1    4    4  501    0 -0.39741575158E+02  0.65115116518E+02 -0.44233649698E+02  0.88280571820E+02  0.41800000000E+01 0. -1.
         -5    1    4    4    0  501 -0.10701467253E+03 -0.40139668214E+02 -0.12581439693E+03  0.17002960911E+03  0.41800000000E+01 0. -1.
</event>
<event>
11    1  0.6763327E-009  0.2252237E+03  0.7561462E-02  0.1037994E+00
         22   -1    0    0    0    0  0.00000000000E+00  0.00000000000E+00  0.67736549702E+03  0.67736549702E+03  0.00000000000E+00 0.  1.
         22   -1    0    0    0    0 -0.00000000000E+00 -0.00000000000E+00 -0.45307938638E+03  0.45307938638E+03  0.00000000000E+00 0. -1.
         24    2    1    2    0    0  0.31585195041E+03  0.22047655717E+03 -0.84089248015E+02  0.40193637638E+03  0.78163176641E+02 0.  0.
         25    2    1    2    0    0 -0.16900297652E+03  0.54566438677E+02  0.34225412003E+03  0.40536951344E+03  0.12508819869E+03 0.  0.
        -24    2    1    2    0    0 -0.14684897389E+03 -0.27504299585E+03 -0.33878761367E+02  0.32313899358E+03  0.77831664496E+02 0.  0.
        -13    1    3    3    0    0  0.17887979231E+02  0.86206531814E+01 -0.24455714260E+02  0.31502022509E+02  0.00000000000E+00 0.  1.
         14    1    3    3    0    0  0.29796397118E+03  0.21185590399E+03 -0.59633533755E+02  0.37043435387E+03  0.00000000000E+00 0. -1.
         13    1    5    5    0    0 -0.35205176284E+02 -0.12058107799E+03 -0.41804241426E+02  0.13238880394E+03  0.00000000000E+00 0. -1.
        -14    1    5    5    0    0 -0.11164379761E+03 -0.15446191786E+03  0.79254800594E+01  0.19075018964E+03  0.00000000000E+00 0.  1.
          5    1    4    4  501    0 -0.16400066508E+03  0.35328101111E+02  0.34615252695E+03  0.38468602417E+03  0.41800000000E+01 0. -1.
         -5    1    4    4    0  501 -0.50023114430E+01  0.19238337566E+02 -0.38984069266E+01  0.20683489276E+02  0.41800000000E+01 0. -1.
</event>
<event>
11    1  0.6763327E-009  0.2335976E+03  0.7561462E-02  0.1033019E+00
         22   -1    0    0    0    0  0.00000000000E+00  0.00000000000E+00  0.17436980508E+04  0.17436980508E+04  0.00000000000E+00 0.  1.
         22   -1    0    0    0    0 -0.00000000000E+00 -0.00000000000E+00 -0.23888368111E+03  0.23888368111E+03  0.00000000000E+00 0.  1.
         24    2    1    2    0    0  0.16103526955E+03 -0.11942467825E+03 -0.16720940657E+03  0.27269270007E+03  0.78789029763E+02 0.  0.
         25    2    1    2    0    0 -0.14809066743E+03  0.66415252257E+02  0.61780271444E+03  0.65089906592E+03  0.12509024155E+03 0.  0.
        -24    2    1    2    0    0 -0.12944602115E+02  0.53009425993E+02  0.10542210618E+04  0.10589899659E+04  0.84262321163E+02 0.  0.
        -11    1    3    3    0    0  0.60275099883E+02 -0.58444179980E+02 -0.11853172240E+03  0.14525349928E+03  0.00000000000E+00 0.  1.
         12    1    3    3    0    0  0.10076016966E+03 -0.60980498270E+02 -0.48677684175E+02  0.12743920078E+03  0.00000000000E+00 0. -1.
         11    1    5    5    0    0  0.24113389971E+02  0.35260465442E+02  0.82570249383E+03  0.82680672730E+03  0.00000000000E+00 0. -1.
        -12    1    5    5    0    0 -0.37057992087E+02  0.17748960550E+02  0.22851856801E+03  0.23218323863E+03  0.00000000000E+00 0.  1.
          5    1    4    4  501    0 -0.15347783695E+02 -0.33096659904E+02  0.78985463395E+02  0.87104071023E+02  0.41800000000E+01 0. -1.
         -5    1    4    4    0  501 -0.13274288374E+03  0.99511912161E+02  0.53881725105E+03  0.56379499490E+03  0.41800000000E+01 0. -1.
</event>
<event>
11    1  0.6763327E-009  0.1390174E+03  0.7561462E-02  0.1108661E+00
         22   -1    0    0    0    0  0.00000000000E+00  0.00000000000E+00  0.11772005823E+03  0.11772005823E+03  0.00000000000E+00 0.  1.
         22   -1    0    0    0    0 -0.00000000000E+00 -0.00000000000E+00 -0.98015456705E+03  0.98015456705E+03  0.00000000000E+00 0. -1.
        -24    2    1    2    0    0  0.62834744599E+02 -0.25319027724E+02 -0.71556989054E+03  0.72332449258E+03  0.81048103129E+02 0.  0.
         25    2    1    2    0    0 -0.10539964936E+02  0.40689572197E+02 -0.21548185582E+03  0.25267917813E+03  0.12509038621E+03 0.  0.
         24    2    1    2    0    0 -0.52294779662E+02 -0.15370544473E+02  0.68617237542E+02  0.12187095457E+03  0.84694785339E+02 0.  0.
        -11    1    5    5    0    0  0.98666460015E+01 -0.16345376348E+01  0.56108283937E+02  0.56992648148E+02  0.00000000000E+00 0.  1.
         12    1    5    5    0    0 -0.62161425664E+02 -0.13736006838E+02  0.12508953605E+02  0.64878306426E+02  0.00000000000E+00 0. -1.
         13    1    3    3    0    0  0.44485413833E+01 -0.35098637957E+02 -0.44245687459E+03  0.44386911334E+03  0.00000000000E+00 0. -1.
        -14    1    3    3    0    0  0.58386203215E+02  0.97796102330E+01 -0.27311301595E+03  0.27945537924E+03  0.00000000000E+00 0.  1.
          5    1    4    4  501    0 -0.35631126171E+02 -0.25021683312E+02 -0.26866210154E+02  0.51331544259E+02  0.41800000000E+01 0.  1.
         -5    1    4    4    0  501  0.25091161234E+02  0.65711255510E+02 -0.18861564567E+03  0.20134763387E+03  0.41800000000E+01 0.  1.
</event>
<event>
11    1  0.6763327E-009  0.1340824E+03  0.7561462E-02  0.1114352E+00
         22   -1    0    0    0    0  0.00000000000E+00  0.00000000000E+00  0.66410772965E+03  0.66410772965E+03  0.00000000000E+00 0.  1.
         22   -1    0    0    0    0 -0.00000000000E+00 -0.00000000000E+00 -0.55116552655E+03  0.55116552655E+03  0.00000000000E+00 0. -1.
         24    2    1    2    0    0  0.33975991522E+01 -0.31167565639E+01 -0.28360450854E+03  0.29487613721E+03  0.80617375186E+02 0.  0.
         25    2    1    2    0    0 -0.50951109787E+02  0.11150735302E+02 -0.24067231544E+03  0.27620782622E+03  0.12508894978E+03 0.  0.
        -24    2    1    2    0    0  0.47553510635E+02 -0.80339787386E+01  0.63721902708E+03  0.64418929277E+03  0.81276535743E+02 0.  0.
        -11    1    3    3    0    0 -0.23689927574E+02 -0.32004544874E+02 -0.16882434464E+03  0.17345651589E+03  0.00000000000E+00 0.  1.
         12    1    3    3    0    0  0.27087526726E+02  0.28887788310E+02 -0.11478016389E+03  0.12141962132E+03  0.00000000000E+00 0. -1.
         11    1    5    5    0    0 -0.23005600916E+02  0.25910327877E+01  0.15416668516E+03  0.15589527875E+03  0.00000000000E+00 0. -1.
        -12    1    5    5    0    0  0.70559111551E+02 -0.10625011526E+02  0.48305234192E+03  0.48829401402E+03  0.00000000000E+00 0.  1.
          5    1    4    4  501    0 -0.80821632385E+02  0.19246986525E+02 -0.90918492678E+02  0.12323241239E+03  0.41800000000E+01 0.  1.
         -5    1    4    4    0  501  0.29870522597E+02 -0.80962512224E+01 -0.14975382276E+03  0.15297541383E+03  0.41800000000E+01 0.  1.
</event>
<event>
11    1  0.6763327E-009  0.1879015E+03  0.7561462E-02  0.1063425E+00
         22   -1    0    0    0    0  0.00000000000E+00  0.00000000000E+00  0.45078026044E+04  0.45078026044E+04  0.00000000000E+00 0. -1.
         22   -1    0    0    0    0 -0.00000000000E+00 -0.00000000000E+00 -0.11619317787E+04  0.11619317787E+04  0.00000000000E+00 0. -1.
        -24    2    1    2    0    0 -0.30955043730E+02 -0.13631204830E+03 -0.11326250824E+04  0.11440114359E+04  0.79896176274E+02 0.  0.
         25    2    1    2    0    0  0.54398324796E+02  0.17205872369E+03  0.49921359560E+03  0.54536632181E+03  0.12508728467E+03 0.  0.
         24    2    1    2    0    0 -0.23443281066E+02 -0.35746675390E+02  0.39792823125E+04  0.39803566254E+04  0.81998356786E+02 0.  0.
        -11    1    5    5    0    0  0.22505220867E+02 -0.38973739368E+02  0.23129362757E+04  0.23133740841E+04  0.00000000000E+00 0.  1.
         12    1    5    5    0    0 -0.45948501934E+02  0.32270639786E+01  0.16663460368E+04  0.16669825413E+04  0.00000000000E+00 0. -1.
         11    1    3    3    0    0  0.13983687974E+02 -0.97199640557E+02 -0.58879327757E+03  0.59692615738E+03  0.00000000000E+00 0. -1.
        -12    1    3    3    0    0 -0.44938731704E+02 -0.39112407747E+02 -0.54383180483E+03  0.54708527854E+03  0.00000000000E+00 0.  1.
          5    1    4    4  501    0  0.32795234117E+02  0.14980791994E+03  0.24386138461E+03  0.28810377915E+03  0.41800000000E+01 0.  1.
         -5    1    4    4    0  501  0.21603090678E+02  0.22250803757E+02  0.25535221099E+03  0.25726254265E+03  0.41800000000E+01 0.  1.
</event>
<event>
11    1  0.6763327E-009  0.1985516E+03  0.7561462E-02  0.1055553E+00
         22   -1    0    0    0    0  0.00000000000E+00  0.00000000000E+00  0.74686096227E+02  0.74686096227E+02  0.00000000000E+00 0. -1.
         22   -1    0    0    0    0 -0.00000000000E+00 -0.00000000000E+00 -0.14818680357E+04  0.14818680357E+04  0.00000000000E+00 0.  1.
         24    2    1    2    0    0  0.29190021094E+01 -0.81075345417E+02 -0.70323485797E+03  0.71237142585E+03  0.79699753416E+02 0.  0.
         25    2    1    2    0    0  0.11212067831E+03  0.16910341683E+03 -0.60590195087E+03  0.65110152067E+03  0.12509597939E+03 0.  0.
        -24    2    1    2    0    0 -0.11503968042E+03 -0.88028071410E+02 -0.98045130638E+02  0.19308118542E+03  0.81758345702E+02 0.  0.
        -11    1    3    3    0    0  0.81921924751E+01 -0.21536145414E+02 -0.49996360200E+03  0.50049427659E+03  0.00000000000E+00 0.  1.
         12    1    3    3    0    0 -0.52731903656E+01 -0.59539200003E+02 -0.20327125597E+03  0.21187714926E+03  0.00000000000E+00 0. -1.
         11    1    5    5    0    0 -0.12078265527E+03 -0.80129625468E+02 -0.10673872514E+03  0.18000656137E+03  0.00000000000E+00 0. -1.
        -12    1    5    5    0    0  0.57429748492E+01 -0.78984459421E+01  0.86935945061E+01  0.13074624043E+02  0.00000000000E+00 0.  1.
          5    1    4    4  501    0  0.11943288095E+03  0.15542257657E+03 -0.60388062159E+03  0.63490918082E+03  0.41800000000E+01 0.  1.
         -5    1    4    4    0  501 -0.73122026332E+01  0.13680840259E+02 -0.20213292761E+01  0.16192339843E+02  0.41800000000E+01 0.  1.
</event>
<event>
11    1  0.6763327E-009  0.1879655E+03  0.7561462E-02  0.1063376E+00
         22   -1    0    0    0    0  0.00000000000E+00  0.00000000000E+00  0.48378724998E+03  0.48378724998E+03  0.00000000000E+00 0.  1.
         22   -1    0    0    0    0 -0.00000000000E+00 -0.00000000000E+00 -0.50581508035E+03  0.50581508035E+03  0.00000000000E+00 0. -1.
         24    2    1    2    0    0  0.34367927007E+02  0.13337975452E+03 -0.41995216601E+03  0.44911776125E+03  0.79847532263E+02 0.  0.
         25    2    1    2    0    0 -0.32263575567E+02 -0.16795432565E+03  0.10840455012E+03  0.23800973521E+03  0.12508994265E+03 0.  0.
        -24    2    1    2    0    0 -0.21043514407E+01  0.34574571131E+02  0.28951978552E+03  0.30247483387E+03  0.80433137783E+02 0.  0.
        -11    1    3    3    0    0 -0.19491880478E+02  0.46616880180E+02 -0.20508055363E+03  0.21121340014E+03  0.00000000000E+00 0.  1.
         12    1    3    3    0    0  0.53859807485E+02  0.86762874340E+02 -0.21487161238E+03  0.23790436110E+03  0.00000000000E+00 0. -1.
         13    1    5    5    0    0 -0.11939403262E+02 -0.10073189804E+02  0.85461999212E+01  0.17806067398E+02  0.00000000000E+00 0. -1.
        -14    1    5    5    0    0  0.98350518215E+01  0.44647760936E+02  0.28097358559E+03  0.28466876647E+03  0.00000000000E+00 0.  1.
          5    1    4    4  501    0  0.38122423951E+02 -0.53803879593E+02  0.74583728508E+02  0.99641264671E+02  0.41800000000E+01 0. -1.
         -5    1    4    4    0  501 -0.70385999518E+02 -0.11415044606E+03  0.33820821617E+02  0.13836847054E+03  0.41800000000E+01 0. -1.
</event>
<event>
11    1  0.6763327E-009  0.1369438E+03  0.7561462E-02  0.1111020E+00
         22   -1    0    0    0    0  0.00000000000E+00  0.00000000000E+00  0.18079379736E+03  0.18079379736E+03  0.00000000000E+00 0. -1.
         22   -1    0    0    0    0 -0.00000000000E+00 -0.00000000000E+00 -0.23422973739E+04  0.23422973739E+04  0.00000000000E+00 0.  1.
         24    2    1    2    0    0 -0.32117472254E+02 -0.45128650611E+02 -0.22519789900E+04  0.22541335850E+04  0.81490615780E+02 0.  0.
         25    2    1    2    0    0  0.44807661732E+02  0.64317235363E+02  0.29338286205E+01  0.14765665803E+03  0.12509775376E+03 0.  0.
        -24    2    1    2    0    0 -0.12690189478E+02 -0.19188584752E+02  0.87541584878E+02  0.12130092820E+03  0.80753596855E+02 0.  0.
        -13    1    3    3    0    0  0.49064142540E+01 -0.51266903706E+02 -0.17482912399E+04  0.17490496356E+04  0.00000000000E+00 0.  1.
         14    1    3    3    0    0 -0.37023886508E+02  0.61382530944E+01 -0.50368775013E+03  0.50508394941E+03  0.00000000000E+00 0. -1.
         13    1    5    5    0    0 -0.32409996856E+02 -0.42374743913E+02  0.51864501024E+02  0.74403987019E+02  0.00000000000E+00 0. -1.
        -14    1    5    5    0    0  0.19719807378E+02  0.23186159161E+02  0.35677083853E+02  0.46896941179E+02  0.00000000000E+00 0.  1.
          5    1    4    4  501    0 -0.35214793120E+02  0.37237826761E+02 -0.26815819548E+02  0.57993947739E+02  0.41800000000E+01 0. -1.
         -5    1    4    4    0  501  0.80022454852E+02  0.27079408602E+02  0.29749648168E+02  0.89662710292E+02  0.41800000000E+01 0. -1.
</event>
<event>
11    1  0.6763327E-009  0.2011769E+03  0.7561462E-02  0.1053695E+00
         22   -1    0    0    0    0  0.00000000000E+00  0.00000000000E+00  0.61469554910E+03  0.61469554910E+03  0.00000000000E+00 0. -1.
         22   -1    0    0    0    0 -0.00000000000E+00 -0.00000000000E+00 -0.30363526744E+03  0.30363526744E+03  0.00000000000E+00 0. -1.
        -24    2    1    2    0    0  0.15879909169E+03  0.59222998061E+02 -0.81628551027E+02  0.21840055734E+03  0.11095525262E+03 0.  0.
         25    2    1    2    0    0 -0.13864112062E+03 -0.48066571628E+02 -0.87308396015E+02  0.21166465637E+03  0.12508962829E+03 0.  0.
         24    2    1    2    0    0 -0.20157971070E+02 -0.11156426433E+02  0.47999722870E+03  0.48826560283E+03  0.86458948036E+02 0.  0.
        -11    1    5    5    0    0 -0.19580878196E+01 -0.23801690796E+02  0.33084119232E+02  0.40803352044E+02  0.00000000000E+00 0.  1.
         12    1    5    5    0    0 -0.18199883250E+02  0.12645264363E+02  0.44691310947E+03  0.44746225079E+03  0.00000000000E+00 0. -1.
         13    1    3    3    0    0  0.16516580712E+03  0.73210449930E+02 -0.88953547107E+02  0.20137588575E+03  0.00000000000E+00 0. -1.
        -14    1    3    3    0    0 -0.63667154272E+01 -0.13987451869E+02  0.73249960798E+01  0.17024671588E+02  0.00000000000E+00 0.  1.
          5    1    4    4  501    0 -0.99080022547E+02 -0.52441735201E+02 -0.11680333755E+03  0.16194899975E+03  0.41800000000E+01 0.  1.
         -5    1    4    4    0  501 -0.39561098074E+02  0.43751635724E+01  0.29494941531E+02  0.49715656618E+02  0.41800000000E+01 0.  1.
</event>
<event>
11    1  0.6763327E-009  0.1588334E+03  0.7561462E-02  0.1088180E+00
         22   -1    0    0    0    0  0.00000000000E+00  0.00000000000E+00  0.25892401495E+04  0.25892401495E+04  0.00000000000E+00 0. -1.
         22   -1    0    0    0    0 -0.00000000000E+00 -0.00000000000E+00 -0.15901956931E+03  0.15901956931E+03  0.00000000000E+00 0.  1.
         24    2    1    2    0    0  0.57805851074E+02 -0.81848296151E+02 -0.10678385709E+03  0.16708893527E+03  0.80469001206E+02 0.  0.
         25    2    1    2    0    0  0.26428923760E+02  0.17721700188E+02  0.18565141315E+03  0.22611187040E+03  0.12509030363E+03 0.  0.
        -24    2    1    2    0    0 -0.84234774835E+02  0.64126595963E+02  0.23513530242E+04  0.23550589132E+04  0.78953927596E+02 0.  0.
        -13    1    3    3    0    0  0.72700426174E+02 -0.84039189395E+02 -0.10311459084E+03  0.15159339090E+03  0.00000000000E+00 0.  1.
         14    1    3    3    0    0 -0.14894575099E+02  0.21908932438E+01 -0.36692662405E+01  0.15495544371E+02  0.00000000000E+00 0. -1.
         13    1    5    5    0    0 -0.49601911254E+02  0.79517552775E+02  0.17587014940E+04  0.17611968476E+04  0.00000000000E+00 0. -1.
        -14    1    5    5    0    0 -0.34632863581E+02 -0.15390956812E+02  0.59265153013E+03  0.59386206559E+03  0.00000000000E+00 0.  1.
          5    1    4    4  501    0  0.67630966054E+02  0.40935904052E+02  0.13636320300E+03  0.15767717445E+03  0.41800000000E+01 0. -1.
         -5    1    4    4    0  501 -0.41202042293E+02 -0.23214203864E+02  0.49288210155E+02  0.68434695955E+02  0.41800000000E+01 0. -1.
</event>
<event>
11    1  0.6763327E-009  0.1293005E+03  0.7561462E-02  0.1120131E+00
         22   -1    0    0    0    0  0.00000000000E+00  0.00000000000E+00  0.18771476415E+03  0.18771476415E+03  0.00000000000E+00 0. -1.
         22   -1    0    0    0    0 -0.00000000000E+00 -0.00000000000E+00 -0.19200788870E+04  0.19200788870E+04  0.00000000000E+00 0.  1.
         24    2    1    2    0    0 -0.44967629033E+02 -0.49205944695E+02 -0.17754865629E+04  0.17779156615E+04  0.64716702101E+02 0.  0.
         25    2    1    2    0    0  0.47058936974E+02  0.11412601780E+02 -0.90393105368E+02  0.16175015326E+03  0.12508959810E+03 0.  0.
        -24    2    1    2    0    0 -0.20913079403E+01  0.37793342915E+02  0.13351554543E+03  0.16812783643E+03  0.94909736982E+02 0.  0.
        -13    1    3    3    0    0 -0.73596942800E+01 -0.30529119401E+02 -0.13493314618E+04  0.13496968497E+04  0.00000000000E+00 0.  1.
         14    1    3    3    0    0 -0.37607934753E+02 -0.18676825293E+02 -0.42615510116E+03  0.42821881183E+03  0.00000000000E+00 0. -1.
         11    1    5    5    0    0 -0.25462367105E+01  0.67202308539E+02  0.64834480467E+02  0.93413829018E+02  0.00000000000E+00 0. -1.
        -12    1    5    5    0    0  0.45492877016E+00 -0.29408965625E+02  0.68681064963E+02  0.74714007413E+02  0.00000000000E+00 0.  1.
          5    1    4    4  501    0  0.69147324474E+02 -0.27454334856E+02 -0.18155232588E+02  0.76695357451E+02  0.41800000000E+01 0.  1.
         -5    1    4    4    0  501 -0.22088387500E+02  0.38866936635E+02 -0.72237872780E+02  0.85054795806E+02  0.41800000000E+01 0.  1.
</event>
<event>
11    1  0.6763327E-009  0.1656836E+03  0.7561462E-02  0.1081850E+00
         22   -1    0    0    0    0  0.00000000000E+00  0.00000000000E+00  0.46690884570E+03  0.46690884570E+03  0.00000000000E+00 0.  1.
         22   -1    0    0    0    0 -0.00000000000E+00 -0.00000000000E+00 -0.25466112418E+03  0.25466112418E+03  0.00000000000E+00 0. -1.
        -24    2    1    2    0    0 -0.32690235153E+02  0.96323361252E+02 -0.13791211309E+03  0.18959484685E+03  0.81114817487E+02 0.  0.
         25    2    1    2    0    0 -0.54715255382E+01 -0.14552719819E+03  0.28512558694E+02  0.19409194524E+03  0.12510241484E+03 0.  0.
         24    2    1    2    0    0  0.38161760692E+02  0.49203836940E+02  0.32164727591E+03  0.33788317779E+03  0.82648255788E+02 0.  0.
        -13    1    5    5    0    0  0.50016200657E+02  0.54781842350E+02  0.31414832735E+03  0.32278761153E+03  0.00000000000E+00 0.  1.
         14    1    5    5    0    0 -0.11854439965E+02 -0.55780054097E+01  0.74989485584E+01  0.15095566261E+02  0.00000000000E+00 0. -1.
         13    1    3    3    0    0  0.13253511403E+02  0.72729882208E+02 -0.55932325048E+02  0.92702299409E+02  0.00000000000E+00 0. -1.
        -14    1    3    3    0    0 -0.45943746556E+02  0.23593479044E+02 -0.81979788045E+02  0.96892547437E+02  0.00000000000E+00 0.  1.
          5    1    4    4  501    0  0.17450025230E+02 -0.95091553060E+02  0.74375902160E+02  0.12204980158E+03  0.41800000000E+01 0. -1.
         -5    1    4    4    0  501 -0.22921550768E+02 -0.50435645132E+02 -0.45863343466E+02  0.72042143662E+02  0.41800000000E+01 0. -1.
</event>
<event>
11    1  0.6763327E-009  0.1411270E+03  0.7561462E-02  0.1106306E+00
         22   -1    0    0    0    0  0.00000000000E+00  0.00000000000E+00  0.72941815639E+03  0.72941815639E+03  0.00000000000E+00 0.  1.
         22   -1    0    0    0    0 -0.00000000000E+00 -0.00000000000E+00 -0.10501255892E+04  0.10501255892E+04  0.00000000000E+00 0.  1.
        -24    2    1    2    0    0  0.56899955756E+02 -0.33556763769E+02 -0.10112828166E+04  0.10166489489E+04  0.80737159129E+02 0.  0.
         25    2    1    2    0    0 -0.26369015430E+02  0.19201390133E+02  0.93648961030E+02  0.15962115444E+03  0.12507904175E+03 0.  0.
         24    2    1    2    0    0 -0.30530940325E+02  0.14355373636E+02  0.59692642271E+03  0.60327364227E+03  0.80496697248E+02 0.  0.
        -11    1    5    5    0    0 -0.33369842423E+01  0.39616882967E+02  0.44919086426E+03  0.45094685431E+03  0.00000000000E+00 0.  1.
         12    1    5    5    0    0 -0.27193956083E+02 -0.25261509331E+02  0.14773555845E+03  0.15232678796E+03  0.00000000000E+00 0. -1.
         11    1    3    3    0    0  0.26524063871E+02 -0.13198427187E+02 -0.92285104608E+02  0.96924016513E+02  0.00000000000E+00 0. -1.
        -12    1    3    3    0    0  0.30375891884E+02 -0.20358336582E+02 -0.91899771197E+03  0.91972493240E+03  0.00000000000E+00 0.  1.
          5    1    4    4  501    0 -0.18225740623E+02  0.31934308785E+02  0.12185429629E+03  0.12734959608E+03  0.41800000000E+01 0.  1.
         -5    1    4    4    0  501 -0.81432748069E+01 -0.12732918653E+02 -0.28205335257E+02  0.32271558359E+02  0.41800000000E+01 0.  1.
</event>
<event>
11    1  0.6763327E-009  0.1361548E+03  0.7561462E-02  0.1111930E+00
         22   -1    0    0    0    0  0.00000000000E+00  0.00000000000E+00  0.10523186588E+04  0.10523186588E+04  0.00000000000E+00 0.  1.
         22   -1    0    0    0    0 -0.00000000000E+00 -0.00000000000E+00 -0.24851241385E+03  0.24851241385E+03  0.00000000000E+00 0.  1.
         24    2    1    2    0    0 -0.72244734541E+01  0.61368195848E+01 -0.20515355715E+03  0.22049177520E+03  0.80242054725E+02 0.  0.
         25    2    1    2    0    0 -0.63456253667E+01 -0.57857588006E+02  0.11075111557E+03  0.17691810823E+03  0.12508573047E+03 0.  0.
        -24    2    1    2    0    0  0.13570098821E+02  0.51720768421E+02  0.89820868654E+03  0.90342118924E+03  0.80819645592E+02 0.  0.
        -11    1    3    3    0    0  0.10956486570E+02  0.27351800733E+02 -0.18152382342E+03  0.18389960324E+03  0.00000000000E+00 0.  1.
         12    1    3    3    0    0 -0.18180960024E+02 -0.21214981148E+02 -0.23629733726E+02  0.36592171956E+02  0.00000000000E+00 0. -1.
         13    1    5    5    0    0  0.34091108528E+02  0.21491853824E+02  0.18788431615E+03  0.19215779900E+03  0.00000000000E+00 0. -1.
        -14    1    5    5    0    0 -0.20521009707E+02  0.30228914597E+02  0.71032437040E+03  0.71126339024E+03  0.00000000000E+00 0.  1.
          5    1    4    4  501    0 -0.64088560985E+02 -0.45380010546E+02  0.66524937699E+02  0.10300353752E+03  0.41800000000E+01 0. -1.
         -5    1    4    4    0  501  0.57742935618E+02 -0.12477577460E+02  0.44226177875E+02  0.73914570705E+02  0.41800000000E+01 0. -1.
</event>
<event>
11    1  0.6763327E-009  0.1279378E+03  0.7561462E-02  0.1121829E+00
         22   -1    0    0    0    0  0.00000000000E+00  0.00000000000E+00  0.27151786787E+03  0.27151786787E+03  0.00000000000E+00 0.  1.
         22   -1    0    0    0    0 -0.00000000000E+00 -0.00000000000E+00 -0.11829669706E+04  0.11829669706E+04  0.00000000000E+00 0. -1.
        -24    2    1    2    0    0 -0.11167638082E+02 -0.12704744600E+02 -0.98213711995E+03  0.98558943127E+03  0.80666461220E+02 0.  0.
         25    2    1    2    0    0  0.31905254098E+02  0.28881711241E+02 -0.16924142108E+03  0.21480138786E+03  0.12507949126E+03 0.  0.
         24    2    1    2    0    0 -0.20737616017E+02 -0.16176966641E+02  0.23992943832E+03  0.25409401934E+03  0.79409648808E+02 0.  0.
        -13    1    5    5    0    0 -0.38045220819E+02  0.17806581952E+02  0.16165095628E+03  0.16701959422E+03  0.00000000000E+00 0.  1.
         14    1    5    5    0    0  0.17307604802E+02 -0.33983548594E+02  0.78278482038E+02  0.87074425116E+02  0.00000000000E+00 0. -1.
         13    1    3    3    0    0  0.44860677068E+01 -0.33945551585E+02 -0.85781590732E+03  0.85849901347E+03  0.00000000000E+00 0. -1.
        -14    1    3    3    0    0 -0.15653705788E+02  0.21240806985E+02 -0.12432121263E+03  0.12709041780E+03  0.00000000000E+00 0.  1.
          5    1    4    4  501    0  0.59177115505E+02 -0.16778001317E+02 -0.14220336708E+03  0.15499258801E+03  0.41800000000E+01 0. -1.
         -5    1    4    4    0  501 -0.27271861406E+02  0.45659712559E+02 -0.27038054000E+02  0.59808799851E+02  0.41800000000E+01 0. -1.
</event>
<event>
11    1  0.6763327E-009  0.1936396E+03  0.7561462E-02  0.1059115E+00
         22   -1    0    0    0    0  0.00000000000E+00  0.00000000000E+00  0.83846164970E+03  0.83846164970E+03  0.00000000000E+00 0.  1.
         22   -1    0    0    0    0 -0.00000000000E+00 -0.00000000000E+00 -0.39017495794E+03  0.39017495794E+03  0.00000000000E+00 0. -1.
        -24    2    1    2    0    0 -0.81404409129E+02  0.44328650343E+02 -0.33255144184E+03  0.35522148847E+03  0.83666823408E+02 0.  0.
         25    2    1    2    0    0  0.19919777776E+03  0.51410759819E+01  0.40521436523E+03  0.46856415386E+03  0.12508996431E+03 0.  0.
         24    2    1    2    0    0 -0.11779336863E+03 -0.49469726324E+02  0.37562376837E+03  0.40485096530E+03  0.80551581140E+02 0.  0.
        -13    1    5    5    0    0 -0.12258912954E+03 -0.29811226210E+02  0.28001112604E+03  0.30712055385E+03  0.00000000000E+00 0.  1.
         14    1    5    5    0    0  0.47957609093E+01 -0.19658500114E+02  0.95612642330E+02  0.97730411453E+02  0.00000000000E+00 0. -1.
         11    1    3    3    0    0 -0.17509445062E+02  0.50890663432E+02 -0.21085095875E+03  0.21761104544E+03  0.00000000000E+00 0. -1.
        -12    1    3    3    0    0 -0.63894964067E+02 -0.65620130899E+01 -0.12170048309E+03  0.13761044303E+03  0.00000000000E+00 0.  1.
          5    1    4    4  501    0  0.55239386082E+02  0.40692662359E+02  0.54345217280E+02  0.87625096781E+02  0.41800000000E+01 0. -1.
         -5    1    4    4    0  501  0.14395839167E+03 -0.35551586378E+02  0.35086914795E+03  0.38093905708E+03  0.41800000000E+01 0. -1.
</event>
<event>
11    1  0.6763327E-009  0.1383201E+03  0.7561462E-02  0.1109449E+00
         22   -1    0    0    0    0  0.00000000000E+00  0.00000000000E+00  0.58114223256E+03  0.58114223256E+03  0.00000000000E+00 0. -1.
         22   -1    0    0    0    0 -0.00000000000E+00 -0.00000000000E+00 -0.18859272216E+03  0.18859272216E+03  0.00000000000E+00 0. -1.
        -24    2    1    2    0    0  0.27991057290E+02 -0.10109761903E+02 -0.75682094281E+02  0.11919350663E+03  0.87141299361E+02 0.  0.
         25    2    1    2    0    0  0.21339309315E+02  0.44123171038E+02 -0.34160801694E+02  0.13862593819E+03  0.12509184635E+03 0.  0.
         24    2    1    2    0    0 -0.49330366605E+02 -0.34013409135E+02  0.50239240637E+03  0.51191550989E+03  0.77903544354E+02 0.  0.
        -11    1    5    5    0    0  0.12092908065E+02 -0.85935546275E+01  0.26433442141E+03  0.26475039934E+03  0.00000000000E+00 0.  1.
         12    1    5    5    0    0 -0.61423274671E+02 -0.25419854507E+02  0.23805798496E+03  0.24716511055E+03  0.00000000000E+00 0. -1.
         13    1    3    3    0    0 -0.26230755211E+01 -0.26920512125E+02 -0.79579670822E+02  0.84050690101E+02  0.00000000000E+00 0. -1.
        -14    1    3    3    0    0  0.30614132811E+02  0.16810750222E+02  0.38975765408E+01  0.35142816530E+02  0.00000000000E+00 0.  1.
          5    1    4    4  501    0  0.64852710710E+02  0.55160905678E+02 -0.38099906644E+02  0.93368489802E+02  0.41800000000E+01 0. -1.
         -5    1    4    4    0  501 -0.43513401394E+02 -0.11037734640E+02  0.39391049507E+01  0.45257448389E+02  0.41800000000E+01 0. -1.
</event>
<event>
11    1  0.6763327E-009  0.2072049E+03  0.7561462E-02  0.1049542E+00
         22   -1    0    0    0    0  0.00000000000E+00  0.00000000000E+00  0.12824911298E+04  0.12824911298E+04  0.00000000000E+00 0. -1.
         22   -1    0    0    0    0 -0.00000000000E+00 -0.00000000000E+00 -0.84463692909E+03  0.84463692909E+03  0.00000000000E+00 0.  1.
        -24    2    1    2    0    0  0.31502477300E+02  0.16320121589E+03 -0.80081432351E+03  0.82193176901E+03  0.81493614663E+02 0.  0.
         25    2    1    2    0    0 -0.84271347660E+02 -0.12107981141E+03  0.27739089989E+03  0.33816452509E+03  0.12509018314E+03 0.  0.
         24    2    1    2    0    0  0.52768870361E+02 -0.42121404473E+02  0.96127762432E+03  0.96703176479E+03  0.80851695669E+02 0.  0.
        -11    1    5    5    0    0  0.31121476172E+02 -0.11204211128E+02  0.10874773064E+03  0.11366683573E+03  0.00000000000E+00 0.  1.
         12    1    5    5    0    0  0.21647394188E+02 -0.30917193345E+02  0.85252989368E+03  0.85336492906E+03  0.00000000000E+00 0. -1.
         13    1    3    3    0    0  0.50820739717E+02  0.64035634343E+02 -0.29451196287E+03  0.30564784692E+03  0.00000000000E+00 0. -1.
        -14    1    3    3    0    0 -0.19318262417E+02  0.99165581544E+02 -0.50630236064E+03  0.51628392210E+03  0.00000000000E+00 0.  1.
          5    1    4    4  501    0 -0.11077981533E+03 -0.12197001566E+03  0.22087096070E+03  0.27559083055E+03  0.41800000000E+01 0. -1.
         -5    1    4    4    0  501  0.26508467668E+02  0.89020424709E+00  0.56519939193E+02  0.62573694538E+02  0.41800000000E+01 0. -1.
</event>
<event>
11    1  0.6763327E-009  0.1344397E+03  0.7561462E-02  0.1113931E+00
         22   -1    0    0    0    0  0.00000000000E+00  0.00000000000E+00  0.67460882014E+02  0.67460882014E+02  0.00000000000E+00 0.  1.
         22   -1    0    0    0    0 -0.00000000000E+00 -0.00000000000E+00 -0.22013329689E+04  0.22013329689E+04  0.00000000000E+00 0. -1.
         24    2    1    2    0    0 -0.37172729427E+02  0.99607684445E+01 -0.19428134325E+04  0.19449202349E+04  0.81912502446E+02 0.  0.
         25    2    1    2    0    0  0.54599160098E+02 -0.49860688896E+02 -0.17428504819E+03  0.22690697024E+03  0.12507733024E+03 0.  0.
        -24    2    1    2    0    0 -0.17426430671E+02  0.39899920452E+02 -0.16773606204E+02  0.96966645741E+02  0.85002896323E+02 0.  0.
        -11    1    3    3    0    0 -0.11545910796E+02  0.12370663396E+02 -0.73231457068E+02  0.75161078181E+02  0.00000000000E+00 0.  1.
         12    1    3    3    0    0 -0.25626818631E+02 -0.24098949515E+01 -0.18695819754E+04  0.18697591567E+04  0.00000000000E+00 0. -1.
         13    1    5    5    0    0  0.95145002635E+01  0.54686193519E+02 -0.30470044938E+02  0.63320842662E+02  0.00000000000E+00 0. -1.
        -14    1    5    5    0    0 -0.26940930935E+02 -0.14786273068E+02  0.13696438734E+02  0.33645803079E+02  0.00000000000E+00 0.  1.
          5    1    4    4  501    0  0.51919325186E+02 -0.61488441732E+02 -0.36367415742E+02  0.88411006792E+02  0.41800000000E+01 0.  1.
         -5    1    4    4    0  501  0.26798349126E+01  0.11627752836E+02 -0.13791763245E+03  0.13849596345E+03  0.41800000000E+01 0.  1.
</event>
<event>
11    1  0.6763327E-009  0.1627627E+03  0.7561462E-02  0.1084507E+00
         22   -1    0    0    0    0  0.00000000000E+00  0.00000000000E+00  0.57197534015E+03  0.57197534015E+03  0.00000000000E+00 0. -1.
         22   -1    0    0    0    0 -0.00000000000E+00 -0.00000000000E+00 -0.77609926177E+03  0.77609926177E+03  0.00000000000E+00 0.  1.
         24    2    1    2    0    0  0.87610078054E+02 -0.56203166037E+02 -0.73875022980E+03  0.75056587391E+03  0.82236898023E+02 0.  0.
         25    2    1    2    0    0 -0.11219196348E+03  0.21467301753E+02  0.28692550567E+03  0.33320167449E+03  0.12509687593E+03 0.  0.
        -24    2    1    2    0    0  0.24581885422E+02  0.34735864285E+02  0.24770080251E+03  0.26430705350E+03  0.81802699274E+02 0.  0.
        -13    1    3    3    0    0  0.77901768212E+02 -0.64600845557E+02 -0.43791443794E+03  0.44945634904E+03  0.00000000000E+00 0.  1.
         14    1    3    3    0    0  0.97083098421E+01  0.83976795195E+01 -0.30083579187E+03  0.30110952487E+03  0.00000000000E+00 0. -1.
         13    1    5    5    0    0  0.39097462173E+02  0.14826705778E+02  0.50461469254E+02  0.65534743700E+02  0.00000000000E+00 0. -1.
        -14    1    5    5    0    0 -0.14515576751E+02  0.19909158507E+02  0.19723933326E+03  0.19877230980E+03  0.00000000000E+00 0.  1.
          5    1    4    4  501    0 -0.11735297992E+03 -0.26743478158E+02  0.19512784878E+03  0.22930173416E+03  0.41800000000E+01 0. -1.
         -5    1    4    4    0  501  0.51610164412E+01  0.48210779911E+02  0.91797656890E+02  0.10389994033E+03  0.41800000000E+01 0. -1.
</event>
<event>
11    1  0.6763327E-009  0.1311200E+03  0.7561462E-02  0.1117900E+00
         22   -1    0    0    0    0  0.00000000000E+00  0.00000000000E+00  0.58645932658E+03  0.58645932658E+03  0.00000000000E+00 0. -1.
         22   -1    0    0    0    0 -0.00000000000E+00 -0.00000000000E+00 -0.10843269494E+04  0.10843269494E+04  0.00000000000E+00 0. -1.
        -24    2    1    2    0    0 -0.30926119682E+01  0.24975480901E+02 -0.96533998636E+03  0.96902244213E+03  0.80559699574E+02 0.  0.
         25    2    1    2    0    0  0.25398090465E+02 -0.56504399498E+02 -0.70603136168E+02  0.15642819848E+03  0.12508864169E+03 0.  0.
         24    2    1    2    0    0 -0.22305478497E+02  0.31528918598E+02  0.53807549975E+03  0.54533563532E+03  0.79837989998E+02 0.  0.
        -11    1    5    5    0    0 -0.27380230120E+02  0.37475216576E+02  0.14636910453E+03  0.15355124103E+03  0.00000000000E+00 0.  1.
         12    1    5    5    0    0  0.50747516225E+01 -0.59462979777E+01  0.39170639521E+03  0.39178439430E+03  0.00000000000E+00 0. -1.
         13    1    3    3    0    0 -0.43647787240E+01  0.40049418134E+02 -0.92597310241E+03  0.92684906731E+03  0.00000000000E+00 0. -1.
        -14    1    3    3    0    0  0.12721667559E+01 -0.15073937233E+02 -0.39366883946E+02  0.42173374819E+02  0.00000000000E+00 0.  1.
          5    1    4    4  501    0 -0.41713243409E+02 -0.39558666001E+02 -0.64974359158E+02  0.86856332408E+02  0.41800000000E+01 0.  1.
         -5    1    4    4    0  501  0.67111333874E+02 -0.16945733497E+02 -0.56287770104E+01  0.69571866072E+02  0.41800000000E+01 0.  1.
</event>
<event>
11    1  0.6763327E-009  0.1513098E+03  0.7561462E-02  0.1095548E+00
         22   -1    0    0    0    0  0.00000000000E+00  0.00000000000E+00  0.76275197070E+03  0.76275197070E+03  0.00000000000E+00 0. -1.
         22   -1    0    0    0    0 -0.00000000000E+00 -0.00000000000E+00 -0.87669699773E+03  0.87669699773E+03  0.00000000000E+00 0.  1.
         24    2    1    2    0    0  0.75515532194E+02  0.34892532403E+02 -0.76921523965E+03  0.77796178075E+03  0.81316437374E+02 0.  0.
         25    2    1    2    0    0 -0.91611093598E+02 -0.87977874322E+02 -0.19606443796E+02  0.17934568706E+03  0.12509102282E+03 0.  0.
        -24    2    1    2    0    0  0.16095561404E+02  0.53085341919E+02  0.67487665641E+03  0.68214150062E+03  0.82349285772E+02 0.  0.
        -13    1    3    3    0    0  0.82720677588E+02  0.28871078702E+02 -0.75917845208E+03  0.76421735899E+03  0.00000000000E+00 0.  1.
         14    1    3    3    0    0 -0.72051453945E+01  0.60214537007E+01 -0.10036787570E+02  0.13744421761E+02  0.00000000000E+00 0. -1.
         11    1    5    5    0    0  0.34734633946E+02  0.62617905197E+01  0.46342285168E+03  0.46476493442E+03  0.00000000000E+00 0. -1.
        -12    1    5    5    0    0 -0.18639072541E+02  0.46823551400E+02  0.21145380474E+03  0.21737656619E+03  0.00000000000E+00 0.  1.
          5    1    4    4  501    0 -0.10698131966E+03 -0.10229568099E+03  0.31296583509E+01  0.14811035166E+03  0.41800000000E+01 0.  1.
         -5    1    4    4    0  501  0.15370226064E+02  0.14317806671E+02 -0.22736102147E+02  0.31235335406E+02  0.41800000000E+01 0.  1.
</event>
<event>
11    1  0.6763327E-009  0.1370647E+03  0.7561462E-02  0.1110881E+00
         22   -1    0    0    0    0  0.00000000000E+00  0.00000000000E+00  0.13448579192E+03  0.13448579192E+03  0.00000000000E+00 0.  1.
         22   -1    0    0    0    0 -0.00000000000E+00 -0.00000000000E+00 -0.34429078882E+03  0.34429078882E+03  0.00000000000E+00 0.  1.
         24    2    1    2    0    0 -0.20502741794E+02  0.49494915728E+02 -0.22451889801E+03  0.24379375803E+03  0.78463697239E+02 0.  0.
         25    2    1    2    0    0  0.49670080356E+02 -0.62181563457E+02  0.15081595741E+02  0.14902631834E+03  0.12509086822E+03 0.  0.
        -24    2    1    2    0    0 -0.29167338562E+02  0.12686647730E+02 -0.36769462540E+00  0.85956504362E+02  0.79854247059E+02 0.  0.
        -13    1    3    3    0    0 -0.25383473204E+02  0.85935125815E+01 -0.18425036893E+03  0.18618906418E+03  0.00000000000E+00 0.  1.
         14    1    3    3    0    0  0.48807314101E+01  0.40901403146E+02 -0.40268529082E+02  0.57604693844E+02  0.00000000000E+00 0. -1.
         11    1    5    5    0    0 -0.21626098078E+01  0.10390301755E+02 -0.38071237829E+02  0.39522833927E+02  0.00000000000E+00 0. -1.
        -12    1    5    5    0    0 -0.27004728754E+02  0.22963459742E+01  0.37703543204E+02  0.46433670435E+02  0.00000000000E+00 0.  1.
          5    1    4    4  501    0  0.74199534055E+01 -0.80987813637E+02 -0.27570954357E+02  0.85975063771E+02  0.41800000000E+01 0.  1.
         -5    1    4    4    0  501  0.42250126950E+02  0.18806250180E+02  0.42652550098E+02  0.63051254571E+02  0.41800000000E+01 0.  1.
</event>
<event>
11    1  0.6763327E-009  0.1406494E+03  0.7561462E-02  0.1106835E+00
         22   -1    0    0    0    0  0.00000000000E+00  0.00000000000E+00  0.14948471502E+04  0.14948471502E+04  0.00000000000E+00 0.  1.
         22   -1    0    0    0    0 -0.00000000000E+00 -0.00000000000E+00 -0.58641296925E+02  0.58641296925E+02  0.00000000000E+00 0. -1.
         24    2    1    2    0    0 -0.46838581575E+02 -0.42655485872E+02  0.77475320243E+01  0.10274325191E+03  0.80515888871E+02 0.  0.
         25    2    1    2    0    0  0.42415589631E+02  0.63722758276E+02  0.58886702975E+03  0.60685473731E+03  0.12509444957E+03 0.  0.
        -24    2    1    2    0    0  0.44229919434E+01 -0.21067272404E+02  0.83959129150E+03  0.84389045790E+03  0.82305378605E+02 0.  0.
        -13    1    3    3    0    0 -0.30450219624E+02  0.59283688549E+01  0.33252764673E+02  0.45476453147E+02  0.00000000000E+00 0.  1.
         14    1    3    3    0    0 -0.16388361951E+02 -0.48583854727E+02 -0.25505232649E+02  0.57266798758E+02  0.00000000000E+00 0. -1.
         13    1    5    5    0    0  0.25691242868E+02  0.19060990458E+02  0.18664647905E+03  0.18936807930E+03  0.00000000000E+00 0. -1.
        -14    1    5    5    0    0 -0.21268250925E+02 -0.40128262863E+02  0.65294481245E+03  0.65452237860E+03  0.00000000000E+00 0.  1.
          5    1    4    4  501    0  0.46026950743E+02  0.79251603933E+02  0.23018298173E+03  0.24779220004E+03  0.41800000000E+01 0.  1.
         -5    1    4    4    0  501 -0.36113611119E+01 -0.15528845656E+02  0.35868404801E+03  0.35906253727E+03  0.41800000000E+01 0.  1.
</event>
<event>
11    1  0.6763327E-009  0.1799327E+03  0.7561462E-02  0.1069697E+00
         22   -1    0    0    0    0  0.00000000000E+00  0.00000000000E+00  0.54333059353E+03  0.54333059353E+03  0.00000000000E+00 0.  1.
         22   -1    0    0    0    0 -0.00000000000E+00 -0.00000000000E+00 -0.68638194657E+03  0.68638194657E+03  0.00000000000E+00 0. -1.
        -24    2    1    2    0    0  0.91384996151E+02  0.27124542016E+02 -0.35436339063E+03  0.37575521231E+03  0.80818368341E+02 0.  0.
         25    2    1    2    0    0 -0.13421595879E+02 -0.13179400266E+03 -0.28257493060E+03  0.33622274870E+03  0.12508935593E+03 0.  0.
         24    2    1    2    0    0 -0.77963400272E+02  0.10466946065E+03  0.49388696818E+03  0.51773457909E+03  0.84206705645E+02 0.  0.
        -11    1    5    5    0    0 -0.81081244531E+02  0.49021307423E+02  0.36908674630E+03  0.38105417343E+03  0.00000000000E+00 0.  1.
         12    1    5    5    0    0  0.31178442588E+01  0.55648153224E+02  0.12480022189E+03  0.13668040567E+03  0.00000000000E+00 0. -1.
         13    1    3    3    0    0  0.48510743272E+02  0.31338548239E+02 -0.30419078825E+03  0.30962466386E+03  0.00000000000E+00 0. -1.
        -14    1    3    3    0    0  0.42874252879E+02 -0.42140062224E+01 -0.50172602381E+02  0.66130548448E+02  0.00000000000E+00 0.  1.
          5    1    4    4  501    0  0.51695876624E+02 -0.88356768305E+02 -0.13949242448E+03  0.17307510235E+03  0.41800000000E+01 0. -1.
         -5    1    4    4    0  501 -0.65117472503E+02 -0.43437234358E+02 -0.14308250611E+03  0.16314764635E+03  0.41800000000E+01 0. -1.
</event>
<event>
11    1  0.6763327E-009  0.1452792E+03  0.7561462E-02  0.1101802E+00
         22   -1    0    0    0    0  0.00000000000E+00  0.00000000000E+00  0.45414663604E+03  0.45414663604E+03  0.00000000000E+00 0. -1.
         22   -1    0    0    0    0 -0.00000000000E+00 -0.00000000000E+00 -0.33158427331E+03  0.33158427331E+03  0.00000000000E+00 0. -1.
         24    2    1    2    0    0 -0.27309569081E+01  0.79710936430E+02 -0.23839758550E+03  0.26489438246E+03  0.83512475557E+02 0.  0.
         25    2    1    2    0    0 -0.22881464547E+02 -0.46782471980E+02 -0.13591738616E+02  0.13617838928E+03  0.12509059614E+03 0.  0.
        -24    2    1    2    0    0  0.25612421456E+02 -0.32928464450E+02  0.37455168685E+03  0.38465813761E+03  0.77023612000E+02 0.  0.
        -11    1    3    3    0    0  0.13864796653E+02  0.80261141712E+02 -0.11814187315E+03  0.14349768516E+03  0.00000000000E+00 0.  1.
         12    1    3    3    0    0 -0.16595753562E+02 -0.55020528133E+00 -0.12025571235E+03  0.12139669730E+03  0.00000000000E+00 0. -1.
         13    1    5    5    0    0  0.34275475604E+02 -0.15738768549E+02  0.35577182101E+03  0.35776543390E+03  0.00000000000E+00 0. -1.
        -14    1    5    5    0    0 -0.86630541483E+01 -0.17189695901E+02  0.18779865835E+02  0.26892703716E+02  0.00000000000E+00 0.  1.
          5    1    4    4  501    0  0.49954849234E+02 -0.26314465281E+01 -0.37877222618E+01  0.50341143340E+02  0.41800000000E+01 0. -1.
         -5    1    4    4    0  501 -0.72836313782E+02 -0.44151025452E+02 -0.98040163539E+01  0.85837245939E+02  0.41800000000E+01 0. -1.
</event>
<event>
11    1  0.6763327E-009  0.1530183E+03  0.7561462E-02  0.1093834E+00
         22   -1    0    0    0    0  0.00000000000E+00  0.00000000000E+00  0.15174260365E+04  0.15174260365E+04  0.00000000000E+00 0.  1.
         22   -1    0    0    0    0 -0.00000000000E+00 -0.00000000000E+00 -0.34642701285E+03  0.34642701285E+03  0.00000000000E+00 0. -1.
        -24    2    1    2    0    0  0.25681462851E+02 -0.82605209863E+02 -0.29123497770E+03  0.31392995052E+03  0.79063540059E+02 0.  0.
         25    2    1    2    0    0  0.19103633395E+02  0.12575511394E+03  0.14833669899E+03  0.23201373634E+03  0.12508916855E+03 0.  0.
         24    2    1    2    0    0 -0.44785096246E+02 -0.43149904081E+02  0.13138973023E+04  0.13179093625E+04  0.81800657378E+02 0.  0.
        -11    1    5    5    0    0 -0.40991578812E+02 -0.30927360906E+02  0.12879930468E+04  0.12890162527E+04  0.00000000000E+00 0.  1.
         12    1    5    5    0    0 -0.37935174340E+01 -0.12222543174E+02  0.25904255539E+02  0.28893109753E+02  0.00000000000E+00 0. -1.
         11    1    3    3    0    0 -0.25212980415E+01 -0.78214614749E+02 -0.14338156913E+03  0.16334673939E+03  0.00000000000E+00 0. -1.
        -12    1    3    3    0    0  0.28202760892E+02 -0.43905951142E+01 -0.14785340857E+03  0.15058321113E+03  0.00000000000E+00 0.  1.
          5    1    4    4  501    0  0.67754732512E+02  0.91229157036E+02  0.12166210037E+03  0.16653108400E+03  0.41800000000E+01 0.  1.
         -5    1    4    4    0  501 -0.48651099117E+02  0.34525956908E+02  0.26674598622E+02  0.65482652339E+02  0.41800000000E+01 0.  1.
</event>
<event>
11    1  0.6763327E-009  0.1498944E+03  0.7561462E-02  0.1096987E+00
         22   -1    0    0    0    0  0.00000000000E+00  0.00000000000E+00  0.27563618499E+03  0.27563618499E+03  0.00000000000E+00 0. -1.
         22   -1    0    0    0    0 -0.00000000000E+00 -0.00000000000E+00 -0.10343932731E+04  0.10343932731E+04  0.00000000000E+00 0. -1.
        -24    2    1    2    0    0  0.78461354678E+01  0.80123994574E+02 -0.92495812569E+03  0.93184774189E+03  0.79443460674E+02 0.  0.
         25    2    1    2    0    0 -0.65468627515E+01 -0.14224128491E+03  0.74448801681E+01  0.18967847570E+03  0.12508818233E+03 0.  0.
         24    2    1    2    0    0 -0.12992727163E+01  0.62117290334E+02  0.15875615739E+03  0.18850324051E+03  0.80434496993E+02 0.  0.
        -13    1    5    5    0    0  0.38859128608E+01 -0.11579895310E+02 -0.12362121458E+01  0.12276909815E+02  0.00000000000E+00 0.  1.
         14    1    5    5    0    0 -0.51851855771E+01  0.73697185643E+02  0.15999236954E+03  0.17622633070E+03  0.00000000000E+00 0. -1.
         11    1    3    3    0    0 -0.11108452219E+02  0.58008267525E+02 -0.83924749557E+03  0.84132319333E+03  0.00000000000E+00 0. -1.
        -12    1    3    3    0    0  0.18954587687E+02  0.22115727048E+02 -0.85710630112E+02  0.90524548557E+02  0.00000000000E+00 0.  1.
          5    1    4    4  501    0  0.21574688095E+02 -0.15250153319E+03 -0.10660888041E+02  0.15444517385E+03  0.41800000000E+01 0. -1.
         -5    1    4    4    0  501 -0.28121550846E+02  0.10260248284E+02  0.18105768209E+02  0.35233301850E+02  0.41800000000E+01 0. -1.
</event>
<event>
11    1  0.6763327E-009  0.1446091E+03  0.7561462E-02  0.1102518E+00
         22   -1    0    0    0    0  0.00000000000E+00  0.00000000000E+00  0.17019190659E+04  0.17019190659E+04  0.00000000000E+00 0.  1.
         22   -1    0    0    0    0 -0.00000000000E+00 -0.00000000000E+00 -0.68878808815E+03  0.68878808815E+03  0.00000000000E+00 0. -1.
         24    2    1    2    0    0  0.14556113623E+01 -0.78282744453E+02 -0.38720723056E+03  0.40324109509E+03  0.80892734457E+02 0.  0.
         25    2    1    2    0    0 -0.47399793774E+02  0.54033266049E+02 -0.27438682817E+03  0.31002052451E+03  0.12513296870E+03 0.  0.
        -24    2    1    2    0    0  0.45944182412E+02  0.24249478405E+02  0.16747250365E+04  0.16774455345E+04  0.80129071717E+02 0.  0.
        -13    1    3    3    0    0 -0.21211503687E+02  0.10659643474E+01 -0.30851286415E+02  0.37454853385E+02  0.00000000000E+00 0.  1.
         14    1    3    3    0    0  0.22667115049E+02 -0.79348708801E+02 -0.35635594415E+03  0.36578624171E+03  0.00000000000E+00 0. -1.
         11    1    5    5    0    0  0.87988246115E+01  0.91322329415E+01  0.34939804262E+02  0.37169973298E+02  0.00000000000E+00 0. -1.
        -12    1    5    5    0    0  0.37145357801E+02  0.15117245463E+02  0.16397852322E+04  0.16402755612E+04  0.00000000000E+00 0.  1.
          5    1    4    4  501    0 -0.69877114905E+02 -0.85090173813E+01 -0.18907426889E+03  0.20179634813E+03  0.41800000000E+01 0.  1.
         -5    1    4    4    0  501  0.22477321131E+02  0.62542283430E+02 -0.85312559278E+02  0.10822417638E+03  0.41800000000E+01 0.  1.
</event>
<event>
11    1  0.6807627E-009  0.1810551E+03  0.7561462E-02  0.1068793E+00
         22   -1    0    0    0    0  0.00000000000E+00  0.00000000000E+00  0.58714173988E+03  0.58714173988E+03  0.00000000000E+00 0.  1.
         22   -1    0    0    0    0 -0.00000000000E+00 -0.00000000000E+00 -0.23478215229E+04  0.23478215229E+04  0.00000000000E+00 0.  1.
         24    2    1    2    0    0 -0.83672488643E+02 -0.59364284670E+02 -0.21936438998E+04  0.21973644983E+04  0.76236314557E+02 0.  0.
         25    2    1    2    0    0  0.47097285700E+02 -0.72504918398E+02 -0.99671800299E+02  0.18181639774E+03  0.12509043608E+03 0.  0.
        -24    2    1    2    0    0  0.36575202943E+02  0.13186920307E+03  0.53263591712E+03  0.55578236669E+03  0.80410115796E+02 0.  0.
        -11    1    3    3    0    0 -0.85992230268E+02 -0.61754381644E+02 -0.21894535882E+04  0.21920116976E+04  0.00000000000E+00 0.  1.
         12    1    3    3    0    0  0.23197416245E+01  0.23900969743E+01 -0.41903116351E+01  0.53528007949E+01  0.00000000000E+00 0. -1.
         13    1    5    5    0    0  0.31195096233E+01 -0.10594492271E+02  0.22386513106E+02  0.24962583516E+02  0.00000000000E+00 0. -1.
        -14    1    5    5    0    0  0.33455693320E+02  0.14246369534E+03  0.51024940402E+03  0.53081978317E+03  0.00000000000E+00 0.  1.
          5    1    4    4  501    0  0.82016184028E+02 -0.31813731243E+02 -0.92223811975E+02  0.12752047613E+03  0.41800000000E+01 0.  1.
         -5    1    4    4    0  501 -0.34918898328E+02 -0.40691187156E+02 -0.74479883232E+01  0.54295921602E+02  0.41800000000E+01 0.  1.
</event>
<event>
11    1  0.6763327E-009  0.2218547E+03  0.7561462E-02  0.1040062E+00
         22   -1    0    0    0    0  0.00000000000E+00  0.00000000000E+00  0.59048928507E+02  0.59048928507E+02  0.00000000000E+00 0.  1.
         22   -1    0    0    0    0 -0.00000000000E+00 -0.00000000000E+00 -0.38130743940E+04  0.38130743940E+04  0.00000000000E+00 0. -1.
        -24    2    1    2    0    0 -0.29626698766E+02  0.17277689935E+02 -0.26356439049E+04  0.26370592988E+04  0.79288662551E+02 0.  0.
         25    2    1    2    0    0 -0.29589914926E+02 -0.18921311726E+03 -0.94006938628E+03  0.96749969273E+03  0.12509211649E+03 0.  0.
         24    2    1    2    0    0  0.59216613691E+02  0.17193542732E+03 -0.17831217424E+03  0.26756433092E+03  0.82018541755E+02 0.  0.
        -11    1    5    5    0    0 -0.12300291309E+02  0.11598907260E+02  0.57854423448E+00  0.16916457352E+02  0.00000000000E+00 0.  1.
         12    1    5    5    0    0  0.71516905001E+02  0.16033652006E+03 -0.17889071847E+03  0.25064787356E+03  0.00000000000E+00 0. -1.
         13    1    3    3    0    0  0.27582394718E+01 -0.25196571876E+02 -0.14398895440E+04  0.14401126254E+04  0.00000000000E+00 0. -1.
        -14    1    3    3    0    0 -0.32384938237E+02  0.42474261811E+02 -0.11957543610E+04  0.11969466734E+04  0.00000000000E+00 0.  1.
          5    1    4    4  501    0 -0.32616974857E+02  0.23411095764E+01 -0.83818470722E+02  0.90068619824E+02  0.41800000000E+01 0. -1.
         -5    1    4    4    0  501  0.30270599314E+01 -0.19155422683E+03 -0.85625091556E+03  0.87743107291E+03  0.41800000000E+01 0. -1.
</event>
<event>
11    1  0.6763327E-009  0.1507144E+03  0.7561462E-02  0.1096151E+00
         22   -1    0    0    0    0  0.00000000000E+00  0.00000000000E+00  0.23888819284E+04  0.23888819284E+04  0.00000000000E+00 0.  1.
         22   -1    0    0    0    0 -0.00000000000E+00 -0.00000000000E+00 -0.23555093689E+04  0.23555093689E+04  0.00000000000E+00 0.  1.
         24    2    1    2    0    0  0.21817054063E+02 -0.57233988501E+00 -0.23377835846E+04  0.23392067177E+04  0.78610866581E+02 0.  0.
         25    2    1    2    0    0 -0.34387046206E+02  0.83304720234E+02  0.37207783383E+03  0.40275076392E+03  0.12507644882E+03 0.  0.
        -24    2    1    2    0    0  0.12569992142E+02 -0.82732380349E+02  0.19990783103E+04  0.20024338156E+04  0.80152628099E+02 0.  0.
        -13    1    3    3    0    0  0.28061713069E+02  0.33095474563E+02 -0.16509341113E+04  0.16515042265E+04  0.00000000000E+00 0.  1.
         14    1    3    3    0    0 -0.62446590053E+01 -0.33667814448E+02 -0.68684947330E+03  0.68770249125E+03  0.00000000000E+00 0. -1.
         13    1    5    5    0    0  0.24406426759E+02  0.45514123081E+01  0.65642913720E+03  0.65689847099E+03  0.00000000000E+00 0. -1.
        -14    1    5    5    0    0 -0.11836434616E+02 -0.87283792658E+02  0.13426491731E+04  0.13455353446E+04  0.00000000000E+00 0.  1.
          5    1    4    4  501    0  0.19008204989E+02 -0.28793965327E+01  0.29058930136E+01  0.19887669434E+02  0.41800000000E+01 0.  1.
         -5    1    4    4    0  501 -0.53395251195E+02  0.86184116767E+02  0.36917194081E+03  0.38286309448E+03  0.41800000000E+01 0.  1.
</event>
<event>
11    1  0.6763327E-009  0.1561661E+03  0.7561462E-02  0.1090740E+00
         22   -1    0    0    0    0  0.00000000000E+00  0.00000000000E+00  0.65168427491E+02  0.65168427491E+02  0.00000000000E+00 0.  1.
         22   -1    0    0    0    0 -0.00000000000E+00 -0.00000000000E+00 -0.11957391863E+04  0.11957391863E+04  0.00000000000E+00 0. -1.
         24    2    1    2    0    0 -0.16920354526E+02 -0.46918711721E+02 -0.83353244936E+03  0.83881237703E+03  0.79637904439E+02 0.  0.
         25    2    1    2    0    0  0.36314991799E+02  0.12382314621E+03 -0.22550310574E+03  0.28835749347E+03  0.12508974049E+03 0.  0.
        -24    2    1    2    0    0 -0.19394637273E+02 -0.76904434489E+02 -0.71535203686E+02  0.13373774326E+03  0.80486362865E+02 0.  0.
        -11    1    3    3    0    0  0.24272983676E+02 -0.42005030531E+02 -0.32636955010E+03  0.32995557816E+03  0.00000000000E+00 0.  1.
         12    1    3    3    0    0 -0.41193338202E+02 -0.49136811895E+01 -0.50716289926E+03  0.50885679887E+03  0.00000000000E+00 0. -1.
         13    1    5    5    0    0 -0.72356572137E+01  0.38274149489E+01 -0.48109760811E+02  0.48801157012E+02  0.00000000000E+00 0. -1.
        -14    1    5    5    0    0 -0.12158980060E+02 -0.80731849438E+02 -0.23425442876E+02  0.84936586250E+02  0.00000000000E+00 0.  1.
          5    1    4    4  501    0  0.43172143541E+01 -0.14368688814E+02 -0.92701244317E+02  0.94000482212E+02  0.41800000000E+01 0. -1.
         -5    1    4    4    0  501  0.31997777445E+02  0.13819183502E+03 -0.13280186142E+03  0.19435701126E+03  0.41800000000E+01 0. -1.
</event>
<event>
11    1  0.6763327E-009  0.1360523E+03  0.7561462E-02  0.1112049E+00
         22   -1    0    0    0    0  0.00000000000E+00  0.00000000000E+00  0.99237373314E+03  0.99237373314E+03  0.00000000000E+00 0. -1.
         22   -1    0    0    0    0 -0.00000000000E+00 -0.00000000000E+00 -0.79690022370E+03  0.79690022370E+03  0.00000000000E+00 0.  1.
         24    2    1    2    0    0  0.24421269484E+02 -0.48431390188E+02 -0.77272816725E+03  0.77873154955E+03  0.79824857350E+02 0.  0.
         25    2    1    2    0    0  0.70032303549E+01  0.45784738410E+01  0.19604847764E+03  0.23270695268E+03  0.12509001792E+03 0.  0.
        -24    2    1    2    0    0 -0.31424499839E+02  0.43852916347E+02  0.77215319905E+03  0.77783545460E+03  0.76790977159E+02 0.  0.
        -13    1    3    3    0    0  0.50586877166E+02 -0.12842708694E+02 -0.39714779584E+03  0.40056252826E+03  0.00000000000E+00 0.  1.
         14    1    3    3    0    0 -0.26165607682E+02 -0.35588681494E+02 -0.37558037141E+03  0.37816902129E+03  0.00000000000E+00 0. -1.
         11    1    5    5    0    0 -0.40565561837E+01  0.42332962677E+02  0.68837293017E+03  0.68968530966E+03  0.00000000000E+00 0. -1.
        -12    1    5    5    0    0 -0.27367943655E+02  0.15199536701E+01  0.83780268880E+02  0.88150144938E+02  0.00000000000E+00 0.  1.
          5    1    4    4  501    0  0.59624470362E+02 -0.83040916073E+01  0.55365304808E+02  0.81895206086E+02  0.41800000000E+01 0.  1.
         -5    1    4    4    0  501 -0.52621240007E+02  0.12882565448E+02  0.14068317283E+03  0.15081174660E+03  0.41800000000E+01 0.  1.
</event>
<event>
11    1  0.6763327E-009  0.1481888E+03  0.7561462E-02  0.1098744E+00
         22   -1    0    0    0    0  0.00000000000E+00  0.00000000000E+00  0.52388565777E+03  0.52388565777E+03  0.00000000000E+00 0. -1.
         22   -1    0    0    0    0 -0.00000000000E+00 -0.00000000000E+00 -0.30459411834E+04  0.30459411834E+04  0.00000000000E+00 0. -1.
         24    2    1    2    0    0 -0.37982163254E+02 -0.48209435618E+02 -0.29896587873E+04  0.29913762498E+04  0.80656114800E+02 0.  0.
         25    2    1    2    0    0  0.11128811386E+03  0.30045954987E+02  0.10414478039E+03  0.19945171402E+03  0.12508815790E+03 0.  0.
        -24    2    1    2    0    0 -0.73305950605E+02  0.18163480631E+02  0.36345848130E+03  0.37899887734E+03  0.76383289900E+02 0.  0.
        -11    1    3    3    0    0 -0.22096681508E+02 -0.74686268765E+01 -0.19713035777E+03  0.19850547014E+03  0.00000000000E+00 0.  1.
         12    1    3    3    0    0 -0.15885481747E+02 -0.40740808741E+02 -0.27925284296E+04  0.27928707797E+04  0.00000000000E+00 0. -1.
         13    1    5    5    0    0 -0.69176615899E+02 -0.31733070639E+01  0.34016198543E+03  0.34713923776E+03  0.00000000000E+00 0. -1.
        -14    1    5    5    0    0 -0.41293347066E+01  0.21336787695E+02  0.23296495873E+02  0.31859639581E+02  0.00000000000E+00 0.  1.
          5    1    4    4  501    0  0.98583938799E+02  0.19572003508E+02  0.70057687966E+01  0.10083853186E+03  0.41800000000E+01 0. -1.
         -5    1    4    4    0  501  0.12704175060E+02  0.10473951478E+02  0.97139011595E+02  0.98613182167E+02  0.41800000000E+01 0. -1.
</event>
<event>
11    1  0.6763327E-009  0.1502698E+03  0.7561462E-02  0.1096603E+00
         22   -1    0    0    0    0  0.00000000000E+00  0.00000000000E+00  0.48430683306E+03  0.48430683306E+03  0.00000000000E+00 0. -1.
         22   -1    0    0    0    0 -0.00000000000E+00 -0.00000000000E+00 -0.24006826378E+03  0.24006826378E+03  0.00000000000E+00 0.  1.
         24    2    1    2    0    0  0.32615847468E+02 -0.85369862274E+02 -0.15015004763E+03  0.19288110157E+03  0.79412062379E+02 0.  0.
         25    2    1    2    0    0 -0.44696269176E+02  0.39885773427E+02  0.13825627648E+02  0.13937523383E+03  0.12508267835E+03 0.  0.
        -24    2    1    2    0    0  0.12080421708E+02  0.45484088847E+02  0.38056298926E+03  0.39211876143E+03  0.81940193724E+02 0.  0.
        -11    1    3    3    0    0  0.44429449114E+02 -0.20153754362E+02 -0.94451458118E+02  0.10630723261E+03  0.00000000000E+00 0.  1.
         12    1    3    3    0    0 -0.11813601646E+02 -0.65216107912E+02 -0.55698589507E+02  0.86573868968E+02  0.00000000000E+00 0. -1.
         11    1    5    5    0    0  0.31804252265E+00  0.47387862087E+02  0.37658774636E+03  0.37955769170E+03  0.00000000000E+00 0. -1.
        -12    1    5    5    0    0  0.11762379185E+02 -0.19037732396E+01  0.39752429012E+01  0.12561069730E+02  0.00000000000E+00 0.  1.
          5    1    4    4  501    0  0.29183446885E+02  0.17985146658E+02  0.44502997668E+02  0.56330527015E+02  0.41800000000E+01 0.  1.
         -5    1    4    4    0  501 -0.73879716061E+02  0.21900626769E+02 -0.30677370020E+02  0.83044706812E+02  0.41800000000E+01 0.  1.
</event>
<event>
11    1  0.6763327E-009  0.1427272E+03  0.7561462E-02  0.1104551E+00
         22   -1    0    0    0    0  0.00000000000E+00  0.00000000000E+00  0.25103999376E+03  0.25103999376E+03  0.00000000000E+00 0. -1.
         22   -1    0    0    0    0 -0.00000000000E+00 -0.00000000000E+00 -0.48134052753E+03  0.48134052753E+03  0.00000000000E+00 0.  1.
         24    2    1    2    0    0  0.39508785193E+02 -0.20525027390E+02 -0.22208824106E+03  0.24033110457E+03  0.80334501611E+02 0.  0.
         25    2    1    2    0    0 -0.98164553230E+02 -0.11585769299E+02 -0.20455097684E+03  0.25934430792E+03  0.12509140003E+03 0.  0.
        -24    2    1    2    0    0  0.58655768037E+02  0.32110796690E+02  0.19633868414E+03  0.23270510880E+03  0.10550443775E+03 0.  0.
        -13    1    3    3    0    0  0.94652574810E+01  0.41768666203E+01 -0.18895204192E+03  0.18923506931E+03  0.00000000000E+00 0.  1.
         14    1    3    3    0    0  0.30043527712E+02 -0.24701894011E+02 -0.33136199147E+02  0.51096035257E+02  0.00000000000E+00 0. -1.
         13    1    5    5    0    0  0.24918243893E+02  0.38767650087E+02  0.19268961532E+03  0.19812404555E+03  0.00000000000E+00 0. -1.
        -14    1    5    5    0    0  0.33737524144E+02 -0.66568533975E+01  0.36490688190E+01  0.34581063254E+02  0.00000000000E+00 0.  1.
          5    1    4    4  501    0 -0.94370417010E+02 -0.50291742712E+02 -0.95288744801E+02  0.14329149409E+03  0.41800000000E+01 0.  1.
         -5    1    4    4    0  501 -0.37941362191E+01  0.38705973413E+02 -0.10926223204E+03  0.11605281383E+03  0.41800000000E+01 0.  1.
</event>
<event>
11    1  0.6763327E-009  0.1556354E+03  0.7561462E-02  0.1091256E+00
         22   -1    0    0    0    0  0.00000000000E+00  0.00000000000E+00  0.20269442063E+04  0.20269442063E+04  0.00000000000E+00 0.  1.
         22   -1    0    0    0    0 -0.00000000000E+00 -0.00000000000E+00 -0.15772436722E+03  0.15772436722E+03  0.00000000000E+00 0. -1.
         24    2    1    2    0    0 -0.28749914261E+02 -0.23835085711E+02 -0.12200450084E+03  0.14998797356E+03  0.78845577610E+02 0.  0.
         25    2    1    2    0    0  0.11656698681E+03  0.39914675611E+02  0.37522388228E+03  0.41427257578E+03  0.12509101274E+03 0.  0.
        -24    2    1    2    0    0 -0.87817072548E+02 -0.16079589901E+02  0.16160004576E+04  0.16204080242E+04  0.79336588584E+02 0.  0.
        -13    1    3    3    0    0  0.17182986587E+01  0.18866394882E+02 -0.81611118509E+02  0.83781072269E+02  0.00000000000E+00 0.  1.
         14    1    3    3    0    0 -0.30468212920E+02 -0.42701480593E+02 -0.40393382328E+02  0.66206901296E+02  0.00000000000E+00 0. -1.
         11    1    5    5    0    0 -0.51992558580E+02  0.16778001502E+02  0.43640675978E+03  0.43981312789E+03  0.00000000000E+00 0. -1.
        -12    1    5    5    0    0 -0.35824513967E+02 -0.32857591403E+02  0.11795936978E+04  0.11805948963E+04  0.00000000000E+00 0.  1.
          5    1    4    4  501    0  0.87629326627E+02  0.12732653538E+01  0.34758579275E+03  0.35848832033E+03  0.41800000000E+01 0. -1.
         -5    1    4    4    0  501  0.28937660182E+02  0.38641410258E+02  0.27638089527E+02  0.55784255450E+02  0.41800000000E+01 0. -1.
</event>
<event>
11    1  0.6763327E-009  0.1307950E+03  0.7561462E-02  0.1118296E+00
         22   -1    0    0    0    0  0.00000000000E+00  0.00000000000E+00  0.22559597094E+03  0.22559597094E+03  0.00000000000E+00 0.  1.
         22   -1    0    0    0    0 -0.00000000000E+00 -0.00000000000E+00 -0.89415989551E+03  0.89415989551E+03  0.00000000000E+00 0.  1.
        -24    2    1    2    0    0 -0.45360746983E+01  0.48990094088E+02 -0.83431701348E+03  0.83900140864E+03  0.73606245805E+02 0.  0.
         25    2    1    2    0    0  0.36149434691E+01  0.72383502921E+01  0.71726678201E+02  0.14442050532E+03  0.12508838659E+03 0.  0.
         24    2    1    2    0    0  0.92113122926E+00 -0.56228444380E+02  0.94026410712E+02  0.13633395249E+03  0.81138734590E+02 0.  0.
        -13    1    5    5    0    0  0.16572202543E+02 -0.40893435517E+02  0.10346133807E+03  0.11247737302E+03  0.00000000000E+00 0.  1.
         14    1    5    5    0    0 -0.15651071313E+02 -0.15335008863E+02 -0.94349273578E+01  0.23856579477E+02  0.00000000000E+00 0. -1.
         11    1    3    3    0    0 -0.18635430590E+02  0.27044398051E+02 -0.12618577267E+03  0.13038990744E+03  0.00000000000E+00 0. -1.
        -12    1    3    3    0    0  0.14099355892E+02  0.21945696036E+02 -0.70813124081E+03  0.70861150120E+03  0.00000000000E+00 0.  1.
          5    1    4    4  501    0 -0.19143375937E+02  0.43214485855E+02  0.86919621172E+02  0.99027539476E+02  0.41800000000E+01 0.  1.
         -5    1    4    4    0  501  0.22758319406E+02 -0.35976135562E+02 -0.15192942971E+02  0.45392965846E+02  0.41800000000E+01 0.  1.
</event>
<event>
11    1  0.6763327E-009  0.1463755E+03  0.7561462E-02  0.1100641E+00
         22   -1    0    0    0    0  0.00000000000E+00  0.00000000000E+00  0.36877602797E+03  0.36877602797E+03  0.00000000000E+00 0.  1.
         22   -1    0    0    0    0 -0.00000000000E+00 -0.00000000000E+00 -0.10480569974E+04  0.10480569974E+04  0.00000000000E+00 0. -1.
         24    2    1    2    0    0 -0.63543614943E+01 -0.73464244411E+02 -0.71300739192E+03  0.72126915864E+03  0.80076745454E+02 0.  0.
         25    2    1    2    0    0  0.55844893935E+02  0.79653642974E+02 -0.30552575481E+03  0.34416506058E+03  0.12506097336E+03 0.  0.
        -24    2    1    2    0    0 -0.49490532440E+02 -0.61893985631E+01  0.33925217725E+03  0.35139880619E+03  0.76820959159E+02 0.  0.
        -11    1    3    3    0    0 -0.11522602186E+02  0.14614806038E+02 -0.18581132375E+03  0.18674102642E+03  0.00000000000E+00 0.  1.
         12    1    3    3    0    0  0.51682406920E+01 -0.88079050449E+02 -0.52719606817E+03  0.53452813222E+03  0.00000000000E+00 0. -1.
         11    1    5    5    0    0 -0.28225100499E+02 -0.21799556034E+02  0.52688847123E+02  0.63623828497E+02  0.00000000000E+00 0. -1.
        -12    1    5    5    0    0 -0.21265431942E+02  0.15610157471E+02  0.28656333013E+03  0.28777497770E+03  0.00000000000E+00 0.  1.
          5    1    4    4  501    0 -0.38146756350E+02  0.11705729568E+02 -0.55148889552E+02  0.68198764971E+02  0.41800000000E+01 0.  1.
         -5    1    4    4    0  501  0.93991650285E+02  0.67947913407E+02 -0.25037686525E+03  0.27596629561E+03  0.41800000000E+01 0.  1.
</event>
<event>
11    1  0.6763327E-009  0.1375300E+03  0.7561462E-02  0.1110348E+00
         22   -1    0    0    0    0  0.00000000000E+00  0.00000000000E+00  0.55711881051E+03  0.55711881051E+03  0.00000000000E+00 0.  1.
         22   -1    0    0    0    0 -0.00000000000E+00 -0.00000000000E+00 -0.12554352904E+04  0.12554352904E+04  0.00000000000E+00 0. -1.
         24    2    1    2    0    0  0.62311981031E+02 -0.69906432278E+01 -0.96844647272E+03  0.97667504339E+03  0.10988138051E+03 0.  0.
         25    2    1    2    0    0 -0.36161329133E+02  0.65746848044E+01 -0.26435279376E+03  0.29475499413E+03  0.12508892354E+03 0.  0.
        -24    2    1    2    0    0 -0.26150651897E+02  0.41595842336E+00  0.53448278663E+03  0.54112406335E+03  0.80370225340E+02 0.  0.
        -13    1    3    3    0    0  0.22032364434E+02  0.38615510560E+02 -0.70037771237E+03  0.70178737715E+03  0.00000000000E+00 0.  1.
         14    1    3    3    0    0  0.40279616597E+02 -0.45606153788E+02 -0.26806876035E+03  0.27488766624E+03  0.00000000000E+00 0. -1.
         13    1    5    5    0    0  0.59040570481E+01  0.10051945737E+02  0.93993955643E+01  0.14974917018E+02  0.00000000000E+00 0. -1.
        -14    1    5    5    0    0 -0.32054708945E+02 -0.96359873137E+01  0.52508339106E+03  0.52614914633E+03  0.00000000000E+00 0.  1.
          5    1    4    4  501    0 -0.12970820083E+01  0.63343685874E+02 -0.12227549194E+03  0.13777834841E+03  0.41800000000E+01 0. -1.
         -5    1    4    4    0  501 -0.34864247125E+02 -0.56769001069E+02 -0.14207730182E+03  0.15697664572E+03  0.41800000000E+01 0. -1.
</event>
<event>
11    1  0.6763327E-009  0.2193135E+03  0.7561462E-02  0.1041648E+00
         22   -1    0    0    0    0  0.00000000000E+00  0.00000000000E+00  0.64609720427E+03  0.64609720427E+03  0.00000000000E+00 0. -1.
         22   -1    0    0    0    0 -0.00000000000E+00 -0.00000000000E+00 -0.26497967173E+03  0.26497967173E+03  0.00000000000E+00 0.  1.
        -24    2    1    2    0    0  0.63523874272E+02  0.18851502818E+02 -0.12797535623E+03  0.16482045488E+03  0.79983928277E+02 0.  0.
         25    2    1    2    0    0 -0.90367548802E+02 -0.19189359387E+03  0.54830922463E+02  0.25227604358E+03  0.12508927556E+03 0.  0.
         24    2    1    2    0    0  0.26843674530E+02  0.17304209105E+03  0.45426196631E+03  0.49398037753E+03  0.83657224502E+02 0.  0.
        -11    1    5    5    0    0  0.22997644216E+02  0.83186150753E+02  0.11989144018E+03  0.14772536933E+03  0.00000000000E+00 0.  1.
         12    1    5    5    0    0  0.38460303140E+01  0.89855940301E+02  0.33437052613E+03  0.34625500820E+03  0.00000000000E+00 0. -1.
         13    1    3    3    0    0 -0.11599817294E+02  0.14430130570E+02 -0.27425358370E+01  0.18716461534E+02  0.00000000000E+00 0. -1.
        -14    1    3    3    0    0  0.75123691566E+02  0.44213722477E+01 -0.12523282040E+03  0.14610399335E+03  0.00000000000E+00 0.  1.
          5    1    4    4  501    0 -0.22054055317E+02 -0.16676886444E+03  0.14347657459E+02  0.16888328270E+03  0.41800000000E+01 0.  1.
         -5    1    4    4    0  501 -0.68313493485E+02 -0.25124729433E+02  0.40483265004E+02  0.83392760876E+02  0.41800000000E+01 0.  1.
</event>
<event>
11    1  0.6763327E-009  0.1393217E+03  0.7561462E-02  0.1108318E+00
         22   -1    0    0    0    0  0.00000000000E+00  0.00000000000E+00  0.15612055168E+03  0.15612055168E+03  0.00000000000E+00 0.  1.
         22   -1    0    0    0    0 -0.00000000000E+00 -0.00000000000E+00 -0.15245748702E+04  0.15245748702E+04  0.00000000000E+00 0. -1.
        -24    2    1    2    0    0  0.85821858115E+01  0.43318137965E+02 -0.52337545284E+03  0.53142503671E+03  0.80873914314E+02 0.  0.
         25    2    1    2    0    0  0.39667404390E+02 -0.44934789481E+01 -0.97533578137E+03  0.98413487030E+03  0.12509141536E+03 0.  0.
         24    2    1    2    0    0 -0.48249590202E+02 -0.38824659016E+02  0.13025691564E+03  0.16513551492E+03  0.80420750511E+02 0.  0.
        -11    1    5    5    0    0 -0.39191994186E+02  0.48326532360E+01  0.10862097551E+03  0.11557630927E+03  0.00000000000E+00 0.  1.
         12    1    5    5    0    0 -0.90575960155E+01 -0.43657312252E+02  0.21635940138E+02  0.49559205647E+02  0.00000000000E+00 0. -1.
         11    1    3    3    0    0 -0.23169249964E+02 -0.24112928056E+01 -0.31109379541E+03  0.31196470637E+03  0.00000000000E+00 0. -1.
        -12    1    3    3    0    0  0.31751435775E+02  0.45729430770E+02 -0.21228165743E+03  0.21946033034E+03  0.00000000000E+00 0.  1.
          5    1    4    4  501    0 -0.17007468206E+02  0.49640916436E+02 -0.41715661021E+03  0.42046472433E+03  0.41800000000E+01 0.  1.
         -5    1    4    4    0  501  0.56674872597E+02 -0.54134395384E+02 -0.55817917115E+03  0.56367014597E+03  0.41800000000E+01 0.  1.
</event>
<event>
11    1  0.6763327E-009  0.1314406E+03  0.7561462E-02  0.1117512E+00
         22   -1    0    0    0    0  0.00000000000E+00  0.00000000000E+00  0.81979955512E+03  0.81979955512E+03  0.00000000000E+00 0. -1.
         22   -1    0    0    0    0 -0.00000000000E+00 -0.00000000000E+00 -0.25341718322E+04  0.25341718322E+04  0.00000000000E+00 0. -1.
         24    2    1    2    0    0  0.18640967081E+02  0.28974865493E+02 -0.20809213047E+04  0.20827429611E+04  0.79985856725E+02 0.  0.
         25    2    1    2    0    0  0.21721380332E+02 -0.31842935750E+02 -0.44017072623E+03  0.45922012586E+03  0.12508822824E+03 0.  0.
        -24    2    1    2    0    0 -0.40362347413E+02  0.28680702571E+01  0.80671975380E+03  0.81200830039E+03  0.83206813482E+02 0.  0.
        -13    1    3    3    0    0  0.26678084677E+02 -0.10842644530E+02 -0.15509123885E+04  0.15511797188E+04  0.00000000000E+00 0.  1.
         14    1    3    3    0    0 -0.80371175962E+01  0.39817510023E+02 -0.53000891620E+03  0.53156324235E+03  0.00000000000E+00 0. -1.
         11    1    5    5    0    0  0.53448314532E+01  0.11929483495E+01  0.61064773626E+03  0.61067229194E+03  0.00000000000E+00 0. -1.
        -12    1    5    5    0    0 -0.45707178866E+02  0.16751219076E+01  0.19607201754E+03  0.20133600845E+03  0.00000000000E+00 0.  1.
          5    1    4    4  501    0  0.12364597278E+02 -0.16200415706E+02 -0.44002751350E+03  0.44051903679E+03  0.41800000000E+01 0. -1.
         -5    1    4    4    0  501  0.93567830543E+01 -0.15642520044E+02 -0.14321272578E+00  0.18701089068E+02  0.41800000000E+01 0. -1.
</event>
<event>
11    1  0.6763327E-009  0.1581074E+03  0.7561462E-02  0.1088871E+00
         22   -1    0    0    0    0  0.00000000000E+00  0.00000000000E+00  0.59773089711E+03  0.59773089711E+03  0.00000000000E+00 0.  1.
         22   -1    0    0    0    0 -0.00000000000E+00 -0.00000000000E+00 -0.14241677841E+04  0.14241677841E+04  0.00000000000E+00 0. -1.
         24    2    1    2    0    0  0.28528515013E+02  0.18975455556E+02 -0.12008733779E+04  0.12043756454E+04  0.85146235934E+02 0.  0.
         25    2    1    2    0    0 -0.98307090898E+01 -0.11342495939E+03 -0.18129778597E+03  0.24794878097E+03  0.12509135275E+03 0.  0.
        -24    2    1    2    0    0 -0.18697805923E+02  0.94449503833E+02  0.55573427683E+03  0.56957425486E+03  0.79397283537E+02 0.  0.
        -11    1    3    3    0    0  0.21819900311E+02  0.51716955295E+02 -0.61761669153E+03  0.62016217973E+03  0.00000000000E+00 0.  1.
         12    1    3    3    0    0  0.67086147018E+01 -0.32741499739E+02 -0.58325668632E+03  0.58421346566E+03  0.00000000000E+00 0. -1.
         13    1    5    5    0    0  0.18542662558E+02 -0.22631836092E+01  0.51076789419E+02  0.54385574854E+02  0.00000000000E+00 0. -1.
        -14    1    5    5    0    0 -0.37240468481E+02  0.96712687442E+02  0.50465748741E+03  0.51518868001E+03  0.00000000000E+00 0.  1.
          5    1    4    4  501    0  0.56780111444E+02 -0.44597829084E+02 -0.65109171256E+02  0.97311993075E+02  0.41800000000E+01 0.  1.
         -5    1    4    4    0  501 -0.66610820534E+02 -0.68827130305E+02 -0.11618861471E+03  0.15063678790E+03  0.41800000000E+01 0.  1.
</event>
<event>
11    1  0.6763327E-009  0.1474092E+03  0.7561462E-02  0.1099556E+00
         22   -1    0    0    0    0  0.00000000000E+00  0.00000000000E+00  0.40156796960E+03  0.40156796960E+03  0.00000000000E+00 0. -1.
         22   -1    0    0    0    0 -0.00000000000E+00 -0.00000000000E+00 -0.55114984154E+03  0.55114984154E+03  0.00000000000E+00 0. -1.
         24    2    1    2    0    0 -0.26774507541E+02 -0.25935836943E+02 -0.45744352876E+03  0.46493621592E+03  0.74307206795E+02 0.  0.
         25    2    1    2    0    0  0.98136783325E+02 -0.80809741895E+00 -0.17882750042E+01  0.15900258378E+03  0.12508853847E+03 0.  0.
        -24    2    1    2    0    0 -0.71362275785E+02  0.26743934362E+02  0.30964993182E+03  0.32877901143E+03  0.80029654810E+02 0.  0.
        -11    1    3    3    0    0  0.12896386964E+02 -0.36494206466E+01 -0.14826715020E+02  0.19986659202E+02  0.00000000000E+00 0.  1.
         12    1    3    3    0    0 -0.39670894504E+02 -0.22286416297E+02 -0.44261681374E+03  0.44494955672E+03  0.00000000000E+00 0. -1.
         13    1    5    5    0    0 -0.76242013622E+02  0.35185750754E+02  0.30754706039E+03  0.31880413431E+03  0.00000000000E+00 0. -1.
        -14    1    5    5    0    0  0.48797378371E+01 -0.84418163923E+01  0.21028714337E+01  0.99748771234E+01  0.00000000000E+00 0.  1.
          5    1    4    4  501    0  0.36027917275E+02  0.57502399525E+02  0.20194257403E+02  0.70921204208E+02  0.41800000000E+01 0. -1.
         -5    1    4    4    0  501  0.62108866050E+02 -0.58310496944E+02 -0.21982532407E+02  0.88081379570E+02  0.41800000000E+01 0. -1.
</event>
<event>
11    1  0.6763327E-009  0.2399755E+03  0.7561462E-02  0.1029379E+00
         22   -1    0    0    0    0  0.00000000000E+00  0.00000000000E+00  0.40488282209E+03  0.40488282209E+03  0.00000000000E+00 0.  1.
         22   -1    0    0    0    0 -0.00000000000E+00 -0.00000000000E+00 -0.29260869998E+03  0.29260869998E+03  0.00000000000E+00 0.  1.
        -24    2    1    2    0    0  0.10937226943E+03  0.14736685350E+03 -0.26933779174E+02  0.20212073668E+03  0.80299943347E+02 0.  0.
         25    2    1    2    0    0 -0.16963667133E+03 -0.15831944834E+03 -0.61649005191E+02  0.27072056379E+03  0.12508947131E+03 0.  0.
         24    2    1    2    0    0  0.60264401903E+02  0.10952594836E+02  0.20085690647E+03  0.22465022160E+03  0.79827737775E+02 0.  0.
        -13    1    5    5    0    0  0.77341556616E+02  0.57403999478E+01  0.18564733007E+03  0.20119542672E+03  0.00000000000E+00 0.  1.
         14    1    5    5    0    0 -0.17077154713E+02  0.52121948883E+01  0.15209576405E+02  0.23454794884E+02  0.00000000000E+00 0. -1.
         11    1    3    3    0    0  0.55446812720E+02  0.23532053666E+02 -0.29412387272E+02  0.67031299522E+02  0.00000000000E+00 0. -1.
        -12    1    3    3    0    0  0.53925456712E+02  0.12383479984E+03  0.24786080981E+01  0.13508943715E+03  0.00000000000E+00 0.  1.
          5    1    4    4  501    0 -0.78835661770E+01 -0.30500477026E+02  0.31239513556E+02  0.44562420510E+02  0.41800000000E+01 0. -1.
         -5    1    4    4    0  501 -0.16175310516E+03 -0.12781897131E+03 -0.92888518748E+02  0.22615814328E+03  0.41800000000E+01 0. -1.
</event>
<event>
11    1  0.6763327E-009  0.1396530E+03  0.7561462E-02  0.1107947E+00
         22   -1    0    0    0    0  0.00000000000E+00  0.00000000000E+00  0.77893461873E+03  0.77893461873E+03  0.00000000000E+00 0.  1.
         22   -1    0    0    0    0 -0.00000000000E+00 -0.00000000000E+00 -0.34634011757E+04  0.34634011757E+04  0.00000000000E+00 0.  1.
        -24    2    1    2    0    0  0.61406439539E+02 -0.12432422093E+02 -0.30316591664E+04  0.30334389999E+04  0.82882741624E+02 0.  0.
         25    2    1    2    0    0 -0.57962502829E+02 -0.94924959721E+01 -0.41737023149E+03  0.43965238837E+03  0.12508618327E+03 0.  0.
         24    2    1    2    0    0 -0.34439367096E+01  0.21924918066E+02  0.76456284090E+03  0.76924440620E+03  0.81780535942E+02 0.  0.
        -11    1    5    5    0    0  0.32805992239E+01  0.12447946656E+02  0.75207929426E+03  0.75218945656E+03  0.00000000000E+00 0.  1.
         12    1    5    5    0    0 -0.67245359334E+01  0.94769714094E+01  0.12483546641E+02  0.17054949644E+02  0.00000000000E+00 0. -1.
         13    1    3    3    0    0  0.51875863921E+02  0.30100883830E+02 -0.18741455969E+04  0.18751050336E+04  0.00000000000E+00 0. -1.
        -14    1    3    3    0    0  0.95305756174E+01 -0.42533305924E+02 -0.11575135694E+04  0.11583339663E+04  0.00000000000E+00 0.  1.
          5    1    4    4  501    0 -0.48449690330E+02  0.53292978936E+02 -0.26205764835E+03  0.27180728017E+03  0.41800000000E+01 0. -1.
         -5    1    4    4    0  501 -0.95128124997E+01 -0.62785474909E+02 -0.15531258315E+03  0.16784510819E+03  0.41800000000E+01 0. -1.
</event>
<event>
11    1  0.6763327E-009  0.1552671E+03  0.7561462E-02  0.1091615E+00
         22   -1    0    0    0    0  0.00000000000E+00  0.00000000000E+00  0.54589962448E+03  0.54589962448E+03  0.00000000000E+00 0. -1.
         22   -1    0    0    0    0 -0.00000000000E+00 -0.00000000000E+00 -0.20059120523E+04  0.20059120523E+04  0.00000000000E+00 0.  1.
         24    2    1    2    0    0  0.64923049131E+02  0.65224278403E+02 -0.19675065673E+04  0.19712367063E+04  0.78885050879E+02 0.  0.
         25    2    1    2    0    0 -0.49491731141E+02 -0.74077884287E+02  0.15112168454E+03  0.21545743186E+03  0.12508867661E+03 0.  0.
        -24    2    1    2    0    0 -0.15431317989E+02  0.88536058841E+01  0.35637245492E+03  0.36511753859E+03  0.77414329737E+02 0.  0.
        -11    1    3    3    0    0  0.50252928621E+02  0.56198379697E+02 -0.78659636828E+03  0.79020089933E+03  0.00000000000E+00 0.  1.
         12    1    3    3    0    0  0.14670120510E+02  0.90258987063E+01 -0.11809101990E+04  0.11810358070E+04  0.00000000000E+00 0. -1.
         11    1    5    5    0    0  0.30885657982E+02  0.83762058700E+00  0.17766183705E+03  0.18032846093E+03  0.00000000000E+00 0. -1.
        -12    1    5    5    0    0 -0.46316975971E+02  0.80159852971E+01  0.17871061787E+03  0.18478907766E+03  0.00000000000E+00 0.  1.
          5    1    4    4  501    0  0.28515612662E+02  0.14598967460E+02  0.51972436443E+02  0.61195396610E+02  0.41800000000E+01 0.  1.
         -5    1    4    4    0  501 -0.78007343803E+02 -0.88676851747E+02  0.99149248094E+02  0.15426203525E+03  0.41800000000E+01 0.  1.
</event>
<event>
11    1  0.6763327E-009  0.1924588E+03  0.7561462E-02  0.1059988E+00
         22   -1    0    0    0    0  0.00000000000E+00  0.00000000000E+00  0.75592519386E+03  0.75592519386E+03  0.00000000000E+00 0.  1.
         22   -1    0    0    0    0 -0.00000000000E+00 -0.00000000000E+00 -0.46160981367E+03  0.46160981367E+03  0.00000000000E+00 0.  1.
        -24    2    1    2    0    0  0.39163468726E+02  0.48024836680E+02 -0.35629489745E+03  0.37049247652E+03  0.80488874959E+02 0.  0.
         25    2    1    2    0    0  0.90480015771E+02 -0.11817460376E+03  0.21226168685E+02  0.19557597194E+03  0.12509012884E+03 0.  0.
         24    2    1    2    0    0 -0.12964348450E+03  0.70149767085E+02  0.62938410896E+03  0.65146655907E+03  0.80968500546E+02 0.  0.
        -13    1    5    5    0    0 -0.10380398109E+03  0.62260633884E+02  0.59767299315E+03  0.60980706766E+03  0.00000000000E+00 0.  1.
         14    1    5    5    0    0 -0.25839503406E+02  0.78891332005E+01  0.31711115805E+02  0.41659491410E+02  0.00000000000E+00 0. -1.
         11    1    3    3    0    0 -0.23045549731E+02  0.87774337794E+00 -0.96975723834E+02  0.99680282950E+02  0.00000000000E+00 0. -1.
        -12    1    3    3    0    0  0.62209018457E+02  0.47147093302E+02 -0.25931917361E+03  0.27081219357E+03  0.00000000000E+00 0.  1.
          5    1    4    4  501    0  0.81498179980E+02 -0.14333741549E+03  0.28929659511E+02  0.16745735463E+03  0.41800000000E+01 0. -1.
         -5    1    4    4    0  501  0.89818357911E+01  0.25162811730E+02 -0.77034908260E+01  0.28118617307E+02  0.41800000000E+01 0. -1.
</event>
<event>
11    1  0.6763327E-009  0.1322006E+03  0.7561462E-02  0.1116594E+00
         22   -1    0    0    0    0  0.00000000000E+00  0.00000000000E+00  0.25075030184E+03  0.25075030184E+03  0.00000000000E+00 0.  1.
         22   -1    0    0    0    0 -0.00000000000E+00 -0.00000000000E+00 -0.37852005509E+03  0.37852005509E+03  0.00000000000E+00 0.  1.
         24    2    1    2    0    0  0.93378906008E+01  0.88666605551E+01 -0.26131078322E+03  0.27551377546E+03  0.86363772335E+02 0.  0.
         25    2    1    2    0    0 -0.48044294926E+02 -0.24249206394E+02 -0.53398990011E+02  0.14627230481E+03  0.12509139352E+03 0.  0.
        -24    2    1    2    0    0  0.38706404325E+02  0.15382545839E+02  0.18694001999E+03  0.20748427666E+03  0.79801914368E+02 0.  0.
        -11    1    3    3    0    0  0.32281347155E+02  0.28090686180E+02 -0.22209419942E+03  0.22617914458E+03  0.00000000000E+00 0.  1.
         12    1    3    3    0    0 -0.22943456554E+02 -0.19224025625E+02 -0.39216583796E+02  0.49334630884E+02  0.00000000000E+00 0. -1.
         13    1    5    5    0    0  0.26212220016E+02  0.10310015782E+02  0.97870617236E+01  0.29818844390E+02  0.00000000000E+00 0. -1.
        -14    1    5    5    0    0  0.12494184310E+02  0.50725300563E+01  0.17715295826E+03  0.17766543227E+03  0.00000000000E+00 0.  1.
          5    1    4    4  501    0  0.89347597696E+00  0.26939230083E+02 -0.68509599179E+02  0.73739799271E+02  0.41800000000E+01 0. -1.
         -5    1    4    4    0  501 -0.48937770903E+02 -0.51188436477E+02  0.15110609168E+02  0.72532505536E+02  0.41800000000E+01 0. -1.
</event>
<event>
11    1  0.6763327E-009  0.1563884E+03  0.7561462E-02  0.1090524E+00
         22   -1    0    0    0    0  0.00000000000E+00  0.00000000000E+00  0.26565234827E+03  0.26565234827E+03  0.00000000000E+00 0.  1.
         22   -1    0    0    0    0 -0.00000000000E+00 -0.00000000000E+00 -0.89936227275E+03  0.89936227275E+03  0.00000000000E+00 0.  1.
         24    2    1    2    0    0  0.28758388848E+02 -0.34520049871E+02 -0.74982756087E+03  0.75605799166E+03  0.85811636402E+02 0.  0.
         25    2    1    2    0    0 -0.24544803503E+01  0.12120979554E+03 -0.68252011905E+02  0.18708469662E+03  0.12507800595E+03 0.  0.
        -24    2    1    2    0    0 -0.26303908497E+02 -0.86689745674E+02  0.18436964829E+03  0.22187193273E+03  0.83833046669E+02 0.  0.
        -13    1    3    3    0    0 -0.12325795133E+02 -0.34978534098E+01 -0.53480639064E+03  0.53495984492E+03  0.00000000000E+00 0.  1.
         14    1    3    3    0    0  0.41084183981E+02 -0.31022196461E+02 -0.21502117024E+03  0.22109814675E+03  0.00000000000E+00 0. -1.
         13    1    5    5    0    0 -0.22858477121E+02  0.18835738796E+01  0.76679015356E+01  0.24183766059E+02  0.00000000000E+00 0. -1.
        -14    1    5    5    0    0 -0.34454313767E+01 -0.88573319554E+02  0.17670174676E+03  0.19768816667E+03  0.00000000000E+00 0.  1.
          5    1    4    4  501    0  0.15004135431E+02 -0.23597597229E+02 -0.11182959660E+02  0.30405618917E+02  0.41800000000E+01 0.  1.
         -5    1    4    4    0  501 -0.17458615781E+02  0.14480739277E+03 -0.57069052246E+02  0.15667907771E+03  0.41800000000E+01 0.  1.
</event>
<event>
11    1  0.6763327E-009  0.1583256E+03  0.7561462E-02  0.1088663E+00
         22   -1    0    0    0    0  0.00000000000E+00  0.00000000000E+00  0.43638698958E+03  0.43638698958E+03  0.00000000000E+00 0.  1.
         22   -1    0    0    0    0 -0.00000000000E+00 -0.00000000000E+00 -0.13730487340E+04  0.13730487340E+04  0.00000000000E+00 0. -1.
         24    2    1    2    0    0  0.94850632929E+02 -0.20973171661E+02 -0.12566405828E+04  0.12630264702E+04  0.81570789001E+02 0.  0.
         25    2    1    2    0    0 -0.91609384797E+02  0.28460606460E+02 -0.51722694680E+02  0.16590286983E+03  0.12508492943E+03 0.  0.
        -24    2    1    2    0    0 -0.32412481318E+01 -0.74874347987E+01  0.37170153301E+03  0.38050638358E+03  0.80972284969E+02 0.  0.
        -11    1    3    3    0    0  0.36699587397E+01  0.79407532068E+00 -0.99232421746E+00  0.38837945515E+01  0.00000000000E+00 0.  1.
         12    1    3    3    0    0  0.91180674189E+02 -0.21767246982E+02 -0.12556482585E+04  0.12591426756E+04  0.00000000000E+00 0. -1.
         11    1    5    5    0    0 -0.33082865775E+02 -0.25920941496E+02  0.14024195709E+03  0.14640415890E+03  0.00000000000E+00 0. -1.
        -12    1    5    5    0    0  0.29841617643E+02  0.18433506698E+02  0.23145957592E+03  0.23410222468E+03  0.00000000000E+00 0.  1.
          5    1    4    4  501    0 -0.37202221794E+01  0.52958851686E+02 -0.52193729490E+02  0.74566331699E+02  0.41800000000E+01 0. -1.
         -5    1    4    4    0  501 -0.87889162618E+02 -0.24498245226E+02  0.47103481033E+00  0.91336538136E+02  0.41800000000E+01 0. -1.
</event>
<event>
11    1  0.1391720E-008  0.1672397E+03  0.7561462E-02  0.1080459E+00
         22   -1    0    0    0    0  0.00000000000E+00  0.00000000000E+00  0.18992414870E+04  0.18992414870E+04  0.00000000000E+00 0.  1.
         22   -1    0    0    0    0 -0.00000000000E+00 -0.00000000000E+00 -0.19892427281E+03  0.19892427281E+03  0.00000000000E+00 0. -1.
         24    2    1    2    0    0 -0.24941331055E+02  0.34798274231E+02 -0.11202385675E+03  0.14515593608E+03  0.81779651597E+02 0.  0.
         25    2    1    2    0    0  0.10072625510E+03 -0.11371118431E+03  0.75310006428E+02  0.21070309307E+03  0.12509270345E+03 0.  0.
        -24    2    1    2    0    0 -0.75784924046E+02  0.78912910075E+02  0.17370310645E+04  0.17423067306E+04  0.79907587347E+02 0.  0.
        -13    1    3    3    0    0 -0.32842025931E+02  0.48331252527E+02 -0.38491047716E+02  0.69971918598E+02  0.00000000000E+00 0.  1.
         14    1    3    3    0    0  0.79006948759E+01 -0.13532978296E+02 -0.73532809031E+02  0.75184017485E+02  0.00000000000E+00 0. -1.
         11    1    5    5    0    0  0.11018961887E+02 -0.68225884208E+01  0.21728830423E+03  0.21767446426E+03  0.00000000000E+00 0. -1.
        -12    1    5    5    0    0 -0.86803885933E+02  0.85735498496E+02  0.15197427603E+04  0.15246322664E+04  0.00000000000E+00 0.  1.
          5    1    4    4  501    0  0.11395435783E+03 -0.58154213499E+02  0.17259227472E+02  0.12916215216E+03  0.41800000000E+01 0. -1.
         -5    1    4    4    0  501 -0.13228102733E+02 -0.55556970807E+02  0.58050778956E+02  0.81540940910E+02  0.41800000000E+01 0. -1.
</event>
<event>
11    1  0.6763327E-009  0.1697850E+03  0.7561462E-02  0.1078219E+00
         22   -1    0    0    0    0  0.00000000000E+00  0.00000000000E+00  0.20823945640E+04  0.20823945640E+04  0.00000000000E+00 0.  1.
         22   -1    0    0    0    0 -0.00000000000E+00 -0.00000000000E+00 -0.44528271488E+02  0.44528271488E+02  0.00000000000E+00 0. -1.
        -24    2    1    2    0    0  0.52846145452E+00 -0.33611580153E+02  0.28257284725E+02  0.90992576884E+02  0.79694148569E+02 0.  0.
         25    2    1    2    0    0  0.10217717372E+03 -0.27729569745E+02  0.70902715360E+03  0.72771975282E+03  0.12508968879E+03 0.  0.
         24    2    1    2    0    0 -0.10270563517E+03  0.61341149898E+02  0.13005818542E+04  0.13082105058E+04  0.74768869335E+02 0.  0.
        -13    1    5    5    0    0  0.88263070997E+01  0.49684846397E+00  0.22130553476E+03  0.22148203148E+03  0.00000000000E+00 0.  1.
         14    1    5    5    0    0 -0.11153194227E+03  0.60844301434E+02  0.10792763194E+04  0.10867284743E+04  0.00000000000E+00 0. -1.
         11    1    3    3    0    0  0.10701366856E+02 -0.54873788124E+02  0.23348263536E+01  0.55956262293E+02  0.00000000000E+00 0. -1.
        -12    1    3    3    0    0 -0.10172905401E+02  0.21262207971E+02  0.25922458372E+02  0.35036314591E+02  0.00000000000E+00 0.  1.
          5    1    4    4  501    0 -0.23797248266E+02 -0.20001886318E+02  0.23802544447E+03  0.24008325451E+03  0.41800000000E+01 0.  1.
         -5    1    4    4    0  501  0.12597442198E+03 -0.77276834267E+01  0.47100170913E+03  0.48763649831E+03  0.41800000000E+01 0.  1.
</event>
<event>
11    1  0.6763327E-009  0.1764282E+03  0.7561462E-02  0.1072569E+00
         22   -1    0    0    0    0  0.00000000000E+00  0.00000000000E+00  0.10317103735E+04  0.10317103735E+04  0.00000000000E+00 0.  1.
         22   -1    0    0    0    0 -0.00000000000E+00 -0.00000000000E+00 -0.32273593989E+03  0.32273593989E+03  0.00000000000E+00 0. -1.
        -24    2    1    2    0    0 -0.91760843117E+02  0.84834677514E+02 -0.27629266657E+03  0.31352156597E+03  0.79631400117E+02 0.  0.
         25    2    1    2    0    0  0.14645786120E+03 -0.30870619234E+01  0.42915514417E+03  0.47040461265E+03  0.12508767634E+03 0.  0.
         24    2    1    2    0    0 -0.54697018083E+02 -0.81747615590E+02  0.55611195599E+03  0.57052013476E+03  0.80983208944E+02 0.  0.
        -11    1    5    5    0    0 -0.75183442934E+02 -0.73880897804E+02  0.46642436648E+03  0.47818681161E+03  0.00000000000E+00 0.  1.
         12    1    5    5    0    0  0.20486424851E+02 -0.78667177857E+01  0.89687589506E+02  0.92333323147E+02  0.00000000000E+00 0. -1.
         11    1    3    3    0    0 -0.77668958298E+02  0.27490009798E+02 -0.20507733133E+03  0.22100877708E+03  0.00000000000E+00 0. -1.
        -12    1    3    3    0    0 -0.14091884819E+02  0.57344667716E+02 -0.71215335245E+02  0.92512788885E+02  0.00000000000E+00 0.  1.
          5    1    4    4  501    0  0.26104388583E+02  0.30435774687E+02  0.24204424411E+03  0.24537861355E+03  0.41800000000E+01 0. -1.
         -5    1    4    4    0  501  0.12035347262E+03 -0.33522836610E+02  0.18711090006E+03  0.22502599909E+03  0.41800000000E+01 0. -1.
</event>
<event>
11    1  0.6763327E-009  0.1256446E+03  0.7561462E-02  0.1124739E+00
         22   -1    0    0    0    0  0.00000000000E+00  0.00000000000E+00  0.17052284083E+04  0.17052284083E+04  0.00000000000E+00 0.  1.
         22   -1    0    0    0    0 -0.00000000000E+00 -0.00000000000E+00 -0.18441414444E+03  0.18441414444E+03  0.00000000000E+00 0. -1.
        -24    2    1    2    0    0 -0.92864710753E+01  0.79944081131E+01 -0.15733721031E+03  0.17723447891E+03  0.80665442774E+02 0.  0.
         25    2    1    2    0    0  0.46225762625E+01  0.53990411737E+01  0.22931609960E+03  0.26131250650E+03  0.12509130531E+03 0.  0.
         24    2    1    2    0    0  0.46638948128E+01 -0.13393449287E+02  0.14488353745E+04  0.14510955673E+04  0.79707380593E+02 0.  0.
        -13    1    5    5    0    0 -0.36471911244E+02 -0.12424944246E+02  0.82990314053E+03  0.83079708847E+03  0.00000000000E+00 0.  1.
         14    1    5    5    0    0  0.41135806056E+02 -0.96850504108E+00  0.61893223400E+03  0.62029847882E+03  0.00000000000E+00 0. -1.
         13    1    3    3    0    0  0.49552340105E+01 -0.15265683573E+02 -0.14730093009E+03  0.14817273516E+03  0.00000000000E+00 0. -1.
        -14    1    3    3    0    0 -0.14241705086E+02  0.23260091686E+02 -0.10036280225E+02  0.29061743750E+02  0.00000000000E+00 0.  1.
          5    1    4    4  501    0 -0.28385020693E+02 -0.37714494049E+02  0.18537801596E+03  0.19133889741E+03  0.41800000000E+01 0. -1.
         -5    1    4    4    0  501  0.33007596955E+02  0.43113535223E+02  0.43938083640E+02  0.69973609097E+02  0.41800000000E+01 0. -1.
</event>
<event>
11    1  0.6763327E-009  0.1538292E+03  0.7561462E-02  0.1093029E+00
         22   -1    0    0    0    0  0.00000000000E+00  0.00000000000E+00  0.10542403939E+03  0.10542403939E+03  0.00000000000E+00 0.  1.
         22   -1    0    0    0    0 -0.00000000000E+00 -0.00000000000E+00 -0.12010741004E+04  0.12010741004E+04  0.00000000000E+00 0.  1.
         24    2    1    2    0    0  0.18833830548E+02  0.29214323778E+02 -0.79487102921E+03  0.79996680389E+03  0.83178989936E+02 0.  0.
         25    2    1    2    0    0 -0.94877223450E+02 -0.70138992267E+02 -0.34132928487E+03  0.38219681735E+03  0.12509021032E+03 0.  0.
        -24    2    1    2    0    0  0.76043392902E+02  0.40924668489E+02  0.40550253082E+02  0.12433451853E+03  0.79732824969E+02 0.  0.
        -11    1    3    3    0    0  0.45473527728E+02  0.13633523040E+02 -0.26650630613E+03  0.27070154392E+03  0.00000000000E+00 0.  1.
         12    1    3    3    0    0 -0.26639697179E+02  0.15580800738E+02 -0.52836472308E+03  0.52926525997E+03  0.00000000000E+00 0. -1.
         11    1    5    5    0    0  0.11164569331E+02  0.14225402850E+01 -0.22799489779E+02  0.25426127574E+02  0.00000000000E+00 0. -1.
        -12    1    5    5    0    0  0.64878823570E+02  0.39502128204E+02  0.63349742861E+02  0.98908390954E+02  0.00000000000E+00 0.  1.
          5    1    4    4  501    0 -0.96577672119E+02 -0.14855456279E+02 -0.12415013511E+03  0.15804638491E+03  0.41800000000E+01 0. -1.
         -5    1    4    4    0  501  0.17004486686E+01 -0.55283535988E+02 -0.21717914976E+03  0.22415043245E+03  0.41800000000E+01 0. -1.
</event>
<event>
11    1  0.6763327E-009  0.2467910E+03  0.7561462E-02  0.1025623E+00
         22   -1    0    0    0    0  0.00000000000E+00  0.00000000000E+00  0.24483428051E+03  0.24483428051E+03  0.00000000000E+00 0.  1.
         22   -1    0    0    0    0 -0.00000000000E+00 -0.00000000000E+00 -0.92639332230E+03  0.92639332230E+03  0.00000000000E+00 0.  1.
         24    2    1    2    0    0 -0.53580369384E+02  0.70492274466E+01 -0.56448260300E+03  0.57603160886E+03  0.10124849493E+03 0.  0.
         25    2    1    2    0    0  0.24608390716E+03  0.57764989312E+02 -0.21639767362E+03  0.35548561475E+03  0.12509190939E+03 0.  0.
        -24    2    1    2    0    0 -0.19250353777E+03 -0.64814216758E+02  0.99321234833E+02  0.23971037920E+03  0.79610699386E+02 0.  0.
        -11    1    3    3    0    0 -0.60121094953E+02  0.44810499854E+02 -0.32783219674E+03  0.33629819532E+03  0.00000000000E+00 0.  1.
         12    1    3    3    0    0  0.65407255688E+01 -0.37761272408E+02 -0.23665040626E+03  0.23973341354E+03  0.00000000000E+00 0. -1.
         13    1    5    5    0    0 -0.10763959976E+02 -0.96551482031E+01 -0.12669649684E+02  0.19225107134E+02  0.00000000000E+00 0. -1.
        -14    1    5    5    0    0 -0.18173957780E+03 -0.55159068555E+02  0.11199088452E+03  0.22048527206E+03  0.00000000000E+00 0.  1.
          5    1    4    4  501    0  0.11900603214E+03  0.57059564494E+02 -0.39867053813E+02  0.13793144662E+03  0.41800000000E+01 0. -1.
         -5    1    4    4    0  501  0.12707787501E+03  0.70542481755E+00 -0.17653061981E+03  0.21755416813E+03  0.41800000000E+01 0. -1.
</event>
<event>
11    1  0.6763327E-009  0.1386770E+03  0.7561462E-02  0.1109045E+00
         22   -1    0    0    0    0  0.00000000000E+00  0.00000000000E+00  0.25452399251E+03  0.25452399251E+03  0.00000000000E+00 0. -1.
         22   -1    0    0    0    0 -0.00000000000E+00 -0.00000000000E+00 -0.90871638339E+03  0.90871638339E+03  0.00000000000E+00 0.  1.
        -24    2    1    2    0    0 -0.14215025512E+02  0.56585040738E+02 -0.74542881304E+03  0.75164035477E+03  0.76780035352E+02 0.  0.
         25    2    1    2    0    0 -0.12337721007E+02 -0.10653300301E+03 -0.10258096181E+03  0.19410090986E+03  0.12510319498E+03 0.  0.
         24    2    1    2    0    0  0.26552746519E+02  0.49947962272E+02  0.19381738397E+03  0.21749911127E+03  0.80875446153E+02 0.  0.
        -13    1    5    5    0    0  0.55774387079E+02  0.30210815370E+02  0.12402787306E+03  0.13930681575E+03  0.00000000000E+00 0.  1.
         14    1    5    5    0    0 -0.29221640560E+02  0.19737146902E+02  0.69789510911E+02  0.78192295516E+02  0.00000000000E+00 0. -1.
         11    1    3    3    0    0 -0.92744746743E+01 -0.18500972783E+02 -0.19407087339E+03  0.19517122168E+03  0.00000000000E+00 0. -1.
        -12    1    3    3    0    0 -0.49405508372E+01  0.75086013521E+02 -0.55135793964E+03  0.55646913309E+03  0.00000000000E+00 0.  1.
          5    1    4    4  501    0 -0.33831396788E+02 -0.34923493337E+02  0.18120393740E+02  0.52057995205E+02  0.41800000000E+01 0.  1.
         -5    1    4    4    0  501  0.21493675780E+02 -0.71609509672E+02 -0.12070135555E+03  0.14204291466E+03  0.41800000000E+01 0.  1.
</event>
<event>
11    1  0.6763327E-009  0.1460606E+03  0.7561462E-02  0.1100973E+00
         22   -1    0    0    0    0  0.00000000000E+00  0.00000000000E+00  0.20447712890E+04  0.20447712890E+04  0.00000000000E+00 0. -1.
         22   -1    0    0    0    0 -0.00000000000E+00 -0.00000000000E+00 -0.89368631016E+03  0.89368631016E+03  0.00000000000E+00 0.  1.
        -24    2    1    2    0    0 -0.42190764801E+02 -0.62248924489E+02 -0.86816454751E+03  0.87504163509E+03  0.79581356834E+02 0.  0.
         25    2    1    2    0    0  0.55946240860E+02  0.72476292213E+02  0.26317384167E+03  0.30543875753E+03  0.12509823687E+03 0.  0.
         24    2    1    2    0    0 -0.13755476059E+02 -0.10227367724E+02  0.17560756847E+04  0.17579772066E+04  0.79926442286E+02 0.  0.
        -11    1    5    5    0    0 -0.40548075347E+01  0.22122826667E+02  0.16309182378E+03  0.16463536652E+03  0.00000000000E+00 0.  1.
         12    1    5    5    0    0 -0.97006685246E+01 -0.32350194391E+02  0.15929838609E+04  0.15933418400E+04  0.00000000000E+00 0. -1.
         13    1    3    3    0    0 -0.37510495299E+02 -0.51358410130E+01 -0.15415372342E+03  0.15873495067E+03  0.00000000000E+00 0. -1.
        -14    1    3    3    0    0 -0.46802695022E+01 -0.57113083476E+02 -0.71401082409E+03  0.71630668442E+03  0.00000000000E+00 0.  1.
          5    1    4    4  501    0  0.59320789398E+02  0.20291952204E+02  0.23999834733E+03  0.24808748154E+03  0.41800000000E+01 0. -1.
         -5    1    4    4    0  501 -0.33745485380E+01  0.52184340009E+02  0.23175494341E+02  0.57351275992E+02  0.41800000000E+01 0. -1.
</event>
<event>
11    1  0.6763327E-009  0.1801934E+03  0.7561462E-02  0.1069487E+00
         22   -1    0    0    0    0  0.00000000000E+00  0.00000000000E+00  0.21282954680E+03  0.21282954680E+03  0.00000000000E+00 0. -1.
         22   -1    0    0    0    0 -0.00000000000E+00 -0.00000000000E+00 -0.39317642467E+04  0.39317642467E+04  0.00000000000E+00 0. -1.
        -24    2    1    2    0    0  0.13371158737E+03 -0.26075793593E+01 -0.32237444873E+04  0.32274921578E+04  0.79319110813E+02 0.  0.
         25    2    1    2    0    0 -0.10760588188E+03  0.22500805009E+02 -0.68692365329E+03  0.70682138393E+03  0.12508817409E+03 0.  0.
         24    2    1    2    0    0 -0.26105705489E+02 -0.19893225650E+02  0.19173344071E+03  0.21028025172E+03  0.79867538409E+02 0.  0.
        -13    1    5    5    0    0 -0.23795559553E+02  0.69916625047E+01  0.10306660228E+02  0.26857759476E+02  0.00000000000E+00 0.  1.
         14    1    5    5    0    0 -0.23101459359E+01 -0.26884888155E+02  0.18142678048E+03  0.18342249224E+03  0.00000000000E+00 0. -1.
         13    1    3    3    0    0  0.87007140547E+02 -0.39725502265E+02 -0.20610914806E+04  0.20633095864E+04  0.00000000000E+00 0. -1.
        -14    1    3    3    0    0  0.46704446827E+02  0.37117922906E+02 -0.11626530067E+04  0.11641825714E+04  0.00000000000E+00 0.  1.
          5    1    4    4  501    0 -0.45769799674E+02  0.35116761517E+02 -0.57784156758E+03  0.58072920637E+03  0.41800000000E+01 0.  1.
         -5    1    4    4    0  501 -0.61836082211E+02 -0.12615956507E+02 -0.10908208571E+03  0.12609217757E+03  0.41800000000E+01 0.  1.
</event>
<event>
11    1  0.8409835E-009  0.1484935E+03  0.7561462E-02  0.1098428E+00
         22   -1    0    0    0    0  0.00000000000E+00  0.00000000000E+00  0.58558635373E+03  0.58558635373E+03  0.00000000000E+00 0.  1.
         22   -1    0    0    0    0 -0.00000000000E+00 -0.00000000000E+00 -0.15797629424E+04  0.15797629424E+04  0.00000000000E+00 0. -1.
        -24    2    1    2    0    0 -0.56727601311E+02  0.11374675834E+02 -0.85408823759E+03  0.85991367432E+03  0.81470274907E+02 0.  0.
         25    2    1    2    0    0  0.20660698876E+02 -0.82945551590E+02 -0.70918282128E+03  0.72518483075E+03  0.12508371493E+03 0.  0.
         24    2    1    2    0    0  0.36066902435E+02  0.71570875757E+02  0.56909447017E+03  0.58025079109E+03  0.79995330312E+02 0.  0.
        -13    1    5    5    0    0  0.23685996269E+02  0.74826632476E+02  0.55744115842E+03  0.56293933638E+03  0.00000000000E+00 0.  1.
         14    1    5    5    0    0  0.12380906166E+02 -0.32557567192E+01  0.11653311757E+02  0.17311454711E+02  0.00000000000E+00 0. -1.
         11    1    3    3    0    0 -0.32306736859E+02  0.28018859625E+02 -0.76200766762E+03  0.76320670022E+03  0.00000000000E+00 0. -1.
        -12    1    3    3    0    0 -0.24420864453E+02 -0.16644183791E+02 -0.92080569967E+02  0.96706974103E+02  0.00000000000E+00 0.  1.
          5    1    4    4  501    0 -0.20431380041E+02 -0.10755531249E+02 -0.19512954795E+02  0.30518036432E+02  0.41800000000E+01 0. -1.
         -5    1    4    4    0  501  0.41092078917E+02 -0.72190020342E+02 -0.68966986649E+03  0.69466679432E+03  0.41800000000E+01 0. -1.
</event>
<event>
11    1  0.6763327E-009  0.1827633E+03  0.7561462E-02  0.1067429E+00
         22   -1    0    0    0    0  0.00000000000E+00  0.00000000000E+00  0.17475469910E+04  0.17475469910E+04  0.00000000000E+00 0. -1.
         22   -1    0    0    0    0 -0.00000000000E+00 -0.00000000000E+00 -0.79675090454E+02  0.79675090454E+02  0.00000000000E+00 0. -1.
         24    2    1    2    0    0 -0.65466002679E+02 -0.42242415885E+02 -0.43554841965E+01  0.11424797040E+03  0.83447044833E+02 0.  0.
         25    2    1    2    0    0  0.87781889227E+02 -0.96554028212E+02  0.54493323449E+03  0.57413251232E+03  0.12509025225E+03 0.  0.
        -24    2    1    2    0    0 -0.22315886548E+02  0.13879644410E+03  0.11272941503E+04  0.11388415987E+04  0.80035205590E+02 0.  0.
        -13    1    3    3    0    0 -0.43895699553E+02 -0.63405783465E+02  0.14723288745E+02  0.78510515522E+02  0.00000000000E+00 0.  1.
         14    1    3    3    0    0 -0.21570303126E+02  0.21163367579E+02 -0.19078772941E+02  0.35737454878E+02  0.00000000000E+00 0. -1.
         13    1    5    5    0    0 -0.52468630101E+02  0.86727842328E+02  0.73647758835E+03  0.74342041533E+03  0.00000000000E+00 0. -1.
        -14    1    5    5    0    0  0.30152743553E+02  0.52068601769E+02  0.39081656190E+03  0.39542118341E+03  0.00000000000E+00 0.  1.
          5    1    4    4  501    0  0.72425695683E+02 -0.20938446118E+02  0.11679620872E+03  0.13907813161E+03  0.41800000000E+01 0. -1.
         -5    1    4    4    0  501  0.15356193544E+02 -0.75615582095E+02  0.42813702577E+03  0.43505438071E+03  0.41800000000E+01 0. -1.
</event>
<event>
11    1  0.6763327E-009  0.1424215E+03  0.7561462E-02  0.1104884E+00
         22   -1    0    0    0    0  0.00000000000E+00  0.00000000000E+00  0.59865944728E+03  0.59865944728E+03  0.00000000000E+00 0. -1.
         22   -1    0    0    0    0 -0.00000000000E+00 -0.00000000000E+00 -0.15948147369E+03  0.15948147369E+03  0.00000000000E+00 0. -1.
         24    2    1    2    0    0  0.44617820312E+02  0.52861557618E+02 -0.11313858653E+03  0.15483444081E+03  0.79926654736E+02 0.  0.
         25    2    1    2    0    0 -0.99645461870E+00 -0.67589645974E+02  0.26820953786E+03  0.30356784165E+03  0.12509086745E+03 0.  0.
        -24    2    1    2    0    0 -0.43621365693E+02  0.14728088356E+02  0.28410702226E+03  0.29973863850E+03  0.83706100014E+02 0.  0.
        -11    1    3    3    0    0  0.31387257893E+02  0.71541828100E+02 -0.65375641575E+02  0.10186936555E+03  0.00000000000E+00 0.  1.
         12    1    3    3    0    0  0.13230562419E+02 -0.18680270482E+02 -0.47762944954E+02  0.52965075266E+02  0.00000000000E+00 0. -1.
         11    1    5    5    0    0 -0.49015540142E+02  0.14831505457E+02  0.28835798475E+03  0.29286997814E+03  0.00000000000E+00 0. -1.
        -12    1    5    5    0    0  0.53941744492E+01 -0.10341710108E+00 -0.42509624839E+01  0.68686603588E+01  0.00000000000E+00 0.  1.
          5    1    4    4  501    0  0.41387020702E+01 -0.71241009643E+02  0.28031990439E+03  0.28929073871E+03  0.41800000000E+01 0. -1.
         -5    1    4    4    0  501 -0.51351566889E+01  0.36513636690E+01 -0.12110366526E+02  0.14277102937E+02  0.41800000000E+01 0. -1.
</event>
<event>
11    1  0.6763327E-009  0.1478441E+03  0.7561462E-02  0.1099102E+00
         22   -1    0    0    0    0  0.00000000000E+00  0.00000000000E+00  0.16674991040E+04  0.16674991040E+04  0.00000000000E+00 0.  1.
         22   -1    0    0    0    0 -0.00000000000E+00 -0.00000000000E+00 -0.13459805152E+03  0.13459805152E+03  0.00000000000E+00 0.  1.
         24    2    1    2    0    0 -0.13131564610E+01 -0.80743280762E+02 -0.87189666997E+02  0.14528550072E+03  0.83574140263E+02 0.  0.
         25    2    1    2    0    0  0.73685407390E+02  0.50327739411E+02  0.35465250468E+03  0.38650763169E+03  0.12508928675E+03 0.  0.
        -24    2    1    2    0    0 -0.72372250929E+02  0.30415541350E+02  0.12654382148E+04  0.12703040231E+04  0.78584908228E+02 0.  0.
        -11    1    3    3    0    0  0.67587936469E+00 -0.58635811875E+02 -0.10266153220E+03  0.11822861515E+03  0.00000000000E+00 0.  1.
         12    1    3    3    0    0 -0.19890358257E+01 -0.22107468886E+02  0.15471865200E+02  0.27056885572E+02  0.00000000000E+00 0. -1.
         11    1    5    5    0    0 -0.20797221982E+02 -0.15103789895E+02  0.11619448322E+03  0.11900339004E+03  0.00000000000E+00 0. -1.
        -12    1    5    5    0    0 -0.51575028947E+02  0.45519331245E+02  0.11492437316E+04  0.11513006331E+04  0.00000000000E+00 0.  1.
          5    1    4    4  501    0  0.51025018224E+02  0.84231175133E+02  0.31263645737E+03  0.32780706251E+03  0.41800000000E+01 0. -1.
         -5    1    4    4    0  501  0.22660389166E+02 -0.33903435721E+02  0.42016047308E+02  0.58700569181E+02  0.41800000000E+01 0. -1.
</event>
<event>
11    1  0.6763327E-009  0.1294100E+03  0.7561462E-02  0.1119996E+00
         22   -1    0    0    0    0  0.00000000000E+00  0.00000000000E+00  0.12341118311E+03  0.12341118311E+03  0.00000000000E+00 0.  1.
         22   -1    0    0    0    0 -0.00000000000E+00 -0.00000000000E+00 -0.14680591226E+04  0.14680591226E+04  0.00000000000E+00 0. -1.
        -24    2    1    2    0    0  0.79248431265E+01 -0.30836256680E+02 -0.11591662260E+04  0.11622836813E+04  0.78888139360E+02 0.  0.
         25    2    1    2    0    0 -0.72970056073E+01  0.45734651354E+02 -0.27641218711E+03  0.30691313934E+03  0.12508826202E+03 0.  0.
         24    2    1    2    0    0 -0.62783751918E+00 -0.14898394673E+02  0.90930473635E+02  0.12227348501E+03  0.80374733324E+02 0.  0.
        -11    1    5    5    0    0  0.55286275434E+01 -0.26403578616E+02  0.10178568981E+03  0.10529976892E+03  0.00000000000E+00 0.  1.
         12    1    5    5    0    0 -0.61564650625E+01  0.11505183942E+02 -0.10855216171E+02  0.16973716085E+02  0.00000000000E+00 0. -1.
         13    1    3    3    0    0  0.99060997608E+01  0.15492577781E+02 -0.79033290145E+03  0.79054680183E+03  0.00000000000E+00 0. -1.
        -14    1    3    3    0    0 -0.19812566344E+01 -0.46328834461E+02 -0.36883332456E+03  0.37173687951E+03  0.00000000000E+00 0.  1.
          5    1    4    4  501    0 -0.95562840722E+01  0.42600640914E+02 -0.28941481704E+03  0.29271922707E+03  0.41800000000E+01 0.  1.
         -5    1    4    4    0  501  0.22592784649E+01  0.31340104397E+01  0.13002629933E+02  0.14193912279E+02  0.41800000000E+01 0.  1.
</event>
<event>
11    1  0.6763327E-009  0.1997914E+03  0.7561462E-02  0.1054671E+00
         22   -1    0    0    0    0  0.00000000000E+00  0.00000000000E+00  0.13270146986E+04  0.13270146986E+04  0.00000000000E+00 0. -1.
         22   -1    0    0    0    0 -0.00000000000E+00 -0.00000000000E+00 -0.37910310455E+03  0.37910310455E+03  0.00000000000E+00 0.  1.
         24    2    1    2    0    0  0.10116744697E+03  0.11259515994E+03 -0.26462153215E+03  0.31523488329E+03  0.80224397785E+02 0.  0.
         25    2    1    2    0    0 -0.93109621162E+02 -0.15799296864E+03  0.53722617775E+02  0.22839682514E+03  0.12509120824E+03 0.  0.
        -24    2    1    2    0    0 -0.80578258046E+01  0.45397808707E+02  0.11588105085E+04  0.11624860948E+04  0.80038968105E+02 0.  0.
        -13    1    3    3    0    0  0.51729506761E+02  0.16452297277E+02 -0.14056478581E+03  0.15068204592E+03  0.00000000000E+00 0.  1.
         14    1    3    3    0    0  0.49437940205E+02  0.96142862659E+02 -0.12405674634E+03  0.16455283736E+03  0.00000000000E+00 0. -1.
         13    1    5    5    0    0  0.32106422672E+01  0.51891030682E+02  0.11258903756E+04  0.11270901140E+04  0.00000000000E+00 0. -1.
        -14    1    5    5    0    0 -0.11268468072E+02 -0.64932219748E+01  0.32920132854E+02  0.35395980724E+02  0.00000000000E+00 0.  1.
          5    1    4    4  501    0 -0.97375882921E+02 -0.17389081801E+03  0.62979617722E+02  0.20905497797E+03  0.41800000000E+01 0. -1.
         -5    1    4    4    0  501  0.42662617590E+01  0.15897849371E+02 -0.92569999470E+01  0.19341847172E+02  0.41800000000E+01 0. -1.
</event>
<event>
11    1  0.6763327E-009  0.1260635E+03  0.7561462E-02  0.1124202E+00
         22   -1    0    0    0    0  0.00000000000E+00  0.00000000000E+00  0.19218570118E+04  0.19218570118E+04  0.00000000000E+00 0.  1.
         22   -1    0    0    0    0 -0.00000000000E+00 -0.00000000000E+00 -0.46396235440E+02  0.46396235440E+02  0.00000000000E+00 0.  1.
        -24    2    1    2    0    0  0.11850852308E+02  0.86502510480E+01  0.42790435396E+02  0.11384183565E+03  0.10446852463E+03 0.  0.
         25    2    1    2    0    0 -0.40911446289E+02  0.45981750345E+02  0.53236393139E+03  0.55031573568E+03  0.12509190894E+03 0.  0.
         24    2    1    2    0    0  0.29060593980E+02 -0.54632001393E+02  0.13003064095E+04  0.13040956759E+04  0.77714860031E+02 0.  0.
        -13    1    5    5    0    0  0.29262289860E+02  0.25693364426E+01  0.18448141083E+03  0.18680544435E+03  0.00000000000E+00 0.  1.
         14    1    5    5    0    0 -0.20169587910E+00 -0.57201337836E+02  0.11158249987E+04  0.11172902315E+04  0.00000000000E+00 0. -1.
         13    1    3    3    0    0 -0.30409791456E+02 -0.33831402662E+02  0.20692890285E+02  0.49975143129E+02  0.00000000000E+00 0. -1.
        -14    1    3    3    0    0  0.42260643764E+02  0.42481653710E+02  0.22097545110E+02  0.63866692518E+02  0.00000000000E+00 0.  1.
          5    1    4    4  501    0  0.18648888670E+02 -0.40930652256E+01  0.95993102322E+01  0.21775063456E+02  0.41800000000E+01 0.  1.
         -5    1    4    4    0  501 -0.59560334959E+02  0.50074815571E+02  0.52276462116E+03  0.52854067222E+03  0.41800000000E+01 0.  1.
</event>
<event>
11    1  0.6763327E-009  0.2153412E+03  0.7561462E-02  0.1044176E+00
         22   -1    0    0    0    0  0.00000000000E+00  0.00000000000E+00  0.10299863288E+03  0.10299863288E+03  0.00000000000E+00 0.  1.
         22   -1    0    0    0    0 -0.00000000000E+00 -0.00000000000E+00 -0.38393664682E+04  0.38393664682E+04  0.00000000000E+00 0. -1.
        -24    2    1    2    0    0  0.48752509233E+02  0.16847641948E+03 -0.26179348339E+04  0.26249441767E+04  0.77382334064E+02 0.  0.
         25    2    1    2    0    0 -0.26625863822E+02 -0.17404055909E+03 -0.11880045283E+04  0.12074778922E+04  0.12509615544E+03 0.  0.
         24    2    1    2    0    0 -0.22126645411E+02  0.55641396014E+01  0.69571526840E+02  0.10994303211E+03  0.82016613409E+02 0.  0.
        -13    1    5    5    0    0  0.21993086989E+02 -0.23582286130E+02  0.25679764601E+02  0.41222207660E+02  0.00000000000E+00 0.  1.
         14    1    5    5    0    0 -0.44119732401E+02  0.29146425731E+02  0.43891762240E+02  0.68720824446E+02  0.00000000000E+00 0. -1.
         13    1    3    3    0    0  0.21576783357E+02  0.68981398789E+02 -0.16385842481E+04  0.16401775298E+04  0.00000000000E+00 0. -1.
        -14    1    3    3    0    0  0.27175725876E+02  0.99495020695E+02 -0.97935058571E+03  0.98476664695E+03  0.00000000000E+00 0.  1.
          5    1    4    4  501    0 -0.72281098067E+02 -0.10798752189E+03 -0.85944236795E+03  0.86922063842E+03  0.41800000000E+01 0.  1.
         -5    1    4    4    0  501  0.45655234245E+02 -0.66053037191E+02 -0.32856216035E+03  0.33825725380E+03  0.41800000000E+01 0.  1.
</event>
<event>
11    1  0.6763327E-009  0.1323857E+03  0.7561462E-02  0.1116372E+00
         22   -1    0    0    0    0  0.00000000000E+00  0.00000000000E+00  0.23407923699E+03  0.23407923699E+03  0.00000000000E+00 0. -1.
         22   -1    0    0    0    0 -0.00000000000E+00 -0.00000000000E+00 -0.42326877395E+03  0.42326877395E+03  0.00000000000E+00 0.  1.
         24    2    1    2    0    0 -0.39805409899E+01  0.17894682534E+02 -0.28325933132E+03  0.29631807585E+03  0.85044041075E+02 0.  0.
         25    2    1    2    0    0  0.44541575034E+02 -0.30774792326E+02 -0.84451811771E+02  0.16034532344E+03  0.12508986565E+03 0.  0.
        -24    2    1    2    0    0 -0.40561034044E+02  0.12880109792E+02  0.17852160613E+03  0.20068461166E+03  0.81198859528E+02 0.  0.
        -11    1    3    3    0    0  0.25960047432E+02 -0.24089564253E+02 -0.11257527692E+03  0.11801450818E+03  0.00000000000E+00 0.  1.
         12    1    3    3    0    0 -0.29940588422E+02  0.41984246787E+02 -0.17068405440E+03  0.17830356766E+03  0.00000000000E+00 0. -1.
         13    1    5    5    0    0 -0.22697903972E+02 -0.32726289355E+02  0.10540621819E+03  0.11267952650E+03  0.00000000000E+00 0. -1.
        -14    1    5    5    0    0 -0.17863130073E+02  0.45606399147E+02  0.73115387947E+02  0.88005085158E+02  0.00000000000E+00 0.  1.
          5    1    4    4  501    0  0.25635528633E+02 -0.50080524532E+02  0.14033579306E+02  0.58134783166E+02  0.41800000000E+01 0.  1.
         -5    1    4    4    0  501  0.18906046401E+02  0.19305732206E+02 -0.98485391077E+02  0.10221054027E+03  0.41800000000E+01 0.  1.
</event>
<event>
11    1  0.6763327E-009  0.1413059E+03  0.7561462E-02  0.1106109E+00
         22   -1    0    0    0    0  0.00000000000E+00  0.00000000000E+00  0.44416192180E+02  0.44416192180E+02  0.00000000000E+00 0.  1.
         22   -1    0    0    0    0 -0.00000000000E+00 -0.00000000000E+00 -0.10154487119E+04  0.10154487119E+04  0.00000000000E+00 0. -1.
         24    2    1    2    0    0 -0.24102906256E+02 -0.55258325910E+02 -0.60243371167E+03  0.61073271301E+03  0.80209956435E+02 0.  0.
         25    2    1    2    0    0  0.63141481837E+02  0.72117752076E+02 -0.28403626149E+03  0.32482688175E+03  0.12509231941E+03 0.  0.
        -24    2    1    2    0    0 -0.39038575581E+02 -0.16859426166E+02 -0.84562546566E+02  0.12430530932E+03  0.80577509331E+02 0.  0.
        -13    1    3    3    0    0 -0.12891433228E+02 -0.66799111871E+01 -0.13929994336E+02  0.20121009078E+02  0.00000000000E+00 0.  1.
         14    1    3    3    0    0 -0.11211473028E+02 -0.48578414723E+02 -0.58850371734E+03  0.59061170393E+03  0.00000000000E+00 0. -1.
         11    1    5    5    0    0 -0.51072189888E+01  0.29133903912E+02 -0.48236864856E+02  0.56583241106E+02  0.00000000000E+00 0. -1.
        -12    1    5    5    0    0 -0.33931356592E+02 -0.45993330078E+02 -0.36325681710E+02  0.67722068217E+02  0.00000000000E+00 0.  1.
          5    1    4    4  501    0  0.83240084387E+02  0.72902858461E+02 -0.28341004157E+03  0.30427366380E+03  0.41800000000E+01 0.  1.
         -5    1    4    4    0  501 -0.20098602550E+02 -0.78510638435E+00 -0.62621991286E+00  0.20553217944E+02  0.41800000000E+01 0.  1.
</event>
<event>
11    1  0.6763327E-009  0.1802740E+03  0.7561462E-02  0.1069421E+00
         22   -1    0    0    0    0  0.00000000000E+00  0.00000000000E+00  0.17984255142E+04  0.17984255142E+04  0.00000000000E+00 0. -1.
         22   -1    0    0    0    0 -0.00000000000E+00 -0.00000000000E+00 -0.19004768769E+03  0.19004768769E+03  0.00000000000E+00 0. -1.
         24    2    1    2    0    0 -0.49578821930E+02 -0.63299135388E+02 -0.15397400722E+03  0.19253709185E+03  0.83052373317E+02 0.  0.
         25    2    1    2    0    0  0.13727734576E+03  0.11143335387E+03  0.11434787377E+04  0.11638100699E+04  0.12509114016E+03 0.  0.
        -24    2    1    2    0    0 -0.87698523831E+02 -0.48134218483E+02  0.61887309599E+03  0.63212604006E+03  0.81064711834E+02 0.  0.
        -11    1    3    3    0    0 -0.42108026647E+02  0.47566316382E+01 -0.33702217042E+02  0.54143798225E+02  0.00000000000E+00 0.  1.
         12    1    3    3    0    0 -0.74707952826E+01 -0.68055767026E+02 -0.12027179018E+03  0.13839329362E+03  0.00000000000E+00 0. -1.
         11    1    5    5    0    0 -0.30831886506E+02 -0.80711202458E+01  0.42424391613E+03  0.42543935947E+03  0.00000000000E+00 0. -1.
        -12    1    5    5    0    0 -0.56866637325E+02 -0.40063098237E+02  0.19462917986E+03  0.20668668059E+03  0.00000000000E+00 0.  1.
          5    1    4    4  501    0 -0.14984933885E+02  0.29417580434E+02  0.84906167257E+02  0.91194692392E+02  0.41800000000E+01 0. -1.
         -5    1    4    4    0  501  0.15226227965E+03  0.82015773436E+02  0.10585725704E+04  0.10726153775E+04  0.41800000000E+01 0. -1.
</event>
<event>
11    1  0.6763327E-009  0.1405013E+03  0.7561462E-02  0.1107000E+00
         22   -1    0    0    0    0  0.00000000000E+00  0.00000000000E+00  0.32966730201E+03  0.32966730201E+03  0.00000000000E+00 0.  1.
         22   -1    0    0    0    0 -0.00000000000E+00 -0.00000000000E+00 -0.55390654045E+03  0.55390654045E+03  0.00000000000E+00 0.  1.
        -24    2    1    2    0    0  0.21162757991E+02 -0.37118459693E+02 -0.28063048472E+03  0.29598255690E+03  0.83824594597E+02 0.  0.
         25    2    1    2    0    0 -0.11141166998E+02 -0.27430540438E+02 -0.24072926814E+03  0.27289438883E+03  0.12507680347E+03 0.  0.
         24    2    1    2    0    0 -0.10021590993E+02  0.64549000131E+02  0.29712051442E+03  0.31469689673E+03  0.80539003083E+02 0.  0.
        -13    1    5    5    0    0 -0.96082965692E+01  0.36440124306E+02  0.27836108344E+03  0.28090050694E+03  0.00000000000E+00 0.  1.
         14    1    5    5    0    0 -0.41329442400E+00  0.28108875825E+02  0.18759430980E+02  0.33796389794E+02  0.00000000000E+00 0. -1.
         11    1    3    3    0    0  0.24196577335E+02 -0.49501283969E+02 -0.94303885156E+02  0.10922030134E+03  0.00000000000E+00 0. -1.
        -12    1    3    3    0    0 -0.30338193437E+01  0.12382824276E+02 -0.18632659957E+03  0.18676225556E+03  0.00000000000E+00 0.  1.
          5    1    4    4  501    0 -0.45675288973E+02 -0.45752761023E+02 -0.61234609484E+02  0.89144248063E+02  0.41800000000E+01 0. -1.
         -5    1    4    4    0  501  0.34534121975E+02  0.18322220585E+02 -0.17949465865E+03  0.18375014077E+03  0.41800000000E+01 0. -1.
</event>
<event>
11    1  0.6763327E-009  0.1775774E+03  0.7561462E-02  0.1071619E+00
         22   -1    0    0    0    0  0.00000000000E+00  0.00000000000E+00  0.12169429940E+03  0.12169429940E+03  0.00000000000E+00 0.  1.
         22   -1    0    0    0    0 -0.00000000000E+00 -0.00000000000E+00 -0.33139965405E+04  0.33139965405E+04  0.00000000000E+00 0.  1.
        -24    2    1    2    0    0  0.11123270448E+03 -0.56571434200E+02 -0.22996601839E+04  0.23044332524E+04  0.80016321832E+02 0.  0.
         25    2    1    2    0    0 -0.11617793449E+03  0.59062125712E+02 -0.99054829679E+03  0.10068854176E+04  0.12508664498E+03 0.  0.
         24    2    1    2    0    0  0.49452300098E+01 -0.24906915116E+01  0.97906239646E+02  0.12437216982E+03  0.76499320388E+02 0.  0.
        -11    1    5    5    0    0 -0.27181899151E+01 -0.16113658708E+02  0.10566553473E+03  0.10692167125E+03  0.00000000000E+00 0.  1.
         12    1    5    5    0    0  0.76634199249E+01  0.13622967196E+02 -0.77592950820E+01  0.17450498570E+02  0.00000000000E+00 0. -1.
         13    1    3    3    0    0 -0.57637800347E+01  0.95490986104E+00 -0.50887203204E+03  0.50890556885E+03  0.00000000000E+00 0. -1.
        -14    1    3    3    0    0  0.11699648451E+03 -0.57526344061E+02 -0.17907881519E+04  0.17955276836E+04  0.00000000000E+00 0.  1.
          5    1    4    4  501    0 -0.27214016769E+02 -0.32293791939E+02 -0.42555520671E+03  0.42766598890E+03  0.41800000000E+01 0. -1.
         -5    1    4    4    0  501 -0.88963917719E+02  0.91355917650E+02 -0.56499309007E+03  0.57921942870E+03  0.41800000000E+01 0. -1.
</event>
<event>
11    1  0.6763327E-009  0.1408650E+03  0.7561462E-02  0.1106596E+00
         22   -1    0    0    0    0  0.00000000000E+00  0.00000000000E+00  0.73759020555E+03  0.73759020555E+03  0.00000000000E+00 0.  1.
         22   -1    0    0    0    0 -0.00000000000E+00 -0.00000000000E+00 -0.61259732576E+03  0.61259732576E+03  0.00000000000E+00 0. -1.
         24    2    1    2    0    0  0.63027534263E+02 -0.26735763937E+02 -0.47669853501E+03  0.48838972825E+03  0.81214298213E+02 0.  0.
         25    2    1    2    0    0 -0.47098702480E+02 -0.31631634563E+01 -0.92126355700E+02  0.16236539164E+03  0.12508781559E+03 0.  0.
        -24    2    1    2    0    0 -0.15928831784E+02  0.29898927393E+02  0.69381777049E+03  0.69943241141E+03  0.81700219976E+02 0.  0.
        -11    1    3    3    0    0  0.28947784703E+02 -0.17459950677E+02 -0.50745235076E+02  0.60974609468E+02  0.00000000000E+00 0.  1.
         12    1    3    3    0    0  0.34079749560E+02 -0.92758132597E+01 -0.42595329993E+03  0.42741511879E+03  0.00000000000E+00 0. -1.
         11    1    5    5    0    0  0.10487180732E+02  0.25599018198E+02  0.73438991772E+02  0.78476596542E+02  0.00000000000E+00 0. -1.
        -12    1    5    5    0    0 -0.26416012515E+02  0.42999091955E+01  0.62037877872E+03  0.62095581487E+03  0.00000000000E+00 0.  1.
          5    1    4    4  501    0 -0.68932123216E+02 -0.47362345519E+02 -0.51152891248E+02  0.98127060830E+02  0.41800000000E+01 0. -1.
         -5    1    4    4    0  501  0.21833420737E+02  0.44199182063E+02 -0.40973464452E+02  0.64238330810E+02  0.41800000000E+01 0. -1.
</event>
<event>
11    1  0.6763327E-009  0.1473853E+03  0.7561462E-02  0.1099581E+00
         22   -1    0    0    0    0  0.00000000000E+00  0.00000000000E+00  0.26231740303E+03  0.26231740303E+03  0.00000000000E+00 0.  1.
         22   -1    0    0    0    0 -0.00000000000E+00 -0.00000000000E+00 -0.22733586174E+04  0.22733586174E+04  0.00000000000E+00 0.  1.
         24    2    1    2    0    0  0.54931752177E+02  0.53476087530E+02 -0.20651779700E+04  0.20681777611E+04  0.80758990234E+02 0.  0.
         25    2    1    2    0    0 -0.11299033365E+03 -0.41980878143E+02 -0.15597742552E+03  0.23346657462E+03  0.12509386301E+03 0.  0.
        -24    2    1    2    0    0  0.58058581478E+02 -0.11495209388E+02  0.21011418117E+03  0.23403168468E+03  0.84379627775E+02 0.  0.
        -13    1    3    3    0    0  0.72522819448E+02  0.48339032166E+02 -0.13767942733E+04  0.13795501776E+04  0.00000000000E+00 0.  1.
         14    1    3    3    0    0 -0.17591067271E+02  0.51370553643E+01 -0.68838369666E+03  0.68862758354E+03  0.00000000000E+00 0. -1.
         11    1    5    5    0    0 -0.14225337548E+02  0.85349935446E+01  0.79396130302E+01  0.18391405554E+02  0.00000000000E+00 0. -1.
        -12    1    5    5    0    0  0.72283919027E+02 -0.20030202932E+02  0.20217456814E+03  0.21564027912E+03  0.00000000000E+00 0.  1.
          5    1    4    4  501    0 -0.13138515519E+02  0.39032434067E+02 -0.19003874911E+02  0.45549655991E+02  0.41800000000E+01 0.  1.
         -5    1    4    4    0  501 -0.99851818135E+02 -0.81013312209E+02 -0.13697355061E+03  0.18791691863E+03  0.41800000000E+01 0.  1.
</event>
<event>
11    1  0.6763327E-009  0.2498654E+03  0.7561462E-02  0.1023971E+00
         22   -1    0    0    0    0  0.00000000000E+00  0.00000000000E+00  0.78590374466E+03  0.78590374466E+03  0.00000000000E+00 0.  1.
         22   -1    0    0    0    0 -0.00000000000E+00 -0.00000000000E+00 -0.32932681152E+03  0.32932681152E+03  0.00000000000E+00 0. -1.
        -24    2    1    2    0    0  0.52709484235E+02 -0.18829301003E+03 -0.12986983756E+03  0.24867059497E+03  0.82087409148E+02 0.  0.
         25    2    1    2    0    0 -0.30847533773E+02  0.27940044257E+03  0.44760075898E+02  0.31089477238E+03  0.12504366216E+03 0.  0.
         24    2    1    2    0    0 -0.21861950463E+02 -0.91107432543E+02  0.54168669480E+03  0.55566518884E+03  0.80998874154E+02 0.  0.
        -11    1    5    5    0    0 -0.48480232403E+02 -0.52826409446E+02  0.40359327286E+03  0.40991278630E+03  0.00000000000E+00 0.  1.
         12    1    5    5    0    0  0.26618281941E+02 -0.38281023097E+02  0.13809342194E+03  0.14575240254E+03  0.00000000000E+00 0. -1.
         13    1    3    3    0    0  0.53838962496E+02 -0.73343860321E+02 -0.87284468372E+02  0.12608145838E+03  0.00000000000E+00 0. -1.
        -14    1    3    3    0    0 -0.11294782608E+01 -0.11494914971E+03 -0.42585369187E+02  0.12258913659E+03  0.00000000000E+00 0.  1.
          5    1    4    4  501    0  0.11208373718E+02  0.16504732115E+01  0.26775611847E+02  0.29372733836E+02  0.41800000000E+01 0. -1.
         -5    1    4    4    0  501 -0.42055907491E+02  0.27774996936E+03  0.17984464051E+02  0.28152203854E+03  0.41800000000E+01 0. -1.
</event>
<event>
11    1  0.6763327E-009  0.1380951E+03  0.7561462E-02  0.1109704E+00
         22   -1    0    0    0    0  0.00000000000E+00  0.00000000000E+00  0.50230492189E+03  0.50230492189E+03  0.00000000000E+00 0.  1.
         22   -1    0    0    0    0 -0.00000000000E+00 -0.00000000000E+00 -0.11627478322E+04  0.11627478322E+04  0.00000000000E+00 0. -1.
         24    2    1    2    0    0 -0.72154978453E+02  0.25073247550E+02 -0.11159758258E+04  0.11215705419E+04  0.81752234852E+02 0.  0.
         25    2    1    2    0    0  0.67754400405E+02  0.37958299489E+02  0.12728593147E+03  0.19462830896E+03  0.12508788521E+03 0.  0.
        -24    2    1    2    0    0  0.44005780477E+01 -0.63031547040E+02  0.32824698405E+03  0.34885390325E+03  0.99802917113E+02 0.  0.
        -11    1    3    3    0    0 -0.32301200033E+02  0.40755186261E+02 -0.30017767884E+03  0.30464896456E+03  0.00000000000E+00 0.  1.
         12    1    3    3    0    0 -0.39853778420E+02 -0.15681938711E+02 -0.81579814700E+03  0.81692157733E+03  0.00000000000E+00 0. -1.
         13    1    5    5    0    0  0.30723126079E+02  0.69261005874E+01  0.39123421642E+02  0.50224729630E+02  0.00000000000E+00 0. -1.
        -14    1    5    5    0    0 -0.26322548031E+02 -0.69957647627E+02  0.28912356241E+03  0.29862917362E+03  0.00000000000E+00 0.  1.
          5    1    4    4  501    0  0.24961799126E+02  0.26253765374E+02 -0.19412113112E+02  0.41311670838E+02  0.41800000000E+01 0.  1.
         -5    1    4    4    0  501  0.42792601280E+02  0.11704534115E+02  0.14669804458E+03  0.15331663813E+03  0.41800000000E+01 0.  1.
</event>
<event>
11    1  0.6763327E-009  0.1325382E+03  0.7561462E-02  0.1116189E+00
         22   -1    0    0    0    0  0.00000000000E+00  0.00000000000E+00  0.47551698739E+03  0.47551698739E+03  0.00000000000E+00 0.  1.
         22   -1    0    0    0    0 -0.00000000000E+00 -0.00000000000E+00 -0.95160359115E+03  0.95160359115E+03  0.00000000000E+00 0.  1.
         24    2    1    2    0    0 -0.37862251108E+02  0.25817202536E+02 -0.76462445649E+03  0.77033021484E+03  0.81596583457E+02 0.  0.
         25    2    1    2    0    0  0.12220568458E+02 -0.30089251658E+02 -0.15711046487E+03  0.20343378994E+03  0.12508758276E+03 0.  0.
        -24    2    1    2    0    0  0.25641682650E+02  0.42720491221E+01  0.44564831760E+03  0.45335657376E+03  0.79082322296E+02 0.  0.
        -13    1    3    3    0    0 -0.45994071151E+02 -0.32116195100E+01 -0.65546363164E+03  0.65708320742E+03  0.00000000000E+00 0.  1.
         14    1    3    3    0    0  0.81318200431E+01  0.29028822046E+02 -0.10916082485E+03  0.11324700742E+03  0.00000000000E+00 0. -1.
         13    1    5    5    0    0  0.32755947780E+02  0.36785208398E+02  0.29415464211E+03  0.29824999102E+03  0.00000000000E+00 0. -1.
        -14    1    5    5    0    0 -0.71142651302E+01 -0.32513159275E+02  0.15149367549E+03  0.15510658274E+03  0.00000000000E+00 0.  1.
          5    1    4    4  501    0 -0.45909653578E+02  0.35430234746E+01 -0.19356043684E+02  0.50123628501E+02  0.41800000000E+01 0. -1.
         -5    1    4    4    0  501  0.58130222036E+02 -0.33632275133E+02 -0.13775442119E+03  0.15331016144E+03  0.41800000000E+01 0. -1.
</event>
<event>
11    1  0.6763327E-009  0.1502773E+03  0.7561462E-02  0.1096596E+00
         22   -1    0    0    0    0  0.00000000000E+00  0.00000000000E+00  0.16161422160E+04  0.16161422160E+04  0.00000000000E+00 0. -1.
         22   -1    0    0    0    0 -0.00000000000E+00 -0.00000000000E+00 -0.16551693261E+04  0.16551693261E+04  0.00000000000E+00 0. -1.
         24    2    1    2    0    0  0.74914785558E+01 -0.48454728962E+02 -0.16133776041E+04  0.16163220310E+04  0.84294907715E+02 0.  0.
         25    2    1    2    0    0 -0.33018978883E+02  0.12478886657E+03  0.17460443181E+03  0.25059405795E+03  0.12509260603E+03 0.  0.
        -24    2    1    2    0    0  0.25527500327E+02 -0.76334137607E+02  0.13997460622E+04  0.14043954533E+04  0.80987633036E+02 0.  0.
        -11    1    3    3    0    0  0.19435267849E+02 -0.44388815348E+02 -0.40643124708E+03  0.40930973011E+03  0.00000000000E+00 0.  1.
         12    1    3    3    0    0 -0.11943789293E+02 -0.40659136138E+01 -0.12069463570E+04  0.12070123009E+04  0.00000000000E+00 0. -1.
         13    1    5    5    0    0  0.14678010182E+02 -0.45611240858E+02  0.12596286693E+04  0.12605396518E+04  0.00000000000E+00 0. -1.
        -14    1    5    5    0    0  0.10849490146E+02 -0.30722896749E+02  0.14011739287E+03  0.14385580143E+03  0.00000000000E+00 0.  1.
          5    1    4    4  501    0  0.43103197699E+02  0.48279249772E+02  0.33798665748E+02  0.73134081089E+02  0.41800000000E+01 0. -1.
         -5    1    4    4    0  501 -0.76122176582E+02  0.76509616797E+02  0.14080576606E+03  0.17745997686E+03  0.41800000000E+01 0. -1.
</event>
<event>
11    1  0.6763327E-009  0.1507580E+03  0.7561462E-02  0.1096107E+00
         22   -1    0    0    0    0  0.00000000000E+00  0.00000000000E+00  0.13855572153E+03  0.13855572153E+03  0.00000000000E+00 0. -1.
         22   -1    0    0    0    0 -0.00000000000E+00 -0.00000000000E+00 -0.90646236014E+03  0.90646236014E+03  0.00000000000E+00 0. -1.
         24    2    1    2    0    0 -0.26133893329E+02 -0.90970161517E+01 -0.57958598287E+03  0.58578410157E+03  0.80357737840E+02 0.  0.
         25    2    1    2    0    0  0.89828523709E+02  0.59320633858E+02 -0.26256441803E+03  0.31012245166E+03  0.12509100742E+03 0.  0.
        -24    2    1    2    0    0 -0.63694630380E+02 -0.50223617706E+02  0.74243762291E+02  0.14911152843E+03  0.10071094259E+03 0.  0.
        -13    1    3    3    0    0 -0.17019844550E+01  0.24262290840E+01  0.19972645056E+01  0.35738500470E+01  0.00000000000E+00 0.  1.
         14    1    3    3    0    0 -0.24431908874E+02 -0.11523245236E+02 -0.58158324737E+03  0.58221025152E+03  0.00000000000E+00 0. -1.
         13    1    5    5    0    0 -0.53438481335E+02 -0.80521596555E+02  0.62228335507E+02  0.11494244011E+03  0.00000000000E+00 0. -1.
        -14    1    5    5    0    0 -0.10256149045E+02  0.30297978848E+02  0.12015426783E+02  0.34169088316E+02  0.00000000000E+00 0.  1.
          5    1    4    4  501    0 -0.12635409734E+02  0.54838314782E+02 -0.56215280943E+02  0.79652523870E+02  0.41800000000E+01 0. -1.
         -5    1    4    4    0  501  0.10246393344E+03  0.44823190764E+01 -0.20634913709E+03  0.23046992779E+03  0.41800000000E+01 0. -1.
</event>
<event>
11    1  0.6763327E-009  0.1458449E+03  0.7561462E-02  0.1101202E+00
         22   -1    0    0    0    0  0.00000000000E+00  0.00000000000E+00  0.26857993488E+04  0.26857993488E+04  0.00000000000E+00 0.  1.
         22   -1    0    0    0    0 -0.00000000000E+00 -0.00000000000E+00 -0.16959568760E+03  0.16959568760E+03  0.00000000000E+00 0.  1.
         24    2    1    2    0    0  0.21932206738E+02  0.49995245818E+01 -0.14625041918E+03  0.16832817729E+03  0.80244459124E+02 0.  0.
         25    2    1    2    0    0 -0.89355522907E+02  0.22838620570E+02  0.54063237651E+03  0.56252758179E+03  0.12509157315E+03 0.  0.
        -24    2    1    2    0    0  0.67423316169E+02 -0.27838145152E+02  0.21218217039E+04  0.21245392774E+04  0.78860205671E+02 0.  0.
        -11    1    3    3    0    0  0.52062788862E+02  0.87077957937E+00 -0.10354985522E+03  0.11590455020E+03  0.00000000000E+00 0.  1.
         12    1    3    3    0    0 -0.30130582124E+02  0.41287450024E+01 -0.42700563964E+02  0.52423627090E+02  0.00000000000E+00 0. -1.
         13    1    5    5    0    0  0.37957063452E+02  0.69229512108E+01  0.34800511001E+03  0.35013743375E+03  0.00000000000E+00 0. -1.
        -14    1    5    5    0    0  0.29466252718E+02 -0.34761096363E+02  0.17738165939E+04  0.17744018436E+04  0.00000000000E+00 0.  1.
          5    1    4    4  501    0 -0.95199410423E+01 -0.45646398200E+02  0.11715606709E+03  0.12616354229E+03  0.41800000000E+01 0.  1.
         -5    1    4    4    0  501 -0.79835581865E+02  0.68485018770E+02  0.42347630942E+03  0.43636403950E+03  0.41800000000E+01 0.  1.
</event>
<event>
11    1  0.6763327E-009  0.1543050E+03  0.7561462E-02  0.1092559E+00
         22   -1    0    0    0    0  0.00000000000E+00  0.00000000000E+00  0.27361723402E+03  0.27361723402E+03  0.00000000000E+00 0.  1.
         22   -1    0    0    0    0 -0.00000000000E+00 -0.00000000000E+00 -0.41352071183E+03  0.41352071183E+03  0.00000000000E+00 0. -1.
         24    2    1    2    0    0 -0.17873948515E+01  0.88409073602E+02 -0.32016869933E+03  0.34072216625E+03  0.75922588672E+02 0.  0.
         25    2    1    2    0    0  0.66121838396E+02 -0.11466530317E+03  0.89912363581E+02  0.20311330289E+03  0.12510216393E+03 0.  0.
        -24    2    1    2    0    0 -0.64334443544E+02  0.26256229570E+02  0.90352857935E+02  0.14330247671E+03  0.86854192046E+02 0.  0.
        -11    1    3    3    0    0  0.24268125440E+02  0.46295585802E+02 -0.80435986960E+02  0.95927947833E+02  0.00000000000E+00 0.  1.
         12    1    3    3    0    0 -0.26055520292E+02  0.42113487800E+02 -0.23973271237E+03  0.24479421842E+03  0.00000000000E+00 0. -1.
         13    1    5    5    0    0  0.16201560345E+02  0.17254577602E+01 -0.40738185550E+01  0.16794753935E+02  0.00000000000E+00 0. -1.
        -14    1    5    5    0    0 -0.80536003890E+02  0.24530771810E+02  0.94426676490E+02  0.12650772277E+03  0.00000000000E+00 0.  1.
          5    1    4    4  501    0 -0.27106222155E+02 -0.61391796049E+02  0.63440027954E+02  0.92443547360E+02  0.41800000000E+01 0.  1.
         -5    1    4    4    0  501  0.93228060551E+02 -0.53273507123E+02  0.26472335627E+02  0.11066975553E+03  0.41800000000E+01 0.  1.
</event>
<event>
11    1  0.6763327E-009  0.1489014E+03  0.7561462E-02  0.1098007E+00
         22   -1    0    0    0    0  0.00000000000E+00  0.00000000000E+00  0.10834294589E+04  0.10834294589E+04  0.00000000000E+00 0.  1.
         22   -1    0    0    0    0 -0.00000000000E+00 -0.00000000000E+00 -0.15784209780E+04  0.15784209780E+04  0.00000000000E+00 0. -1.
        -24    2    1    2    0    0  0.44043473212E+01 -0.84106485257E+02 -0.14407310946E+04  0.14454554395E+04  0.80882887477E+02 0.  0.
         25    2    1    2    0    0  0.87058416488E+01  0.34878259793E+02 -0.10171734049E+03  0.16518551901E+03  0.12509018206E+03 0.  0.
         24    2    1    2    0    0 -0.13110188970E+02  0.49228225464E+02  0.10474569159E+04  0.10512094784E+04  0.72664169031E+02 0.  0.
        -11    1    5    5    0    0 -0.41102081767E+02  0.13332271109E+02  0.50108402527E+03  0.50294366580E+03  0.00000000000E+00 0.  1.
         12    1    5    5    0    0  0.27991892797E+02  0.35895954355E+02  0.54637289067E+03  0.54826581259E+03  0.00000000000E+00 0. -1.
         13    1    3    3    0    0 -0.23373330505E+02 -0.35381177998E+02 -0.10347361680E+04  0.10356046918E+04  0.00000000000E+00 0. -1.
        -14    1    3    3    0    0  0.27777677826E+02 -0.48725307260E+02 -0.40599492656E+03  0.40985074764E+03  0.00000000000E+00 0.  1.
          5    1    4    4  501    0 -0.37583200242E+02 -0.21395090915E+02 -0.45859523629E+01  0.43689245986E+02  0.41800000000E+01 0.  1.
         -5    1    4    4    0  501  0.46289041891E+02  0.56273350708E+02 -0.97131388126E+02  0.12149627302E+03  0.41800000000E+01 0.  1.
</event>
<event>
11    1  0.6763327E-009  0.1608149E+03  0.7561462E-02  0.1086313E+00
         22   -1    0    0    0    0  0.00000000000E+00  0.00000000000E+00  0.64225637640E+03  0.64225637640E+03  0.00000000000E+00 0.  1.
         22   -1    0    0    0    0 -0.00000000000E+00 -0.00000000000E+00 -0.18061590983E+04  0.18061590983E+04  0.00000000000E+00 0.  1.
         24    2    1    2    0    0 -0.94134293249E+02  0.36316999569E+02 -0.17633849620E+04  0.17682934309E+04  0.84586901466E+02 0.  0.
         25    2    1    2    0    0  0.11093900908E+03 -0.30585296601E+02  0.16119265495E+03  0.23425097483E+03  0.12509005994E+03 0.  0.
        -24    2    1    2    0    0 -0.16804715828E+02 -0.57317029681E+01  0.43828958515E+03  0.44587106897E+03  0.79924957305E+02 0.  0.
        -11    1    3    3    0    0 -0.68506767983E+02 -0.13658034035E+02 -0.12241779823E+04  0.12261694220E+04  0.00000000000E+00 0.  1.
         12    1    3    3    0    0 -0.25627525267E+02  0.49975033605E+02 -0.53920697980E+03  0.54212400897E+03  0.00000000000E+00 0. -1.
         13    1    5    5    0    0  0.16950764259E+02  0.12427408131E+02  0.35453394140E+02  0.41215434461E+02  0.00000000000E+00 0. -1.
        -14    1    5    5    0    0 -0.33755480087E+02 -0.18159111099E+02  0.40283619101E+03  0.40465563451E+03  0.00000000000E+00 0.  1.
          5    1    4    4  501    0  0.31171064512E+02  0.11299274443E+02  0.13679347507E+03  0.14081632039E+03  0.41800000000E+01 0.  1.
         -5    1    4    4    0  501  0.79767944565E+02 -0.41884571045E+02  0.24399179874E+02  0.93434654440E+02  0.41800000000E+01 0.  1.
</event>
<event>
11    1  0.6763327E-009  0.2529111E+03  0.7561462E-02  0.1022360E+00
         22   -1    0    0    0    0  0.00000000000E+00  0.00000000000E+00  0.25865858635E+03  0.25865858635E+03  0.00000000000E+00 0. -1.
         22   -1    0    0    0    0 -0.00000000000E+00 -0.00000000000E+00 -0.28103333486E+04  0.28103333486E+04  0.00000000000E+00 0. -1.
         24    2    1    2    0    0 -0.18501862092E+03 -0.12200632676E+03 -0.25449700285E+04  0.25558656847E+04  0.80371128795E+02 0.  0.
         25    2    1    2    0    0  0.15112804344E+03  0.13536047123E+03 -0.19285616883E+03  0.30659992984E+03  0.12509145628E+03 0.  0.
        -24    2    1    2    0    0  0.33890577476E+02 -0.13354144471E+02  0.18615143510E+03  0.20652632042E+03  0.81693695108E+02 0.  0.
        -13    1    3    3    0    0 -0.28098262709E+02 -0.40062496386E+02 -0.30388238167E+03  0.30779704007E+03  0.00000000000E+00 0.  1.
         14    1    3    3    0    0 -0.15692035821E+03 -0.81943830376E+02 -0.22410876468E+04  0.22480686446E+04  0.00000000000E+00 0. -1.
         11    1    5    5    0    0 -0.20881838904E+01 -0.41255276262E+02  0.11354341248E+03  0.12082410707E+03  0.00000000000E+00 0. -1.
        -12    1    5    5    0    0  0.35978761366E+02  0.27901131790E+02  0.72608022620E+02  0.85702213352E+02  0.00000000000E+00 0.  1.
          5    1    4    4  501    0  0.37310707019E+02  0.32682165128E+02  0.11519952760E+02  0.51092019801E+02  0.41800000000E+01 0. -1.
         -5    1    4    4    0  501  0.11381733642E+03  0.10267830611E+03 -0.20437612159E+03  0.25550791004E+03  0.41800000000E+01 0. -1.
</event>
<event>
11    1  0.6763327E-009  0.1410858E+03  0.7561462E-02  0.1106352E+00
         22   -1    0    0    0    0  0.00000000000E+00  0.00000000000E+00  0.85486205614E+02  0.85486205614E+02  0.00000000000E+00 0. -1.
         22   -1    0    0    0    0 -0.00000000000E+00 -0.00000000000E+00 -0.12110954231E+04  0.12110954231E+04  0.00000000000E+00 0.  1.
         24    2    1    2    0    0  0.21450697384E+02 -0.52997092978E+02 -0.87348123435E+03  0.87942698695E+03  0.84578569002E+02 0.  0.
         25    2    1    2    0    0  0.45900017785E+02  0.37395393869E+02 -0.27587619426E+03  0.30864463388E+03  0.12509439775E+03 0.  0.
        -24    2    1    2    0    0 -0.67350715169E+02  0.15601699109E+02  0.23748211154E+02  0.10851000785E+03  0.80192969905E+02 0.  0.
        -13    1    3    3    0    0 -0.12183904494E+02 -0.46157391642E+02 -0.74218089223E+03  0.74371461538E+03  0.00000000000E+00 0.  1.
         14    1    3    3    0    0  0.33634601878E+02 -0.68397013361E+01 -0.13130034212E+03  0.13571237157E+03  0.00000000000E+00 0. -1.
         11    1    5    5    0    0 -0.80674245902E+02  0.17561938137E+02  0.15882871890E+01  0.82578921519E+02  0.00000000000E+00 0. -1.
        -12    1    5    5    0    0  0.13323530733E+02 -0.19602390279E+01  0.22159923965E+02  0.25931086333E+02  0.00000000000E+00 0.  1.
          5    1    4    4  501    0  0.57422103673E+02 -0.10069845967E+02 -0.24224217357E+03  0.24919358508E+03  0.41800000000E+01 0.  1.
         -5    1    4    4    0  501 -0.11522085888E+02  0.47465239836E+02 -0.33634020689E+02  0.59451048802E+02  0.41800000000E+01 0.  1.
</event>
<event>
11    1  0.6763327E-009  0.1617603E+03  0.7561462E-02  0.1085433E+00
         22   -1    0    0    0    0  0.00000000000E+00  0.00000000000E+00  0.15548259391E+03  0.15548259391E+03  0.00000000000E+00 0.  1.
         22   -1    0    0    0    0 -0.00000000000E+00 -0.00000000000E+00 -0.13092427405E+04  0.13092427405E+04  0.00000000000E+00 0. -1.
         24    2    1    2    0    0  0.32291274401E+02 -0.15654166945E+02 -0.10540979486E+04  0.10577063512E+04  0.79576759694E+02 0.  0.
         25    2    1    2    0    0  0.19543819004E+02 -0.77395085754E+02 -0.19376773726E+03  0.24406196540E+03  0.12509335230E+03 0.  0.
        -24    2    1    2    0    0 -0.51835093406E+02  0.93049252699E+02  0.94105539259E+02  0.16295701786E+03  0.79712588808E+02 0.  0.
        -11    1    3    3    0    0  0.48842775333E+02  0.15818718366E+02 -0.67124417058E+03  0.67320471262E+03  0.00000000000E+00 0.  1.
         12    1    3    3    0    0 -0.16551500931E+02 -0.31472885311E+02 -0.38285377805E+03  0.38450163857E+03  0.00000000000E+00 0. -1.
         11    1    5    5    0    0  0.14544418341E+02 -0.41195453708E+01  0.77042922233E+01  0.16966640139E+02  0.00000000000E+00 0. -1.
        -12    1    5    5    0    0 -0.66379511746E+02  0.97168798070E+02  0.86401247036E+02  0.14599037772E+03  0.00000000000E+00 0.  1.
          5    1    4    4  501    0  0.15410797256E+02 -0.10720372594E+03 -0.18128445364E+03  0.21121471790E+03  0.41800000000E+01 0. -1.
         -5    1    4    4    0  501  0.41330217483E+01  0.29808640181E+02 -0.12483283623E+02  0.32847247498E+02  0.41800000000E+01 0. -1.
</event>
<event>
11    1  0.6763327E-009  0.1336454E+03  0.7561462E-02  0.1114869E+00
         22   -1    0    0    0    0  0.00000000000E+00  0.00000000000E+00  0.10865845549E+04  0.10865845549E+04  0.00000000000E+00 0. -1.
         22   -1    0    0    0    0 -0.00000000000E+00 -0.00000000000E+00 -0.95382739778E+03  0.95382739778E+03  0.00000000000E+00 0. -1.
        -24    2    1    2    0    0 -0.84949143337E+01  0.16528163280E+01 -0.58001595374E+03  0.58574576936E+03  0.81269332224E+02 0.  0.
         25    2    1    2    0    0 -0.34713088052E+02  0.17127007036E+02 -0.35684064549E+03  0.38010572735E+03  0.12508710900E+03 0.  0.
         24    2    1    2    0    0  0.43208002386E+02 -0.18779823364E+02  0.10696137564E+04  0.10745604560E+04  0.91580415345E+02 0.  0.
        -11    1    5    5    0    0  0.29583724602E+02  0.18938296411E+02  0.14942245008E+03  0.15349568209E+03  0.00000000000E+00 0.  1.
         12    1    5    5    0    0  0.13624277784E+02 -0.37718119776E+02  0.92019130631E+03  0.92106477390E+03  0.00000000000E+00 0. -1.
         13    1    3    3    0    0 -0.22318545276E+02  0.35153441029E+02 -0.39688141681E+03  0.39905982119E+03  0.00000000000E+00 0. -1.
        -14    1    3    3    0    0  0.13823630942E+02 -0.33500624701E+02 -0.18313453693E+03  0.18668594817E+03  0.00000000000E+00 0.  1.
          5    1    4    4  501    0  0.28549403612E+02  0.39428735375E+02 -0.24336070036E+03  0.24821683364E+03  0.41800000000E+01 0.  1.
         -5    1    4    4    0  501 -0.63262491664E+02 -0.22301728339E+02 -0.11347994513E+03  0.13188889372E+03  0.41800000000E+01 0.  1.
</event>
<event>
11    1  0.6763327E-009  0.1681706E+03  0.7561462E-02  0.1079635E+00
         22   -1    0    0    0    0  0.00000000000E+00  0.00000000000E+00  0.92179506871E+03  0.92179506871E+03  0.00000000000E+00 0. -1.
         22   -1    0    0    0    0 -0.00000000000E+00 -0.00000000000E+00 -0.44964826796E+03  0.44964826796E+03  0.00000000000E+00 0. -1.
        -24    2    1    2    0    0 -0.10843536568E+03 -0.31928317220E+02 -0.35788610912E+03  0.38715526840E+03  0.95021517443E+02 0.  0.
         25    2    1    2    0    0  0.10679924874E+03  0.20956615154E+02  0.16214686778E+02  0.16659891892E+03  0.12508806685E+03 0.  0.
         24    2    1    2    0    0  0.16361169420E+01  0.10971702066E+02  0.81381822310E+03  0.81768914934E+03  0.78691737642E+02 0.  0.
        -11    1    5    5    0    0 -0.12145846584E+02  0.52984993772E+01  0.21668304204E+02  0.25399037225E+02  0.00000000000E+00 0.  1.
         12    1    5    5    0    0  0.13781963526E+02  0.56732026892E+01  0.79214991890E+03  0.79229011212E+03  0.00000000000E+00 0. -1.
         13    1    3    3    0    0 -0.12491071657E+03 -0.32657211335E+02 -0.33439012930E+03  0.35844935366E+03  0.00000000000E+00 0. -1.
        -14    1    3    3    0    0  0.16475350885E+02  0.72889411479E+00 -0.23495979827E+02  0.28705914747E+02  0.00000000000E+00 0.  1.
          5    1    4    4  501    0 -0.23437092462E+02 -0.15937791397E+02  0.12130065182E+02  0.31111434859E+02  0.41800000000E+01 0. -1.
         -5    1    4    4    0  501  0.13023634120E+03  0.36894406551E+02  0.40846215966E+01  0.13548748407E+03  0.41800000000E+01 0. -1.
</event>
<event>
11    1  0.6763327E-009  0.1310183E+03  0.7561462E-02  0.1118024E+00
         22   -1    0    0    0    0  0.00000000000E+00  0.00000000000E+00  0.87651522259E+03  0.87651522259E+03  0.00000000000E+00 0. -1.
         22   -1    0    0    0    0 -0.00000000000E+00 -0.00000000000E+00 -0.13491142393E+04  0.13491142393E+04  0.00000000000E+00 0. -1.
         24    2    1    2    0    0 -0.43466308143E+01  0.43485547394E+02 -0.13078764421E+04  0.13109944994E+04  0.79094270560E+02 0.  0.
         25    2    1    2    0    0  0.10756080726E+02 -0.17330508957E+01  0.71116881309E+02  0.14430576348E+03  0.12509134993E+03 0.  0.
        -24    2    1    2    0    0 -0.64094499117E+01 -0.41752496498E+02  0.76416054407E+03  0.77032919901E+03  0.87643515020E+02 0.  0.
        -13    1    3    3    0    0  0.10376938217E+02 -0.15352309336E+02 -0.66627707213E+03  0.66653470359E+03  0.00000000000E+00 0.  1.
         14    1    3    3    0    0 -0.14723569032E+02  0.58837856730E+02 -0.64159936994E+03  0.64445979578E+03  0.00000000000E+00 0. -1.
         11    1    5    5    0    0 -0.44510657134E+02 -0.38791758289E+02  0.45395231000E+03  0.45777581726E+03  0.00000000000E+00 0. -1.
        -12    1    5    5    0    0  0.38101207222E+02 -0.29607382086E+01  0.31020823407E+03  0.31255338176E+03  0.00000000000E+00 0.  1.
          5    1    4    4  501    0 -0.24142473602E+02  0.52945922369E+02  0.47203830951E+02  0.75045344850E+02  0.41800000000E+01 0. -1.
         -5    1    4    4    0  501  0.34898554328E+02 -0.54678973265E+02  0.23913050358E+02  0.69260418630E+02  0.41800000000E+01 0. -1.
</event>
<event>
11    1  0.6763327E-009  0.1357586E+03  0.7561462E-02  0.1112389E+00
         22   -1    0    0    0    0  0.00000000000E+00  0.00000000000E+00  0.17576295357E+04  0.17576295357E+04  0.00000000000E+00 0.  1.
         22   -1    0    0    0    0 -0.00000000000E+00 -0.00000000000E+00 -0.11742310220E+04  0.11742310220E+04  0.00000000000E+00 0.  1.
         24    2    1    2    0    0 -0.43530493891E+02  0.22502008152E+02 -0.11389322841E+04  0.11425799758E+04  0.76948093927E+02 0.  0.
         25    2    1    2    0    0  0.92251131642E+02 -0.36627008624E+02  0.16676775170E+03  0.23089000940E+03  0.12508758685E+03 0.  0.
        -24    2    1    2    0    0 -0.48720637751E+02  0.14125000471E+02  0.15555630460E+04  0.15583905725E+04  0.78940294470E+02 0.  0.
        -11    1    3    3    0    0 -0.42153503748E+02  0.43514380789E+02 -0.10200208523E+04  0.10218184567E+04  0.00000000000E+00 0.  1.
         12    1    3    3    0    0 -0.13769901429E+01 -0.21012372637E+02 -0.11891143175E+03  0.12076151914E+03  0.00000000000E+00 0. -1.
         11    1    5    5    0    0  0.15438675581E+02  0.14487252905E+02  0.16565330949E+03  0.16700075493E+03  0.00000000000E+00 0. -1.
        -12    1    5    5    0    0 -0.64159313332E+02 -0.36225243361E+00  0.13899097365E+04  0.13913898176E+04  0.00000000000E+00 0.  1.
          5    1    4    4  501    0  0.86453958173E+02  0.20537182526E+02  0.53481002338E+02  0.10379668955E+03  0.41800000000E+01 0.  1.
         -5    1    4    4    0  501  0.57971734687E+01 -0.57164191149E+02  0.11328674937E+03  0.12709331986E+03  0.41800000000E+01 0.  1.
</event>
<event>
11    1  0.6763327E-009  0.1592514E+03  0.7561462E-02  0.1087784E+00
         22   -1    0    0    0    0  0.00000000000E+00  0.00000000000E+00  0.32201214006E+03  0.32201214006E+03  0.00000000000E+00 0. -1.
         22   -1    0    0    0    0 -0.00000000000E+00 -0.00000000000E+00 -0.19100802900E+04  0.19100802900E+04  0.00000000000E+00 0. -1.
        -24    2    1    2    0    0 -0.53873563801E+02 -0.82503344869E+02 -0.18068718983E+04  0.18113735951E+04  0.81111538182E+02 0.  0.
         25    2    1    2    0    0  0.13630647866E+03  0.28724727454E+02  0.24707856958E+02  0.18884540568E+03  0.12509013933E+03 0.  0.
         24    2    1    2    0    0 -0.82432914861E+02  0.53778617415E+02  0.19409589131E+03  0.23187342931E+03  0.80029663584E+02 0.  0.
        -11    1    5    5    0    0 -0.31301161437E+02 -0.89481757131E+01  0.16045120464E+02  0.36294330778E+02  0.00000000000E+00 0.  1.
         12    1    5    5    0    0 -0.51131753424E+02  0.62726793128E+02  0.17805077084E+03  0.19557909853E+03  0.00000000000E+00 0. -1.
         11    1    3    3    0    0 -0.16406846844E+02 -0.10433404412E+02 -0.10455585839E+04  0.10457393522E+04  0.00000000000E+00 0. -1.
        -12    1    3    3    0    0 -0.37466716957E+02 -0.72069940457E+02 -0.76131331439E+03  0.76563424288E+03  0.00000000000E+00 0.  1.
          5    1    4    4  501    0  0.66528731998E+02 -0.35059824446E+02  0.50600600574E+02  0.90736743660E+02  0.41800000000E+01 0. -1.
         -5    1    4    4    0  501  0.69777746664E+02  0.63784551900E+02 -0.25892743616E+02  0.98108662016E+02  0.41800000000E+01 0. -1.
</event>
<event>
11    1  0.6763327E-009  0.1373922E+03  0.7561462E-02  0.1110506E+00
         22   -1    0    0    0    0  0.00000000000E+00  0.00000000000E+00  0.16497580440E+04  0.16497580440E+04  0.00000000000E+00 0.  1.
         22   -1    0    0    0    0 -0.00000000000E+00 -0.00000000000E+00 -0.10404721838E+04  0.10404721838E+04  0.00000000000E+00 0.  1.
         24    2    1    2    0    0 -0.11039540289E+02 -0.55581316692E+02 -0.10205930493E+04  0.10256523732E+04  0.84507183354E+02 0.  0.
         25    2    1    2    0    0  0.30554206367E+02  0.73693603720E+02  0.32543705483E+03  0.35766049580E+03  0.12508975516E+03 0.  0.
        -24    2    1    2    0    0 -0.19514666078E+02 -0.18112287028E+02  0.13044418547E+04  0.13069173589E+04  0.75865365497E+02 0.  0.
        -13    1    3    3    0    0 -0.18963534357E+02 -0.53634804012E+02 -0.10127108431E+04  0.10143074286E+04  0.00000000000E+00 0.  1.
         14    1    3    3    0    0  0.79239940684E+01 -0.19465126793E+01 -0.78822061859E+01  0.11344944599E+02  0.00000000000E+00 0. -1.
         13    1    5    5    0    0  0.21659241680E+02 -0.17804958550E+02  0.23242644212E+03  0.23411149117E+03  0.00000000000E+00 0. -1.
        -14    1    5    5    0    0 -0.41173907758E+02 -0.30732847865E+00  0.10720154126E+04  0.10728058677E+04  0.00000000000E+00 0.  1.
          5    1    4    4  501    0  0.40848603127E+02 -0.25635316632E+02  0.10794161006E+03  0.11829894936E+03  0.41800000000E+01 0. -1.
         -5    1    4    4    0  501 -0.10294396760E+02  0.99328920352E+02  0.21749544476E+03  0.23936154644E+03  0.41800000000E+01 0. -1.
</event>
<event>
11    1  0.6763327E-009  0.1405655E+03  0.7561462E-02  0.1106929E+00
         22   -1    0    0    0    0  0.00000000000E+00  0.00000000000E+00  0.37377532059E+02  0.37377532059E+02  0.00000000000E+00 0.  1.
         22   -1    0    0    0    0 -0.00000000000E+00 -0.00000000000E+00 -0.16808329666E+04  0.16808329666E+04  0.00000000000E+00 0.  1.
        -24    2    1    2    0    0  0.25219959009E+02 -0.57416831331E+02 -0.10919914366E+04  0.10967562620E+04  0.80599391595E+02 0.  0.
         25    2    1    2    0    0  0.22847578290E+02  0.83475828885E+02 -0.47470234948E+03  0.49847802180E+03  0.12509113389E+03 0.  0.
         24    2    1    2    0    0 -0.48067537299E+02 -0.26058997554E+02 -0.76761648507E+02  0.12297621483E+03  0.79001514147E+02 0.  0.
        -13    1    5    5    0    0 -0.53936492893E+02 -0.48100904418E+02 -0.65511686163E+02  0.97542930525E+02  0.00000000000E+00 0.  1.
         14    1    5    5    0    0  0.58689555939E+01  0.22041906864E+02 -0.11249962344E+02  0.25433284308E+02  0.00000000000E+00 0. -1.
         11    1    3    3    0    0 -0.24615480022E+02 -0.44100202939E+02 -0.55429068575E+03  0.55658684324E+03  0.00000000000E+00 0. -1.
        -12    1    3    3    0    0  0.49835439031E+02 -0.13316628393E+02 -0.53770075081E+03  0.54016941879E+03  0.00000000000E+00 0.  1.
          5    1    4    4  501    0 -0.50611691471E+02  0.29443141217E+02 -0.14668188740E+03  0.15799205793E+03  0.41800000000E+01 0.  1.
         -5    1    4    4    0  501  0.73459269761E+02  0.54032687668E+02 -0.32802046208E+03  0.34048596388E+03  0.41800000000E+01 0.  1.
</event>
<event>
11    1  0.6763327E-009  0.1909586E+03  0.7561462E-02  0.1061108E+00
         22   -1    0    0    0    0  0.00000000000E+00  0.00000000000E+00  0.28291496526E+03  0.28291496526E+03  0.00000000000E+00 0.  1.
         22   -1    0    0    0    0 -0.00000000000E+00 -0.00000000000E+00 -0.51121298829E+03  0.51121298829E+03  0.00000000000E+00 0. -1.
        -24    2    1    2    0    0 -0.12781724704E+01 -0.48793357978E+02 -0.37222828691E+03  0.38397078332E+03  0.80605454908E+02 0.  0.
         25    2    1    2    0    0  0.11216947081E+03 -0.57095611239E+02 -0.11846755145E+02  0.17784878211E+03  0.12509174507E+03 0.  0.
         24    2    1    2    0    0 -0.11089129834E+03  0.10588896922E+03  0.15577701903E+03  0.23230838813E+03  0.78685155444E+02 0.  0.
        -13    1    5    5    0    0 -0.10599596800E+03  0.11579046468E+03  0.15593012258E+03  0.22126179081E+03  0.00000000000E+00 0.  1.
         14    1    5    5    0    0 -0.48953303411E+01 -0.99014954665E+01 -0.15310355199E+00  0.11046597319E+02  0.00000000000E+00 0. -1.
         11    1    3    3    0    0 -0.16115235744E+01  0.21139476055E+02 -0.51243489269E+02  0.55456015441E+02  0.00000000000E+00 0. -1.
        -12    1    3    3    0    0  0.33335110404E+00 -0.69932834033E+02 -0.32098479764E+03  0.32851476788E+03  0.00000000000E+00 0.  1.
          5    1    4    4  501    0  0.92810234333E+02 -0.94795331281E+02  0.29577110079E+01  0.13276337930E+03  0.41800000000E+01 0. -1.
         -5    1    4    4    0  501  0.19359236478E+02  0.37699720041E+02 -0.14804466153E+02  0.45085402807E+02  0.41800000000E+01 0. -1.
</event>
<event>
11    1  0.6763327E-009  0.1351709E+03  0.7561462E-02  0.1113074E+00
         22   -1    0    0    0    0  0.00000000000E+00  0.00000000000E+00  0.78640684766E+03  0.78640684766E+03  0.00000000000E+00 0.  1.
         22   -1    0    0    0    0 -0.00000000000E+00 -0.00000000000E+00 -0.79541400169E+03  0.79541400169E+03  0.00000000000E+00 0. -1.
        -24    2    1    2    0    0  0.33013353742E+02  0.40711830615E+02 -0.72409903987E+03  0.73039455026E+03  0.80059008454E+02 0.  0.
         25    2    1    2    0    0 -0.35363012996E+02 -0.57262875560E+01 -0.71153171014E+00  0.13011531960E+03  0.12508459961E+03 0.  0.
         24    2    1    2    0    0  0.23496592542E+01 -0.34985543059E+02  0.71580341756E+03  0.72131097949E+03  0.81764829969E+02 0.  0.
        -11    1    5    5    0    0 -0.43944043414E+01 -0.45778393459E+02  0.69751919679E+03  0.69903362007E+03  0.00000000000E+00 0.  1.
         12    1    5    5    0    0  0.67440635956E+01  0.10792850400E+02  0.18284220768E+02  0.22277359418E+02  0.00000000000E+00 0. -1.
         11    1    3    3    0    0  0.48818892351E+02  0.49429090113E+02 -0.66450887187E+03  0.66813064591E+03  0.00000000000E+00 0. -1.
        -12    1    3    3    0    0 -0.15805538609E+02 -0.87172594982E+01 -0.59590167998E+02  0.62263904358E+02  0.00000000000E+00 0.  1.
          5    1    4    4  501    0 -0.56890167731E+02  0.46329031336E+02 -0.33992353042E+01  0.73565600178E+02  0.41800000000E+01 0.  1.
         -5    1    4    4    0  501  0.21527154734E+02 -0.52055318892E+02  0.26877035941E+01  0.56549719420E+02  0.41800000000E+01 0.  1.
</event>
<event>
11    1  0.6763327E-009  0.1346148E+03  0.7561462E-02  0.1113725E+00
         22   -1    0    0    0    0  0.00000000000E+00  0.00000000000E+00  0.10258403561E+04  0.10258403561E+04  0.00000000000E+00 0.  1.
         22   -1    0    0    0    0 -0.00000000000E+00 -0.00000000000E+00 -0.37143304228E+03  0.37143304228E+03  0.00000000000E+00 0.  1.
         24    2    1    2    0    0 -0.22498984298E+02  0.19455837395E+02 -0.34411882268E+03  0.35467812497E+03  0.80585819519E+02 0.  0.
         25    2    1    2    0    0  0.18623670615E+02  0.32907697879E+02  0.20498181332E+03  0.24309329502E+03  0.12508816334E+03 0.  0.
        -24    2    1    2    0    0  0.38753136828E+01 -0.52363535274E+02  0.79354432318E+03  0.79950197839E+03  0.82060116475E+02 0.  0.
        -13    1    3    3    0    0  0.15616364129E+02  0.13247065205E+02 -0.27286403355E+03  0.27363138776E+03  0.00000000000E+00 0.  1.
         14    1    3    3    0    0 -0.38115348427E+02  0.62087721895E+01 -0.71254789130E+02  0.81046737206E+02  0.00000000000E+00 0. -1.
         11    1    5    5    0    0 -0.13810113349E+02 -0.47136685221E+02  0.21005604240E+03  0.21572233837E+03  0.00000000000E+00 0. -1.
        -12    1    5    5    0    0  0.17685427032E+02 -0.52268500525E+01  0.58348828078E+03  0.58377964002E+03  0.00000000000E+00 0.  1.
          5    1    4    4  501    0  0.15697490690E+02 -0.23253523114E+02  0.17859343906E+03  0.18083203927E+03  0.41800000000E+01 0. -1.
         -5    1    4    4    0  501  0.29261799248E+01  0.56161220993E+02  0.26388374262E+02  0.62261255758E+02  0.41800000000E+01 0. -1.
</event>
<event>
11    1  0.6763327E-009  0.1449717E+03  0.7561462E-02  0.1102130E+00
         22   -1    0    0    0    0  0.00000000000E+00  0.00000000000E+00  0.26219304418E+03  0.26219304418E+03  0.00000000000E+00 0. -1.
         22   -1    0    0    0    0 -0.00000000000E+00 -0.00000000000E+00 -0.38985115840E+03  0.38985115840E+03  0.00000000000E+00 0. -1.
         24    2    1    2    0    0 -0.43639433050E+02 -0.27731395160E+02 -0.31639382439E+03  0.32980888090E+03  0.77430067886E+02 0.  0.
         25    2    1    2    0    0  0.40164210116E+02 -0.56789880263E+02  0.11383251290E+03  0.18287581047E+03  0.12508983487E+03 0.  0.
        -24    2    1    2    0    0  0.34752229341E+01  0.84521275423E+02  0.74903197271E+02  0.13935951121E+03  0.81576106983E+02 0.  0.
        -11    1    3    3    0    0 -0.18501056276E+02  0.16185692588E+02 -0.29101768180E+02  0.38094338675E+02  0.00000000000E+00 0.  1.
         12    1    3    3    0    0 -0.25138376775E+02 -0.43917087749E+02 -0.28729205621E+03  0.29171454223E+03  0.00000000000E+00 0. -1.
         11    1    5    5    0    0 -0.12387072590E+02  0.21180608587E+02  0.69657227175E+02  0.73852468105E+02  0.00000000000E+00 0. -1.
        -12    1    5    5    0    0  0.15862295524E+02  0.63340666836E+02  0.52459700962E+01  0.65507043108E+02  0.00000000000E+00 0.  1.
          5    1    4    4  501    0  0.12091063793E+02 -0.94817179740E+02  0.76306707762E+02  0.12237923618E+03  0.41800000000E+01 0. -1.
         -5    1    4    4    0  501  0.28073146323E+02  0.38027299477E+02  0.37525805137E+02  0.60496574293E+02  0.41800000000E+01 0. -1.
</event>
<event>
11    1  0.6763327E-009  0.1635795E+03  0.7561462E-02  0.1083758E+00
         22   -1    0    0    0    0  0.00000000000E+00  0.00000000000E+00  0.95925174614E+03  0.95925174614E+03  0.00000000000E+00 0.  1.
         22   -1    0    0    0    0 -0.00000000000E+00 -0.00000000000E+00 -0.15579540085E+03  0.15579540085E+03  0.00000000000E+00 0.  1.
         24    2    1    2    0    0  0.44303925556E+02 -0.95227513352E+02 -0.80660710504E+02  0.15653141485E+03  0.83455476135E+02 0.  0.
         25    2    1    2    0    0  0.16549047132E+02  0.12351708438E+03  0.20551322116E+03  0.27094047501E+03  0.12507084325E+03 0.  0.
        -24    2    1    2    0    0 -0.60852972688E+02 -0.28289571032E+02  0.67860383463E+03  0.68757525713E+03  0.88052176194E+02 0.  0.
        -11    1    3    3    0    0  0.67848905221E+02 -0.80643282815E+02 -0.71522967431E+02  0.12736698109E+03  0.00000000000E+00 0.  1.
         12    1    3    3    0    0 -0.23544979665E+02 -0.14584230537E+02 -0.91377430728E+01  0.29164433755E+02  0.00000000000E+00 0. -1.
         13    1    5    5    0    0  0.17418205250E+02 -0.39640462212E+01  0.40970707027E+02  0.44695708640E+02  0.00000000000E+00 0. -1.
        -14    1    5    5    0    0 -0.78271177938E+02 -0.24325524811E+02  0.63763312760E+03  0.64287954849E+03  0.00000000000E+00 0.  1.
          5    1    4    4  501    0  0.64649728640E+02  0.31184626645E+02  0.93672747436E+02  0.11808524194E+03  0.41800000000E+01 0.  1.
         -5    1    4    4    0  501 -0.48100681508E+02  0.92332457738E+02  0.11184047372E+03  0.15285523306E+03  0.41800000000E+01 0.  1.
</event>
<event>
11    1  0.6763327E-009  0.1567072E+03  0.7561462E-02  0.1090216E+00
         22   -1    0    0    0    0  0.00000000000E+00  0.00000000000E+00  0.29402218086E+03  0.29402218086E+03  0.00000000000E+00 0. -1.
         22   -1    0    0    0    0 -0.00000000000E+00 -0.00000000000E+00 -0.12591724135E+04  0.12591724135E+04  0.00000000000E+00 0.  1.
        -24    2    1    2    0    0 -0.17620611577E+01 -0.21256376954E+02 -0.10988180731E+04  0.11020402342E+04  0.81465217378E+02 0.  0.
         25    2    1    2    0    0  0.72917744222E+02  0.81073745322E+02 -0.95781237765E+02  0.19160083518E+03  0.12508750909E+03 0.  0.
         24    2    1    2    0    0 -0.71155683064E+02 -0.59817368368E+02  0.22944907823E+03  0.25955352496E+03  0.77973739364E+02 0.  0.
        -11    1    5    5    0    0 -0.30329483086E+00 -0.49441200167E+02  0.10248470357E+03  0.11378769146E+03  0.00000000000E+00 0.  1.
         12    1    5    5    0    0 -0.70852388233E+02 -0.10376168200E+02  0.12696437466E+03  0.14576583351E+03  0.00000000000E+00 0. -1.
         11    1    3    3    0    0 -0.76979581761E+01  0.18276163350E+02 -0.79415032139E+02  0.81853674545E+02  0.00000000000E+00 0. -1.
        -12    1    3    3    0    0  0.59358970185E+01 -0.39532540304E+02 -0.10194030409E+04  0.10201865596E+04  0.00000000000E+00 0.  1.
          5    1    4    4  501    0  0.85308225002E+01  0.38602092032E+02 -0.10644107524E+03  0.11362249487E+03  0.41800000000E+01 0. -1.
         -5    1    4    4    0  501  0.64386921722E+02  0.42471653289E+02  0.10659837479E+02  0.77978340307E+02  0.41800000000E+01 0. -1.
</event>
<event>
11    1  0.6763327E-009  0.1318271E+03  0.7561462E-02  0.1117044E+00
         22   -1    0    0    0    0  0.00000000000E+00  0.00000000000E+00  0.39735753107E+03  0.39735753107E+03  0.00000000000E+00 0. -1.
         22   -1    0    0    0    0 -0.00000000000E+00 -0.00000000000E+00 -0.41514199646E+03  0.41514199646E+03  0.00000000000E+00 0. -1.
        -24    2    1    2    0    0  0.16548418674E+02  0.34512681650E+02 -0.30317970999E+03  0.31543793174E+03  0.78218775699E+02 0.  0.
         25    2    1    2    0    0 -0.37531188959E+02 -0.58563797669E+02 -0.49355921936E+02  0.15140509889E+03  0.12509671618E+03 0.  0.
         24    2    1    2    0    0  0.20982770285E+02  0.24051116019E+02  0.33475116654E+03  0.34565649690E+03  0.80008359037E+02 0.  0.
        -11    1    5    5    0    0  0.13446956820E+02 -0.19150694890E+02  0.31445215279E+02  0.39196572892E+02  0.00000000000E+00 0.  1.
         12    1    5    5    0    0  0.75358134650E+01  0.43201810909E+02  0.30330595126E+03  0.30645992401E+03  0.00000000000E+00 0. -1.
         11    1    3    3    0    0  0.36577219329E+02  0.17173874185E+02 -0.70534500371E+02  0.81289302316E+02  0.00000000000E+00 0. -1.
        -12    1    3    3    0    0 -0.20028800655E+02  0.17338807465E+02 -0.23264520962E+03  0.23414862942E+03  0.00000000000E+00 0.  1.
          5    1    4    4  501    0 -0.66609932441E+02 -0.30616900417E+01  0.68065064050E+01  0.67156965202E+02  0.41800000000E+01 0. -1.
         -5    1    4    4    0  501  0.29078743482E+02 -0.55502107627E+02 -0.56162428341E+02  0.84248133693E+02  0.41800000000E+01 0. -1.
</event>
<event>
11    1  0.6763327E-009  0.1620825E+03  0.7561462E-02  0.1085135E+00
         22   -1    0    0    0    0  0.00000000000E+00  0.00000000000E+00  0.64551066284E+03  0.64551066284E+03  0.00000000000E+00 0. -1.
         22   -1    0    0    0    0 -0.00000000000E+00 -0.00000000000E+00 -0.28683982341E+03  0.28683982341E+03  0.00000000000E+00 0.  1.
         24    2    1    2    0    0 -0.49285618848E+02 -0.12632658355E+02 -0.23622191640E+03  0.25753287680E+03  0.89071502529E+02 0.  0.
         25    2    1    2    0    0 -0.46998620527E+02 -0.52851917027E+02  0.15110629732E+03  0.20852064420E+03  0.12508217500E+03 0.  0.
        -24    2    1    2    0    0  0.96284239375E+02  0.65484575382E+02  0.44378645851E+03  0.46629696525E+03  0.83231933020E+02 0.  0.
        -11    1    3    3    0    0 -0.18726208580E+02  0.24114294572E+02 -0.18489814671E+03  0.18740196036E+03  0.00000000000E+00 0.  1.
         12    1    3    3    0    0 -0.30559410269E+02 -0.36746952927E+02 -0.51323769692E+02  0.70130916440E+02  0.00000000000E+00 0. -1.
         13    1    5    5    0    0  0.88530313481E+02  0.59726884032E+02  0.44397375085E+03  0.45663728332E+03  0.00000000000E+00 0. -1.
        -14    1    5    5    0    0  0.77539258939E+01  0.57576913501E+01 -0.18729233242E+00  0.96596819238E+01  0.00000000000E+00 0.  1.
          5    1    4    4  501    0  0.23725785206E+01 -0.33856061695E+02 -0.12589074164E+02  0.36439253980E+02  0.41800000000E+01 0.  1.
         -5    1    4    4    0  501 -0.49371199048E+02 -0.18995855332E+02  0.16369537148E+03  0.17208139022E+03  0.41800000000E+01 0.  1.
</event>
<event>
11    1  0.6763327E-009  0.1262513E+03  0.7561462E-02  0.1123963E+00
         22   -1    0    0    0    0  0.00000000000E+00  0.00000000000E+00  0.49033814168E+03  0.49033814168E+03  0.00000000000E+00 0. -1.
         22   -1    0    0    0    0 -0.00000000000E+00 -0.00000000000E+00 -0.18027995083E+03  0.18027995083E+03  0.00000000000E+00 0. -1.
         24    2    1    2    0    0 -0.15682391209E+01  0.15754841523E+01 -0.13088246624E+03  0.15359660181E+03  0.80353933280E+02 0.  0.
         25    2    1    2    0    0 -0.36573815012E+01  0.14950391548E+02  0.85558160171E+02  0.15232978823E+03  0.12508906812E+03 0.  0.
        -24    2    1    2    0    0  0.52256206221E+01 -0.16525875700E+02  0.35538249691E+03  0.36469170248E+03  0.80018167092E+02 0.  0.
        -11    1    3    3    0    0  0.36181460886E+02  0.50557217281E+01 -0.35429673823E+02  0.50891258790E+02  0.00000000000E+00 0.  1.
         12    1    3    3    0    0 -0.37749700007E+02 -0.34802375758E+01 -0.95452792415E+02  0.10270534302E+03  0.00000000000E+00 0. -1.
         13    1    5    5    0    0  0.29337496637E+02 -0.38379218967E+02  0.23969716566E+03  0.24451663417E+03  0.00000000000E+00 0. -1.
        -14    1    5    5    0    0 -0.24111876014E+02  0.21853343267E+02  0.11568533125E+03  0.12017506831E+03  0.00000000000E+00 0.  1.
          5    1    4    4  501    0 -0.51262839092E+01  0.48881271423E+02 -0.10436286998E+02  0.50418706538E+02  0.41800000000E+01 0. -1.
         -5    1    4    4    0  501  0.14689024080E+01 -0.33930879875E+02  0.95994447169E+02  0.10191108169E+03  0.41800000000E+01 0. -1.
</event>
<event>
11    1  0.6763327E-009  0.1408545E+03  0.7561462E-02  0.1106608E+00
         22   -1    0    0    0    0  0.00000000000E+00  0.00000000000E+00  0.26192317742E+03  0.26192317742E+03  0.00000000000E+00 0. -1.
         22   -1    0    0    0    0 -0.00000000000E+00 -0.00000000000E+00 -0.12480514032E+04  0.12480514032E+04  0.00000000000E+00 0. -1.
         24    2    1    2    0    0  0.49450819654E+01  0.64997450378E+02 -0.97747188558E+03  0.98296370008E+03  0.80729338963E+02 0.  0.
         25    2    1    2    0    0 -0.20859133383E+02 -0.60064815340E+02 -0.24123807387E+03  0.27908139414E+03  0.12509089008E+03 0.  0.
        -24    2    1    2    0    0  0.15914051418E+02 -0.49326350386E+01  0.23258173368E+03  0.24792948640E+03  0.84244759274E+02 0.  0.
        -11    1    3    3    0    0 -0.62557098039E+01  0.28023417622E+02 -0.86229866181E+02  0.90884738333E+02  0.00000000000E+00 0.  1.
         12    1    3    3    0    0  0.11200791769E+02  0.36974032756E+02 -0.89124201940E+03  0.89207896174E+03  0.00000000000E+00 0. -1.
         11    1    5    5    0    0  0.38728402346E+02  0.12779451879E+02  0.20115016874E+03  0.20524276826E+03  0.00000000000E+00 0. -1.
        -12    1    5    5    0    0 -0.22814350928E+02 -0.17712086918E+02  0.31431564939E+02  0.42686718142E+02  0.00000000000E+00 0.  1.
          5    1    4    4  501    0  0.31465639804E+02  0.15052557072E+02 -0.13149861735E+03  0.13611034027E+03  0.41800000000E+01 0.  1.
         -5    1    4    4    0  501 -0.52324773187E+02 -0.75117372412E+02 -0.10973945652E+03  0.14297105387E+03  0.41800000000E+01 0.  1.
</event>
<event>
11    1  0.6763327E-009  0.1647033E+03  0.7561462E-02  0.1082735E+00
         22   -1    0    0    0    0  0.00000000000E+00  0.00000000000E+00  0.25286632805E+04  0.25286632805E+04  0.00000000000E+00 0.  1.
         22   -1    0    0    0    0 -0.00000000000E+00 -0.00000000000E+00 -0.14585162644E+03  0.14585162644E+03  0.00000000000E+00 0. -1.
         24    2    1    2    0    0  0.80245777158E+01 -0.12366652816E+02 -0.12427970519E+03  0.14775810721E+03  0.78547343520E+02 0.  0.
         25    2    1    2    0    0 -0.91121038219E+02 -0.55912224038E+02  0.97765678368E+03  0.99140774027E+03  0.12508916981E+03 0.  0.
        -24    2    1    2    0    0  0.83096460504E+02  0.68278876853E+02  0.15294345756E+04  0.15353490595E+04  0.80991275152E+02 0.  0.
        -11    1    3    3    0    0  0.21398587177E+02 -0.18915967296E+02 -0.68272255617E+01  0.29365359878E+02  0.00000000000E+00 0.  1.
         12    1    3    3    0    0 -0.13374009461E+02  0.65493144804E+01 -0.11745247963E+03  0.11839274733E+03  0.00000000000E+00 0. -1.
         11    1    5    5    0    0  0.83190686121E+02  0.42605952118E+02  0.79653715052E+03  0.80200211319E+03  0.00000000000E+00 0. -1.
        -12    1    5    5    0    0 -0.94225617898E-01  0.25672924735E+02  0.73289742507E+03  0.73334694628E+03  0.00000000000E+00 0.  1.
          5    1    4    4  501    0 -0.55355004176E+02 -0.41425039042E+02  0.18091772243E+03  0.19372378541E+03  0.41800000000E+01 0.  1.
         -5    1    4    4    0  501 -0.35766034043E+02 -0.14487184995E+02  0.79673906125E+03  0.79768395486E+03  0.41800000000E+01 0.  1.
</event>
<event>
11    1  0.6763327E-009  0.1409123E+03  0.7561462E-02  0.1106544E+00
         22   -1    0    0    0    0  0.00000000000E+00  0.00000000000E+00  0.28788759678E+04  0.28788759678E+04  0.00000000000E+00 0.  1.
         22   -1    0    0    0    0 -0.00000000000E+00 -0.00000000000E+00 -0.38811994935E+02  0.38811994935E+02  0.00000000000E+00 0.  1.
         24    2    1    2    0    0  0.61733788312E+02  0.21861660059E+02  0.46622588586E+02  0.11385514413E+03  0.80624656766E+02 0.  0.
         25    2    1    2    0    0 -0.55204853958E+02 -0.12267332812E+02  0.11240187074E+04  0.11323710444E+04  0.12509222262E+03 0.  0.
        -24    2    1    2    0    0 -0.65289343546E+01 -0.95943272469E+01  0.16694226769E+04  0.16714617742E+04  0.81717260041E+02 0.  0.
        -13    1    3    3    0    0  0.53058439720E+02  0.49787495286E+02  0.23138920621E+02  0.76350522984E+02  0.00000000000E+00 0.  1.
         14    1    3    3    0    0  0.86753485919E+01 -0.27925835226E+02  0.23483667965E+02  0.37504621147E+02  0.00000000000E+00 0. -1.
         11    1    5    5    0    0 -0.30507640573E+02 -0.29633918117E+02  0.56560017563E+03  0.56719700626E+03  0.00000000000E+00 0. -1.
        -12    1    5    5    0    0  0.23978706219E+02  0.20039590870E+02  0.11038225013E+04  0.11042647680E+04  0.00000000000E+00 0.  1.
          5    1    4    4  501    0  0.11741966001E+02  0.44932401292E+02  0.29262398944E+03  0.29631582146E+03  0.41800000000E+01 0.  1.
         -5    1    4    4    0  501 -0.66946819959E+02 -0.57199734105E+02  0.83139471797E+03  0.83605522291E+03  0.41800000000E+01 0.  1.
</event>
<event>
11    1  0.6763327E-009  0.1316596E+03  0.7561462E-02  0.1117247E+00
         22   -1    0    0    0    0  0.00000000000E+00  0.00000000000E+00  0.24210558891E+04  0.24210558891E+04  0.00000000000E+00 0. -1.
         22   -1    0    0    0    0 -0.00000000000E+00 -0.00000000000E+00 -0.95881747471E+03  0.95881747471E+03  0.00000000000E+00 0.  1.
        -24    2    1    2    0    0 -0.36532971829E+02  0.19150439721E+02 -0.93099547228E+03  0.93534983788E+03  0.80158296136E+02 0.  0.
         25    2    1    2    0    0  0.15822608115E+02 -0.27703193265E+02  0.14255523188E+03  0.19232211265E+03  0.12509188237E+03 0.  0.
         24    2    1    2    0    0  0.20710363715E+02  0.85527535435E+01  0.22506786548E+04  0.22522014133E+04  0.79716560857E+02 0.  0.
        -13    1    5    5    0    0  0.18804248374E+02  0.25973017174E+02  0.35586532451E+03  0.35730704802E+03  0.00000000000E+00 0.  1.
         14    1    5    5    0    0  0.19061153409E+01 -0.17420263630E+02  0.18948133303E+04  0.18948943653E+04  0.00000000000E+00 0. -1.
         11    1    3    3    0    0 -0.40386910667E+02 -0.23721661130E+02 -0.44920688523E+03  0.45164216532E+03  0.00000000000E+00 0. -1.
        -12    1    3    3    0    0  0.38539388376E+01  0.42872100852E+02 -0.48178858705E+03  0.48370767256E+03  0.00000000000E+00 0.  1.
          5    1    4    4  501    0  0.74804971619E+01 -0.59321830000E+02  0.14728883872E+03  0.15901733164E+03  0.41800000000E+01 0. -1.
         -5    1    4    4    0  501  0.83421109528E+01  0.31618636735E+02 -0.47336068426E+01  0.33304781006E+02  0.41800000000E+01 0. -1.
</event>
<event>
11    1  0.6763327E-009  0.1582094E+03  0.7561462E-02  0.1088774E+00
         22   -1    0    0    0    0  0.00000000000E+00  0.00000000000E+00  0.15116546593E+04  0.15116546593E+04  0.00000000000E+00 0.  1.
         22   -1    0    0    0    0 -0.00000000000E+00 -0.00000000000E+00 -0.33468707752E+03  0.33468707752E+03  0.00000000000E+00 0. -1.
        -24    2    1    2    0    0  0.49192217852E+02  0.75514983656E+02 -0.28553719678E+03  0.31012765278E+03  0.80779225205E+02 0.  0.
         25    2    1    2    0    0  0.13871231248E+02  0.78505696788E+01  0.84179002597E+02  0.15160989661E+03  0.12508162843E+03 0.  0.
         24    2    1    2    0    0 -0.63063449100E+02 -0.83365553335E+02  0.13783257759E+04  0.13846041874E+04  0.80124884181E+02 0.  0.
        -13    1    5    5    0    0 -0.52109662704E+02 -0.54941309185E+01  0.62094365044E+03  0.62315055921E+03  0.00000000000E+00 0.  1.
         14    1    5    5    0    0 -0.10953786396E+02 -0.77871422416E+02  0.75738212549E+03  0.76145362819E+03  0.00000000000E+00 0. -1.
         11    1    3    3    0    0  0.61517683126E+02  0.60533877452E+02 -0.27462936569E+03  0.28787161054E+03  0.00000000000E+00 0. -1.
        -12    1    3    3    0    0 -0.12325465274E+02  0.14981106204E+02 -0.10907831088E+02  0.22256042244E+02  0.00000000000E+00 0.  1.
          5    1    4    4  501    0  0.15618815837E+02  0.64780959353E+02  0.59359539730E+02  0.89339506713E+02  0.41800000000E+01 0. -1.
         -5    1    4    4    0  501 -0.17475845889E+01 -0.56930389674E+02  0.24819462867E+02  0.62270389893E+02  0.41800000000E+01 0. -1.
</event>
<event>
11    1  0.6763327E-009  0.1404437E+03  0.7561462E-02  0.1107064E+00
         22   -1    0    0    0    0  0.00000000000E+00  0.00000000000E+00  0.38652037209E+03  0.38652037209E+03  0.00000000000E+00 0. -1.
         22   -1    0    0    0    0 -0.00000000000E+00 -0.00000000000E+00 -0.75603654032E+03  0.75603654032E+03  0.00000000000E+00 0.  1.
        -24    2    1    2    0    0  0.31560487953E+02  0.56105592653E+02 -0.57507753641E+03  0.58360679255E+03  0.75754956957E+02 0.  0.
         25    2    1    2    0    0 -0.15497434499E+02 -0.60243845794E+02 -0.14334678460E+03  0.20016332647E+03  0.12509022814E+03 0.  0.
         24    2    1    2    0    0 -0.16063053454E+02  0.41382531406E+01  0.34890815278E+03  0.35878679338E+03  0.81950699828E+02 0.  0.
        -13    1    5    5    0    0  0.21032376463E+02  0.12495909920E+02  0.35695910134E+02  0.43274780470E+02  0.00000000000E+00 0.  1.
         14    1    5    5    0    0 -0.37095429917E+02 -0.83576567790E+01  0.31321224265E+03  0.31551201291E+03  0.00000000000E+00 0. -1.
         13    1    3    3    0    0  0.41690492333E+02  0.21122005103E+02 -0.15345350043E+03  0.16041263368E+03  0.00000000000E+00 0. -1.
        -14    1    3    3    0    0 -0.10130004379E+02  0.34983587550E+02 -0.42162403598E+03  0.42319415887E+03  0.00000000000E+00 0.  1.
          5    1    4    4  501    0  0.12581829778E+02 -0.88956736093E+02 -0.61671807592E+02  0.10905268263E+03  0.41800000000E+01 0.  1.
         -5    1    4    4    0  501 -0.28079264277E+02  0.28712890299E+02 -0.81674977011E+02  0.91110643842E+02  0.41800000000E+01 0.  1.
</event>
<event>
11    1  0.6763327E-009  0.1455460E+03  0.7561462E-02  0.1101519E+00
         22   -1    0    0    0    0  0.00000000000E+00  0.00000000000E+00  0.18077805262E+04  0.18077805262E+04  0.00000000000E+00 0.  1.
         22   -1    0    0    0    0 -0.00000000000E+00 -0.00000000000E+00 -0.22133322989E+03  0.22133322989E+03  0.00000000000E+00 0. -1.
         24    2    1    2    0    0  0.20255037045E+01 -0.36080094004E+02 -0.19435732853E+03  0.21281351039E+03  0.78796847667E+02 0.  0.
         25    2    1    2    0    0 -0.69333128768E+02  0.62420967437E+02  0.38011045479E+03  0.41089598767E+03  0.12509234556E+03 0.  0.
        -24    2    1    2    0    0  0.67307625063E+02 -0.26340873433E+02  0.14006941701E+04  0.14054042581E+04  0.89402530555E+02 0.  0.
        -11    1    3    3    0    0  0.36175057782E+02 -0.38013098852E+02 -0.11617713545E+03  0.12747845814E+03  0.00000000000E+00 0.  1.
         12    1    3    3    0    0 -0.34149554077E+02  0.19330048478E+01 -0.78180193083E+02  0.85335052246E+02  0.00000000000E+00 0. -1.
         11    1    5    5    0    0  0.87404741025E+01 -0.38148012765E+02  0.23970992820E+03  0.24288375088E+03  0.00000000000E+00 0. -1.
        -12    1    5    5    0    0  0.58567150961E+02  0.11807139332E+02  0.11609842419E+04  0.11625205072E+04  0.00000000000E+00 0.  1.
          5    1    4    4  501    0 -0.13578419055E+02 -0.11621374871E+02  0.25226285643E+03  0.25292973520E+03  0.41800000000E+01 0. -1.
         -5    1    4    4    0  501 -0.55754709712E+02  0.74042342308E+02  0.12784759837E+03  0.15796625246E+03  0.41800000000E+01 0. -1.
</event>
<event>
11    1  0.6763327E-009  0.2400165E+03  0.7561462E-02  0.1029356E+00
         22   -1    0    0    0    0  0.00000000000E+00  0.00000000000E+00  0.10808703084E+04  0.10808703084E+04  0.00000000000E+00 0. -1.
         22   -1    0    0    0    0 -0.00000000000E+00 -0.00000000000E+00 -0.17702763215E+03  0.17702763215E+03  0.00000000000E+00 0. -1.
         24    2    1    2    0    0  0.21464132646E+03  0.13662080701E+02  0.32046664779E+02  0.23186779746E+03  0.80486864150E+02 0.  0.
         25    2    1    2    0    0 -0.19157379383E+03  0.25287650037E+02  0.10368477134E+03  0.25246264692E+03  0.12508745963E+03 0.  0.
        -24    2    1    2    0    0 -0.23067532636E+02 -0.38949730738E+02  0.76811124017E+03  0.77356749620E+03  0.79765915785E+02 0.  0.
        -11    1    3    3    0    0  0.68121862238E+02  0.19396214812E+02  0.46183934571E+02  0.84556236176E+02  0.00000000000E+00 0.  1.
         12    1    3    3    0    0  0.14651946423E+03 -0.57341341113E+01 -0.14137269792E+02  0.14731156129E+03  0.00000000000E+00 0. -1.
         13    1    5    5    0    0  0.46685643379E+01 -0.57875012117E+02  0.50159370717E+03  0.50494312510E+03  0.00000000000E+00 0. -1.
        -14    1    5    5    0    0 -0.27736096974E+02  0.18925281379E+02  0.26651753300E+03  0.26862437110E+03  0.00000000000E+00 0.  1.
          5    1    4    4  501    0 -0.12187208409E+03  0.32096102658E+02  0.12657349560E+03  0.17866529287E+03  0.41800000000E+01 0.  1.
         -5    1    4    4    0  501 -0.69701709736E+02 -0.68084526213E+01 -0.22888724257E+02  0.73797354053E+02  0.41800000000E+01 0.  1.
</event>
<event>
11    1  0.6763327E-009  0.1474882E+03  0.7561462E-02  0.1099473E+00
         22   -1    0    0    0    0  0.00000000000E+00  0.00000000000E+00  0.17199144326E+03  0.17199144326E+03  0.00000000000E+00 0.  1.
         22   -1    0    0    0    0 -0.00000000000E+00 -0.00000000000E+00 -0.12454062957E+04  0.12454062957E+04  0.00000000000E+00 0. -1.
        -24    2    1    2    0    0  0.43471790906E+02  0.56938645836E+02 -0.72521783684E+03  0.73321108435E+03  0.80782283569E+02 0.  0.
         25    2    1    2    0    0 -0.98757874153E+02 -0.46447217445E+02 -0.48695378400E+03  0.51447249726E+03  0.12508997149E+03 0.  0.
         24    2    1    2    0    0  0.55286083247E+02 -0.10491428391E+02  0.13875676839E+03  0.16971415736E+03  0.79892636476E+02 0.  0.
        -11    1    5    5    0    0  0.33330446375E+02 -0.38790394416E+02  0.11729294416E+03  0.12795799351E+03  0.00000000000E+00 0.  1.
         12    1    5    5    0    0  0.21955636871E+02  0.28298966024E+02  0.21463824236E+02  0.41756163848E+02  0.00000000000E+00 0. -1.
         11    1    3    3    0    0  0.55803528401E+02  0.68562082917E+02 -0.53654683998E+03  0.54378056649E+03  0.00000000000E+00 0. -1.
        -12    1    3    3    0    0 -0.12331737495E+02 -0.11623437082E+02 -0.18867099686E+03  0.18943051786E+03  0.00000000000E+00 0.  1.
          5    1    4    4  501    0 -0.84957534605E+02 -0.57556121669E+02 -0.18201906093E+03  0.20899497785E+03  0.41800000000E+01 0.  1.
         -5    1    4    4    0  501 -0.13800339548E+02  0.11108904225E+02 -0.30493472307E+03  0.30547751940E+03  0.41800000000E+01 0.  1.
</event>
<event>
11    1  0.6763327E-009  0.1733139E+03  0.7561462E-02  0.1075183E+00
         22   -1    0    0    0    0  0.00000000000E+00  0.00000000000E+00  0.20242611030E+04  0.20242611030E+04  0.00000000000E+00 0.  1.
         22   -1    0    0    0    0 -0.00000000000E+00 -0.00000000000E+00 -0.49834673236E+03  0.49834673236E+03  0.00000000000E+00 0. -1.
        -24    2    1    2    0    0  0.16022751677E+02  0.14420135916E+02 -0.47209461962E+03  0.47943822942E+03  0.80765197152E+02 0.  0.
         25    2    1    2    0    0 -0.11389433655E+03 -0.78415966834E+02  0.42904128054E+03  0.46781017364E+03  0.12509578093E+03 0.  0.
         24    2    1    2    0    0  0.97871584870E+02  0.63995830918E+02  0.15689677097E+04  0.15753594323E+04  0.80145824854E+02 0.  0.
        -11    1    5    5    0    0  0.30630069645E+02  0.66876190964E+02  0.90769668018E+03  0.91067221836E+03  0.00000000000E+00 0.  1.
         12    1    5    5    0    0  0.67241515225E+02 -0.28803600463E+01  0.66127102954E+03  0.66468721392E+03  0.00000000000E+00 0. -1.
         13    1    3    3    0    0  0.20062644529E+02  0.18114622912E+01 -0.46285453984E+03  0.46329268951E+03  0.00000000000E+00 0. -1.
        -14    1    3    3    0    0 -0.40398928526E+01  0.12608673625E+02 -0.92400797723E+01  0.16145539911E+02  0.00000000000E+00 0.  1.
          5    1    4    4  501    0 -0.29120391216E+02 -0.95337573303E+02  0.22048299313E+03  0.24200717495E+03  0.41800000000E+01 0.  1.
         -5    1    4    4    0  501 -0.84773945330E+02  0.16921606470E+02  0.20855828741E+03  0.22580299869E+03  0.41800000000E+01 0.  1.
</event>
<event>
11    1  0.6763327E-009  0.1310086E+03  0.7561462E-02  0.1118036E+00
         22   -1    0    0    0    0  0.00000000000E+00  0.00000000000E+00  0.72371286375E+03  0.72371286375E+03  0.00000000000E+00 0. -1.
         22   -1    0    0    0    0 -0.00000000000E+00 -0.00000000000E+00 -0.20049160228E+03  0.20049160228E+03  0.00000000000E+00 0.  1.
         24    2    1    2    0    0 -0.18147569820E+02 -0.33614461998E+02 -0.11420975418E+03  0.14491189280E+03  0.80599766621E+02 0.  0.
         25    2    1    2    0    0  0.38370372744E+02  0.25841802944E+02 -0.29133919645E+01  0.13339888427E+03  0.12508673066E+03 0.  0.
        -24    2    1    2    0    0 -0.20222802924E+02  0.77726590536E+01  0.64034440761E+03  0.64589368896E+03  0.81659788685E+02 0.  0.
        -11    1    3    3    0    0 -0.81008638817E+01  0.23339818538E+02 -0.62975414734E+02  0.67648163212E+02  0.00000000000E+00 0.  1.
         12    1    3    3    0    0 -0.10046705938E+02 -0.56954280536E+02 -0.51234339450E+02  0.77263729592E+02  0.00000000000E+00 0. -1.
         13    1    5    5    0    0 -0.48743960036E+02  0.19317234576E+02  0.45522984763E+03  0.45823939526E+03  0.00000000000E+00 0. -1.
        -14    1    5    5    0    0  0.28521157113E+02 -0.11544575522E+02  0.18511455998E+03  0.18765429370E+03  0.00000000000E+00 0.  1.
          5    1    4    4  501    0 -0.54356710177E+01  0.70067172626E+02  0.46408615067E+01  0.70554696475E+02  0.41800000000E+01 0.  1.
         -5    1    4    4    0  501  0.43806043761E+02 -0.44225369682E+02 -0.75542534712E+01  0.62844187790E+02  0.41800000000E+01 0.  1.
</event>
<event>
11    1  0.6763327E-009  0.1424512E+03  0.7561462E-02  0.1104852E+00
         22   -1    0    0    0    0  0.00000000000E+00  0.00000000000E+00  0.40509532885E+03  0.40509532885E+03  0.00000000000E+00 0. -1.
         22   -1    0    0    0    0 -0.00000000000E+00 -0.00000000000E+00 -0.75166278721E+03  0.75166278721E+03  0.00000000000E+00 0.  1.
         24    2    1    2    0    0 -0.66478774572E+02 -0.45437381238E+01 -0.64539502138E+03  0.65403235481E+03  0.82362093733E+02 0.  0.
         25    2    1    2    0    0  0.89047672422E+02  0.20850401868E+02 -0.34563301589E+02  0.15875475134E+03  0.12507686451E+03 0.  0.
        -24    2    1    2    0    0 -0.22568897850E+02 -0.16306663745E+02  0.33339086461E+03  0.34397100992E+03  0.79945760523E+02 0.  0.
        -11    1    3    3    0    0 -0.82234657837E+02 -0.19152278031E+02 -0.50932627023E+03  0.51627763679E+03  0.00000000000E+00 0.  1.
         12    1    3    3    0    0  0.15755883264E+02  0.14608539907E+02 -0.13606875115E+03  0.13775471802E+03  0.00000000000E+00 0. -1.
         11    1    5    5    0    0 -0.23633004020E+02 -0.44276581506E+02  0.27072959986E+03  0.27534242460E+03  0.00000000000E+00 0. -1.
        -12    1    5    5    0    0  0.10641061703E+01  0.27969917761E+02  0.62661264753E+02  0.68628585312E+02  0.00000000000E+00 0.  1.
          5    1    4    4  501    0  0.10892039336E+03  0.61949351994E+01  0.78942542318E+01  0.10946150447E+03  0.41800000000E+01 0. -1.
         -5    1    4    4    0  501 -0.19872720935E+02  0.14655466669E+02 -0.42457555821E+02  0.49293246870E+02  0.41800000000E+01 0. -1.
</event>
<event>
11    1  0.6763327E-009  0.1437864E+03  0.7561462E-02  0.1103402E+00
         22   -1    0    0    0    0  0.00000000000E+00  0.00000000000E+00  0.33415989645E+03  0.33415989645E+03  0.00000000000E+00 0.  1.
         22   -1    0    0    0    0 -0.00000000000E+00 -0.00000000000E+00 -0.37039788862E+03  0.37039788862E+03  0.00000000000E+00 0.  1.
        -24    2    1    2    0    0  0.30770876078E+02 -0.78859037380E+02 -0.22443913393E+03  0.25288449143E+03  0.80075255719E+02 0.  0.
         25    2    1    2    0    0 -0.11811586575E+02  0.35830560257E+02 -0.89797550417E+02  0.15853797902E+03  0.12508936048E+03 0.  0.
         24    2    1    2    0    0 -0.18959289504E+02  0.43028477124E+02  0.27799869218E+03  0.29313531461E+03  0.80213062018E+02 0.  0.
        -13    1    5    5    0    0 -0.42535886928E+02  0.52484276429E+02  0.20470976692E+03  0.21556899040E+03  0.00000000000E+00 0.  1.
         14    1    5    5    0    0  0.23576597424E+02 -0.94557993054E+01  0.73288925253E+02  0.77566324209E+02  0.00000000000E+00 0. -1.
         13    1    3    3    0    0  0.51573711408E+01 -0.82616798241E+01  0.53656752912E+01  0.11119545941E+02  0.00000000000E+00 0. -1.
        -14    1    3    3    0    0  0.25613504938E+02 -0.70597357556E+02 -0.22980480922E+03  0.24176494549E+03  0.00000000000E+00 0.  1.
          5    1    4    4  501    0  0.26112328426E+02 -0.10184498246E+02 -0.94423282993E+02  0.98584007180E+02  0.41800000000E+01 0. -1.
         -5    1    4    4    0  501 -0.37923915000E+02  0.46015058503E+02  0.46257325762E+01  0.59953971844E+02  0.41800000000E+01 0. -1.
</event>
<event>
11    1  0.6763327E-009  0.1347598E+03  0.7561462E-02  0.1113555E+00
         22   -1    0    0    0    0  0.00000000000E+00  0.00000000000E+00  0.31103041104E+03  0.31103041104E+03  0.00000000000E+00 0.  1.
         22   -1    0    0    0    0 -0.00000000000E+00 -0.00000000000E+00 -0.26431365963E+03  0.26431365963E+03  0.00000000000E+00 0.  1.
         24    2    1    2    0    0  0.40543299323E+02 -0.26159005539E+02 -0.16206306237E+03  0.19182117239E+03  0.90569715157E+02 0.  0.
         25    2    1    2    0    0 -0.39186088825E+02  0.44709381674E+02 -0.20249802004E+02  0.13997026203E+03  0.12508853427E+03 0.  0.
        -24    2    1    2    0    0 -0.13572104979E+01 -0.18550376135E+02  0.22902961578E+03  0.24355263624E+03  0.80730187909E+02 0.  0.
        -11    1    3    3    0    0  0.51138982282E+02 -0.50353485086E+02 -0.14032685913E+03  0.15761439135E+03  0.00000000000E+00 0.  1.
         12    1    3    3    0    0 -0.10595682959E+02  0.24194479546E+02 -0.21736203243E+02  0.34206781042E+02  0.00000000000E+00 0. -1.
         11    1    5    5    0    0 -0.36001237249E+02  0.96650120036E+01  0.12211084548E+03  0.12767364695E+03  0.00000000000E+00 0. -1.
        -12    1    5    5    0    0  0.34644026751E+02 -0.28215388138E+02  0.10691877030E+03  0.11587898929E+03  0.00000000000E+00 0.  1.
          5    1    4    4  501    0 -0.66605635617E+02 -0.18252387357E+02 -0.41543772376E+01  0.69312275900E+02  0.41800000000E+01 0. -1.
         -5    1    4    4    0  501  0.27419546792E+02  0.62961769031E+02 -0.16095424766E+02  0.70657986132E+02  0.41800000000E+01 0. -1.
</event>
<event>
11    1  0.6763327E-009  0.1306687E+03  0.7561462E-02  0.1118450E+00
         22   -1    0    0    0    0  0.00000000000E+00  0.00000000000E+00  0.17904337879E+03  0.17904337879E+03  0.00000000000E+00 0.  1.
         22   -1    0    0    0    0 -0.00000000000E+00 -0.00000000000E+00 -0.87548405111E+03  0.87548405111E+03  0.00000000000E+00 0. -1.
         24    2    1    2    0    0 -0.53001361867E+01 -0.26884576682E+01 -0.80151996321E+03  0.80559285192E+03  0.80686258985E+02 0.  0.
         25    2    1    2    0    0 -0.30030124827E+02 -0.15157147351E+02  0.34693050516E+02  0.13410723347E+03  0.12509834053E+03 0.  0.
        -24    2    1    2    0    0  0.35330261014E+02  0.17845605019E+02  0.70386240383E+02  0.11482734450E+03  0.81635796361E+02 0.  0.
        -13    1    3    3    0    0  0.81857753073E+01 -0.15277930784E+02 -0.37087714946E+02  0.40938010288E+02  0.00000000000E+00 0.  1.
         14    1    3    3    0    0 -0.13485911494E+02  0.12589473116E+02 -0.76443224827E+03  0.76465484163E+03  0.00000000000E+00 0. -1.
         13    1    5    5    0    0  0.49166642993E+02 -0.19613578695E+01  0.10587382558E+02  0.50331882315E+02  0.00000000000E+00 0. -1.
        -14    1    5    5    0    0 -0.13836381979E+02  0.19806962889E+02  0.59798857824E+02  0.64495462183E+02  0.00000000000E+00 0.  1.
          5    1    4    4  501    0 -0.40314000779E+02 -0.47686713293E+02 -0.23228296485E+02  0.66755280248E+02  0.41800000000E+01 0. -1.
         -5    1    4    4    0  501  0.10283875951E+02  0.32529565942E+02  0.57921347000E+02  0.67351953225E+02  0.41800000000E+01 0. -1.
</event>
<event>
11    1  0.7863540E-009  0.1479573E+03  0.7561462E-02  0.1098984E+00
         22   -1    0    0    0    0  0.00000000000E+00  0.00000000000E+00  0.88803665500E+03  0.88803665500E+03  0.00000000000E+00 0. -1.
         22   -1    0    0    0    0 -0.00000000000E+00 -0.00000000000E+00 -0.14223254152E+04  0.14223254152E+04  0.00000000000E+00 0.  1.
        -24    2    1    2    0    0 -0.23815091185E+02 -0.51396883621E+02 -0.11339322011E+04  0.11379889743E+04  0.77510455539E+02 0.  0.
         25    2    1    2    0    0  0.89831437096E+02  0.93926873775E+02 -0.25475163277E+03  0.31215049072E+03  0.12509032635E+03 0.  0.
         24    2    1    2    0    0 -0.66016345911E+02 -0.42529990154E+02  0.85439507363E+03  0.86022260523E+03  0.61846832739E+02 0.  0.
        -11    1    5    5    0    0  0.66460181899E+01  0.87058630153E+01  0.82467802845E+02  0.83191947415E+02  0.00000000000E+00 0.  1.
         12    1    5    5    0    0 -0.72662364101E+02 -0.51235853170E+02  0.77192727078E+03  0.77703065781E+03  0.00000000000E+00 0. -1.
         11    1    3    3    0    0  0.15943567017E+02 -0.47107401228E+02 -0.41934452989E+03  0.42228324538E+03  0.00000000000E+00 0. -1.
        -12    1    3    3    0    0 -0.39758658202E+02 -0.42894823936E+01 -0.71458767117E+03  0.71570572888E+03  0.00000000000E+00 0.  1.
          5    1    4    4  501    0  0.50280739667E+02  0.12178824163E+03 -0.18689115529E+03  0.22870571682E+03  0.41800000000E+01 0. -1.
         -5    1    4    4    0  501  0.39550697429E+02 -0.27861367857E+02 -0.67860477489E+02  0.83444773899E+02  0.41800000000E+01 0. -1.
</event>
<event>
11    1  0.6763327E-009  0.1638942E+03  0.7561462E-02  0.1083471E+00
         22   -1    0    0    0    0  0.00000000000E+00  0.00000000000E+00  0.22888487672E+04  0.22888487672E+04  0.00000000000E+00 0.  1.
         22   -1    0    0    0    0 -0.00000000000E+00 -0.00000000000E+00 -0.22700059459E+03  0.22700059459E+03  0.00000000000E+00 0.  1.
        -24    2    1    2    0    0  0.67318775757E+02 -0.86065400715E+02 -0.18821567261E+03  0.23261387080E+03  0.82127965407E+02 0.  0.
         25    2    1    2    0    0 -0.54606532457E+02  0.30136911822E+02  0.30306726862E+03  0.33374713002E+03  0.12508905088E+03 0.  0.
         24    2    1    2    0    0 -0.12712243301E+02  0.55928488893E+02  0.19469965766E+04  0.19494883609E+04  0.80122426371E+02 0.  0.
        -11    1    5    5    0    0  0.18023101798E+02 -0.13558967673E+02  0.44618289554E+03  0.44675256471E+03  0.00000000000E+00 0.  1.
         12    1    5    5    0    0 -0.30735345099E+02  0.69487456566E+02  0.15008136810E+04  0.15027357962E+04  0.00000000000E+00 0. -1.
         11    1    3    3    0    0 -0.70076518976E+01 -0.35391389622E+02 -0.18532205034E+02  0.40559835649E+02  0.00000000000E+00 0. -1.
        -12    1    3    3    0    0  0.74326427655E+02 -0.50674011093E+02 -0.16968346758E+03  0.19205403515E+03  0.00000000000E+00 0.  1.
          5    1    4    4  501    0 -0.47040843781E+02 -0.35912638619E+02  0.21670365220E+03  0.22467866804E+03  0.41800000000E+01 0.  1.
         -5    1    4    4    0  501 -0.75656886754E+01  0.66049550441E+02  0.86363616420E+02  0.10906846199E+03  0.41800000000E+01 0.  1.
</event>
<event>
11    1  0.6763327E-009  0.1862772E+03  0.7561462E-02  0.1064675E+00
         22   -1    0    0    0    0  0.00000000000E+00  0.00000000000E+00  0.26687672372E+03  0.26687672372E+03  0.00000000000E+00 0.  1.
         22   -1    0    0    0    0 -0.00000000000E+00 -0.00000000000E+00 -0.51544747145E+03  0.51544747145E+03  0.00000000000E+00 0.  1.
         24    2    1    2    0    0  0.13448736164E+03 -0.45782405175E+02 -0.35935857709E+03  0.39480111753E+03  0.80910174966E+02 0.  0.
         25    2    1    2    0    0 -0.12467875695E+03  0.17050393163E+02 -0.67441394093E+02  0.18983382736E+03  0.12511207788E+03 0.  0.
        -24    2    1    2    0    0 -0.98086046955E+01  0.28732012011E+02  0.17822922346E+03  0.19768925028E+03  0.79960279773E+02 0.  0.
        -11    1    3    3    0    0  0.86988168867E+02 -0.66727929618E+02 -0.27076506391E+03  0.29211860254E+03  0.00000000000E+00 0.  1.
         12    1    3    3    0    0  0.47499192777E+02  0.20945524443E+02 -0.88593513176E+02  0.10268251499E+03  0.00000000000E+00 0. -1.
         11    1    5    5    0    0  0.17990284517E+02  0.22242932084E+02  0.15621645993E+02  0.32595002503E+02  0.00000000000E+00 0. -1.
        -12    1    5    5    0    0 -0.27798889212E+02  0.64890799275E+01  0.16260757746E+03  0.16509424778E+03  0.00000000000E+00 0.  1.
          5    1    4    4  501    0  0.93397010605E+01  0.25642491517E+02 -0.46179581460E+02  0.53803285503E+02  0.41800000000E+01 0. -1.
         -5    1    4    4    0  501 -0.13401845801E+03 -0.85920983534E+01 -0.21261812633E+02  0.13603054186E+03  0.41800000000E+01 0. -1.
</event>
<event>
11    1  0.6763327E-009  0.1413659E+03  0.7561462E-02  0.1106043E+00
         22   -1    0    0    0    0  0.00000000000E+00  0.00000000000E+00  0.80282826117E+03  0.80282826117E+03  0.00000000000E+00 0. -1.
         22   -1    0    0    0    0 -0.00000000000E+00 -0.00000000000E+00 -0.27726366688E+03  0.27726366688E+03  0.00000000000E+00 0.  1.
        -24    2    1    2    0    0 -0.14397806767E+02 -0.52875476735E+02 -0.23619613047E+03  0.25560666196E+03  0.80889064216E+02 0.  0.
         25    2    1    2    0    0  0.36767770890E+02  0.10595266819E+03  0.23866817386E+03  0.29186955577E+03  0.12508998161E+03 0.  0.
         24    2    1    2    0    0 -0.22369964123E+02 -0.53077191452E+02  0.52309255090E+03  0.53261571032E+03  0.82073592156E+02 0.  0.
        -11    1    5    5    0    0  0.23547592817E+02 -0.35237879919E+02  0.13734108887E+03  0.14373159709E+03  0.00000000000E+00 0.  1.
         12    1    5    5    0    0 -0.45917556939E+02 -0.17839311532E+02  0.38575146202E+03  0.38888411323E+03  0.00000000000E+00 0. -1.
         13    1    3    3    0    0 -0.19758454036E+02 -0.21009417045E-01 -0.80141470887E+01  0.21321901905E+02  0.00000000000E+00 0. -1.
        -14    1    3    3    0    0  0.53606472681E+01 -0.52854467318E+02 -0.22818198338E+03  0.23428476005E+03  0.00000000000E+00 0.  1.
          5    1    4    4  501    0  0.56169609030E+02  0.91841849252E+02  0.24418851950E+03  0.26689971096E+03  0.41800000000E+01 0.  1.
         -5    1    4    4    0  501 -0.19401838139E+02  0.14110818934E+02 -0.55203456359E+01  0.24969844816E+02  0.41800000000E+01 0.  1.
</event>
<event>
11    1  0.6763327E-009  0.1291567E+03  0.7561462E-02  0.1120309E+00
         22   -1    0    0    0    0  0.00000000000E+00  0.00000000000E+00  0.22973754227E+04  0.22973754227E+04  0.00000000000E+00 0.  1.
         22   -1    0    0    0    0 -0.00000000000E+00 -0.00000000000E+00 -0.30063028018E+03  0.30063028018E+03  0.00000000000E+00 0. -1.
         24    2    1    2    0    0 -0.10191390515E+02  0.14229039463E+02 -0.24071046966E+03  0.25438174171E+03  0.80387874108E+02 0.  0.
         25    2    1    2    0    0  0.42151915637E+02 -0.12495380229E+02  0.31896299671E+02  0.13637302040E+03  0.12508920114E+03 0.  0.
        -24    2    1    2    0    0 -0.31960525122E+02 -0.17336592339E+01  0.22055593125E+04  0.22072509408E+04  0.80251814627E+02 0.  0.
        -13    1    3    3    0    0  0.25179474054E+02 -0.10132800683E+02 -0.35294772100E+02  0.44524156375E+02  0.00000000000E+00 0.  1.
         14    1    3    3    0    0 -0.35370864569E+02  0.24361840147E+02 -0.20541569756E+03  0.20985758533E+03  0.00000000000E+00 0. -1.
         11    1    5    5    0    0 -0.39675346817E+02 -0.20808765119E+02  0.64416545787E+03  0.64572151503E+03  0.00000000000E+00 0. -1.
        -12    1    5    5    0    0  0.77148216951E+01  0.19075105885E+02  0.15613938546E+04  0.15615294257E+04  0.00000000000E+00 0.  1.
          5    1    4    4  501    0  0.71443766443E+02 -0.14959534265E+02  0.60685117912E+02  0.95016605733E+02  0.41800000000E+01 0.  1.
         -5    1    4    4    0  501 -0.29291850806E+02  0.24641540354E+01 -0.28788818241E+02  0.41356414671E+02  0.41800000000E+01 0.  1.
</event>
<event>
11    1  0.6763327E-009  0.1434172E+03  0.7561462E-02  0.1103801E+00
         22   -1    0    0    0    0  0.00000000000E+00  0.00000000000E+00  0.27643120880E+03  0.27643120880E+03  0.00000000000E+00 0. -1.
         22   -1    0    0    0    0 -0.00000000000E+00 -0.00000000000E+00 -0.20811134999E+04  0.20811134999E+04  0.00000000000E+00 0.  1.
        -24    2    1    2    0    0  0.30034918164E+02 -0.73217570628E+02 -0.11275209222E+04  0.11331483662E+04  0.80367162689E+02 0.  0.
         25    2    1    2    0    0  0.26449276715E+02  0.61989385111E+02 -0.93623422636E+03  0.94695476341E+03  0.12508616727E+03 0.  0.
         24    2    1    2    0    0 -0.56484194879E+02  0.11228185516E+02  0.25907285747E+03  0.27744157909E+03  0.80861288071E+02 0.  0.
        -13    1    5    5    0    0  0.16509401413E+02  0.17835001092E+02  0.44606545787E+02  0.50797554331E+02  0.00000000000E+00 0.  1.
         14    1    5    5    0    0 -0.72993596291E+02 -0.66068155753E+01  0.21446631168E+03  0.22664402476E+03  0.00000000000E+00 0. -1.
         11    1    3    3    0    0 -0.14535832580E+02 -0.11177216497E+01 -0.46480873970E+03  0.46503731488E+03  0.00000000000E+00 0. -1.
        -12    1    3    3    0    0  0.44570750744E+02 -0.72099848978E+02 -0.66271218247E+03  0.66811105128E+03  0.00000000000E+00 0.  1.
          5    1    4    4  501    0  0.42423160574E+02 -0.27331761347E+02 -0.37845568002E+03  0.38182839584E+03  0.41800000000E+01 0.  1.
         -5    1    4    4    0  501 -0.15973883859E+02  0.89321146458E+02 -0.55777854634E+03  0.56512636757E+03  0.41800000000E+01 0.  1.
</event>
<event>
11    1  0.6763327E-009  0.1949217E+03  0.7561462E-02  0.1058174E+00
         22   -1    0    0    0    0  0.00000000000E+00  0.00000000000E+00  0.51524482403E+03  0.51524482403E+03  0.00000000000E+00 0. -1.
         22   -1    0    0    0    0 -0.00000000000E+00 -0.00000000000E+00 -0.21953037205E+03  0.21953037205E+03  0.00000000000E+00 0.  1.
         24    2    1    2    0    0  0.79681116601E+01  0.14523927916E+03 -0.12042451841E+03  0.20569019356E+03  0.81538040681E+02 0.  0.
         25    2    1    2    0    0  0.63697842773E+01 -0.17195743123E+03  0.18235609441E+03  0.28018836805E+03  0.12506735832E+03 0.  0.
        -24    2    1    2    0    0 -0.14337895937E+02  0.26718152072E+02  0.23378287599E+03  0.24889663446E+03  0.79847771628E+02 0.  0.
        -11    1    3    3    0    0  0.29176741913E+02  0.69382392670E+02 -0.98432143084E+02  0.12391160347E+03  0.00000000000E+00 0.  1.
         12    1    3    3    0    0 -0.21208630253E+02  0.75856886492E+02 -0.21992375324E+02  0.81778590094E+02  0.00000000000E+00 0. -1.
         11    1    5    5    0    0 -0.16236332021E+02 -0.25097464755E+00  0.21583659138E+03  0.21644656533E+03  0.00000000000E+00 0. -1.
        -12    1    5    5    0    0  0.18984360835E+01  0.26969126720E+02  0.17946284607E+02  0.32450069134E+02  0.00000000000E+00 0.  1.
          5    1    4    4  501    0  0.35037743458E+01 -0.11404508667E+02 -0.18868318556E+02  0.22711783236E+02  0.41800000000E+01 0. -1.
         -5    1    4    4    0  501  0.28660099314E+01 -0.16055292257E+03  0.20122441296E+03  0.25747658482E+03  0.41800000000E+01 0. -1.
</event>
<event>
11    1  0.6763327E-009  0.1327114E+03  0.7561462E-02  0.1115982E+00
         22   -1    0    0    0    0  0.00000000000E+00  0.00000000000E+00  0.79575881276E+02  0.79575881276E+02  0.00000000000E+00 0. -1.
         22   -1    0    0    0    0 -0.00000000000E+00 -0.00000000000E+00 -0.39165360367E+03  0.39165360367E+03  0.00000000000E+00 0.  1.
        -24    2    1    2    0    0 -0.45000599705E+02 -0.21220690640E+02 -0.19668362496E+03  0.21680362416E+03  0.76446003398E+02 0.  0.
         25    2    1    2    0    0  0.33437102279E+02 -0.88228464820E+01 -0.10719117355E+03  0.16832313950E+03  0.12508736616E+03 0.  0.
         24    2    1    2    0    0  0.11563497426E+02  0.30043537122E+02 -0.82029238722E+01  0.86102721284E+02  0.79435899044E+02 0.  0.
        -11    1    5    5    0    0  0.73809784880E+01 -0.19547817738E+02 -0.25904244907E+02  0.33281014497E+02  0.00000000000E+00 0.  1.
         12    1    5    5    0    0  0.41825189384E+01  0.49591354860E+02  0.17701321034E+02  0.52821706787E+02  0.00000000000E+00 0. -1.
         11    1    3    3    0    0 -0.45809070377E+02 -0.15908919076E+02 -0.48711857835E+02  0.68734341698E+02  0.00000000000E+00 0. -1.
        -12    1    3    3    0    0  0.80847067159E+00 -0.53117715638E+01 -0.14797176713E+03  0.14806928246E+03  0.00000000000E+00 0.  1.
          5    1    4    4  501    0  0.75931530502E+01  0.30790939946E+02 -0.11573803545E+03  0.12007707194E+03  0.41800000000E+01 0. -1.
         -5    1    4    4    0  501  0.25843949229E+02 -0.39613786428E+02  0.85468618913E+01  0.48246067561E+02  0.41800000000E+01 0. -1.
</event>
<event>
11    1  0.6763327E-009  0.1373672E+03  0.7561462E-02  0.1110534E+00
         22   -1    0    0    0    0  0.00000000000E+00  0.00000000000E+00  0.10612480067E+03  0.10612480067E+03  0.00000000000E+00 0. -1.
         22   -1    0    0    0    0 -0.00000000000E+00 -0.00000000000E+00 -0.94297894753E+03  0.94297894753E+03  0.00000000000E+00 0.  1.
        -24    2    1    2    0    0  0.51995275162E+02 -0.24515652078E+02 -0.77137287423E+03  0.77764046492E+03  0.80025344356E+02 0.  0.
         25    2    1    2    0    0 -0.59553620891E+02 -0.15018931985E+02 -0.10249705751E+03  0.17299242332E+03  0.12509408318E+03 0.  0.
         24    2    1    2    0    0  0.75583457293E+01  0.39534584063E+02  0.37015784884E+02  0.98470859964E+02  0.81891574684E+02 0.  0.
        -11    1    5    5    0    0  0.38387638515E+02  0.10226987291E+02 -0.33009882038E+01  0.39863499382E+02  0.00000000000E+00 0.  1.
         12    1    5    5    0    0 -0.30829292786E+02  0.29307596772E+02  0.40316773088E+02  0.58607360582E+02  0.00000000000E+00 0. -1.
         13    1    3    3    0    0 -0.19622143797E+02  0.56498615598E+01 -0.19087805982E+03  0.19196714090E+03  0.00000000000E+00 0. -1.
        -14    1    3    3    0    0  0.71617418959E+02 -0.30165513638E+02 -0.58049481441E+03  0.58567332402E+03  0.00000000000E+00 0.  1.
          5    1    4    4  501    0 -0.25264065848E+02 -0.69936525627E+02 -0.54234946941E+02  0.92131929914E+02  0.41800000000E+01 0. -1.
         -5    1    4    4    0  501 -0.34289555043E+02  0.54917593642E+02 -0.48262110572E+02  0.80860493403E+02  0.41800000000E+01 0. -1.
</event>
<event>
11    1  0.6763327E-009  0.1343247E+03  0.7561462E-02  0.1114067E+00
         22   -1    0    0    0    0  0.00000000000E+00  0.00000000000E+00  0.31063202878E+04  0.31063202878E+04  0.00000000000E+00 0. -1.
         22   -1    0    0    0    0 -0.00000000000E+00 -0.00000000000E+00 -0.34048040554E+02  0.34048040554E+02  0.00000000000E+00 0.  1.
        -24    2    1    2    0    0 -0.11216441017E+02  0.78526759913E+01  0.88562620747E+02  0.12030840816E+03  0.80270182577E+02 0.  0.
         25    2    1    2    0    0 -0.27573962043E+01  0.39532786565E+02  0.22998070768E+03  0.26478067721E+03  0.12508891505E+03 0.  0.
         24    2    1    2    0    0  0.13973837222E+02 -0.47385462556E+02  0.27537289188E+04  0.27552792430E+04  0.78103126223E+02 0.  0.
        -13    1    5    5    0    0  0.15050177385E+02  0.16174536552E+02  0.34211865418E+03  0.34283129526E+03  0.00000000000E+00 0.  1.
         14    1    5    5    0    0 -0.10763401629E+01 -0.63559999109E+02  0.24116102647E+04  0.24124479477E+04  0.00000000000E+00 0. -1.
         11    1    3    3    0    0 -0.24028571882E+02  0.36696599796E+02  0.28066937615E+02  0.52074616565E+02  0.00000000000E+00 0. -1.
        -12    1    3    3    0    0  0.12812130864E+02 -0.28843923805E+02  0.60495683132E+02  0.68233791594E+02  0.00000000000E+00 0.  1.
          5    1    4    4  501    0 -0.21007777370E+02  0.79673972524E+02  0.11475091651E+03  0.14133122035E+03  0.41800000000E+01 0. -1.
         -5    1    4    4    0  501  0.18250381166E+02 -0.40141185959E+02  0.11522979118E+03  0.12344945686E+03  0.41800000000E+01 0. -1.
</event>
<event>
11    1  0.6763327E-009  0.1720710E+03  0.7561462E-02  0.1076243E+00
         22   -1    0    0    0    0  0.00000000000E+00  0.00000000000E+00  0.38085979210E+04  0.38085979210E+04  0.00000000000E+00 0. -1.
         22   -1    0    0    0    0 -0.00000000000E+00 -0.00000000000E+00 -0.21609074955E+04  0.21609074955E+04  0.00000000000E+00 0.  1.
         24    2    1    2    0    0 -0.10294361229E+02 -0.11830790140E+03 -0.21373816192E+04  0.21423952254E+04  0.85757694269E+02 0.  0.
         25    2    1    2    0    0 -0.40518674648E+02  0.57814939312E+02  0.23641140177E+03  0.27663772629E+03  0.12511494923E+03 0.  0.
        -24    2    1    2    0    0  0.50813035877E+02  0.60492962087E+02  0.35486606429E+04  0.35504724648E+04  0.81369539560E+02 0.  0.
        -13    1    3    3    0    0  0.33622074921E+02 -0.84799577096E+02 -0.13137227638E+04  0.13168860666E+04  0.00000000000E+00 0.  1.
         14    1    3    3    0    0 -0.43916436150E+02 -0.33508324302E+02 -0.82365885540E+03  0.82550915879E+03  0.00000000000E+00 0. -1.
         13    1    5    5    0    0  0.32276767101E+02  0.77627289992E+02  0.30658113090E+04  0.30669637703E+04  0.00000000000E+00 0. -1.
        -14    1    5    5    0    0  0.18536268776E+02 -0.17134327905E+02  0.48284933391E+03  0.48350869455E+03  0.00000000000E+00 0.  1.
          5    1    4    4  501    0  0.27730578695E+01  0.89221842426E+02  0.16018546188E+03  0.18342595676E+03  0.41800000000E+01 0. -1.
         -5    1    4    4    0  501 -0.43291732518E+02 -0.31406903114E+02  0.76225939891E+02  0.93211769536E+02  0.41800000000E+01 0. -1.
</event>
<event>
11    1  0.6763327E-009  0.1443659E+03  0.7561462E-02  0.1102779E+00
         22   -1    0    0    0    0  0.00000000000E+00  0.00000000000E+00  0.72586426691E+03  0.72586426691E+03  0.00000000000E+00 0. -1.
         22   -1    0    0    0    0 -0.00000000000E+00 -0.00000000000E+00 -0.10555903977E+03  0.10555903977E+03  0.00000000000E+00 0.  1.
         24    2    1    2    0    0 -0.43700634519E+02  0.24986806754E+02 -0.48911730283E+02  0.10607405064E+03  0.79531508796E+02 0.  0.
         25    2    1    2    0    0  0.19581763625E+02  0.52516642589E+02  0.20629064937E+03  0.24768174577E+03  0.12509585108E+03 0.  0.
        -24    2    1    2    0    0  0.24118870894E+02 -0.77503449343E+02  0.46292630805E+03  0.47766751027E+03  0.85305211371E+02 0.  0.
        -11    1    3    3    0    0 -0.48500745659E+02  0.32979378232E+02 -0.64956324942E+02  0.87517346098E+02  0.00000000000E+00 0.  1.
         12    1    3    3    0    0  0.48001111400E+01 -0.79925714779E+01  0.16044594659E+02  0.18556704545E+02  0.00000000000E+00 0. -1.
         11    1    5    5    0    0  0.17989260770E+02 -0.74669529935E+02  0.46443912121E+03  0.47074711843E+03  0.00000000000E+00 0. -1.
        -12    1    5    5    0    0  0.61296101246E+01 -0.28339194082E+01 -0.15128131586E+01  0.69203918346E+01  0.00000000000E+00 0.  1.
          5    1    4    4  501    0  0.26331359280E+02  0.19685739845E+00  0.19064263652E+03  0.19249796491E+03  0.41800000000E+01 0. -1.
         -5    1    4    4    0  501 -0.67495956551E+01  0.52319785191E+02  0.15648012842E+02  0.55183780858E+02  0.41800000000E+01 0. -1.
</event>
<event>
11    1  0.6763327E-009  0.1860667E+03  0.7561462E-02  0.1064839E+00
         22   -1    0    0    0    0  0.00000000000E+00  0.00000000000E+00  0.59706124969E+03  0.59706124969E+03  0.00000000000E+00 0.  1.
         22   -1    0    0    0    0 -0.00000000000E+00 -0.00000000000E+00 -0.18994500524E+03  0.18994500524E+03  0.00000000000E+00 0.  1.
         24    2    1    2    0    0 -0.30043642211E+02  0.14224344930E+03 -0.92178791320E+02  0.18996637490E+03  0.80339745567E+02 0.  0.
         25    2    1    2    0    0 -0.68668154553E+02 -0.11268253603E+03  0.19793690127E+03  0.26877929931E+03  0.12510245993E+03 0.  0.
        -24    2    1    2    0    0  0.98711796764E+02 -0.29560913269E+02  0.30135813451E+03  0.32826058072E+03  0.79501051587E+02 0.  0.
        -11    1    3    3    0    0  0.84843953738E+01  0.11726369938E+03 -0.80805716824E+02  0.14266157166E+03  0.00000000000E+00 0.  1.
         12    1    3    3    0    0 -0.38528037584E+02  0.24979749920E+02 -0.11373074496E+02  0.47304803241E+02  0.00000000000E+00 0. -1.
         11    1    5    5    0    0  0.38291333986E+01  0.64477130532E+01 -0.24984493779E+01  0.79042719775E+01  0.00000000000E+00 0. -1.
        -12    1    5    5    0    0  0.94882663365E+02 -0.36008626322E+02  0.30385658389E+03  0.32035630874E+03  0.00000000000E+00 0.  1.
          5    1    4    4  501    0  0.20254220296E+01 -0.11035191012E+03  0.13044605250E+03  0.17092481217E+03  0.41800000000E+01 0.  1.
         -5    1    4    4    0  501 -0.70693576583E+02 -0.23306259075E+01  0.67490848764E+02  0.97854487143E+02  0.41800000000E+01 0.  1.
</event>
<event>
11    1  0.6763327E-009  0.1763241E+03  0.7561462E-02  0.1072656E+00
         22   -1    0    0    0    0  0.00000000000E+00  0.00000000000E+00  0.37315286778E+04  0.37315286778E+04  0.00000000000E+00 0. -1.
         22   -1    0    0    0    0 -0.00000000000E+00 -0.00000000000E+00 -0.12900511188E+03  0.12900511188E+03  0.00000000000E+00 0. -1.
        -24    2    1    2    0    0  0.46282306771E+00  0.68911792528E+02 -0.86910740354E+02  0.13556250710E+03  0.77940151315E+02 0.  0.
         25    2    1    2    0    0  0.65469309777E+02 -0.16750514550E+03  0.73278972855E+03  0.76483491253E+03  0.12508977921E+03 0.  0.
         24    2    1    2    0    0 -0.65932132845E+02  0.98593352968E+02  0.29566445777E+04  0.29601363701E+04  0.81194057197E+02 0.  0.
        -11    1    5    5    0    0 -0.28449416512E+02  0.78899547323E+01  0.14490143701E+04  0.14493151022E+04  0.00000000000E+00 0.  1.
         12    1    5    5    0    0 -0.37482716333E+02  0.90703398235E+02  0.15076302076E+04  0.15108212679E+04  0.00000000000E+00 0. -1.
         11    1    3    3    0    0  0.13364429661E+02  0.75728199483E+02 -0.92184347962E+02  0.12004716651E+03  0.00000000000E+00 0. -1.
        -12    1    3    3    0    0 -0.12901606594E+02 -0.68164069546E+01  0.52736076076E+01  0.15515340591E+02  0.00000000000E+00 0.  1.
          5    1    4    4  501    0 -0.28414054971E+02 -0.25586725833E+02  0.24948830494E+03  0.25243598349E+03  0.41800000000E+01 0. -1.
         -5    1    4    4    0  501  0.93883364748E+02 -0.14191841966E+03  0.48330142361E+03  0.51239892904E+03  0.41800000000E+01 0. -1.
</event>
<event>
11    1  0.6763327E-009  0.1314977E+03  0.7561462E-02  0.1117442E+00
         22   -1    0    0    0    0  0.00000000000E+00  0.00000000000E+00  0.16204313963E+04  0.16204313963E+04  0.00000000000E+00 0. -1.
         22   -1    0    0    0    0 -0.00000000000E+00 -0.00000000000E+00 -0.57407895449E+03  0.57407895449E+03  0.00000000000E+00 0. -1.
        -24    2    1    2    0    0 -0.39667164677E+02  0.55471447600E+01 -0.50377295831E+03  0.51217727548E+03  0.83271322922E+02 0.  0.
         25    2    1    2    0    0  0.51387361150E+02  0.16511915548E+02  0.64079064304E+01  0.13638821881E+03  0.12508949086E+03 0.  0.
         24    2    1    2    0    0 -0.11720196473E+02 -0.22059060308E+02  0.15437174937E+04  0.15459448565E+04  0.79106471800E+02 0.  0.
        -11    1    5    5    0    0 -0.45134372806E+01 -0.13615325284E+02  0.45962500448E+02  0.48148724242E+02  0.00000000000E+00 0.  1.
         12    1    5    5    0    0 -0.72067591926E+01 -0.84437350242E+01  0.14977549933E+04  0.14977961323E+04  0.00000000000E+00 0. -1.
         13    1    3    3    0    0 -0.12616415731E+02  0.40123419178E+02 -0.34114788575E+03  0.34373091607E+03  0.00000000000E+00 0. -1.
        -14    1    3    3    0    0 -0.27050748946E+02 -0.34576274418E+02 -0.16262507256E+03  0.16844635940E+03  0.00000000000E+00 0.  1.
          5    1    4    4  501    0 -0.96065252923E+01  0.14580653583E+01  0.55531015626E+02  0.56529438165E+02  0.41800000000E+01 0. -1.
         -5    1    4    4    0  501  0.60993886443E+02  0.15053850190E+02 -0.49123109196E+02  0.79858780644E+02  0.41800000000E+01 0. -1.
</event>
<event>
11    1  0.6763327E-009  0.2798372E+03  0.7561462E-02  0.1009105E+00
         22   -1    0    0    0    0  0.00000000000E+00  0.00000000000E+00  0.21104111065E+03  0.21104111065E+03  0.00000000000E+00 0.  1.
         22   -1    0    0    0    0 -0.00000000000E+00 -0.00000000000E+00 -0.11844097166E+04  0.11844097166E+04  0.00000000000E+00 0.  1.
         24    2    1    2    0    0  0.21962852161E+03  0.13446693358E+03 -0.90594200599E+03  0.94776953414E+03  0.10591566409E+03 0.  0.
         25    2    1    2    0    0 -0.22273644040E+03 -0.63272512023E+02 -0.15829610275E+03  0.30711584077E+03  0.12509017086E+03 0.  0.
        -24    2    1    2    0    0  0.31079187957E+01 -0.71194421560E+02  0.90869502776E+02  0.14056545235E+03  0.80144089229E+02 0.  0.
        -13    1    3    3    0    0  0.13127776181E+03  0.59906163803E+02 -0.66568033284E+03  0.68114088465E+03  0.00000000000E+00 0.  1.
         14    1    3    3    0    0  0.88350759794E+02  0.74560769780E+02 -0.24026167315E+03  0.26662864950E+03  0.00000000000E+00 0. -1.
         13    1    5    5    0    0 -0.21277814575E+02 -0.77677326995E+02  0.58598354536E+02  0.99600600783E+02  0.00000000000E+00 0. -1.
        -14    1    5    5    0    0  0.24385733371E+02  0.64829054344E+01  0.32271148240E+02  0.40964851564E+02  0.00000000000E+00 0.  1.
          5    1    4    4  501    0 -0.18814425508E+03 -0.98782800391E+02 -0.13783501451E+03  0.25332245459E+03  0.41800000000E+01 0. -1.
         -5    1    4    4    0  501 -0.34592185320E+02  0.35510288367E+02 -0.20461088242E+02  0.53793386184E+02  0.41800000000E+01 0. -1.
</event>
<event>
11    1  0.6763327E-009  0.1349791E+03  0.7561462E-02  0.1113298E+00
         22   -1    0    0    0    0  0.00000000000E+00  0.00000000000E+00  0.46799133680E+03  0.46799133680E+03  0.00000000000E+00 0.  1.
         22   -1    0    0    0    0 -0.00000000000E+00 -0.00000000000E+00 -0.17708478596E+03  0.17708478596E+03  0.00000000000E+00 0.  1.
        -24    2    1    2    0    0 -0.25537187583E+00  0.45938489168E+02 -0.11385546839E+03  0.14976461453E+03  0.85766905523E+02 0.  0.
         25    2    1    2    0    0 -0.10903862962E+02 -0.94985990847E+02  0.12960846203E+03  0.20392937602E+03  0.12509038449E+03 0.  0.
         24    2    1    2    0    0  0.11159234838E+02  0.49047501679E+02  0.27515355720E+03  0.29138213220E+03  0.81632597575E+02 0.  0.
        -11    1    5    5    0    0  0.14338607465E+02  0.71097556907E+02  0.22742448197E+03  0.23870976784E+03  0.00000000000E+00 0.  1.
         12    1    5    5    0    0 -0.31793726270E+01 -0.22050055228E+02  0.47729075222E+02  0.52672364362E+02  0.00000000000E+00 0. -1.
         11    1    3    3    0    0 -0.42732085054E+02  0.18346554329E+02 -0.50498004981E+02  0.68648930478E+02  0.00000000000E+00 0. -1.
        -12    1    3    3    0    0  0.42476713178E+02  0.27591934839E+02 -0.63357463405E+02  0.81115684055E+02  0.00000000000E+00 0.  1.
          5    1    4    4  501    0 -0.13816968254E+02 -0.37700114808E+01 -0.22202107698E+02  0.26749347366E+02  0.41800000000E+01 0.  1.
         -5    1    4    4    0  501  0.29131052915E+01 -0.91215979366E+02  0.15181056972E+03  0.17718002866E+03  0.41800000000E+01 0.  1.
</event>
<event>
11    1  0.6763327E-009  0.1340971E+03  0.7561462E-02  0.1114335E+00
         22   -1    0    0    0    0  0.00000000000E+00  0.00000000000E+00  0.32666623667E+03  0.32666623667E+03  0.00000000000E+00 0.  1.
         22   -1    0    0    0    0 -0.00000000000E+00 -0.00000000000E+00 -0.99368648458E+03  0.99368648458E+03  0.00000000000E+00 0.  1.
        -24    2    1    2    0    0 -0.14728143703E+01  0.30735447940E+02 -0.86944758383E+03  0.87357010742E+03  0.78986040596E+02 0.  0.
         25    2    1    2    0    0 -0.27306018537E+02  0.10169088854E+02 -0.78143752960E+02  0.15033617262E+03  0.12508193177E+03 0.  0.
         24    2    1    2    0    0  0.28778832907E+02 -0.40904536794E+02  0.28057108887E+03  0.29644644122E+03  0.81602415690E+02 0.  0.
        -13    1    5    5    0    0 -0.38296796169E+01 -0.22019054012E+02  0.24013913282E+03  0.24117692322E+03  0.00000000000E+00 0.  1.
         14    1    5    5    0    0  0.32608512524E+02 -0.18885482782E+02  0.40431956055E+02  0.55269517995E+02  0.00000000000E+00 0. -1.
         13    1    3    3    0    0 -0.15640056145E+02  0.51627774696E+02 -0.42557428149E+03  0.42897961204E+03  0.00000000000E+00 0. -1.
        -14    1    3    3    0    0  0.14167241775E+02 -0.20892326756E+02 -0.44387330233E+03  0.44459049538E+03  0.00000000000E+00 0.  1.
          5    1    4    4  501    0 -0.43626797022E+02 -0.49625934629E+02 -0.37352178561E+02  0.76017685109E+02  0.41800000000E+01 0. -1.
         -5    1    4    4    0  501  0.16320778485E+02  0.59795023483E+02 -0.40791574400E+02  0.74318487509E+02  0.41800000000E+01 0. -1.
</event>
<event>
11    1  0.6763327E-009  0.1580447E+03  0.7561462E-02  0.1088931E+00
         22   -1    0    0    0    0  0.00000000000E+00  0.00000000000E+00  0.16821932404E+03  0.16821932404E+03  0.00000000000E+00 0.  1.
         22   -1    0    0    0    0 -0.00000000000E+00 -0.00000000000E+00 -0.20450537563E+04  0.20450537563E+04  0.00000000000E+00 0. -1.
         24    2    1    2    0    0 -0.20657256611E+02  0.37249585382E+02 -0.18678562585E+04  0.18699121031E+04  0.76616036743E+02 0.  0.
         25    2    1    2    0    0 -0.25775142676E+02  0.56300362313E+02 -0.10979551540E+03  0.17758552503E+03  0.12508986659E+03 0.  0.
        -24    2    1    2    0    0  0.46432399287E+02 -0.93549947695E+02  0.10081734168E+03  0.16577545217E+03  0.80061249930E+02 0.  0.
        -11    1    3    3    0    0 -0.11245202192E+02  0.11670372592E+02 -0.70091488660E+02  0.71940732213E+02  0.00000000000E+00 0.  1.
         12    1    3    3    0    0 -0.94120544188E+01  0.25579212791E+02 -0.17977647699E+04  0.17979713709E+04  0.00000000000E+00 0. -1.
         13    1    5    5    0    0 -0.38166064255E+01 -0.66276149487E+01 -0.12327236533E+02  0.14506981942E+02  0.00000000000E+00 0. -1.
        -14    1    5    5    0    0  0.50249005713E+02 -0.86922332746E+02  0.11314457821E+03  0.15126847022E+03  0.00000000000E+00 0.  1.
          5    1    4    4  501    0 -0.58063923814E+02 -0.15835317900E+02 -0.50899391417E+02  0.78932863804E+02  0.41800000000E+01 0. -1.
         -5    1    4    4    0  501  0.32288781138E+02  0.72135680213E+02 -0.58896123986E+02  0.98652661229E+02  0.41800000000E+01 0. -1.
</event>
<event>
11    1  0.6763327E-009  0.1423421E+03  0.7561462E-02  0.1104971E+00
         22   -1    0    0    0    0  0.00000000000E+00  0.00000000000E+00  0.43505276211E+03  0.43505276211E+03  0.00000000000E+00 0. -1.
         22   -1    0    0    0    0 -0.00000000000E+00 -0.00000000000E+00 -0.80877117715E+03  0.80877117715E+03  0.00000000000E+00 0.  1.
        -24    2    1    2    0    0  0.40995283180E+01  0.23598051875E+02 -0.70420737313E+03  0.70917236311E+03  0.80272922269E+02 0.  0.
         25    2    1    2    0    0  0.63913372391E+02 -0.16596972927E+02 -0.41913618775E+02  0.14752856175E+03  0.12509015314E+03 0.  0.
         24    2    1    2    0    0 -0.68012900709E+02 -0.70010789480E+01  0.37240257686E+03  0.38712301440E+03  0.80658410910E+02 0.  0.
        -11    1    5    5    0    0 -0.37484232028E+02 -0.43037652689E+02  0.23495006710E+03  0.24178263220E+03  0.00000000000E+00 0.  1.
         12    1    5    5    0    0 -0.30528668681E+02  0.36036573741E+02  0.13745250976E+03  0.14534038220E+03  0.00000000000E+00 0. -1.
         13    1    3    3    0    0  0.65778628586E+01 -0.16552330734E+02 -0.40458611359E+02  0.44205736795E+02  0.00000000000E+00 0. -1.
        -14    1    3    3    0    0 -0.24783345406E+01  0.40150382608E+02 -0.66374876177E+03  0.66496662632E+03  0.00000000000E+00 0.  1.
          5    1    4    4  501    0  0.48369305692E+02  0.67576309212E+01  0.38454840147E+02  0.62301704949E+02  0.41800000000E+01 0.  1.
         -5    1    4    4    0  501  0.15544066698E+02 -0.23354603848E+02 -0.80368458922E+02  0.85226856800E+02  0.41800000000E+01 0.  1.
</event>
<event>
11    1  0.6763327E-009  0.1908281E+03  0.7561462E-02  0.1061206E+00
         22   -1    0    0    0    0  0.00000000000E+00  0.00000000000E+00  0.30935726591E+03  0.30935726591E+03  0.00000000000E+00 0. -1.
         22   -1    0    0    0    0 -0.00000000000E+00 -0.00000000000E+00 -0.63527563521E+03  0.63527563521E+03  0.00000000000E+00 0.  1.
        -24    2    1    2    0    0  0.11263993642E+03 -0.93742540045E+02 -0.17783653744E+03  0.24432256125E+03  0.81192738575E+02 0.  0.
         25    2    1    2    0    0 -0.10429218946E+03  0.97296854344E+02 -0.39606595904E+03  0.43915618365E+03  0.12508545508E+03 0.  0.
         24    2    1    2    0    0 -0.83477469599E+01 -0.35543142990E+01  0.24798412717E+03  0.26115415622E+03  0.81382110768E+02 0.  0.
        -11    1    5    5    0    0 -0.19877886601E+02  0.28641439293E+02  0.54683549314E+02  0.64851777047E+02  0.00000000000E+00 0.  1.
         12    1    5    5    0    0  0.11530139641E+02 -0.32195753592E+02  0.19330057786E+03  0.19630237918E+03  0.00000000000E+00 0. -1.
         13    1    3    3    0    0  0.64675510269E+02 -0.30957900735E+02 -0.32128944517E+02  0.78572147242E+02  0.00000000000E+00 0. -1.
        -14    1    3    3    0    0  0.47964426152E+02 -0.62784639310E+02 -0.14570759292E+03  0.16575041401E+03  0.00000000000E+00 0.  1.
          5    1    4    4  501    0 -0.10500141034E+03  0.13860545154E+02 -0.21218194170E+03  0.23718359907E+03  0.41800000000E+01 0. -1.
         -5    1    4    4    0  501  0.70922087516E+00  0.83436309189E+02 -0.18388401735E+03  0.20197258458E+03  0.41800000000E+01 0. -1.
</event>
<event>
11    1  0.6763327E-009  0.1440490E+03  0.7561462E-02  0.1103119E+00
         22   -1    0    0    0    0  0.00000000000E+00  0.00000000000E+00  0.14401269407E+03  0.14401269407E+03  0.00000000000E+00 0. -1.
         22   -1    0    0    0    0 -0.00000000000E+00 -0.00000000000E+00 -0.41471717161E+03  0.41471717161E+03  0.00000000000E+00 0.  1.
        -24    2    1    2    0    0  0.37913424788E+02 -0.54155684617E+02 -0.25054169239E+03  0.27188279241E+03  0.82333755117E+02 0.  0.
         25    2    1    2    0    0 -0.26335504275E+02  0.97624851354E+02 -0.77410525416E+02  0.17851425015E+03  0.12510306820E+03 0.  0.
         24    2    1    2    0    0 -0.11577920513E+02 -0.43469166738E+02  0.57247740258E+02  0.10833282311E+03  0.80218950995E+02 0.  0.
        -13    1    5    5    0    0 -0.43034782853E+02 -0.34848273713E+02  0.50670976595E+02  0.75059593558E+02  0.00000000000E+00 0.  1.
         14    1    5    5    0    0  0.31456862339E+02 -0.86208930250E+01  0.65767636627E+01  0.33273229556E+02  0.00000000000E+00 0. -1.
         13    1    3    3    0    0 -0.98874144975E+01 -0.62969483740E+01  0.65275338109E+00  0.11740468953E+02  0.00000000000E+00 0. -1.
        -14    1    3    3    0    0  0.47800839286E+02 -0.47858736243E+02 -0.25119444577E+03  0.26014232346E+03  0.00000000000E+00 0.  1.
          5    1    4    4  501    0 -0.14740194655E+02  0.11302813947E+03 -0.17446482391E+02  0.11538841276E+03  0.41800000000E+01 0.  1.
         -5    1    4    4    0  501 -0.11595309620E+02 -0.15403288119E+02 -0.59964043026E+02  0.63125837389E+02  0.41800000000E+01 0.  1.
</event>
<event>
11    1  0.6763327E-009  0.1425801E+03  0.7561462E-02  0.1104711E+00
         22   -1    0    0    0    0  0.00000000000E+00  0.00000000000E+00  0.82165410534E+02  0.82165410534E+02  0.00000000000E+00 0.  1.
         22   -1    0    0    0    0 -0.00000000000E+00 -0.00000000000E+00 -0.79113874208E+03  0.79113874208E+03  0.00000000000E+00 0. -1.
        -24    2    1    2    0    0  0.97180172175E+01  0.33345962497E+02 -0.31395964620E+03  0.32664260134E+03  0.83176538115E+02 0.  0.
         25    2    1    2    0    0  0.51821350720E+02 -0.61936619611E+02 -0.41391767985E+03  0.43988314810E+03  0.12509093111E+03 0.  0.
         24    2    1    2    0    0 -0.61539367937E+02  0.28590657113E+02  0.18903994506E+02  0.10677840318E+03  0.80248033601E+02 0.  0.
        -13    1    5    5    0    0 -0.38022104913E+02  0.56014709308E+02  0.20133911748E+02  0.70630747717E+02  0.00000000000E+00 0.  1.
         14    1    5    5    0    0 -0.23517263025E+02 -0.27424052195E+02 -0.12299172423E+01  0.36147655462E+02  0.00000000000E+00 0. -1.
         13    1    3    3    0    0 -0.17181281257E+02 -0.37152076678E+00 -0.24296676370E+03  0.24357377264E+03  0.00000000000E+00 0. -1.
        -14    1    3    3    0    0  0.26899298475E+02  0.33717483264E+02 -0.70992882499E+02  0.83068828700E+02  0.00000000000E+00 0.  1.
          5    1    4    4  501    0 -0.31309088913E+02  0.71919308872E+01 -0.16978917507E+03  0.17285201558E+03  0.41800000000E+01 0.  1.
         -5    1    4    4    0  501  0.83130439633E+02 -0.69128550498E+02 -0.24412850478E+03  0.26703113252E+03  0.41800000000E+01 0.  1.
</event>
<event>
11    1  0.6763327E-009  0.1485781E+03  0.7561462E-02  0.1098341E+00
         22   -1    0    0    0    0  0.00000000000E+00  0.00000000000E+00  0.21738070544E+03  0.21738070544E+03  0.00000000000E+00 0. -1.
         22   -1    0    0    0    0 -0.00000000000E+00 -0.00000000000E+00 -0.55966018119E+03  0.55966018119E+03  0.00000000000E+00 0. -1.
        -24    2    1    2    0    0  0.42446575309E+02 -0.30003524869E+01 -0.14510284798E+03  0.17255146626E+03  0.83117135101E+02 0.  0.
         25    2    1    2    0    0 -0.10648493229E+03 -0.42845403970E+02 -0.36477292624E+03  0.40234435611E+03  0.12508766418E+03 0.  0.
         24    2    1    2    0    0  0.64038356977E+02  0.45845756457E+02  0.16759629847E+03  0.20214506427E+03  0.81063945121E+02 0.  0.
        -13    1    5    5    0    0 -0.14054429700E+02  0.29379739321E+02  0.58762746615E+02  0.67184495730E+02  0.00000000000E+00 0.  1.
         14    1    5    5    0    0  0.78092786677E+02  0.16466017136E+02  0.10883355185E+03  0.13496056854E+03  0.00000000000E+00 0. -1.
         11    1    3    3    0    0  0.54934998236E+02  0.23388202219E+02 -0.70180750197E+02  0.92142279831E+02  0.00000000000E+00 0. -1.
        -12    1    3    3    0    0 -0.12488422927E+02 -0.26388554706E+02 -0.74922097783E+02  0.80409186433E+02  0.00000000000E+00 0.  1.
          5    1    4    4  501    0 -0.77382897729E+02 -0.74305074262E+02 -0.32991268184E+03  0.34694265659E+03  0.41800000000E+01 0.  1.
         -5    1    4    4    0  501 -0.29102034556E+02  0.31459670292E+02 -0.34860244400E+02  0.55401699521E+02  0.41800000000E+01 0.  1.
</event>
<event>
11    1  0.6763327E-009  0.1561368E+03  0.7561462E-02  0.1090768E+00
         22   -1    0    0    0    0  0.00000000000E+00  0.00000000000E+00  0.61757289165E+02  0.61757289165E+02  0.00000000000E+00 0. -1.
         22   -1    0    0    0    0 -0.00000000000E+00 -0.00000000000E+00 -0.25964174678E+04  0.25964174678E+04  0.00000000000E+00 0.  1.
         24    2    1    2    0    0 -0.60083733643E+01 -0.54213579860E+02 -0.21680497420E+04  0.21701443051E+04  0.78175498496E+02 0.  0.
         25    2    1    2    0    0 -0.29691728366E+02  0.12974709469E+03 -0.31345731049E+03  0.36279575267E+03  0.12509742341E+03 0.  0.
        -24    2    1    2    0    0  0.35700101730E+02 -0.75533514826E+02 -0.53153126130E+02  0.12523469914E+03  0.76672458714E+02 0.  0.
        -11    1    3    3    0    0 -0.41742851453E+02 -0.35607478553E+02 -0.13133104823E+04  0.13144560781E+04  0.00000000000E+00 0.  1.
         12    1    3    3    0    0  0.35734478089E+02 -0.18606101306E+02 -0.85473925965E+03  0.85568822705E+03  0.00000000000E+00 0. -1.
         11    1    5    5    0    0  0.19333467375E+02 -0.83982638483E+02 -0.21835943536E+02  0.88902615020E+02  0.00000000000E+00 0. -1.
        -12    1    5    5    0    0  0.16366634355E+02  0.84491236572E+01 -0.31317182594E+02  0.36332084118E+02  0.00000000000E+00 0.  1.
          5    1    4    4  501    0 -0.37518979066E+02  0.58441382752E+02 -0.40423485953E+02  0.80464896848E+02  0.41800000000E+01 0. -1.
         -5    1    4    4    0  501  0.78272506999E+01  0.71305711933E+02 -0.27303382454E+03  0.28233085583E+03  0.41800000000E+01 0. -1.
</event>
<event>
11    1  0.6763327E-009  0.1687881E+03  0.7561462E-02  0.1079091E+00
         22   -1    0    0    0    0  0.00000000000E+00  0.00000000000E+00  0.86161101215E+03  0.86161101215E+03  0.00000000000E+00 0. -1.
         22   -1    0    0    0    0 -0.00000000000E+00 -0.00000000000E+00 -0.22597049713E+04  0.22597049713E+04  0.00000000000E+00 0. -1.
        -24    2    1    2    0    0  0.78724502927E+02  0.84397512692E+02 -0.20803146295E+04  0.20850946868E+04  0.81181326650E+02 0.  0.
         25    2    1    2    0    0 -0.69500847185E+02 -0.50551182144E+02 -0.14158280409E+03  0.20755459349E+03  0.12508968419E+03 0.  0.
         24    2    1    2    0    0 -0.92236557420E+01 -0.33846330547E+02  0.82380347437E+03  0.82866670320E+03  0.82496610144E+02 0.  0.
        -13    1    5    5    0    0 -0.41493192024E+02 -0.27117675007E+01  0.28743312589E+03  0.29042527529E+03  0.00000000000E+00 0.  1.
         14    1    5    5    0    0  0.32269536282E+02 -0.31134563046E+02  0.53637034848E+03  0.53824142791E+03  0.00000000000E+00 0. -1.
         13    1    3    3    0    0  0.88721496966E+02  0.58250377489E+02 -0.18573013560E+04  0.18603314053E+04  0.00000000000E+00 0. -1.
        -14    1    3    3    0    0 -0.99969940387E+01  0.26147135202E+02 -0.22301327345E+03  0.22476328148E+03  0.00000000000E+00 0.  1.
          5    1    4    4  501    0 -0.18456542815E+02 -0.38771454553E+02  0.12368184258E+02  0.44881110087E+02  0.41800000000E+01 0. -1.
         -5    1    4    4    0  501 -0.51044304370E+02 -0.11779727591E+02 -0.15395098835E+03  0.16267348341E+03  0.41800000000E+01 0. -1.
</event>
<event>
11    1  0.6763327E-009  0.1317856E+03  0.7561462E-02  0.1117094E+00
         22   -1    0    0    0    0  0.00000000000E+00  0.00000000000E+00  0.24811420239E+04  0.24811420239E+04  0.00000000000E+00 0.  1.
         22   -1    0    0    0    0 -0.00000000000E+00 -0.00000000000E+00 -0.31387992202E+03  0.31387992202E+03  0.00000000000E+00 0.  1.
         24    2    1    2    0    0 -0.18097715538E+02 -0.25368278236E+00 -0.30297750870E+03  0.31432516659E+03  0.81715040913E+02 0.  0.
         25    2    1    2    0    0 -0.25464666236E+02  0.16245831061E+02  0.11197911191E+04  0.11271614958E+04  0.12509400821E+03 0.  0.
        -24    2    1    2    0    0  0.43562381774E+02 -0.15992148279E+02  0.13504484915E+04  0.13535352836E+04  0.78696923401E+02 0.  0.
        -11    1    3    3    0    0 -0.27474773206E+02 -0.35417006273E+02 -0.20407304133E+03  0.20893787042E+03  0.00000000000E+00 0.  1.
         12    1    3    3    0    0  0.93770576677E+01  0.35163323490E+02 -0.98904467373E+02  0.10538729618E+03  0.00000000000E+00 0. -1.
         11    1    5    5    0    0 -0.22697047976E+02  0.15789735421E+01  0.31603070158E+03  0.31684862866E+03  0.00000000000E+00 0. -1.
        -12    1    5    5    0    0  0.66259429751E+02 -0.17571121821E+02  0.10344177899E+04  0.10366866549E+04  0.00000000000E+00 0.  1.
          5    1    4    4  501    0  0.26212374314E+02 -0.25858522894E+02  0.13165655448E+03  0.13677233825E+03  0.41800000000E+01 0.  1.
         -5    1    4    4    0  501 -0.51677040550E+02  0.42104353955E+02  0.98813456465E+03  0.99038915755E+03  0.41800000000E+01 0.  1.
</event>
<event>
11    1  0.6763327E-009  0.1744015E+03  0.7561462E-02  0.1074264E+00
         22   -1    0    0    0    0  0.00000000000E+00  0.00000000000E+00  0.10688304260E+03  0.10688304260E+03  0.00000000000E+00 0.  1.
         22   -1    0    0    0    0 -0.00000000000E+00 -0.00000000000E+00 -0.88378613741E+03  0.88378613741E+03  0.00000000000E+00 0.  1.
        -24    2    1    2    0    0 -0.67330790966E+02 -0.91378575286E+02 -0.43510925189E+03  0.45667067661E+03  0.79652786280E+02 0.  0.
         25    2    1    2    0    0  0.91725973824E+02  0.10238382027E+03 -0.39197104148E+03  0.43380359354E+03  0.12509260362E+03 0.  0.
         24    2    1    2    0    0 -0.24395182858E+02 -0.11005244984E+02  0.50177198559E+02  0.10019490986E+03  0.82492595690E+02 0.  0.
        -11    1    5    5    0    0 -0.56374061921E+01  0.15915047448E+02  0.62807245419E+02  0.65037059905E+02  0.00000000000E+00 0.  1.
         12    1    5    5    0    0 -0.18757776666E+02 -0.26920292432E+02 -0.12630046860E+02  0.35157849959E+02  0.00000000000E+00 0. -1.
         13    1    3    3    0    0  0.14179911039E+02 -0.14755098121E+02 -0.29405672572E+02  0.35825638543E+02  0.00000000000E+00 0. -1.
        -14    1    3    3    0    0 -0.81510702005E+02 -0.76623477165E+02 -0.40570357932E+03  0.42084503807E+03  0.00000000000E+00 0.  1.
          5    1    4    4  501    0  0.39246820708E+02  0.11276650108E+03 -0.18686070581E+03  0.22179042468E+03  0.41800000000E+01 0.  1.
         -5    1    4    4    0  501  0.52479153116E+02 -0.10382680812E+02 -0.20511033567E+03  0.21201316886E+03  0.41800000000E+01 0.  1.
</event>
<event>
11    1  0.6763327E-009  0.1273183E+03  0.7561462E-02  0.1122609E+00
         22   -1    0    0    0    0  0.00000000000E+00  0.00000000000E+00  0.14944270433E+03  0.14944270433E+03  0.00000000000E+00 0. -1.
         22   -1    0    0    0    0 -0.00000000000E+00 -0.00000000000E+00 -0.74995368739E+03  0.74995368739E+03  0.00000000000E+00 0. -1.
         24    2    1    2    0    0 -0.44405052761E+01  0.23571867917E+02 -0.67253938984E+03  0.67780510833E+03  0.80840478382E+02 0.  0.
         25    2    1    2    0    0 -0.10940688413E+02 -0.17316374017E+02  0.31345669938E+02  0.13057572344E+03  0.12509161865E+03 0.  0.
        -24    2    1    2    0    0  0.15381193689E+02 -0.62554938999E+01  0.40682736854E+02  0.91015559949E+02  0.79705926703E+02 0.  0.
        -13    1    3    3    0    0 -0.39535481277E+02  0.17031849543E+02 -0.24289899784E+03  0.24668413270E+03  0.00000000000E+00 0.  1.
         14    1    3    3    0    0  0.35094976001E+02  0.65400183739E+01 -0.42964039201E+03  0.43112097563E+03  0.00000000000E+00 0. -1.
         11    1    5    5    0    0  0.29594123178E+02 -0.46083544174E+01  0.59950788137E+02  0.67016013425E+02  0.00000000000E+00 0. -1.
        -12    1    5    5    0    0 -0.14212929489E+02 -0.16471394825E+01 -0.19268051283E+02  0.23999546524E+02  0.00000000000E+00 0.  1.
          5    1    4    4  501    0 -0.59891779170E+02  0.76341500832E+01  0.43017249140E+02  0.74251340615E+02  0.41800000000E+01 0.  1.
         -5    1    4    4    0  501  0.48951090757E+02 -0.24950524101E+02 -0.11671579201E+02  0.56324382822E+02  0.41800000000E+01 0.  1.
</event>
<event>
11    1  0.6763327E-009  0.1323268E+03  0.7561462E-02  0.1116443E+00
         22   -1    0    0    0    0  0.00000000000E+00  0.00000000000E+00  0.23141566226E+03  0.23141566226E+03  0.00000000000E+00 0.  1.
         22   -1    0    0    0    0 -0.00000000000E+00 -0.00000000000E+00 -0.27664254842E+03  0.27664254842E+03  0.00000000000E+00 0. -1.
         24    2    1    2    0    0  0.24615093258E+02 -0.37615231720E+02 -0.14772609871E+03  0.17466462115E+03  0.81632843693E+02 0.  0.
         25    2    1    2    0    0 -0.27047173792E+02  0.27217807050E+02 -0.65863494623E+02  0.14648785506E+03  0.12509329768E+03 0.  0.
        -24    2    1    2    0    0  0.24320805345E+01  0.10397424670E+02  0.16836270717E+03  0.18690573447E+03  0.80459498857E+02 0.  0.
        -13    1    3    3    0    0  0.41706874775E+02 -0.51238604854E+02 -0.81441101434E+02  0.10486901846E+03  0.00000000000E+00 0.  1.
         14    1    3    3    0    0 -0.17091781517E+02  0.13623373135E+02 -0.66284997274E+02  0.69795602688E+02  0.00000000000E+00 0. -1.
         13    1    5    5    0    0 -0.68036659523E+01  0.29274575419E+02  0.17897790556E+02  0.34980302216E+02  0.00000000000E+00 0. -1.
        -14    1    5    5    0    0  0.92357464868E+01 -0.18877150749E+02  0.15046491662E+03  0.15192543226E+03  0.00000000000E+00 0.  1.
          5    1    4    4  501    0 -0.75706210465E+02  0.35074584759E+01 -0.45557203359E+02  0.88524932905E+02  0.41800000000E+01 0. -1.
         -5    1    4    4    0  501  0.48659036672E+02  0.23710348574E+02 -0.20306291264E+02  0.57962922151E+02  0.41800000000E+01 0. -1.
</event>
<event>
11    1  0.6763327E-009  0.1482870E+03  0.7561462E-02  0.1098642E+00
         22   -1    0    0    0    0  0.00000000000E+00  0.00000000000E+00  0.11653450807E+04  0.11653450807E+04  0.00000000000E+00 0.  1.
         22   -1    0    0    0    0 -0.00000000000E+00 -0.00000000000E+00 -0.20995287234E+03  0.20995287234E+03  0.00000000000E+00 0. -1.
        -24    2    1    2    0    0  0.29782738395E+02 -0.72073369546E+02 -0.16683639669E+03  0.20117495672E+03  0.80965411432E+02 0.  0.
         25    2    1    2    0    0 -0.45590233255E+02  0.96645683228E+02  0.26008917804E+03  0.30775678648E+03  0.12509596970E+03 0.  0.
         24    2    1    2    0    0  0.15807494860E+02 -0.24572313681E+02  0.86213942702E+03  0.86636620984E+03  0.80326474118E+02 0.  0.
        -11    1    5    5    0    0  0.80487678801E+01 -0.40732706413E+02  0.81299164233E+03  0.81405119405E+03  0.00000000000E+00 0.  1.
         12    1    5    5    0    0  0.77587269800E+01  0.16160392732E+02  0.49147784690E+02  0.52315015794E+02  0.00000000000E+00 0. -1.
         13    1    3    3    0    0  0.90643680420E+01 -0.40688528640E+02 -0.15680776875E+03  0.16225410772E+03  0.00000000000E+00 0. -1.
        -14    1    3    3    0    0  0.20718370353E+02 -0.31384840906E+02 -0.10028627936E+02  0.38920849002E+02  0.00000000000E+00 0.  1.
          5    1    4    4  501    0  0.27451977185E+02  0.16115778000E+02  0.14839935578E+03  0.15183270579E+03  0.41800000000E+01 0. -1.
         -5    1    4    4    0  501 -0.73042210440E+02  0.80529905228E+02  0.11168982226E+03  0.15592408069E+03  0.41800000000E+01 0. -1.
</event>
<event>
11    1  0.6763327E-009  0.1483115E+03  0.7561462E-02  0.1098617E+00
         22   -1    0    0    0    0  0.00000000000E+00  0.00000000000E+00  0.61409217313E+03  0.61409217313E+03  0.00000000000E+00 0.  1.
         22   -1    0    0    0    0 -0.00000000000E+00 -0.00000000000E+00 -0.14557984130E+04  0.14557984130E+04  0.00000000000E+00 0. -1.
        -24    2    1    2    0    0 -0.78085600873E+02  0.57363853492E+00 -0.13556056252E+04  0.13606079816E+04  0.86543505808E+02 0.  0.
         25    2    1    2    0    0  0.14982502586E+03  0.44707572992E+02  0.19310674427E+02  0.20116378791E+03  0.12509061500E+03 0.  0.
         24    2    1    2    0    0 -0.71739424987E+02 -0.45281211527E+02  0.49458871088E+03  0.50811881665E+03  0.79811062504E+02 0.  0.
        -11    1    5    5    0    0 -0.55296614457E+02 -0.49433125401E+02  0.48015275718E+03  0.48584773303E+03  0.00000000000E+00 0.  1.
         12    1    5    5    0    0 -0.16442810530E+02  0.41519138735E+01  0.14435953693E+02  0.22271083628E+02  0.00000000000E+00 0. -1.
         11    1    3    3    0    0 -0.68724021615E+02  0.36076380644E+02 -0.10351348765E+04  0.10380408031E+04  0.00000000000E+00 0. -1.
        -12    1    3    3    0    0 -0.93615792581E+01 -0.35502742109E+02 -0.32047074875E+03  0.32256717854E+03  0.00000000000E+00 0.  1.
          5    1    4    4  501    0  0.11068530113E+03  0.10718226213E+01 -0.39904291045E+02  0.11773788487E+03  0.41800000000E+01 0. -1.
         -5    1    4    4    0  501  0.39139724734E+02  0.43635750371E+02  0.59214965471E+02  0.83425903043E+02  0.41800000000E+01 0. -1.
</event>
<event>
11    1  0.6763327E-009  0.1366559E+03  0.7561462E-02  0.1111351E+00
         22   -1    0    0    0    0  0.00000000000E+00  0.00000000000E+00  0.21284446619E+04  0.21284446619E+04  0.00000000000E+00 0.  1.
         22   -1    0    0    0    0 -0.00000000000E+00 -0.00000000000E+00 -0.45829786830E+03  0.45829786830E+03  0.00000000000E+00 0. -1.
        -24    2    1    2    0    0  0.19157645466E+02  0.17330206484E+02 -0.43456178199E+03  0.44220172415E+03  0.77659970626E+02 0.  0.
         25    2    1    2    0    0 -0.62553236140E+02  0.16015743210E+02  0.24757710074E+03  0.28479355686E+03  0.12507412936E+03 0.  0.
         24    2    1    2    0    0  0.43395590674E+02 -0.33345949694E+02  0.18571314748E+04  0.18597472491E+04  0.82020645809E+02 0.  0.
        -11    1    5    5    0    0  0.66711848340E+02 -0.22097920243E+02  0.15197733095E+04  0.15213972858E+04  0.00000000000E+00 0.  1.
         12    1    5    5    0    0 -0.23316257666E+02 -0.11248029450E+02  0.33735816526E+03  0.33834996336E+03  0.00000000000E+00 0. -1.
         13    1    3    3    0    0 -0.60362460291E+01 -0.24666220794E+02 -0.24880480294E+03  0.25009735841E+03  0.00000000000E+00 0. -1.
        -14    1    3    3    0    0  0.25193891495E+02  0.41996427278E+02 -0.18575697905E+03  0.19210436574E+03  0.00000000000E+00 0.  1.
          5    1    4    4  501    0 -0.81582046126E+02  0.33098788979E+02  0.24298691158E+03  0.25847876447E+03  0.41800000000E+01 0. -1.
         -5    1    4    4    0  501  0.19028809986E+02 -0.17083045769E+02  0.45901891650E+01  0.26314792395E+02  0.41800000000E+01 0. -1.
</event>
<event>
11    1  0.6763327E-009  0.1553439E+03  0.7561462E-02  0.1091540E+00
         22   -1    0    0    0    0  0.00000000000E+00  0.00000000000E+00  0.13066869990E+04  0.13066869990E+04  0.00000000000E+00 0. -1.
         22   -1    0    0    0    0 -0.00000000000E+00 -0.00000000000E+00 -0.24928709196E+03  0.24928709196E+03  0.00000000000E+00 0.  1.
        -24    2    1    2    0    0  0.53769116554E+02  0.75769963933E+02 -0.19591387987E+03  0.23111482486E+03  0.79997553804E+02 0.  0.
         25    2    1    2    0    0 -0.10396910376E+03 -0.25082640688E+02  0.17159741764E+03  0.23776613908E+03  0.12509336413E+03 0.  0.
         24    2    1    2    0    0  0.50199987208E+02 -0.50687323245E+02  0.10817163692E+04  0.10870931270E+04  0.81067378263E+02 0.  0.
        -11    1    5    5    0    0  0.18947271107E+02  0.11340926927E+02  0.80598862882E+02  0.83569087609E+02  0.00000000000E+00 0.  1.
         12    1    5    5    0    0  0.31252716101E+02 -0.62028250172E+02  0.10011175063E+04  0.10035240394E+04  0.00000000000E+00 0. -1.
         13    1    3    3    0    0  0.17450167461E+02  0.46566970632E+02 -0.28460595121E+02  0.57297439497E+02  0.00000000000E+00 0. -1.
        -14    1    3    3    0    0  0.36318949093E+02  0.29202993301E+02 -0.16745328475E+03  0.17381738536E+03  0.00000000000E+00 0.  1.
          5    1    4    4  501    0 -0.61839173034E+02  0.27171827979E+02  0.17904550420E+02  0.70003120523E+02  0.41800000000E+01 0.  1.
         -5    1    4    4    0  501 -0.42129930728E+02 -0.52254468668E+02  0.15369286722E+03  0.16776301855E+03  0.41800000000E+01 0.  1.
</event>
<event>
11    1  0.6763327E-009  0.1627924E+03  0.7561462E-02  0.1084480E+00
         22   -1    0    0    0    0  0.00000000000E+00  0.00000000000E+00  0.14067849854E+04  0.14067849854E+04  0.00000000000E+00 0.  1.
         22   -1    0    0    0    0 -0.00000000000E+00 -0.00000000000E+00 -0.11405834490E+04  0.11405834490E+04  0.00000000000E+00 0.  1.
        -24    2    1    2    0    0 -0.99917509626E+02 -0.22389793967E+02 -0.99691462817E+03  0.10052800200E+04  0.79147527272E+02 0.  0.
         25    2    1    2    0    0  0.13257871549E+03  0.11839410846E+01 -0.77785953386E+02  0.19818426287E+03  0.12509128662E+03 0.  0.
         24    2    1    2    0    0 -0.32661205860E+02  0.21205852882E+02  0.13409021179E+04  0.13439041516E+04  0.80891508986E+02 0.  0.
        -13    1    5    5    0    0 -0.44771494739E+02  0.27616822233E+02  0.12932929550E+04  0.12943623307E+04  0.00000000000E+00 0.  1.
         14    1    5    5    0    0  0.12110288880E+02 -0.64109693502E+01  0.47609162896E+02  0.49541820884E+02  0.00000000000E+00 0. -1.
         13    1    3    3    0    0 -0.49361193293E+02  0.28973725323E+02 -0.42063877101E+03  0.42451499366E+03  0.00000000000E+00 0. -1.
        -14    1    3    3    0    0 -0.50556316333E+02 -0.51363519290E+02 -0.57627585716E+03  0.58076502630E+03  0.00000000000E+00 0.  1.
          5    1    4    4  501    0 -0.21058827182E+02  0.17236990788E+02 -0.15300231808E+02  0.31498532459E+02  0.41800000000E+01 0.  1.
         -5    1    4    4    0  501  0.15363754267E+03 -0.16053049703E+02 -0.62485721578E+02  0.16668573041E+03  0.41800000000E+01 0.  1.
</event>
<event>
11    1  0.6763327E-009  0.1312320E+03  0.7561462E-02  0.1117764E+00
         22   -1    0    0    0    0  0.00000000000E+00  0.00000000000E+00  0.10164654684E+04  0.10164654684E+04  0.00000000000E+00 0. -1.
         22   -1    0    0    0    0 -0.00000000000E+00 -0.00000000000E+00 -0.87209480359E+02  0.87209480359E+02  0.00000000000E+00 0.  1.
         24    2    1    2    0    0  0.13216663692E+01  0.38849910980E+02 -0.11360393442E+02  0.88356338243E+02  0.78528476258E+02 0.  0.
         25    2    1    2    0    0  0.52975998140E+01  0.28631430221E+01  0.77533384798E+02  0.14729146700E+03  0.12508832216E+03 0.  0.
        -24    2    1    2    0    0 -0.66192661832E+01 -0.41713054002E+02  0.86308299672E+03  0.86802714355E+03  0.82310808215E+02 0.  0.
        -13    1    3    3    0    0  0.78637859293E+01  0.33625358471E+02 -0.43273466535E+02  0.55363316080E+02  0.00000000000E+00 0.  1.
         14    1    3    3    0    0 -0.65421195601E+01  0.52245525091E+01  0.31913073092E+02  0.32993022163E+02  0.00000000000E+00 0. -1.
         13    1    5    5    0    0 -0.42410706121E+02 -0.78034061681E+01  0.42155610268E+03  0.42375595435E+03  0.00000000000E+00 0. -1.
        -14    1    5    5    0    0  0.35791439938E+02 -0.33909647834E+02  0.44152689404E+03  0.44427118920E+03  0.00000000000E+00 0.  1.
          5    1    4    4  501    0  0.60161383234E+02 -0.15009149592E+02  0.61097233364E+02  0.87149359887E+02  0.41800000000E+01 0.  1.
         -5    1    4    4    0  501 -0.54863783420E+02  0.17872292614E+02  0.16436151435E+02  0.60142107116E+02  0.41800000000E+01 0.  1.
</event>
<event>
11    1  0.6763327E-009  0.1809892E+03  0.7561462E-02  0.1068845E+00
         22   -1    0    0    0    0  0.00000000000E+00  0.00000000000E+00  0.24676558055E+03  0.24676558055E+03  0.00000000000E+00 0. -1.
         22   -1    0    0    0    0 -0.00000000000E+00 -0.00000000000E+00 -0.57777460939E+03  0.57777460939E+03  0.00000000000E+00 0. -1.
        -24    2    1    2    0    0 -0.18655899600E+02 -0.13220256554E+03 -0.45069185030E+03  0.47747274891E+03  0.83854165670E+02 0.  0.
         25    2    1    2    0    0  0.10019685211E+03  0.94827330761E+02  0.55867865991E+01  0.18630981037E+03  0.12509397038E+03 0.  0.
         24    2    1    2    0    0 -0.81540952512E+02  0.37375234777E+02  0.11409603486E+03  0.16075763065E+03  0.69132304538E+02 0.  0.
        -11    1    5    5    0    0 -0.50509811818E+02  0.24726222236E+02  0.18095892195E+02  0.59076970727E+02  0.00000000000E+00 0.  1.
         12    1    5    5    0    0 -0.31031140695E+02  0.12649012541E+02  0.96000142664E+02  0.10168065992E+03  0.00000000000E+00 0. -1.
         13    1    3    3    0    0 -0.15203849920E+02 -0.14254325344E+03 -0.38378589324E+03  0.40968444931E+03  0.00000000000E+00 0. -1.
        -14    1    3    3    0    0 -0.34520496799E+01  0.10340687898E+02 -0.66905957064E+02  0.67788299609E+02  0.00000000000E+00 0.  1.
          5    1    4    4  501    0  0.93103743423E+02  0.38078647806E+01  0.14851910084E+02  0.94450296488E+02  0.41800000000E+01 0.  1.
         -5    1    4    4    0  501  0.70931086888E+01  0.91019465980E+02 -0.92651234851E+01  0.91859513886E+02  0.41800000000E+01 0.  1.
</event>
<event>
11    1  0.6763327E-009  0.1575812E+03  0.7561462E-02  0.1089375E+00
         22   -1    0    0    0    0  0.00000000000E+00  0.00000000000E+00  0.55566765002E+03  0.55566765002E+03  0.00000000000E+00 0.  1.
         22   -1    0    0    0    0 -0.00000000000E+00 -0.00000000000E+00 -0.49507488537E+03  0.49507488537E+03  0.00000000000E+00 0.  1.
         24    2    1    2    0    0 -0.21899947867E+02 -0.76022630590E+02 -0.44297993735E+03  0.45727916436E+03  0.81326263807E+02 0.  0.
         25    2    1    2    0    0 -0.35502132113E+02 -0.24708254009E+02  0.99106783177E+02  0.16534974816E+03  0.12508990984E+03 0.  0.
        -24    2    1    2    0    0  0.57402079980E+02  0.10073088460E+03  0.40446591883E+03  0.42811362286E+03  0.79037236074E+02 0.  0.
        -13    1    3    3    0    0 -0.32946130344E+02 -0.40965414537E+02 -0.38539120060E+03  0.38896013959E+03  0.00000000000E+00 0.  1.
         14    1    3    3    0    0  0.11046182476E+02 -0.35057216053E+02 -0.57588736757E+02  0.68319024773E+02  0.00000000000E+00 0. -1.
         11    1    5    5    0    0 -0.59563898590E+01 -0.10634352009E+02  0.34899569243E+02  0.36966849422E+02  0.00000000000E+00 0. -1.
        -12    1    5    5    0    0  0.63358469839E+02  0.11136523661E+03  0.36956634958E+03  0.39114677344E+03  0.00000000000E+00 0.  1.
          5    1    4    4  501    0 -0.21421880102E+02 -0.54702271540E+02  0.11435956348E+03  0.12863443403E+03  0.41800000000E+01 0.  1.
         -5    1    4    4    0  501 -0.14080252011E+02  0.29994017531E+02 -0.15252780306E+02  0.36715314127E+02  0.41800000000E+01 0.  1.
</event>
<event>
11    1  0.6763327E-009  0.1685512E+03  0.7561462E-02  0.1079299E+00
         22   -1    0    0    0    0  0.00000000000E+00  0.00000000000E+00  0.15121523736E+04  0.15121523736E+04  0.00000000000E+00 0.  1.
         22   -1    0    0    0    0 -0.00000000000E+00 -0.00000000000E+00 -0.24155640361E+03  0.24155640361E+03  0.00000000000E+00 0. -1.
        -24    2    1    2    0    0 -0.45201167243E+02 -0.26471555466E+02 -0.21577848356E+03  0.23641824617E+03  0.81174776765E+02 0.  0.
         25    2    1    2    0    0 -0.52193627489E+02  0.97390377355E+02  0.83269687826E+03  0.84925888168E+03  0.12508995438E+03 0.  0.
         24    2    1    2    0    0  0.97394794731E+02 -0.70918821890E+02  0.65367757526E+03  0.66803164933E+03  0.66758420969E+02 0.  0.
        -13    1    5    5    0    0  0.10556974621E+03 -0.53446847838E+02  0.55192860892E+03  0.56447030587E+03  0.00000000000E+00 0.  1.
         14    1    5    5    0    0 -0.81749514824E+01 -0.17471974052E+02  0.10174896634E+03  0.10356134347E+03  0.00000000000E+00 0. -1.
         11    1    3    3    0    0  0.49995773010E+01 -0.14195156263E+02 -0.15873019631E+03  0.15944206928E+03  0.00000000000E+00 0. -1.
        -12    1    3    3    0    0 -0.50200744544E+02 -0.12276399203E+02 -0.57048287253E+02  0.76976176890E+02  0.00000000000E+00 0.  1.
          5    1    4    4  501    0 -0.79043476591E+02  0.31592701717E+02  0.59680039579E+03  0.60285500314E+03  0.41800000000E+01 0.  1.
         -5    1    4    4    0  501  0.26849849102E+02  0.65797675638E+02  0.23589648247E+03  0.24640387853E+03  0.41800000000E+01 0.  1.
</event>
<event>
11    1  0.6763327E-009  0.1951395E+03  0.7561462E-02  0.1058015E+00
         22   -1    0    0    0    0  0.00000000000E+00  0.00000000000E+00  0.11732586585E+04  0.11732586585E+04  0.00000000000E+00 0.  1.
         22   -1    0    0    0    0 -0.00000000000E+00 -0.00000000000E+00 -0.10402162272E+03  0.10402162272E+03  0.00000000000E+00 0. -1.
        -24    2    1    2    0    0  0.12318026163E+03 -0.81372334695E+02  0.32669296825E+02  0.17096785190E+03  0.79799058372E+02 0.  0.
         25    2    1    2    0    0 -0.12051902265E+03  0.10062978759E+03  0.27631380386E+03  0.34153699169E+03  0.12508800709E+03 0.  0.
         24    2    1    2    0    0 -0.26612389836E+01 -0.19257452899E+02  0.76025393508E+03  0.76477543762E+03  0.80730988461E+02 0.  0.
        -13    1    5    5    0    0  0.22268782819E+02  0.56878578971E+00  0.63959964318E+03  0.63998744187E+03  0.00000000000E+00 0.  1.
         14    1    5    5    0    0 -0.24930021802E+02 -0.19826238688E+02  0.12065429191E+03  0.12478799575E+03  0.00000000000E+00 0. -1.
         13    1    3    3    0    0  0.12205042577E+03 -0.62394786397E+02  0.47074495184E+01  0.13715529841E+03  0.00000000000E+00 0. -1.
        -14    1    3    3    0    0  0.11298358602E+01 -0.18977548298E+02  0.27961847307E+02  0.33812553486E+02  0.00000000000E+00 0.  1.
          5    1    4    4  501    0 -0.13052524439E+03  0.83452447655E+02  0.15736958492E+03  0.22087057092E+03  0.41800000000E+01 0.  1.
         -5    1    4    4    0  501  0.10006221741E+02  0.17177339938E+02  0.11894421894E+03  0.12066642076E+03  0.41800000000E+01 0.  1.
</event>
<event>
11    1  0.6763327E-009  0.1337413E+03  0.7561462E-02  0.1114756E+00
         22   -1    0    0    0    0  0.00000000000E+00  0.00000000000E+00  0.10899535425E+04  0.10899535425E+04  0.00000000000E+00 0.  1.
         22   -1    0    0    0    0 -0.00000000000E+00 -0.00000000000E+00 -0.14674536528E+04  0.14674536528E+04  0.00000000000E+00 0. -1.
        -24    2    1    2    0    0  0.44248008156E+02 -0.19724573738E+02 -0.11416195509E+04  0.11454029692E+04  0.79409179456E+02 0.  0.
         25    2    1    2    0    0 -0.26389726067E+02  0.35631390822E+02 -0.30866328631E+03  0.33598552198E+03  0.12508890044E+03 0.  0.
         24    2    1    2    0    0 -0.17858282089E+02 -0.15906817084E+02  0.10727827269E+04  0.10760187041E+04  0.79884462971E+02 0.  0.
        -11    1    5    5    0    0 -0.36749570049E+02 -0.31872883704E+02  0.91655959572E+03  0.91784960866E+03  0.00000000000E+00 0.  1.
         12    1    5    5    0    0  0.18891287960E+02  0.15966066620E+02  0.15622313119E+03  0.15816909547E+03  0.00000000000E+00 0. -1.
         13    1    3    3    0    0  0.35436222767E+02  0.13877383351E+02 -0.94306166423E+03  0.94382922724E+03  0.00000000000E+00 0. -1.
        -14    1    3    3    0    0  0.88117853882E+01 -0.33601957089E+02 -0.19855788665E+03  0.20157374192E+03  0.00000000000E+00 0.  1.
          5    1    4    4  501    0 -0.71556293832E+02  0.14751683702E+02 -0.11764774611E+03  0.13855100116E+03  0.41800000000E+01 0. -1.
         -5    1    4    4    0  501  0.45166567766E+02  0.20879707119E+02 -0.19101554020E+03  0.19743452082E+03  0.41800000000E+01 0. -1.
</event>
<event>
11    1  0.6763327E-009  0.1400985E+03  0.7561462E-02  0.1107448E+00
         22   -1    0    0    0    0  0.00000000000E+00  0.00000000000E+00  0.52994491396E+03  0.52994491396E+03  0.00000000000E+00 0.  1.
         22   -1    0    0    0    0 -0.00000000000E+00 -0.00000000000E+00 -0.22101014934E+03  0.22101014934E+03  0.00000000000E+00 0.  1.
         24    2    1    2    0    0 -0.30037780057E+02  0.23239609326E+02 -0.16422222939E+03  0.18705936755E+03  0.81116697969E+02 0.  0.
         25    2    1    2    0    0  0.88171630512E+01 -0.80693138875E+02  0.10409933506E+03  0.18185997366E+03  0.12508898207E+03 0.  0.
        -24    2    1    2    0    0  0.21220617006E+02  0.57453529549E+02  0.36905765896E+03  0.38203572208E+03  0.77437165930E+02 0.  0.
        -13    1    3    3    0    0 -0.15045746444E+02  0.50617343687E+02 -0.69232063778E+02  0.87072203504E+02  0.00000000000E+00 0.  1.
         14    1    3    3    0    0 -0.14992033613E+02 -0.27377734361E+02 -0.94990165616E+02  0.99987164048E+02  0.00000000000E+00 0. -1.
         13    1    5    5    0    0  0.22392853472E+01  0.63588027714E+02  0.16243276723E+03  0.17445015202E+03  0.00000000000E+00 0. -1.
        -14    1    5    5    0    0  0.18981331659E+02 -0.61344981652E+01  0.20662489172E+03  0.20758557006E+03  0.00000000000E+00 0.  1.
          5    1    4    4  501    0 -0.43780339685E+02 -0.85483179329E+02  0.66377879704E+02  0.11682288905E+03  0.41800000000E+01 0. -1.
         -5    1    4    4    0  501  0.52597502736E+02  0.47900404535E+01  0.37721455353E+02  0.65037084617E+02  0.41800000000E+01 0. -1.
</event>
<event>
11    1  0.6763327E-009  0.1567562E+03  0.7561462E-02  0.1090168E+00
         22   -1    0    0    0    0  0.00000000000E+00  0.00000000000E+00  0.73302463716E+03  0.73302463716E+03  0.00000000000E+00 0. -1.
         22   -1    0    0    0    0 -0.00000000000E+00 -0.00000000000E+00 -0.60985198004E+03  0.60985198004E+03  0.00000000000E+00 0. -1.
        -24    2    1    2    0    0 -0.27606379466E+02  0.90334810203E+02 -0.57480310613E+03  0.58797619910E+03  0.79968179783E+02 0.  0.
         25    2    1    2    0    0 -0.23155405613E+02 -0.10638998792E+03  0.27920850458E+03  0.32474455814E+03  0.12508651675E+03 0.  0.
         24    2    1    2    0    0  0.50761785079E+02  0.16055177722E+02  0.41876725867E+03  0.43015585996E+03  0.82665103693E+02 0.  0.
        -13    1    5    5    0    0  0.13391021647E+02  0.25752773367E+02  0.39978130934E+02  0.49404207815E+02  0.00000000000E+00 0.  1.
         14    1    5    5    0    0  0.37370763432E+02 -0.96975956455E+01  0.37878912773E+03  0.38075165214E+03  0.00000000000E+00 0. -1.
         11    1    3    3    0    0 -0.50505992257E+02  0.86699583653E+02 -0.48050390744E+03  0.49086829000E+03  0.00000000000E+00 0. -1.
        -12    1    3    3    0    0  0.22899612792E+02  0.36352265494E+01 -0.94299198685E+02  0.97107909105E+02  0.00000000000E+00 0.  1.
          5    1    4    4  501    0 -0.32962615159E+02 -0.70543437416E+02  0.27645889028E+03  0.28724536720E+03  0.41800000000E+01 0.  1.
         -5    1    4    4    0  501  0.98072095456E+01 -0.35846550508E+02  0.27496142942E+01  0.37499190940E+02  0.41800000000E+01 0.  1.
</event>
<event>
11    1  0.6763327E-009  0.1326799E+03  0.7561462E-02  0.1116019E+00
         22   -1    0    0    0    0  0.00000000000E+00  0.00000000000E+00  0.40406518661E+03  0.40406518661E+03  0.00000000000E+00 0. -1.
         22   -1    0    0    0    0 -0.00000000000E+00 -0.00000000000E+00 -0.73490051899E+03  0.73490051899E+03  0.00000000000E+00 0. -1.
         24    2    1    2    0    0 -0.29469263703E+02 -0.36336666135E+02 -0.66673589177E+03  0.67399093285E+03  0.86823023286E+02 0.  0.
         25    2    1    2    0    0  0.59882542044E+01 -0.10158493886E+02  0.11599526332E+02  0.12617544690E+03  0.12508653086E+03 0.  0.
        -24    2    1    2    0    0  0.23481009499E+02  0.46495160022E+02  0.32430103305E+03  0.33879932585E+03  0.83070244042E+02 0.  0.
        -13    1    3    3    0    0  0.13405150579E+02 -0.48683882630E+02 -0.26354742809E+03  0.26834132246E+03  0.00000000000E+00 0.  1.
         14    1    3    3    0    0 -0.42874414282E+02  0.12347216494E+02 -0.40318846368E+03  0.40564961038E+03  0.00000000000E+00 0. -1.
         13    1    5    5    0    0  0.18986806018E+02  0.60832539321E+02  0.13925045729E+03  0.15313976133E+03  0.00000000000E+00 0. -1.
        -14    1    5    5    0    0  0.44942034814E+01 -0.14337379299E+02  0.18505057576E+03  0.18565956452E+03  0.00000000000E+00 0.  1.
          5    1    4    4  501    0  0.40535806699E+02 -0.21697599188E+00 -0.43912204577E+02  0.59907869384E+02  0.41800000000E+01 0. -1.
         -5    1    4    4    0  501 -0.34547552495E+02 -0.99415178942E+01  0.55511730909E+02  0.66267577517E+02  0.41800000000E+01 0. -1.
</event>
<event>
11    1  0.6763327E-009  0.1532398E+03  0.7561462E-02  0.1093614E+00
         22   -1    0    0    0    0  0.00000000000E+00  0.00000000000E+00  0.99193571689E+03  0.99193571689E+03  0.00000000000E+00 0.  1.
         22   -1    0    0    0    0 -0.00000000000E+00 -0.00000000000E+00 -0.59981679205E+02  0.59981679205E+02  0.00000000000E+00 0. -1.
        -24    2    1    2    0    0  0.82462423486E+02  0.27536985581E+02  0.60279688815E+02  0.13315009356E+03  0.80851528549E+02 0.  0.
         25    2    1    2    0    0 -0.87202598549E+02 -0.33172257004E+02  0.26930798384E+03  0.31125433448E+03  0.12509108181E+03 0.  0.
         24    2    1    2    0    0  0.47401750633E+01  0.56352714228E+01  0.60236636503E+03  0.60751296805E+03  0.78565533712E+02 0.  0.
        -13    1    5    5    0    0 -0.25177302858E+02  0.30815823483E+02  0.29838490587E+03  0.30102668255E+03  0.00000000000E+00 0.  1.
         14    1    5    5    0    0  0.29917477921E+02 -0.25180552060E+02  0.30398145916E+03  0.30648628550E+03  0.00000000000E+00 0. -1.
         11    1    3    3    0    0  0.69921132229E+02 -0.40828418985E+01  0.76121565229E+01  0.70452673882E+02  0.00000000000E+00 0. -1.
        -12    1    3    3    0    0  0.12541291257E+02  0.31619827480E+02  0.52667532292E+02  0.62697419676E+02  0.00000000000E+00 0.  1.
          5    1    4    4  501    0 -0.35565833767E+02  0.16865984375E+02  0.22102776405E+03  0.22454428259E+03  0.41800000000E+01 0.  1.
         -5    1    4    4    0  501 -0.51636764782E+02 -0.50038241380E+02  0.48280219786E+02  0.86710051898E+02  0.41800000000E+01 0.  1.
</event>
<event>
11    1  0.6763327E-009  0.1591254E+03  0.7561462E-02  0.1087903E+00
         22   -1    0    0    0    0  0.00000000000E+00  0.00000000000E+00  0.56612389994E+03  0.56612389994E+03  0.00000000000E+00 0.  1.
         22   -1    0    0    0    0 -0.00000000000E+00 -0.00000000000E+00 -0.58501646390E+03  0.58501646390E+03  0.00000000000E+00 0. -1.
         24    2    1    2    0    0 -0.26651502155E+02 -0.28100145764E+02 -0.48477414770E+03  0.49243855292E+03  0.77394013739E+02 0.  0.
         25    2    1    2    0    0  0.12142215471E+02 -0.72038663018E+02 -0.27842802066E+02  0.14751978349E+03  0.12509941058E+03 0.  0.
        -24    2    1    2    0    0  0.14509286684E+02  0.10013880878E+03  0.49372438580E+03  0.51118202743E+03  0.85469267019E+02 0.  0.
        -11    1    3    3    0    0 -0.11622715599E+02 -0.22634555691E+01 -0.70513166327E+01  0.13781575210E+02  0.00000000000E+00 0.  1.
         12    1    3    3    0    0 -0.15028786556E+02 -0.25836690195E+02 -0.47772283107E+03  0.47865697771E+03  0.00000000000E+00 0. -1.
         11    1    5    5    0    0  0.26961750603E+02  0.61338770112E+02  0.14098384266E+03  0.15609556241E+03  0.00000000000E+00 0. -1.
        -12    1    5    5    0    0 -0.12452463919E+02  0.38800038669E+02  0.35274054315E+03  0.35508646502E+03  0.00000000000E+00 0.  1.
          5    1    4    4  501    0  0.20208470805E+02 -0.10585049503E+03 -0.10228134739E+02  0.10832726680E+03  0.41800000000E+01 0. -1.
         -5    1    4    4    0  501 -0.80662553339E+01  0.33811832017E+02 -0.17614667327E+02  0.39192516690E+02  0.41800000000E+01 0. -1.
</event>
<event>
11    1  0.6763327E-009  0.1568630E+03  0.7561462E-02  0.1090065E+00
         22   -1    0    0    0    0  0.00000000000E+00  0.00000000000E+00  0.96670721120E+02  0.96670721120E+02  0.00000000000E+00 0.  1.
         22   -1    0    0    0    0 -0.00000000000E+00 -0.00000000000E+00 -0.10266212455E+04  0.10266212455E+04  0.00000000000E+00 0. -1.
         24    2    1    2    0    0  0.37706640412E+02 -0.34629685649E+02 -0.57716349291E+03  0.58700634301E+03  0.94009272531E+02 0.  0.
         25    2    1    2    0    0  0.60918733541E+02  0.24627641757E+02 -0.38268030452E+03  0.40793268644E+03  0.12508896179E+03 0.  0.
        -24    2    1    2    0    0 -0.98625373953E+02  0.10002043892E+02  0.29893273081E+02  0.12835293715E+03  0.75854224860E+02 0.  0.
        -11    1    3    3    0    0  0.21751015068E+02 -0.58801919347E+02 -0.22256785017E+03  0.23122979978E+03  0.00000000000E+00 0.  1.
         12    1    3    3    0    0  0.15955625344E+02  0.24172233698E+02 -0.35459564274E+03  0.35577654323E+03  0.00000000000E+00 0. -1.
         11    1    5    5    0    0 -0.62680442440E+02  0.16647309027E+02 -0.18746624690E+02  0.67508567601E+02  0.00000000000E+00 0. -1.
        -12    1    5    5    0    0 -0.35944931513E+02 -0.66452651347E+01  0.48639897770E+02  0.60844369544E+02  0.00000000000E+00 0.  1.
          5    1    4    4  501    0  0.41112188119E+02  0.75319369418E+02 -0.25468234224E+03  0.26878204417E+03  0.41800000000E+01 0.  1.
         -5    1    4    4    0  501  0.19806545422E+02 -0.50691727661E+02 -0.12799796228E+03  0.13915064226E+03  0.41800000000E+01 0.  1.
</event>
<event>
11    1  0.6763327E-009  0.1742720E+03  0.7561462E-02  0.1074373E+00
         22   -1    0    0    0    0  0.00000000000E+00  0.00000000000E+00  0.10521380394E+04  0.10521380394E+04  0.00000000000E+00 0.  1.
         22   -1    0    0    0    0 -0.00000000000E+00 -0.00000000000E+00 -0.29201619024E+03  0.29201619024E+03  0.00000000000E+00 0.  1.
        -24    2    1    2    0    0  0.32167556802E+02 -0.11770252975E+03 -0.25531203521E+03  0.29417631739E+03  0.80416622472E+02 0.  0.
         25    2    1    2    0    0 -0.10972534050E+02  0.10562356475E+03  0.45786050037E+03  0.48637481268E+03  0.12508991434E+03 0.  0.
         24    2    1    2    0    0 -0.21195022751E+02  0.12078964997E+02  0.55757338399E+03  0.56360309957E+03  0.78519073625E+02 0.  0.
        -13    1    5    5    0    0 -0.11095219260E+02 -0.32698604628E+02  0.29897227017E+03  0.30095966667E+03  0.00000000000E+00 0.  1.
         14    1    5    5    0    0 -0.10099803491E+02  0.44777569625E+02  0.25860111382E+03  0.26264343289E+03  0.00000000000E+00 0. -1.
         13    1    3    3    0    0 -0.14431663923E+02  0.37735041786E+01 -0.38936051910E+02  0.41695663992E+02  0.00000000000E+00 0. -1.
        -14    1    3    3    0    0  0.46599220725E+02 -0.12147603393E+03 -0.21637598330E+03  0.25248065339E+03  0.00000000000E+00 0.  1.
          5    1    4    4  501    0  0.20590726568E+02  0.38478134905E+02  0.32504177363E+02  0.54575991355E+02  0.41800000000E+01 0.  1.
         -5    1    4    4    0  501 -0.31563260619E+02  0.67145429849E+02  0.42535632301E+03  0.43179882132E+03  0.41800000000E+01 0.  1.
</event>
<event>
11    1  0.6763327E-009  0.1832226E+03  0.7561462E-02  0.1067066E+00
         22   -1    0    0    0    0  0.00000000000E+00  0.00000000000E+00  0.14319020880E+03  0.14319020880E+03  0.00000000000E+00 0. -1.
         22   -1    0    0    0    0 -0.00000000000E+00 -0.00000000000E+00 -0.34115387702E+04  0.34115387702E+04  0.00000000000E+00 0.  1.
         24    2    1    2    0    0  0.71371236570E+02 -0.11215025984E+03 -0.32170889121E+04  0.32209606018E+04  0.85173914207E+02 0.  0.
         25    2    1    2    0    0 -0.83611834460E+02  0.14253046749E+03 -0.10342830211E+03  0.23162550016E+03  0.12508831130E+03 0.  0.
        -24    2    1    2    0    0  0.12240597890E+02 -0.30380207649E+02  0.52168652825E+02  0.10214287705E+03  0.81478891385E+02 0.  0.
        -13    1    3    3    0    0 -0.43611328218E+01 -0.36262277634E+02 -0.15486269455E+04  0.15490575808E+04  0.00000000000E+00 0.  1.
         14    1    3    3    0    0  0.75732369392E+02 -0.75887982203E+02 -0.16684619666E+04  0.16719030210E+04  0.00000000000E+00 0. -1.
         11    1    5    5    0    0  0.24496366879E+02 -0.51932624834E+02  0.18492857917E+02  0.60324582936E+02  0.00000000000E+00 0. -1.
        -12    1    5    5    0    0 -0.12255768989E+02  0.21552417185E+02  0.33675794908E+02  0.41818294116E+02  0.00000000000E+00 0.  1.
          5    1    4    4  501    0 -0.61671105337E+02  0.95879618638E+01 -0.67682577815E+02  0.92161043755E+02  0.41800000000E+01 0.  1.
         -5    1    4    4    0  501 -0.21940729123E+02  0.13294250562E+03 -0.35745724296E+02  0.13946445641E+03  0.41800000000E+01 0.  1.
</event>
<event>
11    1  0.6763327E-009  0.1416681E+03  0.7561462E-02  0.1105710E+00
         22   -1    0    0    0    0  0.00000000000E+00  0.00000000000E+00  0.30131159775E+03  0.30131159775E+03  0.00000000000E+00 0.  1.
         22   -1    0    0    0    0 -0.00000000000E+00 -0.00000000000E+00 -0.29145939236E+03  0.29145939236E+03  0.00000000000E+00 0.  1.
         24    2    1    2    0    0  0.35658998187E+02  0.18798469512E+02 -0.21767008458E+03  0.23585261854E+03  0.81371035045E+02 0.  0.
         25    2    1    2    0    0 -0.75275756241E+02  0.31788842035E+02  0.61558569427E+02  0.16160007586E+03  0.12509259407E+03 0.  0.
        -24    2    1    2    0    0  0.39616758054E+02 -0.50587311546E+02  0.16596372054E+03  0.19531829571E+03  0.80478049775E+02 0.  0.
        -11    1    3    3    0    0  0.20807994128E+02 -0.93235975039E+01 -0.19610921253E+03  0.19743030499E+03  0.00000000000E+00 0.  1.
         12    1    3    3    0    0  0.14851004058E+02  0.28122067015E+02 -0.21560872043E+02  0.38422313543E+02  0.00000000000E+00 0. -1.
         13    1    5    5    0    0  0.36656999662E+02 -0.76835892523E+01  0.18620056710E+02  0.41826781850E+02  0.00000000000E+00 0. -1.
        -14    1    5    5    0    0  0.29597583920E+01 -0.42903722294E+02  0.14734366383E+03  0.15349151386E+03  0.00000000000E+00 0.  1.
          5    1    4    4  501    0 -0.84458764683E+02  0.49319522599E+02  0.85699127757E+02  0.13010576905E+03  0.41800000000E+01 0. -1.
         -5    1    4    4    0  501  0.91830084421E+01 -0.17530680564E+02 -0.24140558330E+02  0.31494306812E+02  0.41800000000E+01 0. -1.
</event>
<event>
11    1  0.6763327E-009  0.6120347E+03  0.7561462E-02  0.9173029E-01
         22   -1    0    0    0    0  0.00000000000E+00  0.00000000000E+00  0.74189493006E+03  0.74189493006E+03  0.00000000000E+00 0. -1.
         22   -1    0    0    0    0 -0.00000000000E+00 -0.00000000000E+00 -0.10381836626E+04  0.10381836626E+04  0.00000000000E+00 0. -1.
        -24    2    1    2    0    0  0.65683943168E+02 -0.57059477270E+03 -0.47262143058E+03  0.74812475341E+03  0.80167668018E+02 0.  0.
         25    2    1    2    0    0 -0.32824736344E+02  0.64572315071E+03 -0.15854354335E+03  0.67736042423E+03  0.12508092777E+03 0.  0.
         24    2    1    2    0    0 -0.32859206824E+02 -0.75128378007E+02  0.33487624140E+03  0.35459341501E+03  0.82887829370E+02 0.  0.
        -11    1    5    5    0    0  0.88197340624E+01 -0.50008448829E+02  0.77483725746E+02  0.92641029888E+02  0.00000000000E+00 0.  1.
         12    1    5    5    0    0 -0.41678940887E+02 -0.25119929178E+02  0.25739251566E+03  0.26195238512E+03  0.00000000000E+00 0. -1.
         11    1    3    3    0    0  0.35050370006E+02 -0.50082521479E+03 -0.42865887114E+03  0.66015365788E+03  0.00000000000E+00 0. -1.
        -12    1    3    3    0    0  0.30633573162E+02 -0.69769557913E+02 -0.43962559440E+02  0.87971095529E+02  0.00000000000E+00 0.  1.
          5    1    4    4  501    0  0.18114800578E+02  0.38512700046E+03 -0.14336504945E+03  0.41136597124E+03  0.41800000000E+01 0. -1.
         -5    1    4    4    0  501 -0.50939536921E+02  0.26059615024E+03 -0.15178493899E+02  0.26599445299E+03  0.41800000000E+01 0. -1.
</event>
<event>
11    1  0.6763327E-009  0.1514840E+03  0.7561462E-02  0.1095372E+00
         22   -1    0    0    0    0  0.00000000000E+00  0.00000000000E+00  0.15326014165E+03  0.15326014165E+03  0.00000000000E+00 0. -1.
         22   -1    0    0    0    0 -0.00000000000E+00 -0.00000000000E+00 -0.72181105333E+03  0.72181105333E+03  0.00000000000E+00 0.  1.
         24    2    1    2    0    0  0.16456406926E+02  0.45086554376E+02 -0.31419151215E+03  0.32803334227E+03  0.81153906969E+02 0.  0.
         25    2    1    2    0    0 -0.41117202250E+02 -0.12351856077E+03 -0.35186739187E+03  0.39547889546E+03  0.12508171776E+03 0.  0.
        -24    2    1    2    0    0  0.24660795324E+02  0.78432006393E+02  0.97507992347E+02  0.15155895725E+03  0.81869252467E+02 0.  0.
        -11    1    3    3    0    0  0.50470899498E+01  0.66425074643E+02 -0.18579504817E+03  0.19737670476E+03  0.00000000000E+00 0.  1.
         12    1    3    3    0    0  0.11409316976E+02 -0.21338520267E+02 -0.12839646399E+03  0.13065663751E+03  0.00000000000E+00 0. -1.
         13    1    5    5    0    0  0.42747080342E+01 -0.40612708169E+00  0.62953226854E+02  0.63099499517E+02  0.00000000000E+00 0. -1.
        -14    1    5    5    0    0  0.20386087290E+02  0.78838133475E+02  0.34554765493E+02  0.88459457737E+02  0.00000000000E+00 0.  1.
          5    1    4    4  501    0 -0.83185252703E+02 -0.80947728361E+02 -0.27053067517E+03  0.29440896658E+03  0.41800000000E+01 0.  1.
         -5    1    4    4    0  501  0.42068050454E+02 -0.42570832409E+02 -0.81336716701E+02  0.10106992888E+03  0.41800000000E+01 0.  1.
</event>
<event>
11    1  0.6763327E-009  0.1745845E+03  0.7561462E-02  0.1074110E+00
         22   -1    0    0    0    0  0.00000000000E+00  0.00000000000E+00  0.20609957110E+03  0.20609957110E+03  0.00000000000E+00 0. -1.
         22   -1    0    0    0    0 -0.00000000000E+00 -0.00000000000E+00 -0.71889481209E+03  0.71889481209E+03  0.00000000000E+00 0. -1.
         24    2    1    2    0    0 -0.12083457884E+03 -0.24723524177E+02 -0.45979935162E+03  0.48255597218E+03  0.78946655679E+02 0.  0.
         25    2    1    2    0    0  0.11305713446E+03  0.33404261744E+02 -0.20710056033E+03  0.26913816244E+03  0.12508776133E+03 0.  0.
        -24    2    1    2    0    0  0.77774443743E+01 -0.86807375672E+01  0.15410467097E+03  0.17330024858E+03  0.78414811727E+02 0.  0.
        -11    1    3    3    0    0 -0.19542287420E+02 -0.19080732664E+02 -0.28454220080E+02  0.39441323469E+02  0.00000000000E+00 0.  1.
         12    1    3    3    0    0 -0.10129229142E+03 -0.56427915129E+01 -0.43134513154E+03  0.44311464871E+03  0.00000000000E+00 0. -1.
         13    1    5    5    0    0 -0.31080548368E+02 -0.20873186944E+02  0.59457854370E+02  0.70263268258E+02  0.00000000000E+00 0. -1.
        -14    1    5    5    0    0  0.38857992743E+02  0.12192449376E+02  0.94646816597E+02  0.10303698032E+03  0.00000000000E+00 0.  1.
          5    1    4    4  501    0  0.70443713932E+01 -0.33282187319E+01  0.16620133655E+02  0.18825553138E+02  0.41800000000E+01 0. -1.
         -5    1    4    4    0  501  0.10601276307E+03  0.36732480476E+02 -0.22372069399E+03  0.25031260930E+03  0.41800000000E+01 0. -1.
</event>
<event>
11    1  0.6763327E-009  0.1421234E+03  0.7561462E-02  0.1105210E+00
         22   -1    0    0    0    0  0.00000000000E+00  0.00000000000E+00  0.97531081653E+03  0.97531081653E+03  0.00000000000E+00 0. -1.
         22   -1    0    0    0    0 -0.00000000000E+00 -0.00000000000E+00 -0.88613591267E+03  0.88613591267E+03  0.00000000000E+00 0.  1.
         24    2    1    2    0    0  0.28330642371E+02  0.70358289506E+01 -0.53508163834E+03  0.54191391028E+03  0.80661008463E+02 0.  0.
         25    2    1    2    0    0 -0.73046899214E+02 -0.57296692379E+02 -0.32728839337E+03  0.36246935965E+03  0.12509030264E+03 0.  0.
        -24    2    1    2    0    0  0.44716256843E+02  0.50260863428E+02  0.95154493557E+03  0.95706345926E+03  0.77504855472E+02 0.  0.
        -11    1    3    3    0    0  0.73515017253E+01 -0.36607541166E+02 -0.23854526351E+03  0.24144978648E+03  0.00000000000E+00 0.  1.
         12    1    3    3    0    0  0.20979140645E+02  0.43643370117E+02 -0.29653637483E+03  0.30046412381E+03  0.00000000000E+00 0. -1.
         13    1    5    5    0    0  0.18215867458E+02 -0.78582095689E+01  0.55928937464E+03  0.55964111167E+03  0.00000000000E+00 0. -1.
        -14    1    5    5    0    0  0.26500389385E+02  0.58119072997E+02  0.39225556093E+03  0.39742234759E+03  0.00000000000E+00 0.  1.
          5    1    4    4  501    0  0.26327983578E+02 -0.31351475789E+02 -0.40180681278E+02  0.57515539651E+02  0.41800000000E+01 0. -1.
         -5    1    4    4    0  501 -0.99374882792E+02 -0.25945216590E+02 -0.28710771209E+03  0.30495382000E+03  0.41800000000E+01 0. -1.
</event>
<event>
11    1  0.6763327E-009  0.1550275E+03  0.7561462E-02  0.1091850E+00
         22   -1    0    0    0    0  0.00000000000E+00  0.00000000000E+00  0.41384206283E+03  0.41384206283E+03  0.00000000000E+00 0. -1.
         22   -1    0    0    0    0 -0.00000000000E+00 -0.00000000000E+00 -0.66881869974E+03  0.66881869974E+03  0.00000000000E+00 0. -1.
         24    2    1    2    0    0  0.51188035685E+02  0.76577655809E+02 -0.59256290628E+03  0.60516494976E+03  0.81298623320E+02 0.  0.
         25    2    1    2    0    0 -0.91487146792E+02 -0.37379097854E+02  0.40992895502E+02  0.16460432894E+03  0.12508825941E+03 0.  0.
        -24    2    1    2    0    0  0.40299111107E+02 -0.39198557955E+02  0.29659337386E+03  0.31289148387E+03  0.82297666771E+02 0.  0.
        -13    1    3    3    0    0 -0.78508978069E+01 -0.48097634703E+01 -0.85654644137E+01  0.12575277398E+02  0.00000000000E+00 0.  1.
         14    1    3    3    0    0  0.59038933492E+02  0.81387419279E+02 -0.58399744187E+03  0.59258967236E+03  0.00000000000E+00 0. -1.
         13    1    5    5    0    0 -0.15244889535E+02 -0.36083984143E+01  0.16447438807E+03  0.16521879895E+03  0.00000000000E+00 0. -1.
        -14    1    5    5    0    0  0.55544000642E+02 -0.35590159541E+02  0.13211898580E+03  0.14767268492E+03  0.00000000000E+00 0.  1.
          5    1    4    4  501    0 -0.19117704145E+02 -0.53904957814E+01  0.75500740805E+02  0.78181700663E+02  0.41800000000E+01 0. -1.
         -5    1    4    4    0  501 -0.72369442647E+02 -0.31988602072E+02 -0.34507845303E+02  0.86422628281E+02  0.41800000000E+01 0. -1.
</event>
<event>
11    1  0.6763327E-009  0.1813113E+03  0.7561462E-02  0.1068587E+00
         22   -1    0    0    0    0  0.00000000000E+00  0.00000000000E+00  0.20045092054E+03  0.20045092054E+03  0.00000000000E+00 0. -1.
         22   -1    0    0    0    0 -0.00000000000E+00 -0.00000000000E+00 -0.35742753506E+03  0.35742753506E+03  0.00000000000E+00 0. -1.
         24    2    1    2    0    0  0.12298297700E+03 -0.20386148581E+02 -0.17120861260E+03  0.22656125150E+03  0.80481078310E+02 0.  0.
         25    2    1    2    0    0 -0.14895241625E+03 -0.25730727317E+01 -0.72475117032E+02  0.20759026019E+03  0.12509048936E+03 0.  0.
        -24    2    1    2    0    0  0.25969439252E+02  0.22959221312E+02  0.86707115124E+02  0.12372694390E+03  0.81170778095E+02 0.  0.
        -11    1    3    3    0    0 -0.10406414197E+02 -0.52363847282E+01 -0.27696021925E+02  0.30046344402E+02  0.00000000000E+00 0.  1.
         12    1    3    3    0    0  0.13338939120E+03 -0.15149763852E+02 -0.14351259068E+03  0.19651490710E+03  0.00000000000E+00 0. -1.
         13    1    5    5    0    0  0.45032476751E+02 -0.13514803404E+02  0.49021420145E+02  0.67924027460E+02  0.00000000000E+00 0. -1.
        -14    1    5    5    0    0 -0.19063037499E+02  0.36474024716E+02  0.37685694979E+02  0.55802916444E+02  0.00000000000E+00 0.  1.
          5    1    4    4  501    0  0.17102387308E+01  0.27275195824E+02 -0.43030786859E+02  0.51146673806E+02  0.41800000000E+01 0. -1.
         -5    1    4    4    0  501 -0.15066265498E+03 -0.29848268556E+02 -0.29444330173E+02  0.15644358639E+03  0.41800000000E+01 0. -1.
</event>
<event>
11    1  0.6763327E-009  0.1409911E+03  0.7561462E-02  0.1106457E+00
         22   -1    0    0    0    0  0.00000000000E+00  0.00000000000E+00  0.46905923888E+02  0.46905923888E+02  0.00000000000E+00 0.  1.
         22   -1    0    0    0    0 -0.00000000000E+00 -0.00000000000E+00 -0.13370477776E+04  0.13370477776E+04  0.00000000000E+00 0. -1.
        -24    2    1    2    0    0  0.31506283499E+02  0.42488297711E+02 -0.98290972837E+03  0.98762847305E+03  0.80626083353E+02 0.  0.
         25    2    1    2    0    0  0.48114331377E+02 -0.22309457495E+02 -0.16457335486E+03  0.21341269702E+03  0.12509152387E+03 0.  0.
         24    2    1    2    0    0 -0.79620614876E+02 -0.20178840216E+02 -0.14265877053E+03  0.18291253146E+03  0.79742344147E+02 0.  0.
        -13    1    5    5    0    0 -0.13688566096E+02  0.12065880946E+02  0.42095090321E+01  0.18726513051E+02  0.00000000000E+00 0.  1.
         14    1    5    5    0    0 -0.65932048780E+02 -0.32244721162E+02 -0.14686827956E+03  0.16418601841E+03  0.00000000000E+00 0. -1.
         11    1    3    3    0    0  0.29441118433E+02  0.52541442831E+02 -0.96580427895E+03  0.96768036453E+03  0.00000000000E+00 0. -1.
        -12    1    3    3    0    0  0.20651650659E+01 -0.10053145120E+02 -0.17105449423E+02  0.19948108520E+02  0.00000000000E+00 0.  1.
          5    1    4    4  501    0  0.81117899016E+02 -0.32258884358E+02 -0.15407620143E+03  0.17713750988E+03  0.41800000000E+01 0.  1.
         -5    1    4    4    0  501 -0.33003567638E+02  0.99494268621E+01 -0.10497153426E+02  0.36275187136E+02  0.41800000000E+01 0.  1.
</event>
<event>
11    1  0.6763327E-009  0.2234198E+03  0.7561462E-02  0.1039096E+00
         22   -1    0    0    0    0  0.00000000000E+00  0.00000000000E+00  0.57349995629E+03  0.57349995629E+03  0.00000000000E+00 0. -1.
         22   -1    0    0    0    0 -0.00000000000E+00 -0.00000000000E+00 -0.55496882845E+03  0.55496882845E+03  0.00000000000E+00 0.  1.
        -24    2    1    2    0    0 -0.57320778403E+02 -0.29494468447E+02 -0.32088489216E+03  0.33664757936E+03  0.78796467994E+02 0.  0.
         25    2    1    2    0    0 -0.31204760022E+02 -0.13844372235E+03 -0.16236624515E+03  0.24930256532E+03  0.12509424528E+03 0.  0.
         24    2    1    2    0    0  0.88525538425E+02  0.16793819080E+03  0.50178226515E+03  0.54251864006E+03  0.80628942128E+02 0.  0.
        -13    1    5    5    0    0  0.37193030038E+01 -0.74041402541E+01  0.72417322630E+01  0.11004417018E+02  0.00000000000E+00 0.  1.
         14    1    5    5    0    0  0.84806235421E+02  0.17534233105E+03  0.49454053289E+03  0.53151422304E+03  0.00000000000E+00 0. -1.
         13    1    3    3    0    0  0.11294100736E+02 -0.52685998720E+01 -0.67060400638E+01  0.14152237610E+02  0.00000000000E+00 0. -1.
        -14    1    3    3    0    0 -0.68614879139E+02 -0.24225868575E+02 -0.31417885209E+03  0.32249534175E+03  0.00000000000E+00 0.  1.
          5    1    4    4  501    0  0.13161722720E+02 -0.16755596714E+02 -0.10562518770E+03  0.10783382420E+03  0.41800000000E+01 0. -1.
         -5    1    4    4    0  501 -0.44366482742E+02 -0.12168812563E+03 -0.56741057454E+02  0.14146874111E+03  0.41800000000E+01 0. -1.
</event>
<event>
11    1  0.6763327E-009  0.1582048E+03  0.7561462E-02  0.1088778E+00
         22   -1    0    0    0    0  0.00000000000E+00  0.00000000000E+00  0.24416186871E+03  0.24416186871E+03  0.00000000000E+00 0.  1.
         22   -1    0    0    0    0 -0.00000000000E+00 -0.00000000000E+00 -0.17312889818E+04  0.17312889818E+04  0.00000000000E+00 0. -1.
         24    2    1    2    0    0 -0.86950466895E+02  0.44741781732E+02 -0.16282275304E+04  0.16330285616E+04  0.78071642809E+02 0.  0.
         25    2    1    2    0    0  0.49993035935E+02 -0.61594055320E+02 -0.26320050093E+02  0.15044367919E+03  0.12508966496E+03 0.  0.
        -24    2    1    2    0    0  0.36957430959E+02  0.16852273588E+02  0.16742046738E+03  0.19197860977E+03  0.84713180107E+02 0.  0.
        -13    1    3    3    0    0 -0.30098233663E+02 -0.64909187540E+01 -0.16808812351E+03  0.17088491145E+03  0.00000000000E+00 0.  1.
         14    1    3    3    0    0 -0.56852233231E+02  0.51232700486E+02 -0.14601394069E+04  0.14621436501E+04  0.00000000000E+00 0. -1.
         11    1    5    5    0    0  0.14809411054E+02 -0.30532168903E+02  0.31340841457E+02  0.46192860237E+02  0.00000000000E+00 0. -1.
        -12    1    5    5    0    0  0.22148019906E+02  0.47384442490E+02  0.13607962592E+03  0.14578574954E+03  0.00000000000E+00 0.  1.
          5    1    4    4  501    0  0.48559756406E+01 -0.92839078529E+02 -0.17306311387E+02  0.94655458456E+02  0.41800000000E+01 0.  1.
         -5    1    4    4    0  501  0.45137060295E+02  0.31245023210E+02 -0.90137387060E+01  0.55788220736E+02  0.41800000000E+01 0.  1.
</event>
<event>
11    1  0.6763327E-009  0.1371570E+03  0.7561462E-02  0.1110775E+00
         22   -1    0    0    0    0  0.00000000000E+00  0.00000000000E+00  0.72789333922E+03  0.72789333922E+03  0.00000000000E+00 0.  1.
         22   -1    0    0    0    0 -0.00000000000E+00 -0.00000000000E+00 -0.12021812351E+03  0.12021812351E+03  0.00000000000E+00 0.  1.
        -24    2    1    2    0    0  0.60825836922E+02 -0.74168589914E+01 -0.68932309245E+02  0.12188171201E+03  0.79678706260E+02 0.  0.
         25    2    1    2    0    0  0.28659355040E+01 -0.21653928698E+02  0.19448271438E+03  0.23226795164E+03  0.12509104266E+03 0.  0.
         24    2    1    2    0    0 -0.63691772426E+02  0.29070787689E+02  0.48212481058E+03  0.49396179908E+03  0.81560857019E+02 0.  0.
        -13    1    5    5    0    0 -0.53278279271E+02  0.29198790536E+02  0.47934915084E+03  0.48318397409E+03  0.00000000000E+00 0.  1.
         14    1    5    5    0    0 -0.10413493155E+02 -0.12800284691E+00  0.27756597457E+01  0.10777824987E+02  0.00000000000E+00 0. -1.
         11    1    3    3    0    0  0.38706274118E+02  0.55084686485E+01  0.87674984744E+01  0.40067292303E+02  0.00000000000E+00 0. -1.
        -12    1    3    3    0    0  0.22119562804E+02 -0.12925327640E+02 -0.77699807719E+02  0.81814419712E+02  0.00000000000E+00 0.  1.
          5    1    4    4  501    0 -0.24536572183E+01  0.30337783949E+02 -0.12342022636E+00  0.30722779843E+02  0.41800000000E+01 0. -1.
         -5    1    4    4    0  501  0.53195927223E+01 -0.51991712647E+02  0.19460613460E+03  0.20154517180E+03  0.41800000000E+01 0. -1.
</event>
<event>
11    1  0.6763327E-009  0.1521125E+03  0.7561462E-02  0.1094740E+00
         22   -1    0    0    0    0  0.00000000000E+00  0.00000000000E+00  0.39547225956E+03  0.39547225956E+03  0.00000000000E+00 0.  1.
         22   -1    0    0    0    0 -0.00000000000E+00 -0.00000000000E+00 -0.18006503603E+04  0.18006503603E+04  0.00000000000E+00 0.  1.
        -24    2    1    2    0    0  0.71048523342E+00 -0.48648730122E+02 -0.16493306492E+04  0.16519025282E+04  0.78250677708E+02 0.  0.
         25    2    1    2    0    0  0.85494617310E+02  0.37004598347E+02 -0.95907812866E+02  0.18309766973E+03  0.12509107964E+03 0.  0.
         24    2    1    2    0    0 -0.86205102544E+02  0.11644131775E+02  0.34006036137E+03  0.36112242187E+03  0.84861349790E+02 0.  0.
        -13    1    5    5    0    0 -0.61721220207E+02 -0.28907041643E+02  0.25288751328E+03  0.26191071085E+03  0.00000000000E+00 0.  1.
         14    1    5    5    0    0 -0.24483882337E+02  0.40551173418E+02  0.87172848090E+02  0.99211711022E+02  0.00000000000E+00 0. -1.
         11    1    3    3    0    0  0.75873695853E+01 -0.27098429609E+02 -0.16380137390E+03  0.16620103236E+03  0.00000000000E+00 0. -1.
        -12    1    3    3    0    0 -0.68768843519E+01 -0.21550300513E+02 -0.14855292753E+04  0.14857014959E+04  0.00000000000E+00 0.  1.
          5    1    4    4  501    0  0.11235525032E+03  0.21265952406E+02 -0.99297709167E+02  0.15150396184E+03  0.41800000000E+01 0. -1.
         -5    1    4    4    0  501 -0.26860633009E+02  0.15738645942E+02  0.33898963013E+01  0.31593707897E+02  0.41800000000E+01 0. -1.
</event>
<event>
11    1  0.6763327E-009  0.2081384E+03  0.7561462E-02  0.1048913E+00
         22   -1    0    0    0    0  0.00000000000E+00  0.00000000000E+00  0.37875512926E+03  0.37875512926E+03  0.00000000000E+00 0. -1.
         22   -1    0    0    0    0 -0.00000000000E+00 -0.00000000000E+00 -0.23103064432E+04  0.23103064432E+04  0.00000000000E+00 0. -1.
         24    2    1    2    0    0  0.80004316913E+01  0.29811585006E+02 -0.21080277092E+04  0.21098831140E+04  0.82904732010E+02 0.  0.
         25    2    1    2    0    0  0.77265399741E+02  0.11770825500E+03 -0.12312990395E+03  0.22502045669E+03  0.12509219556E+03 0.  0.
        -24    2    1    2    0    0 -0.85265831433E+02 -0.14751984000E+03  0.29960629923E+03  0.35415800172E+03  0.81434577674E+02 0.  0.
        -13    1    3    3    0    0 -0.12578293605E+02 -0.42058707183E+01 -0.59107911127E+02  0.60577619434E+02  0.00000000000E+00 0.  1.
         14    1    3    3    0    0  0.20578725297E+02  0.34017455724E+02 -0.20489197981E+04  0.20493054946E+04  0.00000000000E+00 0. -1.
         13    1    5    5    0    0 -0.58770877780E+02 -0.14133553477E+03  0.28443650614E+03  0.32300754711E+03  0.00000000000E+00 0. -1.
        -14    1    5    5    0    0 -0.26494953653E+02 -0.61843052300E+01  0.15169793093E+02  0.31150454615E+02  0.00000000000E+00 0.  1.
          5    1    4    4  501    0  0.22437817411E+02  0.73418412165E+02  0.67600898425E+01  0.77180892128E+02  0.41800000000E+01 0. -1.
         -5    1    4    4    0  501  0.54827582330E+02  0.44289842834E+02 -0.12988999379E+03  0.14783956456E+03  0.41800000000E+01 0. -1.
</event>
<event>
11    1  0.6763327E-009  0.1557146E+03  0.7561462E-02  0.1091179E+00
         22   -1    0    0    0    0  0.00000000000E+00  0.00000000000E+00  0.82527717399E+03  0.82527717399E+03  0.00000000000E+00 0.  1.
         22   -1    0    0    0    0 -0.00000000000E+00 -0.00000000000E+00 -0.68830044039E+03  0.68830044039E+03  0.00000000000E+00 0.  1.
         24    2    1    2    0    0  0.85030413336E+02 -0.43225722570E+02 -0.63330582153E+03  0.64559557413E+03  0.81355684934E+02 0.  0.
         25    2    1    2    0    0 -0.12473977013E+02  0.68459234656E+02  0.70868355471E+02  0.15972426444E+03  0.12508896807E+03 0.  0.
        -24    2    1    2    0    0 -0.72556436323E+02 -0.25233512086E+02  0.69941419966E+03  0.70825777580E+03  0.80917783693E+02 0.  0.
        -11    1    3    3    0    0  0.39121029321E+02  0.22423606089E+02 -0.24435706363E+03  0.24848269073E+03  0.00000000000E+00 0.  1.
         12    1    3    3    0    0  0.45909384015E+02 -0.65649328659E+02 -0.38894875790E+03  0.39711288340E+03  0.00000000000E+00 0. -1.
         13    1    5    5    0    0  0.10970048286E+02 -0.13077380890E+02  0.40368461875E+02  0.43828901018E+02  0.00000000000E+00 0. -1.
        -14    1    5    5    0    0 -0.83526484610E+02 -0.12156131196E+02  0.65904573778E+03  0.66442887478E+03  0.00000000000E+00 0.  1.
          5    1    4    4  501    0 -0.53984960422E+02  0.49677409934E+01  0.63191772998E+02  0.83365022503E+02  0.41800000000E+01 0.  1.
         -5    1    4    4    0  501  0.41510983409E+02  0.63491493663E+02  0.76765824732E+01  0.76359241940E+02  0.41800000000E+01 0.  1.
</event>
<event>
11    1  0.6763327E-009  0.1558727E+03  0.7561462E-02  0.1091025E+00
         22   -1    0    0    0    0  0.00000000000E+00  0.00000000000E+00  0.29899617571E+04  0.29899617571E+04  0.00000000000E+00 0.  1.
         22   -1    0    0    0    0 -0.00000000000E+00 -0.00000000000E+00 -0.11270183274E+03  0.11270183274E+03  0.00000000000E+00 0.  1.
         24    2    1    2    0    0 -0.85266040846E+02  0.40787822722E+02 -0.55062307254E+02  0.13613774695E+03  0.81041250367E+02 0.  0.
         25    2    1    2    0    0  0.83892047911E+02 -0.88325788318E+01  0.33006479146E+03  0.36291507489E+03  0.12509474358E+03 0.  0.
        -24    2    1    2    0    0  0.13739929358E+01 -0.31955243890E+02  0.26022574402E+04  0.26036107680E+04  0.77602969878E+02 0.  0.
        -13    1    3    3    0    0 -0.15874230841E+02  0.20855433327E+02 -0.58244458166E+02  0.63869845867E+02  0.00000000000E+00 0.  1.
         14    1    3    3    0    0 -0.69391810005E+02  0.19932389395E+02  0.31821509119E+01  0.72267901085E+02  0.00000000000E+00 0. -1.
         11    1    5    5    0    0  0.14393116672E+02 -0.50942892227E+01  0.98576282813E+02  0.99751677296E+02  0.00000000000E+00 0. -1.
        -12    1    5    5    0    0 -0.13019123736E+02 -0.26860954667E+02  0.25036811574E+04  0.25038590907E+04  0.00000000000E+00 0.  1.
          5    1    4    4  501    0 -0.49647645169E+01  0.10321658307E+02 -0.68113013579E+01  0.13966092622E+02  0.41800000000E+01 0. -1.
         -5    1    4    4    0  501  0.88856812428E+02 -0.19154237139E+02  0.33687609282E+03  0.34894898227E+03  0.41800000000E+01 0. -1.
</event>
<event>
11    1  0.6763327E-009  0.1548941E+03  0.7561462E-02  0.1091980E+00
         22   -1    0    0    0    0  0.00000000000E+00  0.00000000000E+00  0.23316508083E+03  0.23316508083E+03  0.00000000000E+00 0. -1.
         22   -1    0    0    0    0 -0.00000000000E+00 -0.00000000000E+00 -0.97977408006E+03  0.97977408006E+03  0.00000000000E+00 0.  1.
         24    2    1    2    0    0  0.66096958036E+02 -0.18121683636E+02 -0.51179846400E+03  0.52245496660E+03  0.79525600229E+02 0.  0.
         25    2    1    2    0    0 -0.13589125329E+03 -0.38522912566E+02 -0.42599813561E+03  0.46591013813E+03  0.12508955893E+03 0.  0.
        -24    2    1    2    0    0  0.69794295259E+02  0.56644596202E+02  0.19118760037E+03  0.22457405617E+03  0.76163995690E+02 0.  0.
        -13    1    3    3    0    0  0.69869137090E+02  0.14285542655E+02 -0.38340962749E+03  0.38998553243E+03  0.00000000000E+00 0.  1.
         14    1    3    3    0    0 -0.37721790543E+01 -0.32407226291E+02 -0.12838883650E+03  0.13246943417E+03  0.00000000000E+00 0. -1.
         11    1    5    5    0    0  0.63359342559E+02  0.45904491784E+02  0.19609400120E+03  0.21112670594E+03  0.00000000000E+00 0. -1.
        -12    1    5    5    0    0  0.64349527002E+01  0.10740104417E+02 -0.49064008261E+01  0.13447350230E+02  0.00000000000E+00 0.  1.
          5    1    4    4  501    0 -0.14295636663E+03 -0.35731166542E+02 -0.43126620430E+03  0.45576446811E+03  0.41800000000E+01 0.  1.
         -5    1    4    4    0  501  0.70651133367E+01 -0.27917460234E+01  0.52680686913E+01  0.10145670015E+02  0.41800000000E+01 0.  1.
</event>
<event>
11    1  0.6763327E-009  0.3025407E+03  0.7561462E-02  0.9991216E-01
         22   -1    0    0    0    0  0.00000000000E+00  0.00000000000E+00  0.28808803498E+04  0.28808803498E+04  0.00000000000E+00 0.  1.
         22   -1    0    0    0    0 -0.00000000000E+00 -0.00000000000E+00 -0.12251235944E+03  0.12251235944E+03  0.00000000000E+00 0. -1.
        -24    2    1    2    0    0  0.19627323619E+02  0.92876827020E+02 -0.28920122921E+02  0.12767988861E+03  0.80339552008E+02 0.  0.
         25    2    1    2    0    0 -0.27918648135E+03 -0.15141683964E+03  0.81090765289E+03  0.87982438275E+03  0.12509025648E+03 0.  0.
         24    2    1    2    0    0  0.25955915773E+03  0.58540012620E+02  0.19763804604E+04  0.19958884379E+04  0.81811018835E+02 0.  0.
        -11    1    5    5    0    0  0.20712638173E+03  0.78168998150E+02  0.15052739904E+04  0.15214668963E+04  0.00000000000E+00 0.  1.
         12    1    5    5    0    0  0.52432776003E+02 -0.19628985530E+02  0.47110646995E+03  0.47442154157E+03  0.00000000000E+00 0. -1.
         13    1    3    3    0    0 -0.97526899568E+01  0.94220298835E+02 -0.25321935992E+02  0.98049885856E+02  0.00000000000E+00 0. -1.
        -14    1    3    3    0    0  0.29380013576E+02 -0.13434718154E+01 -0.35981869288E+01  0.29630002757E+02  0.00000000000E+00 0.  1.
          5    1    4    4  501    0 -0.31680076993E+02  0.22228811585E+02  0.87762945746E+02  0.96008095434E+02  0.41800000000E+01 0.  1.
         -5    1    4    4    0  501 -0.24750640436E+03 -0.17364565122E+03  0.72314470714E+03  0.78381628731E+03  0.41800000000E+01 0.  1.
</event>
<event>
11    1  0.7350546E-009  0.2598528E+03  0.7561462E-02  0.1018778E+00
         22   -1    0    0    0    0  0.00000000000E+00  0.00000000000E+00  0.67360519820E+03  0.67360519820E+03  0.00000000000E+00 0.  1.
         22   -1    0    0    0    0 -0.00000000000E+00 -0.00000000000E+00 -0.19620429869E+04  0.19620429869E+04  0.00000000000E+00 0. -1.
         24    2    1    2    0    0  0.38766797792E+02  0.86068520087E+02 -0.12728664604E+04  0.12789089845E+04  0.80675336072E+02 0.  0.
         25    2    1    2    0    0 -0.39819726389E+02  0.14452246820E+03 -0.64915531948E+03  0.67788073455E+03  0.12508919638E+03 0.  0.
        -24    2    1    2    0    0  0.10529285971E+01 -0.23059098829E+03  0.63358399120E+03  0.67885846603E+03  0.79036893036E+02 0.  0.
        -13    1    3    3    0    0  0.22348002806E+02  0.85977393782E+02 -0.67541431784E+03  0.68123127220E+03  0.00000000000E+00 0.  1.
         14    1    3    3    0    0  0.16418794986E+02  0.91126305431E-01 -0.59745214257E+03  0.59767771231E+03  0.00000000000E+00 0. -1.
         11    1    5    5    0    0  0.22336571630E+02 -0.39016535710E+02  0.69715548665E+02  0.82954627457E+02  0.00000000000E+00 0. -1.
        -12    1    5    5    0    0 -0.21283643033E+02 -0.19157445258E+03  0.56386844253E+03  0.59590383857E+03  0.00000000000E+00 0.  1.
          5    1    4    4  501    0 -0.78177508541E+02  0.79393889369E+02 -0.47627983741E+03  0.48915750882E+03  0.41800000000E+01 0. -1.
         -5    1    4    4    0  501  0.38357782153E+02  0.65128578831E+02 -0.17287548206E+03  0.18872322573E+03  0.41800000000E+01 0. -1.
</event>
<event>
11    1  0.6763327E-009  0.1336781E+03  0.7561462E-02  0.1114831E+00
         22   -1    0    0    0    0  0.00000000000E+00  0.00000000000E+00  0.20945799513E+04  0.20945799513E+04  0.00000000000E+00 0.  1.
         22   -1    0    0    0    0 -0.00000000000E+00 -0.00000000000E+00 -0.44215126570E+03  0.44215126570E+03  0.00000000000E+00 0.  1.
         24    2    1    2    0    0  0.31435502138E+01 -0.12561997720E+02 -0.38579432200E+03  0.39408345590E+03  0.79352540188E+02 0.  0.
         25    2    1    2    0    0 -0.50107150511E+02  0.90597627926E+01  0.38110486993E+02  0.14033086642E+03  0.12509011559E+03 0.  0.
        -24    2    1    2    0    0  0.46963600297E+02  0.35022349276E+01  0.20001125206E+04  0.20023168947E+04  0.81271189456E+02 0.  0.
        -13    1    3    3    0    0 -0.22845743984E+02  0.62316832170E+01 -0.32013445703E+03  0.32100908472E+03  0.00000000000E+00 0.  1.
         14    1    3    3    0    0  0.25989294198E+02 -0.18793680937E+02 -0.65659864968E+02  0.73074371182E+02  0.00000000000E+00 0. -1.
         11    1    5    5    0    0 -0.17469794185E+02 -0.12429971267E+02  0.24075957190E+03  0.24171236906E+03  0.00000000000E+00 0. -1.
        -12    1    5    5    0    0  0.64433394482E+02  0.15932206194E+02  0.17593529487E+04  0.17606045256E+04  0.00000000000E+00 0.  1.
          5    1    4    4  501    0 -0.90586727517E+02 -0.63707941555E+01  0.32039186701E+02  0.96387364861E+02  0.41800000000E+01 0.  1.
         -5    1    4    4    0  501  0.40479577006E+02  0.15430556948E+02  0.60713002915E+01  0.43943501562E+02  0.41800000000E+01 0.  1.
</event>
<event>
11    1  0.6763327E-009  0.1275419E+03  0.7561462E-02  0.1122327E+00
         22   -1    0    0    0    0  0.00000000000E+00  0.00000000000E+00  0.10054244914E+04  0.10054244914E+04  0.00000000000E+00 0.  1.
         22   -1    0    0    0    0 -0.00000000000E+00 -0.00000000000E+00 -0.45533655563E+03  0.45533655563E+03  0.00000000000E+00 0. -1.
        -24    2    1    2    0    0 -0.25680381570E+02  0.11373369169E+02 -0.26614562779E+03  0.27928432206E+03  0.79858636560E+02 0.  0.
         25    2    1    2    0    0  0.36600315663E+02  0.10987618088E+02 -0.15700647998E+03  0.20434869129E+03  0.12508813699E+03 0.  0.
         24    2    1    2    0    0 -0.10919934093E+02 -0.22360987257E+02  0.97324004356E+03  0.97712803370E+03  0.83449105125E+02 0.  0.
        -11    1    5    5    0    0 -0.10466880790E+02 -0.11558245955E+02  0.95958027327E+03  0.95970696022E+03  0.00000000000E+00 0.  1.
         12    1    5    5    0    0 -0.45305330311E+00 -0.10802741301E+02  0.13659770287E+02  0.17421073481E+02  0.00000000000E+00 0. -1.
         13    1    3    3    0    0 -0.28703372323E+02  0.22571094772E+02 -0.26513957445E+03  0.26764217127E+03  0.00000000000E+00 0. -1.
        -14    1    3    3    0    0  0.30229907532E+01 -0.11197725603E+02 -0.10060533424E+01  0.11642150794E+02  0.00000000000E+00 0.  1.
          5    1    4    4  501    0 -0.70823054944E+01  0.24417405667E+01  0.20011390645E+02  0.21772673323E+02  0.41800000000E+01 0. -1.
         -5    1    4    4    0  501  0.43682621158E+02  0.85458775210E+01 -0.17701787063E+03  0.18257601796E+03  0.41800000000E+01 0. -1.
</event>
<event>
11    1  0.6763327E-009  0.1776613E+03  0.7561462E-02  0.1071550E+00
         22   -1    0    0    0    0  0.00000000000E+00  0.00000000000E+00  0.21986688954E+04  0.21986688954E+04  0.00000000000E+00 0. -1.
         22   -1    0    0    0    0 -0.00000000000E+00 -0.00000000000E+00 -0.32981866242E+03  0.32981866242E+03  0.00000000000E+00 0.  1.
        -24    2    1    2    0    0 -0.94444041305E+02  0.81836779504E+02 -0.29641895110E+03  0.33147279584E+03  0.79956765784E+02 0.  0.
         25    2    1    2    0    0  0.13794881360E+03 -0.13533057647E+03  0.96548091377E+03  0.99254432999E+03  0.12508641827E+03 0.  0.
         24    2    1    2    0    0 -0.43504772294E+02  0.53493796967E+02  0.11997882703E+04  0.12044704320E+04  0.80640414390E+02 0.  0.
        -13    1    5    5    0    0 -0.32578673932E+02 -0.14898333201E+02  0.33372616790E+03  0.33564339033E+03  0.00000000000E+00 0.  1.
         14    1    5    5    0    0 -0.10926098362E+02  0.68392130168E+02  0.86606210241E+03  0.86882704166E+03  0.00000000000E+00 0. -1.
         13    1    3    3    0    0 -0.79553480400E+02  0.36493982613E+02 -0.11883961112E+03  0.14759207357E+03  0.00000000000E+00 0. -1.
        -14    1    3    3    0    0 -0.14890560905E+02  0.45342796891E+02 -0.17757933999E+03  0.18388072227E+03  0.00000000000E+00 0.  1.
          5    1    4    4  501    0  0.15426844903E+03 -0.14101803236E+03  0.83093489907E+03  0.85682852352E+03  0.41800000000E+01 0. -1.
         -5    1    4    4    0  501 -0.16319635433E+02  0.56874558845E+01  0.13454601470E+03  0.13571580647E+03  0.41800000000E+01 0. -1.
</event>
<event>
11    1  0.6763327E-009  0.1387688E+03  0.7561462E-02  0.1108941E+00
         22   -1    0    0    0    0  0.00000000000E+00  0.00000000000E+00  0.33345370627E+03  0.33345370627E+03  0.00000000000E+00 0.  1.
         22   -1    0    0    0    0 -0.00000000000E+00 -0.00000000000E+00 -0.15208968194E+04  0.15208968194E+04  0.00000000000E+00 0. -1.
        -24    2    1    2    0    0 -0.67312852832E+02 -0.33431625733E+02 -0.94316248868E+03  0.94942429069E+03  0.78754745561E+02 0.  0.
         25    2    1    2    0    0  0.29985502224E+02 -0.63569870500E+01 -0.56118398303E+03  0.57577315950E+03  0.12509087405E+03 0.  0.
         24    2    1    2    0    0  0.37327350608E+02  0.39788612783E+02  0.31690335855E+03  0.32915307550E+03  0.70267657139E+02 0.  0.
        -13    1    5    5    0    0 -0.19200965308E+02 -0.87297684594E+00  0.75399543144E+02  0.77810862119E+02  0.00000000000E+00 0.  1.
         14    1    5    5    0    0  0.56528315916E+02  0.40661589629E+02  0.24150381541E+03  0.25134221338E+03  0.00000000000E+00 0. -1.
         11    1    3    3    0    0 -0.17661580458E+02  0.17214176770E+02 -0.50126414965E+03  0.50187050822E+03  0.00000000000E+00 0. -1.
        -12    1    3    3    0    0 -0.49651272374E+02 -0.50645802503E+02 -0.44189833903E+03  0.44755378247E+03  0.00000000000E+00 0.  1.
          5    1    4    4  501    0 -0.40280718166E+02 -0.33874511683E+02 -0.20833988443E+03  0.21492556535E+03  0.41800000000E+01 0.  1.
         -5    1    4    4    0  501  0.70266220390E+02  0.27517524633E+02 -0.35284409860E+03  0.36084759415E+03  0.41800000000E+01 0.  1.
</event>
<event>
11    1  0.6763327E-009  0.1338002E+03  0.7561462E-02  0.1114686E+00
         22   -1    0    0    0    0  0.00000000000E+00  0.00000000000E+00  0.19104283202E+03  0.19104283202E+03  0.00000000000E+00 0.  1.
         22   -1    0    0    0    0 -0.00000000000E+00 -0.00000000000E+00 -0.11048490366E+04  0.11048490366E+04  0.00000000000E+00 0.  1.
        -24    2    1    2    0    0  0.26943955730E+02 -0.40292801822E+02 -0.51064436060E+03  0.51874768645E+03  0.77408090977E+02 0.  0.
         25    2    1    2    0    0 -0.30487242458E+02  0.86703246118E+02 -0.56658431913E+03  0.58746242410E+03  0.12508950480E+03 0.  0.
         24    2    1    2    0    0  0.35432867281E+01 -0.46410444295E+02  0.16342247515E+03  0.18968175806E+03  0.84295787183E+02 0.  0.
        -13    1    5    5    0    0  0.18031392604E+02 -0.34535635996E+02  0.16623474729E+03  0.17073907719E+03  0.00000000000E+00 0.  1.
         14    1    5    5    0    0 -0.14488105876E+02 -0.11874808299E+02 -0.28122721403E+01  0.18942680872E+02  0.00000000000E+00 0. -1.
         13    1    3    3    0    0  0.19150366236E+02  0.20388956486E+02 -0.11223450252E+03  0.11566775536E+03  0.00000000000E+00 0. -1.
        -14    1    3    3    0    0  0.77935894932E+01 -0.60681758309E+02 -0.39840985808E+03  0.40307993109E+03  0.00000000000E+00 0.  1.
          5    1    4    4  501    0 -0.59987603394E+02  0.79397422063E+02 -0.24576767837E+03  0.26518236616E+03  0.41800000000E+01 0. -1.
         -5    1    4    4    0  501  0.29500360936E+02  0.73058240545E+01 -0.32081664075E+03  0.32228005794E+03  0.41800000000E+01 0. -1.
</event>
<event>
11    1  0.6763327E-009  0.1366803E+03  0.7561462E-02  0.1111323E+00
         22   -1    0    0    0    0  0.00000000000E+00  0.00000000000E+00  0.16717301337E+03  0.16717301337E+03  0.00000000000E+00 0. -1.
         22   -1    0    0    0    0 -0.00000000000E+00 -0.00000000000E+00 -0.20774707520E+04  0.20774707520E+04  0.00000000000E+00 0. -1.
         24    2    1    2    0    0 -0.14284404965E+00  0.52540438765E+02 -0.16396429670E+04  0.16424834193E+04  0.81007438694E+02 0.  0.
         25    2    1    2    0    0  0.38642396748E+02 -0.78320731457E+02 -0.40846141502E+03  0.43602317104E+03  0.12509239116E+03 0.  0.
        -24    2    1    2    0    0 -0.38499552698E+02  0.25780292693E+02  0.13780664339E+03  0.16613717508E+03  0.80399321723E+02 0.  0.
        -13    1    3    3    0    0  0.12460118580E+01 -0.89546856080E+01 -0.23634399021E+02  0.25304619281E+02  0.00000000000E+00 0.  1.
         14    1    3    3    0    0 -0.13888559077E+01  0.61495124373E+02 -0.16160085680E+04  0.16171788000E+04  0.00000000000E+00 0. -1.
         13    1    5    5    0    0 -0.53009697345E+02  0.56096862760E+01  0.12932804568E+03  0.13988295104E+03  0.00000000000E+00 0. -1.
        -14    1    5    5    0    0  0.14510144647E+02  0.20170606417E+02  0.84785977063E+01  0.26254224040E+02  0.00000000000E+00 0.  1.
          5    1    4    4  501    0  0.50335376634E+01  0.62071270166E+00  0.82513904486E+01  0.10548916058E+02  0.41800000000E+01 0. -1.
         -5    1    4    4    0  501  0.33608859085E+02 -0.78941444159E+02 -0.41671280546E+03  0.42547425498E+03  0.41800000000E+01 0. -1.
</event>
<event>
11    1  0.6763327E-009  0.1937001E+03  0.7561462E-02  0.1059070E+00
         22   -1    0    0    0    0  0.00000000000E+00  0.00000000000E+00  0.15650173232E+03  0.15650173232E+03  0.00000000000E+00 0. -1.
         22   -1    0    0    0    0 -0.00000000000E+00 -0.00000000000E+00 -0.23160946661E+04  0.23160946661E+04  0.00000000000E+00 0.  1.
        -24    2    1    2    0    0  0.50573994373E+02  0.89805214674E+01 -0.11431249704E+04  0.11470700726E+04  0.79979215387E+02 0.  0.
         25    2    1    2    0    0 -0.19512880031E+03 -0.27218027764E+02 -0.11091278591E+04  0.11334161458E+04  0.12510588318E+03 0.  0.
         24    2    1    2    0    0  0.14455480593E+03  0.18237506297E+02  0.92659895721E+02  0.19211017999E+03  0.84212626280E+02 0.  0.
        -11    1    5    5    0    0  0.48108229606E+01  0.98134416684E+01  0.41728234829E+02  0.43135753579E+02  0.00000000000E+00 0.  1.
         12    1    5    5    0    0  0.13974398297E+03  0.84240646287E+01  0.50931660892E+02  0.14897442641E+03  0.00000000000E+00 0. -1.
         11    1    3    3    0    0  0.64636669429E+02  0.67909694640E+01 -0.55802613101E+03  0.56179816589E+03  0.00000000000E+00 0. -1.
        -12    1    3    3    0    0 -0.14062675056E+02  0.21895520034E+01 -0.58509883936E+03  0.58527190672E+03  0.00000000000E+00 0.  1.
          5    1    4    4  501    0 -0.12327981411E+03 -0.42777019342E+02 -0.93906121782E+03  0.94809347069E+03  0.41800000000E+01 0.  1.
         -5    1    4    4    0  501 -0.71848986198E+02  0.15558991577E+02 -0.17006664125E+03  0.18532267509E+03  0.41800000000E+01 0.  1.
</event>
<event>
11    1  0.6763327E-009  0.1538999E+03  0.7561462E-02  0.1092959E+00
         22   -1    0    0    0    0  0.00000000000E+00  0.00000000000E+00  0.90124275316E+03  0.90124275316E+03  0.00000000000E+00 0.  1.
         22   -1    0    0    0    0 -0.00000000000E+00 -0.00000000000E+00 -0.16641809558E+04  0.16641809558E+04  0.00000000000E+00 0. -1.
        -24    2    1    2    0    0  0.21238045564E+02 -0.23103054120E+02 -0.15817101755E+04  0.15843662178E+04  0.86165116970E+02 0.  0.
         25    2    1    2    0    0  0.27683351876E+02 -0.53709840440E+02 -0.15113403899E+02  0.13973855196E+03  0.12508930008E+03 0.  0.
         24    2    1    2    0    0 -0.48921397440E+02  0.76812894560E+02  0.83388537673E+03  0.84131893916E+03  0.64491952678E+02 0.  0.
        -11    1    5    5    0    0 -0.59936125979E+02  0.69280399060E+02  0.59007961747E+03  0.59714827962E+03  0.00000000000E+00 0.  1.
         12    1    5    5    0    0  0.11014728539E+02  0.75324954994E+01  0.24380575926E+03  0.24417065954E+03  0.00000000000E+00 0. -1.
         13    1    3    3    0    0  0.19533505739E+02 -0.27366279241E+02 -0.15782723286E+04  0.15786304236E+04  0.00000000000E+00 0. -1.
        -14    1    3    3    0    0  0.17045398255E+01  0.42632251210E+01 -0.34378468440E+01  0.57357942233E+01  0.00000000000E+00 0.  1.
          5    1    4    4  501    0  0.47294766849E+02 -0.85486384670E+02 -0.24907540525E+02  0.10090874546E+03  0.41800000000E+01 0.  1.
         -5    1    4    4    0  501 -0.19611414973E+02  0.31776544230E+02  0.97941366254E+01  0.38829806498E+02  0.41800000000E+01 0.  1.
</event>
<event>
11    1  0.6763327E-009  0.1515698E+03  0.7561462E-02  0.1095285E+00
         22   -1    0    0    0    0  0.00000000000E+00  0.00000000000E+00  0.82116801603E+03  0.82116801603E+03  0.00000000000E+00 0.  1.
         22   -1    0    0    0    0 -0.00000000000E+00 -0.00000000000E+00 -0.10328213644E+03  0.10328213644E+03  0.00000000000E+00 0.  1.
        -24    2    1    2    0    0  0.81833312285E+02  0.40629711878E+02 -0.27939198873E+02  0.12434070644E+03  0.79577308060E+02 0.  0.
         25    2    1    2    0    0 -0.70239179798E+02  0.15557450602E+02  0.20711150481E+03  0.25242520003E+03  0.12509088511E+03 0.  0.
         24    2    1    2    0    0 -0.11594132487E+02 -0.56187162480E+02  0.53871357366E+03  0.54768424600E+03  0.80338644148E+02 0.  0.
        -13    1    5    5    0    0  0.29234932705E+02 -0.47208632954E+02  0.35158806209E+03  0.35594592528E+03  0.00000000000E+00 0.  1.
         14    1    5    5    0    0 -0.40829065192E+02 -0.89785295263E+01  0.18712551156E+03  0.19173832073E+03  0.00000000000E+00 0. -1.
         13    1    3    3    0    0 -0.10689464919E+02  0.25179306431E+02 -0.59561437526E+01  0.27995317127E+02  0.00000000000E+00 0. -1.
        -14    1    3    3    0    0  0.92522777204E+02  0.15450405447E+02 -0.21983055121E+02  0.96345389316E+02  0.00000000000E+00 0.  1.
          5    1    4    4  501    0  0.11138613026E+02 -0.13251817923E+01 -0.12661944320E+02  0.17424753682E+02  0.41800000000E+01 0. -1.
         -5    1    4    4    0  501 -0.81377792824E+02  0.16882632394E+02  0.21977344913E+03  0.23500044635E+03  0.41800000000E+01 0. -1.
</event>
<event>
11    1  0.6763327E-009  0.2238980E+03  0.7561462E-02  0.1038803E+00
         22   -1    0    0    0    0  0.00000000000E+00  0.00000000000E+00  0.71767967408E+03  0.71767967408E+03  0.00000000000E+00 0. -1.
         22   -1    0    0    0    0 -0.00000000000E+00 -0.00000000000E+00 -0.63662679012E+03  0.63662679012E+03  0.00000000000E+00 0.  1.
        -24    2    1    2    0    0 -0.17419756477E+03  0.74771440333E+02 -0.54531681061E+03  0.58267881640E+03  0.78794792291E+02 0.  0.
         25    2    1    2    0    0  0.13800544905E+03 -0.72862228348E+02  0.75337805075E+02  0.21373716987E+03  0.12511348697E+03 0.  0.
         24    2    1    2    0    0  0.36192115719E+02 -0.19092119849E+01  0.55103188950E+03  0.55789047792E+03  0.79322933533E+02 0.  0.
        -13    1    5    5    0    0  0.54187896950E+02  0.20954455668E+02  0.37211088737E+03  0.37661907796E+03  0.00000000000E+00 0.  1.
         14    1    5    5    0    0 -0.17995781230E+02 -0.22863667653E+02  0.17892100213E+03  0.18127139996E+03  0.00000000000E+00 0. -1.
         11    1    3    3    0    0 -0.12290533778E+03  0.82260541679E+02 -0.45630449871E+03  0.47967313278E+03  0.00000000000E+00 0. -1.
        -12    1    3    3    0    0 -0.51292226988E+02 -0.74891013457E+01 -0.89012311904E+02  0.10300568362E+03  0.00000000000E+00 0.  1.
          5    1    4    4  501    0 -0.87908247464E+01 -0.88489148074E+01 -0.22470864786E+02  0.26038319017E+02  0.41800000000E+01 0.  1.
         -5    1    4    4    0  501  0.14679627379E+03 -0.64013313541E+02  0.97808669861E+02  0.18769885085E+03  0.41800000000E+01 0.  1.
</event>
<event>
11    1  0.6763327E-009  0.1287243E+03  0.7561462E-02  0.1120846E+00
         22   -1    0    0    0    0  0.00000000000E+00  0.00000000000E+00  0.12009921638E+04  0.12009921638E+04  0.00000000000E+00 0.  1.
         22   -1    0    0    0    0 -0.00000000000E+00 -0.00000000000E+00 -0.35450252875E+03  0.35450252875E+03  0.00000000000E+00 0.  1.
        -24    2    1    2    0    0  0.28601713371E+02 -0.92912841338E+01 -0.32642541182E+03  0.33642874888E+03  0.75672766715E+02 0.  0.
         25    2    1    2    0    0 -0.39347219884E+02  0.16264435989E+02  0.18231361365E+03  0.22516353568E+03  0.12509048120E+03 0.  0.
         24    2    1    2    0    0  0.10745506513E+02 -0.69731518553E+01  0.99060143326E+03  0.99390240802E+03  0.79916871391E+02 0.  0.
        -11    1    5    5    0    0  0.13969537024E+02  0.60558173913E+01  0.96387305233E+03  0.96399329972E+03  0.00000000000E+00 0.  1.
         12    1    5    5    0    0 -0.32240305115E+01 -0.13028969247E+02  0.26728380929E+02  0.29909108302E+02  0.00000000000E+00 0. -1.
         13    1    3    3    0    0  0.42739366846E+02  0.89139214072E+01 -0.10372738907E+03  0.11254102681E+03  0.00000000000E+00 0. -1.
        -14    1    3    3    0    0 -0.14137653475E+02 -0.18205205541E+02 -0.22269802275E+03  0.22388772207E+03  0.00000000000E+00 0.  1.
          5    1    4    4  501    0 -0.30932536402E+01  0.40163705696E+02  0.29889104284E+01  0.40609080990E+02  0.41800000000E+01 0. -1.
         -5    1    4    4    0  501 -0.36253966244E+02 -0.23899269707E+02  0.17932470322E+03  0.18455445469E+03  0.41800000000E+01 0. -1.
</event>
<event>
11    1  0.6763327E-009  0.1308772E+03  0.7561462E-02  0.1118196E+00
         22   -1    0    0    0    0  0.00000000000E+00  0.00000000000E+00  0.71944912463E+03  0.71944912463E+03  0.00000000000E+00 0.  1.
         22   -1    0    0    0    0 -0.00000000000E+00 -0.00000000000E+00 -0.57481094358E+03  0.57481094358E+03  0.00000000000E+00 0.  1.
         24    2    1    2    0    0 -0.26949013490E+02 -0.38090600743E+01 -0.50770165789E+03  0.51450471908E+03  0.78824959674E+02 0.  0.
         25    2    1    2    0    0 -0.12078754866E+02 -0.39296210907E+01  0.44955164467E+01  0.12581379362E+03  0.12509021847E+03 0.  0.
        -24    2    1    2    0    0  0.39027768357E+02  0.77386811650E+01  0.64784432250E+03  0.65394155550E+03  0.79713473926E+02 0.  0.
        -11    1    3    3    0    0 -0.10137358697E+02 -0.40332945212E+02 -0.20787788495E+03  0.21199699894E+03  0.00000000000E+00 0.  1.
         12    1    3    3    0    0 -0.16811654793E+02  0.36523885138E+02 -0.29982377294E+03  0.30250772014E+03  0.00000000000E+00 0. -1.
         11    1    5    5    0    0 -0.20285779496E+02 -0.14754175187E+02  0.15197689283E+03  0.15403303051E+03  0.00000000000E+00 0. -1.
        -12    1    5    5    0    0  0.59313547853E+02  0.22492856352E+02  0.49586742967E+03  0.49990852499E+03  0.00000000000E+00 0.  1.
          5    1    4    4  501    0 -0.12495529585E+02 -0.60408934774E+02 -0.18725952611E+02  0.64602719458E+02  0.41800000000E+01 0.  1.
         -5    1    4    4    0  501  0.41677471832E+00  0.56479313683E+02  0.23221469057E+02  0.61211074165E+02  0.41800000000E+01 0.  1.
</event>
<event>
11    1  0.6763327E-009  0.1652044E+03  0.7561462E-02  0.1082282E+00
         22   -1    0    0    0    0  0.00000000000E+00  0.00000000000E+00  0.14614272729E+04  0.14614272729E+04  0.00000000000E+00 0.  1.
         22   -1    0    0    0    0 -0.00000000000E+00 -0.00000000000E+00 -0.15201624554E+04  0.15201624554E+04  0.00000000000E+00 0. -1.
         24    2    1    2    0    0  0.15447652575E+02  0.44209805305E+02 -0.14888525523E+04  0.14918354614E+04  0.81841215911E+02 0.  0.
         25    2    1    2    0    0  0.38056006896E+01  0.68177115464E+02  0.17040280540E+03  0.22214188866E+03  0.12508917196E+03 0.  0.
        -24    2    1    2    0    0 -0.19253253265E+02 -0.11238692077E+03  0.12597145644E+04  0.12676123782E+04  0.83419720804E+02 0.  0.
        -13    1    3    3    0    0  0.32799837406E+02  0.53955527502E+02 -0.73111856812E+03  0.73384016580E+03  0.00000000000E+00 0.  1.
         14    1    3    3    0    0 -0.17352184831E+02 -0.97457221968E+01 -0.75773398415E+03  0.75799529560E+03  0.00000000000E+00 0. -1.
         13    1    5    5    0    0  0.18946310063E+02  0.32952579853E+01  0.14864592396E+03  0.14988472938E+03  0.00000000000E+00 0. -1.
        -14    1    5    5    0    0 -0.38199563328E+02 -0.11568217875E+03  0.11110686405E+04  0.11177276488E+04  0.00000000000E+00 0.  1.
          5    1    4    4  501    0  0.59019891183E+02  0.63709203672E+02  0.10244295019E+03  0.13436606950E+03  0.41800000000E+01 0. -1.
         -5    1    4    4    0  501 -0.55214290493E+02  0.44679117918E+01  0.67959855205E+02  0.87775819164E+02  0.41800000000E+01 0. -1.
</event>
<event>
11    1  0.6763327E-009  0.1424438E+03  0.7561462E-02  0.1104860E+00
         22   -1    0    0    0    0  0.00000000000E+00  0.00000000000E+00  0.92828451945E+02  0.92828451945E+02  0.00000000000E+00 0.  1.
         22   -1    0    0    0    0 -0.00000000000E+00 -0.00000000000E+00 -0.70966467474E+03  0.70966467474E+03  0.00000000000E+00 0.  1.
         24    2    1    2    0    0  0.65053801200E+02  0.59886350615E+01 -0.39882200152E+03  0.41204406756E+03  0.80333454541E+02 0.  0.
         25    2    1    2    0    0 -0.24766178127E+02 -0.65781904628E+02 -0.24136726105E+03  0.28079655650E+03  0.12509168191E+03 0.  0.
        -24    2    1    2    0    0 -0.40287623073E+02  0.59793269567E+02  0.23353039765E+02  0.10965250262E+03  0.79246319833E+02 0.  0.
        -13    1    3    3    0    0 -0.11126231796E+02  0.59867589586E+01 -0.17805908084E+03  0.17850678022E+03  0.00000000000E+00 0.  1.
         14    1    3    3    0    0  0.76180032997E+02  0.18761029578E-02 -0.22076292068E+03  0.23353728734E+03  0.00000000000E+00 0. -1.
         13    1    5    5    0    0 -0.20031035975E+02  0.34317571677E+02 -0.28171417775E+02  0.48709002325E+02  0.00000000000E+00 0. -1.
        -14    1    5    5    0    0 -0.20256587098E+02  0.25475697889E+02  0.51524457540E+02  0.60943500299E+02  0.00000000000E+00 0.  1.
          5    1    4    4  501    0 -0.19792115257E+02  0.25915508538E+02 -0.14346087641E+02  0.35869541950E+02  0.41800000000E+01 0. -1.
         -5    1    4    4    0  501 -0.49740628702E+01 -0.91697413166E+02 -0.22702117341E+03  0.24492701455E+03  0.41800000000E+01 0. -1.
</event>
<event>
11    1  0.7660956E-009  0.1553002E+03  0.7561462E-02  0.1091583E+00
         22   -1    0    0    0    0  0.00000000000E+00  0.00000000000E+00  0.42174319641E+03  0.42174319641E+03  0.00000000000E+00 0. -1.
         22   -1    0    0    0    0 -0.00000000000E+00 -0.00000000000E+00 -0.87556876381E+03  0.87556876381E+03  0.00000000000E+00 0.  1.
        -24    2    1    2    0    0 -0.23180925848E+01  0.60378304740E+01 -0.72324503052E+03  0.72785095875E+03  0.81497331450E+02 0.  0.
         25    2    1    2    0    0 -0.37150918746E+02 -0.88866196514E+02 -0.95273527720E+02  0.18438693257E+03  0.12507639334E+03 0.  0.
         24    2    1    2    0    0  0.39469011330E+02  0.82828366040E+02  0.36469299084E+03  0.38507406889E+03  0.82841534829E+02 0.  0.
        -13    1    5    5    0    0  0.20408852667E+02 -0.55150586290E+01  0.21390140031E+02  0.30074494666E+02  0.00000000000E+00 0.  1.
         14    1    5    5    0    0  0.19060158663E+02  0.88343424669E+02  0.34330285081E+03  0.35499957423E+03  0.00000000000E+00 0. -1.
         13    1    3    3    0    0 -0.46891316421E+01  0.12892841261E+02 -0.18314219331E+02  0.22882830704E+02  0.00000000000E+00 0. -1.
        -14    1    3    3    0    0  0.23710390573E+01 -0.68550107866E+01 -0.70493081119E+03  0.70496812805E+03  0.00000000000E+00 0.  1.
          5    1    4    4  501    0 -0.67757958981E+02 -0.56196635038E+02 -0.10925082399E+02  0.88803336763E+02  0.41800000000E+01 0. -1.
         -5    1    4    4    0  501  0.30607040235E+02 -0.32669561476E+02 -0.84348445320E+02  0.95583595805E+02  0.41800000000E+01 0. -1.
</event>
<event>
11    1  0.6763327E-009  0.1977100E+03  0.7561462E-02  0.1056155E+00
         22   -1    0    0    0    0  0.00000000000E+00  0.00000000000E+00  0.73043352466E+03  0.73043352466E+03  0.00000000000E+00 0. -1.
         22   -1    0    0    0    0 -0.00000000000E+00 -0.00000000000E+00 -0.41329189368E+03  0.41329189368E+03  0.00000000000E+00 0. -1.
        -24    2    1    2    0    0 -0.11096096613E+03  0.90110133549E+02 -0.21558240466E+03  0.27097877209E+03  0.80756111555E+02 0.  0.
         25    2    1    2    0    0  0.13188508543E+03 -0.12208899288E+03 -0.94905610131E+02  0.23865382903E+03  0.12509667195E+03 0.  0.
         24    2    1    2    0    0 -0.20924119304E+02  0.31978859334E+02  0.62762964577E+03  0.63409281721E+03  0.81818472067E+02 0.  0.
        -11    1    5    5    0    0 -0.39657738720E+02 -0.57356957419E+01  0.17598441782E+03  0.18048864164E+03  0.00000000000E+00 0.  1.
         12    1    5    5    0    0  0.18733619416E+02  0.37714555076E+02  0.45164522795E+03  0.45360417557E+03  0.00000000000E+00 0. -1.
         11    1    3    3    0    0 -0.74188802320E+02  0.28124579666E+02 -0.16451693858E+03  0.18264937298E+03  0.00000000000E+00 0. -1.
        -12    1    3    3    0    0 -0.36772163809E+02  0.61985553883E+02 -0.51065466082E+02  0.88329399112E+02  0.00000000000E+00 0.  1.
          5    1    4    4  501    0  0.90628467486E+02 -0.13415549472E+03 -0.36499750802E+02  0.16601481889E+03  0.41800000000E+01 0.  1.
         -5    1    4    4    0  501  0.41256617946E+02  0.12066501832E+02 -0.58405859329E+02  0.72639010145E+02  0.41800000000E+01 0.  1.
</event>
<event>
11    1  0.6763327E-009  0.1578041E+03  0.7561462E-02  0.1089161E+00
         22   -1    0    0    0    0  0.00000000000E+00  0.00000000000E+00  0.62775997647E+03  0.62775997647E+03  0.00000000000E+00 0.  1.
         22   -1    0    0    0    0 -0.00000000000E+00 -0.00000000000E+00 -0.38647514643E+03  0.38647514643E+03  0.00000000000E+00 0.  1.
         24    2    1    2    0    0 -0.70348137728E+02  0.54423740401E+02 -0.23409914648E+03  0.26424681766E+03  0.84339588942E+02 0.  0.
         25    2    1    2    0    0  0.78388602806E+02 -0.10162353986E+03 -0.72800602793E+02  0.19343826102E+03  0.12508523557E+03 0.  0.
        -24    2    1    2    0    0 -0.80404650777E+01  0.47199799460E+02  0.54818457931E+03  0.55655004421E+03  0.83361553290E+02 0.  0.
        -13    1    3    3    0    0 -0.89096505348E+02  0.50315121559E+02 -0.20847184005E+03  0.23222899651E+03  0.00000000000E+00 0.  1.
         14    1    3    3    0    0  0.18748367619E+02  0.41086188421E+01 -0.25627306422E+02  0.32017821156E+02  0.00000000000E+00 0. -1.
         13    1    5    5    0    0  0.10705665799E+02  0.14779353364E+02  0.20136834283E+02  0.27175957407E+02  0.00000000000E+00 0. -1.
        -14    1    5    5    0    0 -0.18746130877E+02  0.32420446097E+02  0.52804774503E+03  0.52937408680E+03  0.00000000000E+00 0.  1.
          5    1    4    4  501    0 -0.11924119964E+02 -0.35189769280E+01 -0.57704422709E+02  0.59176351997E+02  0.41800000000E+01 0. -1.
         -5    1    4    4    0  501  0.90312722770E+02 -0.98104562933E+02 -0.15096180084E+02  0.13426190903E+03  0.41800000000E+01 0. -1.
</event>
<event>
11    1  0.6763327E-009  0.1977712E+03  0.7561462E-02  0.1056111E+00
         22   -1    0    0    0    0  0.00000000000E+00  0.00000000000E+00  0.90696065072E+03  0.90696065072E+03  0.00000000000E+00 0.  1.
         22   -1    0    0    0    0 -0.00000000000E+00 -0.00000000000E+00 -0.17287577626E+03  0.17287577626E+03  0.00000000000E+00 0. -1.
        -24    2    1    2    0    0 -0.92719859587E+02  0.10373714461E+03 -0.55018839534E+01  0.15929747899E+03  0.77376020516E+02 0.  0.
         25    2    1    2    0    0  0.19547449206E+03 -0.56939007100E+02  0.88746773074E+02  0.25490291613E+03  0.12508868592E+03 0.  0.
         24    2    1    2    0    0 -0.10275463247E+03 -0.46798137507E+02  0.65083998534E+03  0.66563603186E+03  0.82036944248E+02 0.  0.
        -11    1    5    5    0    0 -0.94154120472E+02 -0.28529253456E+01  0.41157860785E+03  0.42222042587E+03  0.00000000000E+00 0.  1.
         12    1    5    5    0    0 -0.86005120023E+01 -0.43945212162E+02  0.23926137749E+03  0.24341560599E+03  0.00000000000E+00 0. -1.
         13    1    3    3    0    0 -0.45649863813E+02  0.10049710587E+03  0.66401104750E+01  0.11057879282E+03  0.00000000000E+00 0. -1.
        -14    1    3    3    0    0 -0.47069995774E+02  0.32400387400E+01 -0.12141994428E+02  0.48718686168E+02  0.00000000000E+00 0.  1.
          5    1    4    4  501    0  0.86778154734E+02 -0.59100712173E+02 -0.13080962602E+02  0.10588638393E+03  0.41800000000E+01 0. -1.
         -5    1    4    4    0  501  0.10869633733E+03  0.21617050730E+01  0.10182773568E+03  0.14901653220E+03  0.41800000000E+01 0. -1.
</event>
<event>
11    1  0.6763327E-009  0.1390551E+03  0.7561462E-02  0.1108618E+00
         22   -1    0    0    0    0  0.00000000000E+00  0.00000000000E+00  0.94134718386E+03  0.94134718386E+03  0.00000000000E+00 0. -1.
         22   -1    0    0    0    0 -0.00000000000E+00 -0.00000000000E+00 -0.13083867621E+03  0.13083867621E+03  0.00000000000E+00 0. -1.
        -24    2    1    2    0    0  0.62045756505E+02  0.29084490919E+00 -0.74217593192E+02  0.13001360481E+03  0.86864986067E+02 0.  0.
         25    2    1    2    0    0 -0.49744272990E+02  0.43949112636E+02  0.16852593280E+03  0.22012540929E+03  0.12509271999E+03 0.  0.
         24    2    1    2    0    0 -0.12301483516E+02 -0.44239957545E+02  0.71620016805E+03  0.72204684597E+03  0.79375479320E+02 0.  0.
        -11    1    5    5    0    0  0.28360308479E+02 -0.95511186687E+01  0.12929249716E+03  0.13271051498E+03  0.00000000000E+00 0.  1.
         12    1    5    5    0    0 -0.40661791995E+02 -0.34688838877E+02  0.58690767089E+03  0.58933633099E+03  0.00000000000E+00 0. -1.
         13    1    3    3    0    0  0.11510645747E+02 -0.39929601142E+02 -0.22393374919E+02  0.47205203666E+02  0.00000000000E+00 0. -1.
        -14    1    3    3    0    0  0.50535110759E+02  0.40220446051E+02 -0.51824218273E+02  0.82808401141E+02  0.00000000000E+00 0.  1.
          5    1    4    4  501    0 -0.73382977329E+01 -0.31567856099E+02  0.24421618777E+01  0.32769142603E+02  0.41800000000E+01 0. -1.
         -5    1    4    4    0  501 -0.42405975257E+02  0.75516968735E+02  0.16608377092E+03  0.18735626669E+03  0.41800000000E+01 0. -1.
</event>
<event>
11    1  0.6763327E-009  0.1376425E+03  0.7561462E-02  0.1110220E+00
         22   -1    0    0    0    0  0.00000000000E+00  0.00000000000E+00  0.81129819652E+03  0.81129819652E+03  0.00000000000E+00 0. -1.
         22   -1    0    0    0    0 -0.00000000000E+00 -0.00000000000E+00 -0.46554917583E+03  0.46554917583E+03  0.00000000000E+00 0. -1.
         24    2    1    2    0    0 -0.56774139685E+02 -0.88019408835E+01 -0.43852248266E+03  0.44948218209E+03  0.80196553035E+02 0.  0.
         25    2    1    2    0    0  0.58623470601E+02 -0.13769242773E+02  0.24267170654E+03  0.27957857147E+03  0.12509323372E+03 0.  0.
        -24    2    1    2    0    0 -0.18493309162E+01  0.22571183656E+02  0.54159979682E+03  0.54778661878E+03  0.78911098369E+02 0.  0.
        -11    1    3    3    0    0 -0.14127580244E+02  0.19118390301E+02 -0.32464728783E+02  0.40237544485E+02  0.00000000000E+00 0.  1.
         12    1    3    3    0    0 -0.42646559441E+02 -0.27920331184E+02 -0.40605775388E+03  0.40924463761E+03  0.00000000000E+00 0. -1.
         13    1    5    5    0    0  0.13858815400E+02  0.38038956212E+02  0.49006691961E+03  0.49173632635E+03  0.00000000000E+00 0. -1.
        -14    1    5    5    0    0 -0.15708146317E+02 -0.15467772556E+02  0.51532877211E+02  0.56050292436E+02  0.00000000000E+00 0.  1.
          5    1    4    4  501    0  0.67835794325E+02  0.41591273947E+02  0.16926312196E+03  0.18708021251E+03  0.41800000000E+01 0. -1.
         -5    1    4    4    0  501 -0.92123237243E+01 -0.55360516719E+02  0.73408584579E+02  0.92498358957E+02  0.41800000000E+01 0. -1.
</event>
<event>
11    1  0.6763327E-009  0.2512660E+03  0.7561462E-02  0.1023227E+00
         22   -1    0    0    0    0  0.00000000000E+00  0.00000000000E+00  0.18275145901E+03  0.18275145901E+03  0.00000000000E+00 0. -1.
         22   -1    0    0    0    0 -0.00000000000E+00 -0.00000000000E+00 -0.36556039339E+04  0.36556039339E+04  0.00000000000E+00 0. -1.
        -24    2    1    2    0    0  0.91358987893E+02 -0.34500032890E+02 -0.29959887170E+04  0.29986633780E+04  0.80603631956E+02 0.  0.
         25    2    1    2    0    0 -0.21605435892E+03  0.19910995511E+03 -0.52351804601E+03  0.61322397534E+03  0.12509292230E+03 0.  0.
         24    2    1    2    0    0  0.12469537102E+03 -0.16460992222E+03  0.46654288116E+02  0.22646803953E+03  0.80410125481E+02 0.  0.
        -13    1    5    5    0    0  0.35727597357E+01  0.89831687470E+01 -0.20946211345E+00  0.96698400836E+01  0.00000000000E+00 0.  1.
         14    1    5    5    0    0  0.12112261129E+03 -0.17359309097E+03  0.46863750229E+02  0.21679819944E+03  0.00000000000E+00 0. -1.
         13    1    3    3    0    0  0.19730809290E+02 -0.49420015066E+02 -0.13545328218E+04  0.13555776658E+04  0.00000000000E+00 0. -1.
        -14    1    3    3    0    0  0.71628178602E+02  0.14919982176E+02 -0.16414558952E+04  0.16430857122E+04  0.00000000000E+00 0.  1.
          5    1    4    4  501    0 -0.11067292651E+03  0.13312812882E+03 -0.18908616107E+03  0.25640328401E+03  0.41800000000E+01 0. -1.
         -5    1    4    4    0  501 -0.10538143240E+03  0.65981826291E+02 -0.33443188494E+03  0.35682069133E+03  0.41800000000E+01 0. -1.
</event>
<event>
11    1  0.6763327E-009  0.1764868E+03  0.7561462E-02  0.1072521E+00
         22   -1    0    0    0    0  0.00000000000E+00  0.00000000000E+00  0.91710111357E+03  0.91710111357E+03  0.00000000000E+00 0.  1.
         22   -1    0    0    0    0 -0.00000000000E+00 -0.00000000000E+00 -0.38082204718E+03  0.38082204718E+03  0.00000000000E+00 0.  1.
         24    2    1    2    0    0  0.11688400666E+03  0.15616827776E+02 -0.25545686820E+03  0.29196438880E+03  0.77969458742E+02 0.  0.
         25    2    1    2    0    0 -0.20877677893E+03  0.60264273157E+02  0.56726185182E+02  0.25707286839E+03  0.12509625709E+03 0.  0.
        -24    2    1    2    0    0  0.91892772269E+02 -0.75881100933E+02  0.73500974940E+03  0.74888590356E+03  0.79928353900E+02 0.  0.
        -11    1    3    3    0    0  0.48254807203E+02 -0.62517718828E+01 -0.18467581533E+03  0.19097844862E+03  0.00000000000E+00 0.  1.
         12    1    3    3    0    0  0.68629199455E+02  0.21868599659E+02 -0.70781052864E+02  0.10098594018E+03  0.00000000000E+00 0. -1.
         11    1    5    5    0    0  0.57395098525E+02 -0.33299780367E+02  0.19250758701E+03  0.20362279775E+03  0.00000000000E+00 0. -1.
        -12    1    5    5    0    0  0.34497673744E+02 -0.42581320566E+02  0.54250216239E+03  0.54526310580E+03  0.00000000000E+00 0.  1.
          5    1    4    4  501    0 -0.70821703782E+02 -0.31552741952E+02 -0.10182372305E+02  0.78309912252E+02  0.41800000000E+01 0.  1.
         -5    1    4    4    0  501 -0.13795507515E+03  0.91817015109E+02  0.66908557487E+02  0.17876295614E+03  0.41800000000E+01 0.  1.
</event>
<event>
11    1  0.6763327E-009  0.1772464E+03  0.7561462E-02  0.1071892E+00
         22   -1    0    0    0    0  0.00000000000E+00  0.00000000000E+00  0.52328034848E+03  0.52328034848E+03  0.00000000000E+00 0.  1.
         22   -1    0    0    0    0 -0.00000000000E+00 -0.00000000000E+00 -0.56275444240E+03  0.56275444240E+03  0.00000000000E+00 0.  1.
        -24    2    1    2    0    0 -0.19094344523E+02  0.48560295972E+02 -0.48801824876E+03  0.49752500392E+03  0.81526818042E+02 0.  0.
         25    2    1    2    0    0  0.14052835880E+03 -0.40477783022E+02  0.11378018040E+03  0.22356194420E+03  0.12508933966E+03 0.  0.
         24    2    1    2    0    0 -0.12143401428E+03 -0.80825129501E+01  0.33476397445E+03  0.36494784277E+03  0.79425830244E+02 0.  0.
        -13    1    5    5    0    0 -0.80595410656E+02 -0.18306656692E+01  0.30094883256E+03  0.31155925821E+03  0.00000000000E+00 0.  1.
         14    1    5    5    0    0 -0.40838603620E+02 -0.62518472809E+01  0.33815141894E+02  0.53388584560E+02  0.00000000000E+00 0. -1.
         13    1    3    3    0    0  0.21314085888E+02  0.27885994433E+02 -0.85039579361E+02  0.91998092375E+02  0.00000000000E+00 0. -1.
        -14    1    3    3    0    0 -0.40408430411E+02  0.20674301540E+02 -0.40297866940E+03  0.40552691154E+03  0.00000000000E+00 0.  1.
          5    1    4    4  501    0  0.12697372416E+03 -0.76412076823E+02  0.11028051893E+03  0.18477120276E+03  0.41800000000E+01 0.  1.
         -5    1    4    4    0  501  0.13554634634E+02  0.35934293801E+02  0.34996614621E+01  0.38790741439E+02  0.41800000000E+01 0.  1.
</event>
<event>
11    1  0.6763327E-009  0.1522358E+03  0.7561462E-02  0.1094616E+00
         22   -1    0    0    0    0  0.00000000000E+00  0.00000000000E+00  0.13965882889E+04  0.13965882889E+04  0.00000000000E+00 0. -1.
         22   -1    0    0    0    0 -0.00000000000E+00 -0.00000000000E+00 -0.39662084072E+03  0.39662084072E+03  0.00000000000E+00 0.  1.
        -24    2    1    2    0    0 -0.65709068308E+02 -0.54831123633E+02 -0.36106381409E+03  0.37980813353E+03  0.81012385945E+02 0.  0.
         25    2    1    2    0    0  0.11640377122E+03  0.64204651775E+02  0.32310264707E+03  0.37109970571E+03  0.12509035042E+03 0.  0.
         24    2    1    2    0    0 -0.50694702912E+02 -0.93735281428E+01  0.10379286152E+04  0.10423012904E+04  0.80239353036E+02 0.  0.
        -11    1    5    5    0    0  0.12452197624E+02 -0.11168977132E+02  0.58692581300E+02  0.61029684380E+02  0.00000000000E+00 0.  1.
         12    1    5    5    0    0 -0.63146900536E+02  0.17954489890E+01  0.97923603392E+03  0.98127160603E+03  0.00000000000E+00 0. -1.
         11    1    3    3    0    0  0.17079145152E+02 -0.10708947353E+02 -0.10910029156E+03  0.11094707013E+03  0.00000000000E+00 0. -1.
        -12    1    3    3    0    0 -0.82788213460E+02 -0.44122176279E+02 -0.25196352253E+03  0.26886106340E+03  0.00000000000E+00 0.  1.
          5    1    4    4  501    0 -0.24160532817E+02 -0.50003043196E+01  0.33619175103E+02  0.41910090956E+02  0.41800000000E+01 0.  1.
         -5    1    4    4    0  501  0.14056430404E+03  0.69204956095E+02  0.28948347197E+03  0.32918961475E+03  0.41800000000E+01 0.  1.
</event>
<event>
11    1  0.6763327E-009  0.1355417E+03  0.7561462E-02  0.1112642E+00
         22   -1    0    0    0    0  0.00000000000E+00  0.00000000000E+00  0.28604427918E+03  0.28604427918E+03  0.00000000000E+00 0.  1.
         22   -1    0    0    0    0 -0.00000000000E+00 -0.00000000000E+00 -0.75206596051E+03  0.75206596051E+03  0.00000000000E+00 0. -1.
         24    2    1    2    0    0  0.72247324089E+01  0.51494632041E+02 -0.68229717518E+03  0.68875963217E+03  0.78463378456E+02 0.  0.
         25    2    1    2    0    0 -0.31316949283E+02 -0.53196824760E+02  0.26961285268E+02  0.14207445604E+03  0.12509031409E+03 0.  0.
        -24    2    1    2    0    0  0.24092216874E+02  0.17021927187E+01  0.18931420858E+03  0.20727615148E+03  0.80871509371E+02 0.  0.
        -13    1    3    3    0    0 -0.30287303141E+02  0.15788430227E+02 -0.14482388198E+03  0.14879701627E+03  0.00000000000E+00 0.  1.
         14    1    3    3    0    0  0.37512035550E+02  0.35706201814E+02 -0.53747329321E+03  0.53996261590E+03  0.00000000000E+00 0. -1.
         11    1    5    5    0    0 -0.25042196845E+02  0.19478942023E+02  0.61693554664E+02  0.69373161180E+02  0.00000000000E+00 0. -1.
        -12    1    5    5    0    0  0.49134413719E+02 -0.17776749304E+02  0.12762065391E+03  0.13790299030E+03  0.00000000000E+00 0.  1.
          5    1    4    4  501    0 -0.56349151210E+02  0.61076071301E+01  0.47824653070E+02  0.74277853686E+02  0.41800000000E+01 0. -1.
         -5    1    4    4    0  501  0.25032201927E+02 -0.59304431890E+02 -0.20863367802E+02  0.67796602357E+02  0.41800000000E+01 0. -1.
</event>
<event>
11    1  0.6763327E-009  0.1542800E+03  0.7561462E-02  0.1092584E+00
         22   -1    0    0    0    0  0.00000000000E+00  0.00000000000E+00  0.93171755451E+03  0.93171755451E+03  0.00000000000E+00 0.  1.
         22   -1    0    0    0    0 -0.00000000000E+00 -0.00000000000E+00 -0.10616289610E+03  0.10616289610E+03  0.00000000000E+00 0.  1.
         24    2    1    2    0    0 -0.22602617908E+02  0.60384932134E+02 -0.36680383444E+02  0.10710212142E+03  0.77254097098E+02 0.  0.
         25    2    1    2    0    0  0.38801984362E+02  0.37719285131E+02  0.13392827353E+03  0.19108298937E+03  0.12509031904E+03 0.  0.
        -24    2    1    2    0    0 -0.16199366454E+02 -0.98104217265E+02  0.72830676833E+03  0.73969533981E+03  0.82653433290E+02 0.  0.
        -13    1    3    3    0    0 -0.43996758054E+02  0.24182816381E+02 -0.41014280374E+02  0.64828192339E+02  0.00000000000E+00 0.  1.
         14    1    3    3    0    0  0.21394140146E+02  0.36202115753E+02  0.43338969294E+01  0.42273929083E+02  0.00000000000E+00 0. -1.
         11    1    5    5    0    0  0.32321481329E+02 -0.56149451703E+02  0.39384454759E+03  0.39913777916E+03  0.00000000000E+00 0. -1.
        -12    1    5    5    0    0 -0.48520847783E+02 -0.41954765561E+02  0.33446222073E+03  0.34055756066E+03  0.00000000000E+00 0.  1.
          5    1    4    4  501    0 -0.29921329580E+02 -0.77806328707E+01 -0.28595033954E+01  0.31328475408E+02  0.41800000000E+01 0. -1.
         -5    1    4    4    0  501  0.68723313942E+02  0.45499918002E+02  0.13678777692E+03  0.15975451397E+03  0.41800000000E+01 0. -1.
</event>
<event>
11    1  0.6763327E-009  0.1592374E+03  0.7561462E-02  0.1087797E+00
         22   -1    0    0    0    0  0.00000000000E+00  0.00000000000E+00  0.38989067573E+03  0.38989067573E+03  0.00000000000E+00 0. -1.
         22   -1    0    0    0    0 -0.00000000000E+00 -0.00000000000E+00 -0.10700341258E+04  0.10700341258E+04  0.00000000000E+00 0. -1.
        -24    2    1    2    0    0  0.58766263406E+02 -0.96320233287E+01 -0.93148490218E+03  0.93688852195E+03  0.80930402157E+02 0.  0.
         25    2    1    2    0    0 -0.23864011431E+02  0.10275803763E+03 -0.69090047194E+02  0.17762403729E+03  0.12509260036E+03 0.  0.
         24    2    1    2    0    0 -0.34902251975E+02 -0.93126014298E+02  0.32043149927E+03  0.34541224233E+03  0.82113638901E+02 0.  0.
        -13    1    5    5    0    0 -0.30698766193E+02 -0.64023799041E+01  0.34656049639E+02  0.46738062548E+02  0.00000000000E+00 0.  1.
         14    1    5    5    0    0 -0.42034857824E+01 -0.86723634393E+02  0.28577544963E+03  0.29867417978E+03  0.00000000000E+00 0. -1.
         11    1    3    3    0    0  0.35348879746E+02 -0.45495211939E+02 -0.52230576406E+03  0.52547375651E+03  0.00000000000E+00 0. -1.
        -12    1    3    3    0    0  0.23417383660E+02  0.35863188610E+02 -0.40917913812E+03  0.41141476545E+03  0.00000000000E+00 0.  1.
          5    1    4    4  501    0 -0.38417725061E+02  0.11508028786E+03 -0.17735792325E+02  0.12268424912E+03  0.41800000000E+01 0.  1.
         -5    1    4    4    0  501  0.14553713630E+02 -0.12322250233E+02 -0.51354254869E+02  0.54939788172E+02  0.41800000000E+01 0.  1.
</event>
<event>
11    1  0.6763327E-009  0.1605552E+03  0.7561462E-02  0.1086556E+00
         22   -1    0    0    0    0  0.00000000000E+00  0.00000000000E+00  0.13122822662E+04  0.13122822662E+04  0.00000000000E+00 0.  1.
         22   -1    0    0    0    0 -0.00000000000E+00 -0.00000000000E+00 -0.30445760104E+04  0.30445760104E+04  0.00000000000E+00 0.  1.
        -24    2    1    2    0    0 -0.27040290670E+02 -0.74529767679E+02 -0.26380051248E+04  0.26402328230E+04  0.73976062736E+02 0.  0.
         25    2    1    2    0    0 -0.61833946306E+02  0.26310898401E+02 -0.38975652122E+03  0.41481745533E+03  0.12509066762E+03 0.  0.
         24    2    1    2    0    0  0.88874236976E+02  0.48218869278E+02  0.12954679018E+04  0.13018079983E+04  0.79014494164E+02 0.  0.
        -13    1    5    5    0    0  0.10350553345E+03  0.40247012895E+02  0.10791204444E+04  0.10848198703E+04  0.00000000000E+00 0.  1.
         14    1    5    5    0    0 -0.14631296469E+02  0.79718563826E+01  0.21634745745E+03  0.21698812796E+03  0.00000000000E+00 0. -1.
         13    1    3    3    0    0  0.25135669502E+02 -0.17571137675E+02 -0.63818746508E+03  0.63892392923E+03  0.00000000000E+00 0. -1.
        -14    1    3    3    0    0 -0.52175960172E+02 -0.56958630004E+02 -0.19998176597E+04  0.20013088938E+04  0.00000000000E+00 0.  1.
          5    1    4    4  501    0 -0.55545083687E+02  0.18542649268E+02 -0.39730140356E+03  0.40161544272E+03  0.41800000000E+01 0.  1.
         -5    1    4    4    0  501 -0.62888626188E+01  0.77682491325E+01  0.75448823357E+01  0.13202012615E+02  0.41800000000E+01 0.  1.
</event>
<event>
11    1  0.6763327E-009  0.1459665E+03  0.7561462E-02  0.1101073E+00
         22   -1    0    0    0    0  0.00000000000E+00  0.00000000000E+00  0.31250751649E+03  0.31250751649E+03  0.00000000000E+00 0. -1.
         22   -1    0    0    0    0 -0.00000000000E+00 -0.00000000000E+00 -0.37672258570E+03  0.37672258570E+03  0.00000000000E+00 0. -1.
        -24    2    1    2    0    0 -0.15214579598E+01  0.50119682985E+02 -0.31429918928E+03  0.32809615936E+03  0.79679432401E+02 0.  0.
         25    2    1    2    0    0  0.42034548028E+02 -0.94300864356E+02  0.15508397252E+03  0.22440607822E+03  0.12508994030E+03 0.  0.
         24    2    1    2    0    0 -0.40513090068E+02  0.44181181371E+02  0.95000147545E+02  0.13672786461E+03  0.77949943374E+02 0.  0.
        -11    1    5    5    0    0  0.52050577891E+01 -0.19360777160E+02  0.18792675183E+02  0.27479027627E+02  0.00000000000E+00 0.  1.
         12    1    5    5    0    0 -0.45718147857E+02  0.63541958530E+02  0.76207472363E+02  0.10924883698E+03  0.00000000000E+00 0. -1.
         13    1    3    3    0    0  0.15576759646E+02  0.67446034546E+02 -0.21561495940E+03  0.22645399916E+03  0.00000000000E+00 0. -1.
        -14    1    3    3    0    0 -0.17098217606E+02 -0.17326351561E+02 -0.98684229879E+02  0.10164216020E+03  0.00000000000E+00 0.  1.
          5    1    4    4  501    0  0.16684662589E+01 -0.10224709335E+03  0.15159150650E+03  0.18290628507E+03  0.41800000000E+01 0. -1.
         -5    1    4    4    0  501  0.40366081769E+02  0.79462289902E+01  0.34924660233E+01  0.41499793149E+02  0.41800000000E+01 0. -1.
</event>
<event>
11    1  0.6763327E-009  0.1356426E+03  0.7561462E-02  0.1112524E+00
         22   -1    0    0    0    0  0.00000000000E+00  0.00000000000E+00  0.22709397048E+04  0.22709397048E+04  0.00000000000E+00 0. -1.
         22   -1    0    0    0    0 -0.00000000000E+00 -0.00000000000E+00 -0.34442892220E+03  0.34442892220E+03  0.00000000000E+00 0.  1.
         24    2    1    2    0    0 -0.21790978764E+02  0.30425875507E+02 -0.31495995256E+03  0.32805158021E+03  0.83770441733E+02 0.  0.
         25    2    1    2    0    0 -0.17402408029E+02  0.70428495439E+01  0.16148033910E+03  0.20512349222E+03  0.12508917463E+03 0.  0.
        -24    2    1    2    0    0  0.39193386793E+02 -0.37468725051E+02  0.20799903960E+04  0.20821935546E+04  0.78929868114E+02 0.  0.
        -13    1    3    3    0    0 -0.36321993933E+02 -0.84610211491E+01 -0.23516581944E+03  0.23810468025E+03  0.00000000000E+00 0.  1.
         14    1    3    3    0    0  0.14531015169E+02  0.38886896656E+02 -0.79794133119E+02  0.89946899967E+02  0.00000000000E+00 0. -1.
         11    1    5    5    0    0  0.50356300498E+01 -0.55863874461E+02  0.13640923579E+04  0.13652450663E+04  0.00000000000E+00 0. -1.
        -12    1    5    5    0    0  0.34157756744E+02  0.18395149409E+02  0.71589803812E+03  0.71694848829E+03  0.00000000000E+00 0.  1.
          5    1    4    4  501    0 -0.40375066035E+02 -0.49445108703E+02  0.97720527660E+02  0.11679785383E+03  0.41800000000E+01 0.  1.
         -5    1    4    4    0  501  0.22972658006E+02  0.56487958246E+02  0.63759811442E+02  0.88325638395E+02  0.41800000000E+01 0.  1.
</event>
<event>
11    1  0.6763327E-009  0.1564401E+03  0.7561462E-02  0.1090474E+00
         22   -1    0    0    0    0  0.00000000000E+00  0.00000000000E+00  0.25455132676E+03  0.25455132676E+03  0.00000000000E+00 0. -1.
         22   -1    0    0    0    0 -0.00000000000E+00 -0.00000000000E+00 -0.27960840720E+03  0.27960840720E+03  0.00000000000E+00 0.  1.
         24    2    1    2    0    0  0.50704119124E+01 -0.56623742832E+02 -0.97697628720E+02  0.13843541379E+03  0.79922336085E+02 0.  0.
         25    2    1    2    0    0 -0.74705507939E+02  0.11203657705E+03 -0.82090229646E+02  0.20129361577E+03  0.12508879419E+03 0.  0.
        -24    2    1    2    0    0  0.69635096027E+02 -0.55412834220E+02  0.15473077793E+03  0.19443070441E+03  0.77084735082E+02 0.  0.
        -13    1    3    3    0    0 -0.29202276474E+02 -0.56724249058E+02 -0.64320283112E+02  0.90595321082E+02  0.00000000000E+00 0.  1.
         14    1    3    3    0    0  0.34272688386E+02  0.10050622582E+00 -0.33377345608E+02  0.47840092711E+02  0.00000000000E+00 0. -1.
         13    1    5    5    0    0  0.61032590551E+02 -0.73678724897E+02  0.11292942824E+03  0.14800874087E+03  0.00000000000E+00 0. -1.
        -14    1    5    5    0    0  0.86025054758E+01  0.18265890677E+02  0.41801349687E+02  0.46421963534E+02  0.00000000000E+00 0.  1.
          5    1    4    4  501    0 -0.50678071708E+02  0.93858332384E+02  0.71743490517E+01  0.10698877135E+03  0.41800000000E+01 0. -1.
         -5    1    4    4    0  501 -0.24027436231E+02  0.18178244668E+02 -0.89264578698E+02  0.94304844420E+02  0.41800000000E+01 0. -1.
</event>
<event>
11    1  0.6763327E-009  0.1366699E+03  0.7561462E-02  0.1111335E+00
         22   -1    0    0    0    0  0.00000000000E+00  0.00000000000E+00  0.10291999480E+03  0.10291999480E+03  0.00000000000E+00 0. -1.
         22   -1    0    0    0    0 -0.00000000000E+00 -0.00000000000E+00 -0.22556035256E+04  0.22556035256E+04  0.00000000000E+00 0. -1.
         24    2    1    2    0    0 -0.55123006400E+01  0.54555539893E+02 -0.20117210047E+04  0.20140128093E+04  0.78863822522E+02 0.  0.
         25    2    1    2    0    0  0.33848646793E+02 -0.56220129371E+02 -0.19658019734E+03  0.24206739758E+03  0.12508563927E+03 0.  0.
        -24    2    1    2    0    0 -0.28336346153E+02  0.16645894780E+01  0.55617671317E+02  0.10244331354E+03  0.81213224011E+02 0.  0.
        -13    1    3    3    0    0 -0.37589346714E+02  0.63307970150E+01 -0.81640226896E+03  0.81729168768E+03  0.00000000000E+00 0.  1.
         14    1    3    3    0    0  0.32077046074E+02  0.48224742878E+02 -0.11953187358E+04  0.11967211216E+04  0.00000000000E+00 0. -1.
         11    1    5    5    0    0  0.48261920042E+01  0.34337992285E+02  0.40893650089E+02  0.53616046675E+02  0.00000000000E+00 0. -1.
        -12    1    5    5    0    0 -0.33162538158E+02 -0.32673402807E+02  0.14724021228E+02  0.48827266862E+02  0.00000000000E+00 0.  1.
          5    1    4    4  501    0 -0.11788740814E+02  0.28172308657E+02 -0.10316377568E+02  0.32504667837E+02  0.41800000000E+01 0.  1.
         -5    1    4    4    0  501  0.45637387608E+02 -0.84392438028E+02 -0.18626381977E+03  0.20956272975E+03  0.41800000000E+01 0.  1.
</event>
<event>
11    1  0.6763327E-009  0.1393944E+03  0.7561462E-02  0.1108237E+00
         22   -1    0    0    0    0  0.00000000000E+00  0.00000000000E+00  0.18327538891E+04  0.18327538891E+04  0.00000000000E+00 0.  1.
         22   -1    0    0    0    0 -0.00000000000E+00 -0.00000000000E+00 -0.96905839631E+02  0.96905839631E+02  0.00000000000E+00 0. -1.
        -24    2    1    2    0    0  0.49964027121E+01  0.11693889341E+02 -0.62055361247E+02  0.10713840751E+03  0.86406362123E+02 0.  0.
         25    2    1    2    0    0 -0.63978215463E+02 -0.24166251688E+02  0.48382386391E+03  0.50439048606E+03  0.12508801448E+03 0.  0.
         24    2    1    2    0    0  0.58981812751E+02  0.12472362346E+02  0.13140795468E+04  0.13181308352E+04  0.83841691385E+02 0.  0.
        -13    1    5    5    0    0  0.42978487960E+02  0.37731754732E+02  0.11450052616E+04  0.11464326778E+04  0.00000000000E+00 0.  1.
         14    1    5    5    0    0  0.16003324791E+02 -0.25259392386E+02  0.16907428526E+03  0.17169815737E+03  0.00000000000E+00 0. -1.
         13    1    3    3    0    0  0.35511841965E+02 -0.13353413506E+02 -0.57514772644E+01  0.38372960047E+02  0.00000000000E+00 0. -1.
        -14    1    3    3    0    0 -0.30515439253E+02  0.25047302847E+02 -0.56303883982E+02  0.68765447459E+02  0.00000000000E+00 0.  1.
          5    1    4    4  501    0 -0.44202035873E+02  0.36127084161E+02  0.99073427975E+02  0.11442028979E+03  0.41800000000E+01 0. -1.
         -5    1    4    4    0  501 -0.19776179590E+02 -0.60293335849E+02  0.38475043593E+03  0.38997019627E+03  0.41800000000E+01 0. -1.
</event>
<event>
11    1  0.6763327E-009  0.1430489E+03  0.7561462E-02  0.1104201E+00
         22   -1    0    0    0    0  0.00000000000E+00  0.00000000000E+00  0.30879354611E+03  0.30879354611E+03  0.00000000000E+00 0. -1.
         22   -1    0    0    0    0 -0.00000000000E+00 -0.00000000000E+00 -0.21721829313E+03  0.21721829313E+03  0.00000000000E+00 0.  1.
         24    2    1    2    0    0  0.87780602028E+02 -0.78023745841E+01 -0.10450364526E+03  0.15943945046E+03  0.82058609223E+02 0.  0.
         25    2    1    2    0    0 -0.25268514859E+02 -0.41461085658E+02 -0.65412711407E+01  0.13436726129E+03  0.12511695813E+03 0.  0.
        -24    2    1    2    0    0 -0.62512087169E+02  0.49263460242E+02  0.20262016938E+03  0.23220512749E+03  0.80806179453E+02 0.  0.
        -11    1    3    3    0    0 -0.64200904629E+01 -0.90806437991E+01 -0.48677347727E+02  0.49931551499E+02  0.00000000000E+00 0.  1.
         12    1    3    3    0    0  0.94200692491E+02  0.12782692150E+01 -0.55826297536E+02  0.10950789896E+03  0.00000000000E+00 0. -1.
         11    1    5    5    0    0 -0.25658851512E+02  0.59015055227E+02  0.17089426943E+03  0.18260888459E+03  0.00000000000E+00 0. -1.
        -12    1    5    5    0    0 -0.36853235657E+02 -0.97515949850E+01  0.31725899943E+02  0.49596242906E+02  0.00000000000E+00 0.  1.
          5    1    4    4  501    0 -0.25111641621E+02 -0.66167562798E+02  0.40078280429E+02  0.81440050796E+02  0.41800000000E+01 0. -1.
         -5    1    4    4    0  501 -0.15687323781E+00  0.24706477140E+02 -0.46619551569E+02  0.52927210492E+02  0.41800000000E+01 0. -1.
</event>
<event>
11    1  0.1804272E-008  0.1925985E+03  0.7561462E-02  0.1059885E+00
         22   -1    0    0    0    0  0.00000000000E+00  0.00000000000E+00  0.24859124002E+04  0.24859124002E+04  0.00000000000E+00 0. -1.
         22   -1    0    0    0    0 -0.00000000000E+00 -0.00000000000E+00 -0.30421324314E+03  0.30421324314E+03  0.00000000000E+00 0.  1.
         24    2    1    2    0    0  0.28755712460E+02 -0.82274906431E+02 -0.19260721428E+03  0.22603064944E+03  0.79976648247E+02 0.  0.
         25    2    1    2    0    0  0.92970383413E+02  0.16243768182E+03  0.45968328549E+02  0.22976145392E+03  0.12509095016E+03 0.  0.
        -24    2    1    2    0    0 -0.12172609587E+03 -0.80162775388E+02  0.23283380428E+04  0.23343335400E+04  0.81925096218E+02 0.  0.
        -13    1    3    3    0    0 -0.12507470953E+02 -0.48566739543E+02 -0.14889088574E+03  0.15711034618E+03  0.00000000000E+00 0.  1.
         14    1    3    3    0    0  0.41263183413E+02 -0.33708166888E+02 -0.43716328540E+02  0.68920303259E+02  0.00000000000E+00 0. -1.
         11    1    5    5    0    0 -0.60893402255E+02 -0.86711223893E+02  0.15050804668E+04  0.15088055058E+04  0.00000000000E+00 0. -1.
        -12    1    5    5    0    0 -0.60832693618E+02  0.65484485052E+01  0.82325757601E+03  0.82552803420E+03  0.00000000000E+00 0.  1.
          5    1    4    4  501    0  0.49676165117E+02  0.99882958587E+02  0.88542036560E+02  0.14248330230E+03  0.41800000000E+01 0.  1.
         -5    1    4    4    0  501  0.43294218296E+02  0.62554723233E+02 -0.42573708012E+02  0.87278151621E+02  0.41800000000E+01 0.  1.
</event>
<event>
11    1  0.6763327E-009  0.1493838E+03  0.7561462E-02  0.1097510E+00
         22   -1    0    0    0    0  0.00000000000E+00  0.00000000000E+00  0.57188032819E+03  0.57188032819E+03  0.00000000000E+00 0.  1.
         22   -1    0    0    0    0 -0.00000000000E+00 -0.00000000000E+00 -0.97462568882E+02  0.97462568882E+02  0.00000000000E+00 0.  1.
        -24    2    1    2    0    0  0.88140511982E+02 -0.47769919022E+02  0.70025627099E+00  0.13054321264E+03  0.83608163426E+02 0.  0.
         25    2    1    2    0    0 -0.32785002295E+02  0.73516717313E+01  0.14944668189E+03  0.19776375322E+03  0.12508911986E+03 0.  0.
         24    2    1    2    0    0 -0.55355509687E+02  0.40418247291E+02  0.32427082115E+03  0.34103593121E+03  0.80349696710E+02 0.  0.
        -11    1    5    5    0    0 -0.30235365494E+02  0.23399288196E+02  0.29932109095E+03  0.30175291134E+03  0.00000000000E+00 0.  1.
         12    1    5    5    0    0 -0.25120144194E+02  0.17018959095E+02  0.24949730192E+02  0.39283019864E+02  0.00000000000E+00 0. -1.
         13    1    3    3    0    0  0.12299427541E+02 -0.35310948272E+02  0.30356145923E+02  0.48162584866E+02  0.00000000000E+00 0. -1.
        -14    1    3    3    0    0  0.75841084441E+02 -0.12458970751E+02 -0.29655889652E+02  0.82380627774E+02  0.00000000000E+00 0.  1.
          5    1    4    4  501    0  0.35625782080E+02  0.39150782538E+02  0.50595406064E+02  0.73344036137E+02  0.41800000000E+01 0. -1.
         -5    1    4    4    0  501 -0.68410784375E+02 -0.31799110807E+02  0.98851275822E+02  0.12441971708E+03  0.41800000000E+01 0. -1.
</event>
<event>
11    1  0.6763327E-009  0.2227035E+03  0.7561462E-02  0.1039537E+00
         22   -1    0    0    0    0  0.00000000000E+00  0.00000000000E+00  0.30446927341E+03  0.30446927341E+03  0.00000000000E+00 0.  1.
         22   -1    0    0    0    0 -0.00000000000E+00 -0.00000000000E+00 -0.71103481211E+03  0.71103481211E+03  0.00000000000E+00 0. -1.
         24    2    1    2    0    0 -0.81875974193E+02  0.43611644547E+02 -0.49185632381E+03  0.50769055207E+03  0.84978836789E+02 0.  0.
         25    2    1    2    0    0  0.24284955930E+03  0.74948008410E+01 -0.48859150376E+02  0.27761127205E+03  0.12509484921E+03 0.  0.
        -24    2    1    2    0    0 -0.16097358511E+03 -0.51106445388E+02  0.13414993548E+03  0.23020226140E+03  0.80451924155E+02 0.  0.
        -11    1    3    3    0    0 -0.30369385253E+02  0.27127595084E+02 -0.60318228949E+02  0.72777020544E+02  0.00000000000E+00 0.  1.
         12    1    3    3    0    0 -0.51506588939E+02  0.16484049464E+02 -0.43153809486E+03  0.43491353153E+03  0.00000000000E+00 0. -1.
         11    1    5    5    0    0 -0.26422494059E+01  0.10005055030E+02  0.28423251416E+02  0.30248369032E+02  0.00000000000E+00 0. -1.
        -12    1    5    5    0    0 -0.15833133570E+03 -0.61111500418E+02  0.10572668407E+03  0.19995389237E+03  0.00000000000E+00 0.  1.
          5    1    4    4  501    0  0.19529976162E+03  0.24704298019E+02 -0.85866355911E+02  0.21480875845E+03  0.41800000000E+01 0.  1.
         -5    1    4    4    0  501  0.47549797683E+02 -0.17209497178E+02  0.37007205534E+02  0.62802513599E+02  0.41800000000E+01 0.  1.
</event>
<event>
11    1  0.6763327E-009  0.1357620E+03  0.7561462E-02  0.1112385E+00
         22   -1    0    0    0    0  0.00000000000E+00  0.00000000000E+00  0.66236914777E+03  0.66236914777E+03  0.00000000000E+00 0. -1.
         22   -1    0    0    0    0 -0.00000000000E+00 -0.00000000000E+00 -0.14105112125E+03  0.14105112125E+03  0.00000000000E+00 0. -1.
        -24    2    1    2    0    0  0.20815463358E+02  0.48762972663E+02 -0.93942380652E+02  0.13593577227E+03  0.82717907873E+02 0.  0.
         25    2    1    2    0    0  0.31460195960E+02 -0.65010387277E+02  0.24139274690E+03  0.28130801824E+03  0.12509056114E+03 0.  0.
         24    2    1    2    0    0 -0.52275659318E+02  0.16247414614E+02  0.37386766028E+03  0.38617647851E+03  0.79740341798E+02 0.  0.
        -13    1    5    5    0    0 -0.35920163961E+01 -0.29361339166E+02  0.13232699486E+03  0.13559286260E+03  0.00000000000E+00 0.  1.
         14    1    5    5    0    0 -0.48683642922E+02  0.45608753780E+02  0.24154066542E+03  0.25058361591E+03  0.00000000000E+00 0. -1.
         13    1    3    3    0    0 -0.38971502647E+01  0.65470119630E+02 -0.78670523530E+02  0.10242351106E+03  0.00000000000E+00 0. -1.
        -14    1    3    3    0    0  0.24712613623E+02 -0.16707146967E+02 -0.15271857122E+02  0.33512261216E+02  0.00000000000E+00 0.  1.
          5    1    4    4  501    0 -0.34078726270E+02 -0.50312655714E+02  0.51237564823E+02  0.79595749624E+02  0.41800000000E+01 0.  1.
         -5    1    4    4    0  501  0.65538922230E+02 -0.14697731563E+02  0.19015518207E+03  0.20171226861E+03  0.41800000000E+01 0.  1.
</event>
<event>
11    1  0.6763327E-009  0.1712311E+03  0.7561462E-02  0.1076965E+00
         22   -1    0    0    0    0  0.00000000000E+00  0.00000000000E+00  0.13800996052E+04  0.13800996052E+04  0.00000000000E+00 0.  1.
         22   -1    0    0    0    0 -0.00000000000E+00 -0.00000000000E+00 -0.27454102336E+03  0.27454102336E+03  0.00000000000E+00 0.  1.
        -24    2    1    2    0    0 -0.85299491060E+01 -0.10175753528E+03 -0.22341109316E+03  0.25693281338E+03  0.75329927809E+02 0.  0.
         25    2    1    2    0    0  0.84126755481E+02  0.17563676866E+03  0.42387586386E+03  0.48295202969E+03  0.12508528898E+03 0.  0.
         24    2    1    2    0    0 -0.75596806375E+02 -0.73879233384E+02  0.90509381115E+03  0.91475578551E+03  0.80064485743E+02 0.  0.
        -13    1    5    5    0    0 -0.70225250101E+02 -0.41876530001E+02  0.38179789454E+03  0.39045468597E+03  0.00000000000E+00 0.  1.
         14    1    5    5    0    0 -0.53715562735E+01 -0.32002703383E+02  0.52329591661E+03  0.52430109954E+03  0.00000000000E+00 0. -1.
         11    1    3    3    0    0 -0.16576708179E+02 -0.68626233291E+02 -0.68698573645E+02  0.98508076677E+02  0.00000000000E+00 0. -1.
        -12    1    3    3    0    0  0.80467590729E+01 -0.33131301990E+02 -0.15471251952E+03  0.15842473670E+03  0.00000000000E+00 0.  1.
          5    1    4    4  501    0  0.10322173074E+03  0.14738142444E+03  0.26458521640E+03  0.31999815485E+03  0.41800000000E+01 0. -1.
         -5    1    4    4    0  501 -0.19094975259E+02  0.28255344227E+02  0.15929064746E+03  0.16295387484E+03  0.41800000000E+01 0. -1.
</event>
<event>
11    1  0.7990068E-009  0.1514169E+03  0.7561462E-02  0.1095440E+00
         22   -1    0    0    0    0  0.00000000000E+00  0.00000000000E+00  0.28990085138E+03  0.28990085138E+03  0.00000000000E+00 0.  1.
         22   -1    0    0    0    0 -0.00000000000E+00 -0.00000000000E+00 -0.14631861162E+04  0.14631861162E+04  0.00000000000E+00 0. -1.
         24    2    1    2    0    0  0.13784880065E+02 -0.39748254319E+02 -0.10278440567E+04  0.10316755669E+04  0.78237611180E+02 0.  0.
         25    2    1    2    0    0  0.45942560713E+02  0.99849305329E+02 -0.40413469801E+03  0.43710291784E+03  0.12511396401E+03 0.  0.
        -24    2    1    2    0    0 -0.59727440779E+02 -0.60101051010E+02  0.25869348990E+03  0.28430848284E+03  0.82033457710E+02 0.  0.
        -11    1    3    3    0    0  0.29547630086E+02  0.13966401327E+02 -0.34862904649E+03  0.35015758576E+03  0.00000000000E+00 0.  1.
         12    1    3    3    0    0 -0.15762750021E+02 -0.53714655645E+02 -0.67921501024E+03  0.68151798117E+03  0.00000000000E+00 0. -1.
         13    1    5    5    0    0 -0.30328799746E+02 -0.67398454816E+02  0.10974772772E+03  0.13231383732E+03  0.00000000000E+00 0. -1.
        -14    1    5    5    0    0 -0.29398641032E+02  0.72974038052E+01  0.14894576218E+03  0.15199464552E+03  0.00000000000E+00 0.  1.
          5    1    4    4  501    0  0.45781373223E+02 -0.40899215940E+01 -0.22732281249E+03  0.23196076192E+03  0.41800000000E+01 0. -1.
         -5    1    4    4    0  501  0.16118748971E+00  0.10393922692E+03 -0.17681188552E+03  0.20514215592E+03  0.41800000000E+01 0. -1.
</event>
<event>
11    1  0.6763327E-009  0.1312471E+03  0.7561462E-02  0.1117746E+00
         22   -1    0    0    0    0  0.00000000000E+00  0.00000000000E+00  0.37227069351E+03  0.37227069351E+03  0.00000000000E+00 0. -1.
         22   -1    0    0    0    0 -0.00000000000E+00 -0.00000000000E+00 -0.30221953436E+03  0.30221953436E+03  0.00000000000E+00 0.  1.
        -24    2    1    2    0    0 -0.26572632993E+02  0.13104439377E+02 -0.15036446798E+03  0.16860566902E+03  0.70289168726E+02 0.  0.
         25    2    1    2    0    0  0.59431866764E+02 -0.33088014802E+02 -0.99466951178E+02  0.17368883478E+03  0.12508866231E+03 0.  0.
         24    2    1    2    0    0 -0.32859233771E+02  0.19983575425E+02  0.31988257832E+03  0.33219572407E+03  0.80932457324E+02 0.  0.
        -13    1    5    5    0    0 -0.27322471979E+02 -0.53857500623E+01  0.29181085097E+02  0.40336825683E+02  0.00000000000E+00 0.  1.
         14    1    5    5    0    0 -0.55367617920E+01  0.25369325487E+02  0.29070149322E+03  0.29185889838E+03  0.00000000000E+00 0. -1.
         11    1    3    3    0    0 -0.14339249353E+02 -0.89406415704E+01 -0.78510932284E+00  0.16916428120E+02  0.00000000000E+00 0. -1.
        -12    1    3    3    0    0 -0.12233383640E+02  0.22045080947E+02 -0.14957935866E+03  0.15168924090E+03  0.00000000000E+00 0.  1.
          5    1    4    4  501    0 -0.32917708423E+02  0.16667077813E+02 -0.30790421954E+02  0.48237842974E+02  0.41800000000E+01 0.  1.
         -5    1    4    4    0  501  0.92349575187E+02 -0.49755092615E+02 -0.68676529224E+02  0.12545099180E+03  0.41800000000E+01 0.  1.
</event>
<event>
11    1  0.6763327E-009  0.1589063E+03  0.7561462E-02  0.1088110E+00
         22   -1    0    0    0    0  0.00000000000E+00  0.00000000000E+00  0.60987212113E+03  0.60987212113E+03  0.00000000000E+00 0. -1.
         22   -1    0    0    0    0 -0.00000000000E+00 -0.00000000000E+00 -0.46301466621E+03  0.46301466621E+03  0.00000000000E+00 0.  1.
         24    2    1    2    0    0  0.82460016855E+02 -0.37303635850E+02 -0.25879934629E+03  0.28550341365E+03  0.79648489864E+02 0.  0.
         25    2    1    2    0    0 -0.89691580436E+02  0.91675038965E+02 -0.14354322060E+03  0.22956756557E+03  0.12509084144E+03 0.  0.
        -24    2    1    2    0    0  0.72315635809E+01 -0.54371403115E+02  0.54920002181E+03  0.55781580812E+03  0.80803878938E+02 0.  0.
        -13    1    3    3    0    0  0.50280550141E+02 -0.54402657876E+02 -0.22061976291E+03  0.23272486479E+03  0.00000000000E+00 0.  1.
         14    1    3    3    0    0  0.32179466715E+02  0.17099022026E+02 -0.38179583380E+02  0.52778548856E+02  0.00000000000E+00 0. -1.
         13    1    5    5    0    0  0.68613462492E+00 -0.57041352596E+02  0.54760601605E+03  0.55056928311E+03  0.00000000000E+00 0. -1.
        -14    1    5    5    0    0  0.65454289560E+01  0.26699494818E+01  0.15940057558E+01  0.72465250157E+01  0.00000000000E+00 0.  1.
          5    1    4    4  501    0 -0.17134232562E+02  0.47243081925E+02 -0.13481542336E+03  0.14393804740E+03  0.41800000000E+01 0.  1.
         -5    1    4    4    0  501 -0.72557347874E+02  0.44431957040E+02 -0.87277972400E+01  0.85629518167E+02  0.41800000000E+01 0.  1.
</event>
<event>
11    1  0.6763327E-009  0.2346134E+03  0.7561462E-02  0.1032431E+00
         22   -1    0    0    0    0  0.00000000000E+00  0.00000000000E+00  0.33206567282E+03  0.33206567282E+03  0.00000000000E+00 0.  1.
         22   -1    0    0    0    0 -0.00000000000E+00 -0.00000000000E+00 -0.14999611786E+04  0.14999611786E+04  0.00000000000E+00 0. -1.
        -24    2    1    2    0    0 -0.13920557986E+02  0.31567121242E+02 -0.11561821492E+04  0.11594203990E+04  0.79424394206E+02 0.  0.
         25    2    1    2    0    0 -0.10719409900E+03 -0.18635717685E+03 -0.25078240309E+03  0.35321156898E+03  0.12508807512E+03 0.  0.
         24    2    1    2    0    0  0.12111465699E+03  0.15479005561E+03  0.23906904651E+03  0.31939488345E+03  0.78932636636E+02 0.  0.
        -13    1    5    5    0    0  0.10719349383E+03  0.14879811901E+03  0.17475519991E+03  0.25331937399E+03  0.00000000000E+00 0.  1.
         14    1    5    5    0    0  0.13921163158E+02  0.59919366016E+01  0.64313846594E+02  0.66075509469E+02  0.00000000000E+00 0. -1.
         11    1    3    3    0    0 -0.41043198291E+02  0.14467630347E+02 -0.36441080469E+03  0.36700012402E+03  0.00000000000E+00 0. -1.
        -12    1    3    3    0    0  0.27122640305E+02  0.17099490895E+02 -0.79177134452E+03  0.79242027498E+03  0.00000000000E+00 0.  1.
          5    1    4    4  501    0 -0.12907282477E+03 -0.14927409893E+03 -0.16550089582E+03  0.25758604315E+03  0.41800000000E+01 0.  1.
         -5    1    4    4    0  501  0.21878725765E+02 -0.37083077917E+02 -0.85281507269E+02  0.95625525834E+02  0.41800000000E+01 0.  1.
</event>
<event>
11    1  0.6763327E-009  0.2215987E+03  0.7561462E-02  0.1040221E+00
         22   -1    0    0    0    0  0.00000000000E+00  0.00000000000E+00  0.60873574566E+03  0.60873574566E+03  0.00000000000E+00 0.  1.
         22   -1    0    0    0    0 -0.00000000000E+00 -0.00000000000E+00 -0.65272819477E+03  0.65272819477E+03  0.00000000000E+00 0.  1.
        -24    2    1    2    0    0  0.86769237690E+02  0.17162170888E+03 -0.48454787687E+03  0.52692393091E+03  0.76676413683E+02 0.  0.
         25    2    1    2    0    0 -0.84157398383E+02 -0.12816365396E+03 -0.74378748353E+02  0.21139670600E+03  0.12509188303E+03 0.  0.
         24    2    1    2    0    0 -0.26118393076E+01 -0.43458054916E+02  0.51493417611E+03  0.52314330352E+03  0.81402002717E+02 0.  0.
        -11    1    5    5    0    0 -0.79222367070E+01 -0.64355362838E+02  0.45179132399E+03  0.45642061193E+03  0.00000000000E+00 0.  1.
         12    1    5    5    0    0  0.53103973994E+01  0.20897307922E+02  0.63142852121E+02  0.66722691589E+02  0.00000000000E+00 0. -1.
         13    1    3    3    0    0  0.28745125451E+01  0.14165518770E+01 -0.80197251720E+02  0.80261252326E+02  0.00000000000E+00 0. -1.
        -14    1    3    3    0    0  0.83894725145E+02  0.17020515700E+03 -0.40435062515E+03  0.44666267858E+03  0.00000000000E+00 0.  1.
          5    1    4    4  501    0 -0.70393131592E+02 -0.87193471381E+02  0.13918224824E+02  0.11300037084E+03  0.41800000000E+01 0.  1.
         -5    1    4    4    0  501 -0.13764266790E+02 -0.40970182584E+02 -0.88296973177E+02  0.98396335163E+02  0.41800000000E+01 0.  1.
</event>
<event>
11    1  0.6763327E-009  0.2325264E+03  0.7561462E-02  0.1033643E+00
         22   -1    0    0    0    0  0.00000000000E+00  0.00000000000E+00  0.14735564546E+04  0.14735564546E+04  0.00000000000E+00 0.  1.
         22   -1    0    0    0    0 -0.00000000000E+00 -0.00000000000E+00 -0.32174319517E+03  0.32174319517E+03  0.00000000000E+00 0.  1.
         24    2    1    2    0    0 -0.19118134756E+03  0.55721666146E+02 -0.26472951087E+03  0.34188519198E+03  0.84549150442E+02 0.  0.
         25    2    1    2    0    0  0.97543456871E+02 -0.11257480809E+03  0.85548311760E+03  0.87731798684E+03  0.12509065565E+03 0.  0.
        -24    2    1    2    0    0  0.93637890688E+02  0.56853141941E+02  0.56105965271E+03  0.57609647096E+03  0.71406411738E+02 0.  0.
        -13    1    3    3    0    0 -0.10740204789E+03  0.41368145892E+02 -0.21375833386E+03  0.24277386325E+03  0.00000000000E+00 0.  1.
         14    1    3    3    0    0 -0.83779299672E+02  0.14353520254E+02 -0.50971177014E+02  0.99111328734E+02  0.00000000000E+00 0. -1.
         11    1    5    5    0    0  0.22985724953E+02  0.15993433513E+02  0.40868630015E+02  0.49541683323E+02  0.00000000000E+00 0. -1.
        -12    1    5    5    0    0  0.70652165735E+02  0.40859708429E+02  0.52019102269E+03  0.52655478764E+03  0.00000000000E+00 0.  1.
          5    1    4    4  501    0 -0.20977459695E+02 -0.59277859636E+02  0.33212764082E+03  0.33805348787E+03  0.41800000000E+01 0. -1.
         -5    1    4    4    0  501  0.11852091657E+03 -0.53296948451E+02  0.52335547678E+03  0.53926449897E+03  0.41800000000E+01 0. -1.
</event>
<event>
11    1  0.6763327E-009  0.1404429E+03  0.7561462E-02  0.1107065E+00
         22   -1    0    0    0    0  0.00000000000E+00  0.00000000000E+00  0.49331879504E+03  0.49331879504E+03  0.00000000000E+00 0. -1.
         22   -1    0    0    0    0 -0.00000000000E+00 -0.00000000000E+00 -0.13033969635E+04  0.13033969635E+04  0.00000000000E+00 0. -1.
        -24    2    1    2    0    0  0.65068777430E+02  0.57883565490E+01 -0.12295608840E+04  0.12338506671E+04  0.79372856981E+02 0.  0.
         25    2    1    2    0    0 -0.17697175735E+02 -0.28749367784E+02 -0.29552350402E+01  0.12959752283E+03  0.12508824218E+03 0.  0.
         24    2    1    2    0    0 -0.47371601695E+02  0.22961011235E+02  0.42243795059E+03  0.43326756858E+03  0.80595826173E+02 0.  0.
        -13    1    5    5    0    0 -0.61071177375E+02  0.43988122493E+01  0.18850587087E+03  0.19820065996E+03  0.00000000000E+00 0.  1.
         14    1    5    5    0    0  0.13699575680E+02  0.18562198985E+02  0.23393207972E+03  0.23506690862E+03  0.00000000000E+00 0. -1.
         11    1    3    3    0    0  0.35355670812E+02  0.25127595422E+02 -0.10459179785E+04  0.10468170028E+04  0.00000000000E+00 0. -1.
        -12    1    3    3    0    0  0.29713106618E+02 -0.19339238873E+02 -0.18364290546E+03  0.18703366433E+03  0.00000000000E+00 0.  1.
          5    1    4    4  501    0  0.53799048975E+02 -0.94958212793E+01  0.49638329834E+01  0.55014728304E+02  0.41800000000E+01 0. -1.
         -5    1    4    4    0  501 -0.71496224711E+02 -0.19253546504E+02 -0.79190680236E+01  0.74582794526E+02  0.41800000000E+01 0. -1.
</event>
<event>
11    1  0.6763327E-009  0.1326627E+03  0.7561462E-02  0.1116040E+00
         22   -1    0    0    0    0  0.00000000000E+00  0.00000000000E+00  0.28893548520E+04  0.28893548520E+04  0.00000000000E+00 0.  1.
         22   -1    0    0    0    0 -0.00000000000E+00 -0.00000000000E+00 -0.76623234925E+02  0.76623234925E+02  0.00000000000E+00 0. -1.
        -24    2    1    2    0    0 -0.42056607155E+02  0.18460094743E+02 -0.38557015578E+02  0.99512990207E+02  0.79414472650E+02 0.  0.
         25    2    1    2    0    0  0.87699207610E+01  0.18486745544E+02  0.60483417945E+03  0.61797284573E+03  0.12508949658E+03 0.  0.
         24    2    1    2    0    0  0.33286686394E+02 -0.36946840287E+02  0.22464544532E+04  0.22484922510E+04  0.81772366675E+02 0.  0.
        -11    1    5    5    0    0 -0.73093857401E+00 -0.48523690248E+02  0.17777986567E+04  0.17784608926E+04  0.00000000000E+00 0.  1.
         12    1    5    5    0    0  0.34017624968E+02  0.11576849961E+02  0.46865579655E+03  0.47003135843E+03  0.00000000000E+00 0. -1.
         13    1    3    3    0    0 -0.45989306537E+02  0.44183791611E+02 -0.36326271816E+02  0.73394971088E+02  0.00000000000E+00 0. -1.
        -14    1    3    3    0    0  0.39326993818E+01 -0.25723696868E+02 -0.22307437617E+01  0.26118019119E+02  0.00000000000E+00 0.  1.
          5    1    4    4  501    0  0.66549909772E+02  0.15415410223E+02  0.30606807116E+03  0.31362662825E+03  0.41800000000E+01 0.  1.
         -5    1    4    4    0  501 -0.57779989011E+02  0.30713353214E+01  0.29876610829E+03  0.30434621747E+03  0.41800000000E+01 0.  1.
</event>
<event>
11    1  0.6763327E-009  0.2377979E+03  0.7561462E-02  0.1030608E+00
         22   -1    0    0    0    0  0.00000000000E+00  0.00000000000E+00  0.68747025311E+03  0.68747025311E+03  0.00000000000E+00 0. -1.
         22   -1    0    0    0    0 -0.00000000000E+00 -0.00000000000E+00 -0.35572834542E+03  0.35572834542E+03  0.00000000000E+00 0.  1.
         24    2    1    2    0    0 -0.61822955157E+02  0.39961157952E+01 -0.26470645439E+03  0.28449458230E+03  0.83842791196E+02 0.  0.
         25    2    1    2    0    0  0.20795376220E+03 -0.11251479821E+03  0.30592870066E+03  0.40637953629E+03  0.12509040971E+03 0.  0.
        -24    2    1    2    0    0 -0.14613080705E+03  0.10851868241E+03  0.29051966142E+03  0.35232447993E+03  0.81242527573E+02 0.  0.
        -11    1    3    3    0    0 -0.68914420031E+02  0.17921030196E+02 -0.25772215718E+03  0.26737814217E+03  0.00000000000E+00 0.  1.
         12    1    3    3    0    0  0.70914648747E+01 -0.13924914401E+02 -0.69842972191E+01  0.17116440132E+02  0.00000000000E+00 0. -1.
         11    1    5    5    0    0 -0.12767498375E+03  0.63385173226E+02  0.16719908791E+03  0.21971371522E+03  0.00000000000E+00 0. -1.
        -12    1    5    5    0    0 -0.18455823300E+02  0.45133509184E+02  0.12332057352E+03  0.13261076471E+03  0.00000000000E+00 0.  1.
          5    1    4    4  501    0  0.86207174084E+02  0.13825110849E+02  0.13879990356E+03  0.16402955887E+03  0.41800000000E+01 0.  1.
         -5    1    4    4    0  501  0.12174658812E+03 -0.12633990905E+03  0.16712879709E+03  0.24234997742E+03  0.41800000000E+01 0.  1.
</event>
<event>
11    1  0.6763327E-009  0.1337973E+03  0.7561462E-02  0.1114689E+00
         22   -1    0    0    0    0  0.00000000000E+00  0.00000000000E+00  0.65976074996E+03  0.65976074996E+03  0.00000000000E+00 0. -1.
         22   -1    0    0    0    0 -0.00000000000E+00 -0.00000000000E+00 -0.98184790365E+02  0.98184790365E+02  0.00000000000E+00 0.  1.
        -24    2    1    2    0    0  0.95729609481E+00 -0.44890085948E+02 -0.22330106872E+02  0.95815258100E+02  0.81644925009E+02 0.  0.
         25    2    1    2    0    0 -0.17104947715E+02  0.55822504718E+02  0.96220013896E+02  0.16826940878E+03  0.12509025377E+03 0.  0.
         24    2    1    2    0    0  0.16147651620E+02 -0.10932418769E+02  0.48768605258E+03  0.49386087344E+03  0.75369834884E+02 0.  0.
        -13    1    5    5    0    0  0.39594433941E+02 -0.20405376178E+02  0.19217032881E+03  0.19726513593E+03  0.00000000000E+00 0.  1.
         14    1    5    5    0    0 -0.23446782321E+02  0.94729574088E+01  0.29551572376E+03  0.29659573752E+03  0.00000000000E+00 0. -1.
         13    1    3    3    0    0  0.11404036051E+02 -0.19960832793E+02  0.29476589690E+02  0.37381228227E+02  0.00000000000E+00 0. -1.
        -14    1    3    3    0    0 -0.10446739956E+02 -0.24929253155E+02 -0.51806696561E+02  0.58434029873E+02  0.00000000000E+00 0.  1.
          5    1    4    4  501    0  0.47048387301E+01 -0.35516377630E+02  0.54668601697E+02  0.65495625800E+02  0.41800000000E+01 0.  1.
         -5    1    4    4    0  501 -0.21809786445E+02  0.91338882348E+02  0.41551412198E+02  0.10277378298E+03  0.41800000000E+01 0.  1.
</event>
<event>
11    1  0.6763327E-009  0.1515353E+03  0.7561462E-02  0.1095320E+00
         22   -1    0    0    0    0  0.00000000000E+00  0.00000000000E+00  0.15094605966E+03  0.15094605966E+03  0.00000000000E+00 0.  1.
         22   -1    0    0    0    0 -0.00000000000E+00 -0.00000000000E+00 -0.42414637179E+04  0.42414637179E+04  0.00000000000E+00 0.  1.
        -24    2    1    2    0    0 -0.32363898246E+02  0.75662515854E+02 -0.35571012238E+04  0.35589465607E+04  0.79745013866E+02 0.  0.
         25    2    1    2    0    0  0.56229783194E+02 -0.11450951218E+03 -0.65611080767E+03  0.68000249552E+03  0.12509110709E+03 0.  0.
         24    2    1    2    0    0 -0.23865884949E+02  0.38846996326E+02  0.12269437319E+03  0.15346072138E+03  0.80110013145E+02 0.  0.
        -11    1    5    5    0    0 -0.49361633873E+02  0.18650786727E+02  0.45431736779E+02  0.69630923094E+02  0.00000000000E+00 0.  1.
         12    1    5    5    0    0  0.25495748925E+02  0.20196209598E+02  0.77262636415E+02  0.83829798289E+02  0.00000000000E+00 0. -1.
         11    1    3    3    0    0 -0.13277445272E+02 -0.12280955821E+02 -0.11865554627E+04  0.11866932959E+04  0.00000000000E+00 0. -1.
        -12    1    3    3    0    0 -0.19086452974E+02  0.87943471675E+02 -0.23705457611E+04  0.23722532648E+04  0.00000000000E+00 0.  1.
          5    1    4    4  501    0  0.41269172123E+02 -0.38702929177E+02 -0.76455518349E+02  0.95204936745E+02  0.41800000000E+01 0.  1.
         -5    1    4    4    0  501  0.14960611072E+02 -0.75806583003E+02 -0.57965528932E+03  0.58479755878E+03  0.41800000000E+01 0.  1.
</event>
<event>
11    1  0.6763327E-009  0.1266450E+03  0.7561462E-02  0.1123461E+00
         22   -1    0    0    0    0  0.00000000000E+00  0.00000000000E+00  0.25123728870E+03  0.25123728870E+03  0.00000000000E+00 0. -1.
         22   -1    0    0    0    0 -0.00000000000E+00 -0.00000000000E+00 -0.50844783197E+03  0.50844783197E+03  0.00000000000E+00 0. -1.
         24    2    1    2    0    0  0.17228538557E+02  0.61960356446E+01 -0.37026277642E+03  0.37916202758E+03  0.79587097948E+02 0.  0.
         25    2    1    2    0    0 -0.26293049445E+02 -0.17211702989E+02 -0.93068811225E+02  0.15905000370E+03  0.12509009907E+03 0.  0.
        -24    2    1    2    0    0  0.90645108880E+01  0.11015667344E+02  0.20612104438E+03  0.22147308939E+03  0.79755464417E+02 0.  0.
        -13    1    3    3    0    0  0.25188986817E+01 -0.32443140085E+02 -0.86785394342E+02  0.92685526703E+02  0.00000000000E+00 0.  1.
         14    1    3    3    0    0  0.14709639875E+02  0.38639175730E+02 -0.28347738208E+03  0.28647650088E+03  0.00000000000E+00 0. -1.
         11    1    5    5    0    0 -0.16615766742E+02  0.19254799210E+02  0.18623773056E+03  0.18796628230E+03  0.00000000000E+00 0. -1.
        -12    1    5    5    0    0  0.25680277630E+02 -0.82391318664E+01  0.19883313814E+02  0.33506807089E+02  0.00000000000E+00 0.  1.
          5    1    4    4  501    0 -0.22199830975E+02 -0.61643966187E+02 -0.93481249991E+02  0.11423234026E+03  0.41800000000E+01 0.  1.
         -5    1    4    4    0  501 -0.40932184696E+01  0.44432263198E+02  0.41243876584E+00  0.44817663439E+02  0.41800000000E+01 0.  1.
</event>
<event>
11    1  0.6763327E-009  0.1436121E+03  0.7561462E-02  0.1103591E+00
         22   -1    0    0    0    0  0.00000000000E+00  0.00000000000E+00  0.26790862485E+04  0.26790862485E+04  0.00000000000E+00 0. -1.
         22   -1    0    0    0    0 -0.00000000000E+00 -0.00000000000E+00 -0.59720903395E+02  0.59720903395E+02  0.00000000000E+00 0.  1.
         24    2    1    2    0    0 -0.66438326070E+02 -0.23452391642E+02  0.19926109255E+01  0.10545264298E+03  0.78436111383E+02 0.  0.
         25    2    1    2    0    0  0.81847808392E+02 -0.18146917891E+02  0.82300486347E+03  0.83666757118E+03  0.12508894831E+03 0.  0.
        -24    2    1    2    0    0 -0.15409482322E+02  0.41599309533E+02  0.17943678707E+04  0.17966869377E+04  0.79749245234E+02 0.  0.
        -13    1    3    3    0    0 -0.78322034503E+02 -0.37635861476E+02  0.61428777643E+00  0.86897505759E+02  0.00000000000E+00 0.  1.
         14    1    3    3    0    0  0.11883708433E+02  0.14183469834E+02  0.13783231490E+01  0.18555137223E+02  0.00000000000E+00 0. -1.
         11    1    5    5    0    0 -0.17882773767E+02  0.27168718296E+01  0.14514754624E+04  0.14515881623E+04  0.00000000000E+00 0. -1.
        -12    1    5    5    0    0  0.24732914454E+01  0.38882437703E+02  0.34289240833E+03  0.34509877546E+03  0.00000000000E+00 0.  1.
          5    1    4    4  501    0  0.55869114082E+02  0.43379190899E+01  0.11679296826E+03  0.12960804483E+03  0.41800000000E+01 0. -1.
         -5    1    4    4    0  501  0.25978694311E+02 -0.22484836980E+02  0.70621189521E+03  0.70705952634E+03  0.41800000000E+01 0. -1.
</event>
<event>
11    1  0.6763327E-009  0.1386743E+03  0.7561462E-02  0.1109048E+00
         22   -1    0    0    0    0  0.00000000000E+00  0.00000000000E+00  0.53411229728E+03  0.53411229728E+03  0.00000000000E+00 0.  1.
         22   -1    0    0    0    0 -0.00000000000E+00 -0.00000000000E+00 -0.23211046195E+04  0.23211046195E+04  0.00000000000E+00 0.  1.
        -24    2    1    2    0    0 -0.48978213876E+02  0.52366694848E+01 -0.22188240103E+04  0.22208517456E+04  0.81093766697E+02 0.  0.
         25    2    1    2    0    0  0.76669951384E+02  0.46767067533E+02 -0.34797507823E+02  0.15787442696E+03  0.12509207843E+03 0.  0.
         24    2    1    2    0    0 -0.27691737508E+02 -0.52003737018E+02  0.46662919586E+03  0.47649074428E+03  0.76350520392E+02 0.  0.
        -13    1    5    5    0    0  0.13971648815E+02 -0.38792331878E+02  0.34082851480E+03  0.34331345515E+03  0.00000000000E+00 0.  1.
         14    1    5    5    0    0 -0.41663386323E+02 -0.13211405141E+02  0.12580068106E+03  0.13317728914E+03  0.00000000000E+00 0. -1.
         11    1    3    3    0    0 -0.34663595152E+02 -0.10003364391E+02 -0.33953124011E+03  0.34144266743E+03  0.00000000000E+00 0. -1.
        -12    1    3    3    0    0 -0.14314618724E+02  0.15240033876E+02 -0.18792927702E+04  0.18794090781E+04  0.00000000000E+00 0.  1.
          5    1    4    4  501    0  0.33642012306E+02  0.83614624000E+02  0.19043210992E+01  0.90245715563E+02  0.41800000000E+01 0.  1.
         -5    1    4    4    0  501  0.43027939078E+02 -0.36847556467E+02 -0.36701828922E+02  0.67628711396E+02  0.41800000000E+01 0.  1.
</event>
<event>
11    1  0.6763327E-009  0.1421925E+03  0.7561462E-02  0.1105135E+00
         22   -1    0    0    0    0  0.00000000000E+00  0.00000000000E+00  0.19594205991E+03  0.19594205991E+03  0.00000000000E+00 0.  1.
         22   -1    0    0    0    0 -0.00000000000E+00 -0.00000000000E+00 -0.43847407411E+03  0.43847407411E+03  0.00000000000E+00 0.  1.
        -24    2    1    2    0    0 -0.61095987855E+02 -0.11410807038E+02 -0.34676023812E+03  0.36130517267E+03  0.80223679848E+02 0.  0.
         25    2    1    2    0    0 -0.31965454205E+02 -0.30761621025E+01  0.37980490311E+02  0.13461539479E+03  0.12509010286E+03 0.  0.
         24    2    1    2    0    0  0.93061442061E+02  0.14486969141E+02  0.66247733613E+02  0.13849556655E+03  0.76954242722E+02 0.  0.
        -11    1    5    5    0    0  0.92424426265E+02 -0.20031980281E+00  0.76987999289E+02  0.12028909648E+03  0.00000000000E+00 0.  1.
         12    1    5    5    0    0  0.63701579599E+00  0.14687288943E+02 -0.10740265676E+02  0.18206470070E+02  0.00000000000E+00 0. -1.
         11    1    3    3    0    0  0.14173756737E+02 -0.20776439162E+02 -0.10240711696E+03  0.10545033622E+03  0.00000000000E+00 0. -1.
        -12    1    3    3    0    0 -0.75269744592E+02  0.93656321240E+01 -0.24435312116E+03  0.25585483645E+03  0.00000000000E+00 0.  1.
          5    1    4    4  501    0 -0.64072044371E+02 -0.26214792288E+02 -0.12358403111E+02  0.70446041280E+02  0.41800000000E+01 0. -1.
         -5    1    4    4    0  501  0.32106590165E+02  0.23138630186E+02  0.50338893422E+02  0.64169353510E+02  0.41800000000E+01 0. -1.
</event>
<event>
11    1  0.6763327E-009  0.1366516E+03  0.7561462E-02  0.1111356E+00
         22   -1    0    0    0    0  0.00000000000E+00  0.00000000000E+00  0.96984060445E+03  0.96984060445E+03  0.00000000000E+00 0.  1.
         22   -1    0    0    0    0 -0.00000000000E+00 -0.00000000000E+00 -0.93700194780E+03  0.93700194780E+03  0.00000000000E+00 0.  1.
         24    2    1    2    0    0  0.43215913037E+02 -0.33699154713E+02 -0.90274788227E+03  0.90792413417E+03  0.79807557895E+02 0.  0.
         25    2    1    2    0    0 -0.42782254695E+02  0.57454402213E+02  0.14806166610E+03  0.20664316630E+03  0.12509121297E+03 0.  0.
        -24    2    1    2    0    0 -0.43365834146E+00 -0.23755247501E+02  0.78752487282E+03  0.79227525178E+03  0.83307559224E+02 0.  0.
        -11    1    3    3    0    0  0.24224400941E+02 -0.46897730755E+02 -0.82798419908E+03  0.82966502438E+03  0.00000000000E+00 0.  1.
         12    1    3    3    0    0  0.18991512095E+02  0.13198576042E+02 -0.74763683194E+02  0.78259109795E+02  0.00000000000E+00 0. -1.
         11    1    5    5    0    0  0.33164253879E+02 -0.36264014549E+02  0.37731069520E+03  0.38049744703E+03  0.00000000000E+00 0. -1.
        -12    1    5    5    0    0 -0.33597912220E+02  0.12508767048E+02  0.41021417763E+03  0.41177780475E+03  0.00000000000E+00 0.  1.
          5    1    4    4  501    0 -0.33981914026E+02 -0.22224527337E+02  0.30953813401E+01  0.40935972956E+02  0.41800000000E+01 0.  1.
         -5    1    4    4    0  501 -0.88003406687E+01  0.79678929550E+02  0.14496628476E+03  0.16570719335E+03  0.41800000000E+01 0.  1.
</event>
<event>
11    1  0.6763327E-009  0.1436358E+03  0.7561462E-02  0.1103565E+00
         22   -1    0    0    0    0  0.00000000000E+00  0.00000000000E+00  0.42331110628E+04  0.42331110628E+04  0.00000000000E+00 0. -1.
         22   -1    0    0    0    0 -0.00000000000E+00 -0.00000000000E+00 -0.24870219629E+02  0.24870219629E+02  0.00000000000E+00 0.  1.
        -24    2    1    2    0    0  0.55057468216E+02 -0.53128246738E+02  0.16647408151E+03  0.20133631364E+03  0.83479075011E+02 0.  0.
         25    2    1    2    0    0 -0.66744234602E+02 -0.81206086732E+01  0.75288808654E+03  0.76616483211E+03  0.12508933594E+03 0.  0.
         24    2    1    2    0    0  0.11686766386E+02  0.61248855411E+02  0.32888786751E+04  0.32904801367E+04  0.81538870999E+02 0.  0.
        -13    1    5    5    0    0  0.98750355240E+01  0.70959651146E+01  0.63924023905E+02  0.65070345625E+02  0.00000000000E+00 0.  1.
         14    1    5    5    0    0  0.18117308621E+01  0.54152890296E+02  0.32249546512E+04  0.32254097911E+04  0.00000000000E+00 0. -1.
         11    1    3    3    0    0 -0.62420156148E+01  0.15331896575E+02  0.51826951602E+02  0.54406458475E+02  0.00000000000E+00 0. -1.
        -12    1    3    3    0    0  0.61299483831E+02 -0.68460143313E+02  0.11464712991E+03  0.14692985516E+03  0.00000000000E+00 0.  1.
          5    1    4    4  501    0 -0.49312885493E+02 -0.65384365760E+02  0.43886538797E+03  0.44646072293E+03  0.41800000000E+01 0.  1.
         -5    1    4    4    0  501 -0.17431349109E+02  0.57263757086E+02  0.31402269858E+03  0.31970410918E+03  0.41800000000E+01 0.  1.
</event>
<event>
11    1  0.6763327E-009  0.3827744E+03  0.7561462E-02  0.9701996E-01
         22   -1    0    0    0    0  0.00000000000E+00  0.00000000000E+00  0.98666133255E+03  0.98666133255E+03  0.00000000000E+00 0.  1.
         22   -1    0    0    0    0 -0.00000000000E+00 -0.00000000000E+00 -0.62034529704E+03  0.62034529704E+03  0.00000000000E+00 0. -1.
        -24    2    1    2    0    0 -0.34630834481E+03 -0.35918898988E+02 -0.40058975636E+03  0.53672459209E+03  0.79884277962E+02 0.  0.
         25    2    1    2    0    0  0.44896620796E+03 -0.69247212401E+02  0.26429215466E+03  0.54024415176E+03  0.12509024017E+03 0.  0.
         24    2    1    2    0    0 -0.10265786315E+03  0.10516611139E+03  0.50261363721E+03  0.53003788573E+03  0.81982584433E+02 0.  0.
        -13    1    5    5    0    0 -0.11167644973E+03  0.78570969763E+02  0.45176519585E+03  0.47195001737E+03  0.00000000000E+00 0.  1.
         14    1    5    5    0    0  0.90185865823E+01  0.26595141626E+02  0.50848441359E+02  0.58087868361E+02  0.00000000000E+00 0. -1.
         11    1    3    3    0    0 -0.26174828765E+03 -0.23602367675E+02 -0.34906999033E+03  0.43694289787E+03  0.00000000000E+00 0. -1.
        -12    1    3    3    0    0 -0.84560057158E+02 -0.12316531314E+02 -0.51519766028E+02  0.99781694222E+02  0.00000000000E+00 0.  1.
          5    1    4    4  501    0  0.26708688140E+03 -0.53846277716E+02  0.87753297197E+02  0.28627423462E+03  0.41800000000E+01 0. -1.
         -5    1    4    4    0  501  0.18187932656E+03 -0.15400934685E+02  0.17653885746E+03  0.25396991714E+03  0.41800000000E+01 0. -1.
</event>
<event>
11    1  0.6763327E-009  0.1337863E+03  0.7561462E-02  0.1114702E+00
         22   -1    0    0    0    0  0.00000000000E+00  0.00000000000E+00  0.26895091866E+04  0.26895091866E+04  0.00000000000E+00 0. -1.
         22   -1    0    0    0    0 -0.00000000000E+00 -0.00000000000E+00 -0.34269526416E+02  0.34269526416E+02  0.00000000000E+00 0. -1.
         24    2    1    2    0    0 -0.14017606660E+02  0.45114947047E+02  0.46951207374E+02  0.10615928183E+03  0.82665140790E+02 0.  0.
         25    2    1    2    0    0  0.11136601971E+02 -0.50760245208E+02  0.17045204705E+04  0.17098944729E+04  0.12509375564E+03 0.  0.
        -24    2    1    2    0    0  0.28810046893E+01  0.56452981611E+01  0.90376798230E+03  0.90772495827E+03  0.84426680993E+02 0.  0.
        -13    1    3    3    0    0  0.66588202992E+01 -0.22936240275E+02  0.14883377252E+02  0.28141178443E+02  0.00000000000E+00 0.  1.
         14    1    3    3    0    0 -0.20676426959E+02  0.68051187322E+02  0.32067830123E+02  0.78018103390E+02  0.00000000000E+00 0. -1.
         13    1    5    5    0    0 -0.15097100768E+02 -0.28850586905E+02  0.66603438401E+03  0.66682987298E+03  0.00000000000E+00 0. -1.
        -14    1    5    5    0    0  0.17978105458E+02  0.34495885066E+02  0.23773359828E+03  0.24089508529E+03  0.00000000000E+00 0.  1.
          5    1    4    4  501    0  0.15388522417E+02  0.78166795051E+01  0.13775768828E+04  0.13776913470E+04  0.41800000000E+01 0. -1.
         -5    1    4    4    0  501 -0.42519204461E+01 -0.58576924713E+02  0.32694358770E+03  0.33220312592E+03  0.41800000000E+01 0. -1.
</event>
<event>
11    1  0.6763327E-009  0.3709631E+03  0.7561462E-02  0.9739544E-01
         22   -1    0    0    0    0  0.00000000000E+00  0.00000000000E+00  0.28947894027E+03  0.28947894027E+03  0.00000000000E+00 0. -1.
         22   -1    0    0    0    0 -0.00000000000E+00 -0.00000000000E+00 -0.10302276802E+04  0.10302276802E+04  0.00000000000E+00 0.  1.
        -24    2    1    2    0    0 -0.30489094868E+03  0.16518974227E+03 -0.69025861563E+03  0.77700717420E+03  0.83887131111E+02 0.  0.
         25    2    1    2    0    0  0.30980672286E+03 -0.17634855027E+03 -0.15662901658E+03  0.40897366118E+03  0.12509112676E+03 0.  0.
         24    2    1    2    0    0 -0.49157741825E+01  0.11158807992E+02  0.10613889224E+03  0.13372578513E+03  0.80426595919E+02 0.  0.
        -11    1    5    5    0    0 -0.17086000778E+02  0.19446434813E+02 -0.68171320846E+00  0.25895172956E+02  0.00000000000E+00 0.  1.
         12    1    5    5    0    0  0.12170226596E+02 -0.82876268203E+01  0.10682060545E+03  0.10783061217E+03  0.00000000000E+00 0. -1.
         11    1    3    3    0    0 -0.16468609191E+03  0.43092947396E+02 -0.30710543614E+03  0.35112997578E+03  0.00000000000E+00 0. -1.
        -12    1    3    3    0    0 -0.14020485677E+03  0.12209679488E+03 -0.38315317949E+03  0.42587719842E+03  0.00000000000E+00 0.  1.
          5    1    4    4  501    0  0.19490954124E+03 -0.17607561798E+03 -0.10415843721E+03  0.28259300232E+03  0.41800000000E+01 0.  1.
         -5    1    4    4    0  501  0.11489718162E+03 -0.27293228096E+00 -0.52470579367E+02  0.12638065886E+03  0.41800000000E+01 0.  1.
</event>
<event>
11    1  0.6763327E-009  0.1500397E+03  0.7561462E-02  0.1096838E+00
         22   -1    0    0    0    0  0.00000000000E+00  0.00000000000E+00  0.13515913109E+03  0.13515913109E+03  0.00000000000E+00 0.  1.
         22   -1    0    0    0    0 -0.00000000000E+00 -0.00000000000E+00 -0.50024545811E+03  0.50024545811E+03  0.00000000000E+00 0.  1.
         24    2    1    2    0    0  0.29609678111E+02  0.10943773718E+03 -0.16880914338E+03  0.21866244983E+03  0.80395203342E+02 0.  0.
         25    2    1    2    0    0  0.12805222107E+01 -0.62947372284E+02 -0.26278141190E+03  0.29775171213E+03  0.12505199008E+03 0.  0.
        -24    2    1    2    0    0 -0.30890200322E+02 -0.46490364891E+02  0.66504228253E+02  0.11899042725E+03  0.81365538762E+02 0.  0.
        -11    1    3    3    0    0  0.48954342906E+02  0.86287693814E+02 -0.88763736888E+02  0.13312060239E+03  0.00000000000E+00 0.  1.
         12    1    3    3    0    0 -0.19344664794E+02  0.23150043361E+02 -0.80045406488E+02  0.85541847440E+02  0.00000000000E+00 0. -1.
         11    1    5    5    0    0 -0.48778994259E+02 -0.27479329842E-01  0.35644287630E+02  0.60414454203E+02  0.00000000000E+00 0. -1.
        -12    1    5    5    0    0  0.17888793937E+02 -0.46462885561E+02  0.30859940623E+02  0.58575973047E+02  0.00000000000E+00 0.  1.
          5    1    4    4  501    0  0.24890968428E+02 -0.34757140282E+02 -0.25667330884E+03  0.26024273089E+03  0.41800000000E+01 0. -1.
         -5    1    4    4    0  501 -0.23610446218E+02 -0.28190232003E+02 -0.61081030632E+01  0.37508981244E+02  0.41800000000E+01 0. -1.
</event>
<event>
11    1  0.6763327E-009  0.1400294E+03  0.7561462E-02  0.1107526E+00
         22   -1    0    0    0    0  0.00000000000E+00  0.00000000000E+00  0.10152777894E+04  0.10152777894E+04  0.00000000000E+00 0. -1.
         22   -1    0    0    0    0 -0.00000000000E+00 -0.00000000000E+00 -0.15197856923E+03  0.15197856923E+03  0.00000000000E+00 0.  1.
        -24    2    1    2    0    0  0.52924194470E+02 -0.44453118188E+02 -0.94151421900E+02  0.14130439842E+03  0.79532337393E+02 0.  0.
         25    2    1    2    0    0 -0.13955799035E+02  0.27854507428E+02  0.98506556893E+02  0.16223741348E+03  0.12508716429E+03 0.  0.
         24    2    1    2    0    0 -0.38968395435E+02  0.16598610760E+02  0.85894408518E+03  0.86371454674E+03  0.80148780752E+02 0.  0.
        -13    1    5    5    0    0 -0.24403773583E+02  0.15101756999E+02  0.86594028129E+02  0.91225725194E+02  0.00000000000E+00 0.  1.
         14    1    5    5    0    0 -0.14564621852E+02  0.14968537609E+01  0.77235005705E+03  0.77248882155E+03  0.00000000000E+00 0. -1.
         13    1    3    3    0    0 -0.10855127769E+02  0.49323231939E+01  0.54719451643E+01  0.13118833593E+02  0.00000000000E+00 0. -1.
        -14    1    3    3    0    0  0.63779322239E+02 -0.49385441382E+02 -0.99623367065E+02  0.12818556483E+03  0.00000000000E+00 0.  1.
          5    1    4    4  501    0  0.28963375943E+02 -0.31381164737E+02  0.46371453602E+01  0.43158199260E+02  0.41800000000E+01 0.  1.
         -5    1    4    4    0  501 -0.42919174978E+02  0.59235672164E+02  0.93869411533E+02  0.11907921422E+03  0.41800000000E+01 0.  1.
</event>
<event>
11    1  0.6763327E-009  0.1313242E+03  0.7561462E-02  0.1117653E+00
         22   -1    0    0    0    0  0.00000000000E+00  0.00000000000E+00  0.16429016039E+04  0.16429016039E+04  0.00000000000E+00 0. -1.
         22   -1    0    0    0    0 -0.00000000000E+00 -0.00000000000E+00 -0.20043709175E+03  0.20043709175E+03  0.00000000000E+00 0.  1.
         24    2    1    2    0    0  0.16763683520E+02 -0.26194900752E+02 -0.17620114446E+03  0.19488975685E+03  0.77252702888E+02 0.  0.
         25    2    1    2    0    0  0.24645371545E+02  0.19174834392E+02  0.29651519040E+03  0.32333215284E+03  0.12508938530E+03 0.  0.
        -24    2    1    2    0    0 -0.41409055065E+02  0.70200663598E+01  0.13221504662E+04  0.13251167860E+04  0.78029801691E+02 0.  0.
        -13    1    3    3    0    0 -0.93207760308E+01 -0.60152330749E+01 -0.15562148796E+03  0.15601636904E+03  0.00000000000E+00 0.  1.
         14    1    3    3    0    0  0.26084459550E+02 -0.20179667677E+02 -0.20579656503E+02  0.38873387804E+02  0.00000000000E+00 0. -1.
         13    1    5    5    0    0  0.18602848409E+02  0.19002836640E+02  0.48841447098E+03  0.48913788366E+03  0.00000000000E+00 0. -1.
        -14    1    5    5    0    0 -0.60011903474E+02 -0.11982770280E+02  0.83373599525E+03  0.83597890232E+03  0.00000000000E+00 0.  1.
          5    1    4    4  501    0 -0.44940280194E+02  0.21577144807E+02  0.68075044462E+02  0.84480092569E+02  0.41800000000E+01 0.  1.
         -5    1    4    4    0  501  0.69585651739E+02 -0.24023104147E+01  0.22844014593E+03  0.23885206028E+03  0.41800000000E+01 0.  1.
</event>
<event>
11    1  0.6763327E-009  0.1416373E+03  0.7561462E-02  0.1105744E+00
         22   -1    0    0    0    0  0.00000000000E+00  0.00000000000E+00  0.13596402597E+04  0.13596402597E+04  0.00000000000E+00 0.  1.
         22   -1    0    0    0    0 -0.00000000000E+00 -0.00000000000E+00 -0.55480423331E+02  0.55480423331E+02  0.00000000000E+00 0. -1.
        -24    2    1    2    0    0  0.62132953730E+02  0.71371099732E+01  0.44570039816E+02  0.11148332044E+03  0.80812127860E+02 0.  0.
         25    2    1    2    0    0 -0.81467579261E+02  0.12573705830E+02  0.25734770462E+03  0.29777578325E+03  0.12509001347E+03 0.  0.
         24    2    1    2    0    0  0.19334625531E+02 -0.19710815804E+02  0.10022420919E+04  0.10058615793E+04  0.80659543389E+02 0.  0.
        -11    1    5    5    0    0 -0.19393560657E+02 -0.10881684816E+02  0.76454620478E+03  0.76486954476E+03  0.00000000000E+00 0.  1.
         12    1    5    5    0    0  0.38728186188E+02 -0.88291309875E+01  0.23769588712E+03  0.24099203454E+03  0.00000000000E+00 0. -1.
         11    1    3    3    0    0  0.58234651543E+02  0.22529158295E+02 -0.18036119916E+01  0.62466716178E+02  0.00000000000E+00 0. -1.
        -12    1    3    3    0    0  0.38983021873E+01 -0.15392048322E+02  0.46373651808E+02  0.49016604263E+02  0.00000000000E+00 0.  1.
          5    1    4    4  501    0 -0.10932329672E+03 -0.14105473523E+02  0.20246765511E+03  0.23056706477E+03  0.41800000000E+01 0. -1.
         -5    1    4    4    0  501  0.27855717460E+02  0.26679179354E+02  0.54880049501E+02  0.67208718477E+02  0.41800000000E+01 0. -1.
</event>
<event>
11    1  0.6763327E-009  0.1384655E+03  0.7561462E-02  0.1109284E+00
         22   -1    0    0    0    0  0.00000000000E+00  0.00000000000E+00  0.80128090118E+03  0.80128090118E+03  0.00000000000E+00 0.  1.
         22   -1    0    0    0    0 -0.00000000000E+00 -0.00000000000E+00 -0.57129119708E+03  0.57129119708E+03  0.00000000000E+00 0. -1.
         24    2    1    2    0    0  0.13665190887E+02 -0.21662401307E+02 -0.50958243963E+03  0.51726145667E+03  0.85024435916E+02 0.  0.
         25    2    1    2    0    0 -0.68949476206E+02  0.96837696709E+00  0.39695897284E+02  0.14825035887E+03  0.12508971428E+03 0.  0.
        -24    2    1    2    0    0  0.55284285319E+02  0.20694024340E+02  0.69987624645E+03  0.70706028272E+03  0.81381129360E+02 0.  0.
        -13    1    3    3    0    0  0.15212429494E+02 -0.30585112558E+02 -0.73126049979E+02  0.80711128767E+02  0.00000000000E+00 0.  1.
         14    1    3    3    0    0 -0.15472386074E+01  0.89227112509E+01 -0.43645638965E+03  0.43655032790E+03  0.00000000000E+00 0. -1.
         13    1    5    5    0    0 -0.20085909425E+02  0.86287825094E+01  0.10096145674E+03  0.10330109095E+03  0.00000000000E+00 0. -1.
        -14    1    5    5    0    0  0.75370194744E+02  0.12065241831E+02  0.59891478971E+03  0.60375919177E+03  0.00000000000E+00 0.  1.
          5    1    4    4  501    0 -0.36576315527E+02  0.62863527889E+02  0.21206648658E+02  0.75873871283E+02  0.41800000000E+01 0. -1.
         -5    1    4    4    0  501 -0.32373160679E+02 -0.61895150922E+02  0.18489248627E+02  0.72376487583E+02  0.41800000000E+01 0. -1.
</event>
<event>
11    1  0.1980539E-008  0.1775307E+03  0.7561462E-02  0.1071658E+00
         22   -1    0    0    0    0  0.00000000000E+00  0.00000000000E+00  0.53790886665E+03  0.53790886665E+03  0.00000000000E+00 0.  1.
         22   -1    0    0    0    0 -0.00000000000E+00 -0.00000000000E+00 -0.96276914059E+03  0.96276914059E+03  0.00000000000E+00 0. -1.
        -24    2    1    2    0    0 -0.42334551243E+02  0.90602892880E+02 -0.58049030464E+03  0.59440222926E+03  0.79648715857E+02 0.  0.
         25    2    1    2    0    0  0.15307062364E+03 -0.30228600544E+02 -0.33683172937E+03  0.39172311835E+03  0.12508798275E+03 0.  0.
         24    2    1    2    0    0 -0.11073607240E+03 -0.60374292336E+02  0.49246176007E+03  0.51455265963E+03  0.79613576070E+02 0.  0.
        -11    1    5    5    0    0 -0.76192684783E+02 -0.59216583837E+02  0.44779840387E+03  0.45807787496E+03  0.00000000000E+00 0.  1.
         12    1    5    5    0    0 -0.34543387613E+02 -0.11577084986E+01  0.44663356202E+02  0.56474784675E+02  0.00000000000E+00 0. -1.
         11    1    3    3    0    0 -0.61394747399E+02  0.53508379242E+02 -0.45304702605E+03  0.46030866760E+03  0.00000000000E+00 0. -1.
        -12    1    3    3    0    0  0.19060196156E+02  0.37094513637E+02 -0.12744327860E+03  0.13409356166E+03  0.00000000000E+00 0.  1.
          5    1    4    4  501    0  0.30655840464E+02  0.32212090010E+01 -0.20987880791E+03  0.21217149467E+03  0.41800000000E+01 0. -1.
         -5    1    4    4    0  501  0.12241478318E+03 -0.33449809545E+02 -0.12695292146E+03  0.17955162368E+03  0.41800000000E+01 0. -1.
</event>
<event>
11    1  0.6763327E-009  0.1425793E+03  0.7561462E-02  0.1104712E+00
         22   -1    0    0    0    0  0.00000000000E+00  0.00000000000E+00  0.28270928701E+04  0.28270928701E+04  0.00000000000E+00 0. -1.
         22   -1    0    0    0    0 -0.00000000000E+00 -0.00000000000E+00 -0.60698510645E+02  0.60698510645E+02  0.00000000000E+00 0. -1.
        -24    2    1    2    0    0  0.22307623789E+02  0.68036857088E+02  0.12152724213E+01  0.10736363519E+03  0.79992682626E+02 0.  0.
         25    2    1    2    0    0  0.41654242340E+02 -0.38097722605E+02  0.74721360516E+03  0.75971045657E+03  0.12508114851E+03 0.  0.
         24    2    1    2    0    0 -0.63961866129E+02 -0.29939134483E+02  0.20179654819E+04  0.20207172890E+04  0.78270069973E+02 0.  0.
        -13    1    5    5    0    0 -0.43008206058E+02 -0.79619097032E+01  0.38614045311E+03  0.38860976226E+03  0.00000000000E+00 0.  1.
         14    1    5    5    0    0 -0.20953660071E+02 -0.21977224780E+02  0.16318250288E+04  0.16321075268E+04  0.00000000000E+00 0. -1.
         13    1    3    3    0    0  0.10414440098E+02  0.69605083662E+02 -0.28027970189E+02  0.75755497141E+02  0.00000000000E+00 0. -1.
        -14    1    3    3    0    0  0.11893183691E+02 -0.15682265739E+01  0.29243242610E+02  0.31608138054E+02  0.00000000000E+00 0.  1.
          5    1    4    4  501    0  0.21249810507E+02 -0.82776812442E+02  0.40283875347E+03  0.41182531348E+03  0.41800000000E+01 0. -1.
         -5    1    4    4    0  501  0.20404431833E+02  0.44679089837E+02  0.34437485169E+03  0.34788514309E+03  0.41800000000E+01 0. -1.
</event>
<event>
11    1  0.6763327E-009  0.3409065E+03  0.7561462E-02  0.9842258E-01
         22   -1    0    0    0    0  0.00000000000E+00  0.00000000000E+00  0.10469324245E+04  0.10469324245E+04  0.00000000000E+00 0.  1.
         22   -1    0    0    0    0 -0.00000000000E+00 -0.00000000000E+00 -0.97438378424E+03  0.97438378424E+03  0.00000000000E+00 0.  1.
         24    2    1    2    0    0 -0.21807739027E+02  0.22112199850E+02 -0.77251652705E+03  0.77710571953E+03  0.78402728941E+02 0.  0.
         25    2    1    2    0    0 -0.10960942174E+03 -0.30882472567E+03  0.13486013323E+02  0.35102147092E+03  0.12508902419E+03 0.  0.
        -24    2    1    2    0    0  0.13141716077E+03  0.28671252582E+03  0.83157915401E+03  0.89318901833E+03  0.82390475638E+02 0.  0.
        -11    1    3    3    0    0 -0.18378516302E+02  0.28343494617E+02 -0.76786385261E+03  0.76860654414E+03  0.00000000000E+00 0.  1.
         12    1    3    3    0    0 -0.34292227251E+01 -0.62312947669E+01 -0.46526744402E+01  0.84991753963E+01  0.00000000000E+00 0. -1.
         13    1    5    5    0    0  0.81929991053E+01  0.10979776782E+03  0.26391376280E+03  0.28596004834E+03  0.00000000000E+00 0. -1.
        -14    1    5    5    0    0  0.12322416166E+03  0.17691475800E+03  0.56766539121E+03  0.60722896999E+03  0.00000000000E+00 0.  1.
          5    1    4    4  501    0 -0.11341333122E+02 -0.69596143672E+02  0.54385840980E+02  0.89148982889E+02  0.41800000000E+01 0.  1.
         -5    1    4    4    0  501 -0.98268088617E+02 -0.23922858199E+03 -0.40899827657E+02  0.26187248803E+03  0.41800000000E+01 0.  1.
</event>
<event>
11    1  0.6763327E-009  0.1334702E+03  0.7561462E-02  0.1115077E+00
         22   -1    0    0    0    0  0.00000000000E+00  0.00000000000E+00  0.54724669888E+03  0.54724669888E+03  0.00000000000E+00 0. -1.
         22   -1    0    0    0    0 -0.00000000000E+00 -0.00000000000E+00 -0.49910451706E+03  0.49910451706E+03  0.00000000000E+00 0.  1.
        -24    2    1    2    0    0 -0.44303173690E+02  0.13795311774E+02 -0.30347088480E+03  0.31701449197E+03  0.79060283124E+02 0.  0.
         25    2    1    2    0    0  0.83327967048E+02  0.10279933797E+02 -0.15382596246E+03  0.21531089566E+03  0.12508848041E+03 0.  0.
         24    2    1    2    0    0 -0.39024793358E+02 -0.24075245571E+02  0.50543902909E+03  0.51402582832E+03  0.81556042762E+02 0.  0.
        -11    1    5    5    0    0 -0.16793445000E+02  0.26803854627E+02  0.10221923693E+03  0.10700111596E+03  0.00000000000E+00 0.  1.
         12    1    5    5    0    0 -0.22231348359E+02 -0.50879100198E+02  0.40321979216E+03  0.40702471236E+03  0.00000000000E+00 0. -1.
         13    1    3    3    0    0  0.18876176677E+02 -0.13117750416E+02 -0.78334077252E+02  0.81637081531E+02  0.00000000000E+00 0. -1.
        -14    1    3    3    0    0 -0.63179350367E+02  0.26913062190E+02 -0.22513680755E+03  0.23537741043E+03  0.00000000000E+00 0.  1.
          5    1    4    4  501    0  0.65155102811E+02 -0.53079120597E+02 -0.94504176694E+02  0.12653494489E+03  0.41800000000E+01 0.  1.
         -5    1    4    4    0  501  0.18172864237E+02  0.63359054394E+02 -0.59321785770E+02  0.88775950771E+02  0.41800000000E+01 0.  1.
</event>
<event>
11    1  0.6763327E-009  0.2447383E+03  0.7561462E-02  0.1026740E+00
         22   -1    0    0    0    0  0.00000000000E+00  0.00000000000E+00  0.43098776870E+03  0.43098776870E+03  0.00000000000E+00 0.  1.
         22   -1    0    0    0    0 -0.00000000000E+00 -0.00000000000E+00 -0.75208674513E+03  0.75208674513E+03  0.00000000000E+00 0.  1.
        -24    2    1    2    0    0  0.10537860947E+03 -0.18109134420E+03 -0.57025461415E+03  0.61292559493E+03  0.81171014997E+02 0.  0.
         25    2    1    2    0    0 -0.90347367659E+02  0.19512714919E+03 -0.55433846750E+02  0.25486766699E+03  0.12508942848E+03 0.  0.
         24    2    1    2    0    0 -0.15031241808E+02 -0.14035804983E+02  0.30458948447E+03  0.31528125191E+03  0.78769103762E+02 0.  0.
        -13    1    5    5    0    0 -0.39761942818E+02 -0.26312229045E+01  0.25997678304E+03  0.26301304749E+03  0.00000000000E+00 0.  1.
         14    1    5    5    0    0  0.24730701010E+02 -0.11404582079E+02  0.44612701431E+02  0.52268204425E+02  0.00000000000E+00 0. -1.
         11    1    3    3    0    0 -0.66844208209E+01 -0.65207190418E+01 -0.80627960994E+02  0.81166922774E+02  0.00000000000E+00 0. -1.
        -12    1    3    3    0    0  0.11206303029E+03 -0.17457062516E+03 -0.48962665316E+03  0.53175867215E+03  0.00000000000E+00 0.  1.
          5    1    4    4  501    0 -0.13974604465E+02  0.20512368854E+02 -0.59061473838E+02  0.64201066486E+02  0.41800000000E+01 0.  1.
         -5    1    4    4    0  501 -0.76372763194E+02  0.17461478033E+03  0.36276270878E+01  0.19066660050E+03  0.41800000000E+01 0.  1.
</event>
<event>
11    1  0.6763327E-009  0.1712679E+03  0.7561462E-02  0.1076934E+00
         22   -1    0    0    0    0  0.00000000000E+00  0.00000000000E+00  0.68532625074E+03  0.68532625074E+03  0.00000000000E+00 0. -1.
         22   -1    0    0    0    0 -0.00000000000E+00 -0.00000000000E+00 -0.17101862826E+03  0.17101862826E+03  0.00000000000E+00 0.  1.
         24    2    1    2    0    0 -0.12353512849E+02 -0.18682015061E+01 -0.99898825937E+02  0.12905410883E+03  0.80740870239E+02 0.  0.
         25    2    1    2    0    0  0.66798017265E+01 -0.11540878335E+03  0.10838248036E+03  0.20187298090E+03  0.12506850659E+03 0.  0.
        -24    2    1    2    0    0  0.56737111225E+01  0.11727698485E+03  0.50582396805E+03  0.52541778927E+03  0.80124181405E+02 0.  0.
        -11    1    3    3    0    0  0.21677227819E+01  0.38269877162E+02 -0.38975076406E+02  0.54665703150E+02  0.00000000000E+00 0.  1.
         12    1    3    3    0    0 -0.14521235631E+02 -0.40138078668E+02 -0.60923749531E+02  0.74388405684E+02  0.00000000000E+00 0. -1.
         11    1    5    5    0    0  0.36781736519E+02  0.84227816680E+02  0.39716503832E+03  0.40766075222E+03  0.00000000000E+00 0. -1.
        -12    1    5    5    0    0 -0.31108025396E+02  0.33049168175E+02  0.10865892974E+03  0.11775703704E+03  0.00000000000E+00 0.  1.
          5    1    4    4  501    0 -0.38444450972E+02 -0.20592432096E+02  0.82858136103E+02  0.93728155794E+02  0.41800000000E+01 0.  1.
         -5    1    4    4    0  501  0.45124252698E+02 -0.94816351253E+02  0.25524344258E+02  0.10814482510E+03  0.41800000000E+01 0.  1.
</event>
<event>
11    1  0.6763327E-009  0.1676455E+03  0.7561462E-02  0.1080099E+00
         22   -1    0    0    0    0  0.00000000000E+00  0.00000000000E+00  0.44117535070E+03  0.44117535070E+03  0.00000000000E+00 0. -1.
         22   -1    0    0    0    0 -0.00000000000E+00 -0.00000000000E+00 -0.10927396051E+04  0.10927396051E+04  0.00000000000E+00 0. -1.
         24    2    1    2    0    0 -0.35410287421E+02 -0.53890508378E+02 -0.10117545299E+04  0.10169670834E+04  0.80104585392E+02 0.  0.
         25    2    1    2    0    0 -0.72233423119E+02 -0.40574787355E+01  0.18782623164E+02  0.14572092313E+03  0.12509064695E+03 0.  0.
        -24    2    1    2    0    0  0.10764371054E+03  0.57947987114E+02  0.34140765231E+03  0.37122694930E+03  0.79404818524E+02 0.  0.
        -13    1    3    3    0    0 -0.45525603880E+02 -0.86565295564E+01 -0.28564559388E+03  0.28938023674E+03  0.00000000000E+00 0.  1.
         14    1    3    3    0    0  0.10115316458E+02 -0.45233978822E+02 -0.72610893601E+03  0.72758684666E+03  0.00000000000E+00 0. -1.
         13    1    5    5    0    0  0.10308746872E+03  0.75070053247E+02  0.28839781929E+03  0.31533449109E+03  0.00000000000E+00 0. -1.
        -14    1    5    5    0    0  0.45562418227E+01 -0.17122066134E+02  0.53009833020E+02  0.55892458212E+02  0.00000000000E+00 0.  1.
          5    1    4    4  501    0 -0.32852350422E+02 -0.21341555104E+02  0.69010261881E+02  0.79464630795E+02  0.41800000000E+01 0.  1.
         -5    1    4    4    0  501 -0.39381072697E+02  0.17284076368E+02 -0.50227638716E+02  0.66256292333E+02  0.41800000000E+01 0.  1.
</event>
<event>
11    1  0.6763327E-009  0.1393598E+03  0.7561462E-02  0.1108275E+00
         22   -1    0    0    0    0  0.00000000000E+00  0.00000000000E+00  0.20465781433E+03  0.20465781433E+03  0.00000000000E+00 0. -1.
         22   -1    0    0    0    0 -0.00000000000E+00 -0.00000000000E+00 -0.42205220326E+04  0.42205220326E+04  0.00000000000E+00 0.  1.
        -24    2    1    2    0    0 -0.57258691529E+01  0.60518262593E+02 -0.39171700517E+04  0.39186538306E+04  0.89058318678E+02 0.  0.
         25    2    1    2    0    0  0.44812511768E+02 -0.74480521420E+02 -0.27170621649E+03  0.31149095511E+03  0.12508732051E+03 0.  0.
         24    2    1    2    0    0 -0.39086642615E+02  0.13962258827E+02  0.17301204987E+03  0.19503506132E+03  0.79892399148E+02 0.  0.
        -13    1    5    5    0    0 -0.35756782858E+02 -0.10573922168E+02  0.24829507673E+02  0.44797988813E+02  0.00000000000E+00 0.  1.
         14    1    5    5    0    0 -0.33298597573E+01  0.24536180995E+02  0.14818254219E+03  0.15023707251E+03  0.00000000000E+00 0. -1.
         13    1    3    3    0    0 -0.13618014849E+02  0.46854235507E+02 -0.82391193957E+03  0.82535547123E+03  0.00000000000E+00 0. -1.
        -14    1    3    3    0    0  0.78921456958E+01  0.13664027086E+02 -0.30932581121E+04  0.30932983593E+04  0.00000000000E+00 0.  1.
          5    1    4    4  501    0 -0.27768394097E+02  0.12422838125E+02 -0.10884784829E+03  0.11309614094E+03  0.41800000000E+01 0. -1.
         -5    1    4    4    0  501  0.72580905865E+02 -0.86903359545E+02 -0.16285836820E+03  0.19839481417E+03  0.41800000000E+01 0. -1.
</event>
<event>
11    1  0.6763327E-009  0.1792324E+03  0.7561462E-02  0.1070265E+00
         22   -1    0    0    0    0  0.00000000000E+00  0.00000000000E+00  0.17424067139E+03  0.17424067139E+03  0.00000000000E+00 0. -1.
         22   -1    0    0    0    0 -0.00000000000E+00 -0.00000000000E+00 -0.16063854740E+04  0.16063854740E+04  0.00000000000E+00 0. -1.
        -24    2    1    2    0    0  0.43590603743E+02  0.12473382547E+03 -0.14263481920E+04  0.14344796839E+04  0.76184847561E+02 0.  0.
         25    2    1    2    0    0 -0.73869678262E+02 -0.68602780085E+02 -0.11428446739E+03  0.19716084436E+03  0.12509351805E+03 0.  0.
         24    2    1    2    0    0  0.30279074519E+02 -0.56131045382E+02  0.10848785671E+03  0.14898561711E+03  0.79746990172E+02 0.  0.
        -13    1    5    5    0    0 -0.25361469335E+02 -0.14638928705E+02  0.16058314711E+02  0.33397182992E+02  0.00000000000E+00 0.  1.
         14    1    5    5    0    0  0.55640543854E+02 -0.41492116676E+02  0.92429542002E+02  0.11558843412E+03  0.00000000000E+00 0. -1.
         11    1    3    3    0    0  0.56387564226E+02  0.12630502921E+03 -0.12412970988E+04  0.12489799859E+04  0.00000000000E+00 0. -1.
        -12    1    3    3    0    0 -0.12796960483E+02 -0.15712037433E+01 -0.18505109316E+03  0.18549969800E+03  0.00000000000E+00 0.  1.
          5    1    4    4  501    0 -0.23701145669E+02  0.17323966064E+02  0.15587760850E+02  0.33500967068E+02  0.41800000000E+01 0.  1.
         -5    1    4    4    0  501 -0.50168532593E+02 -0.85926746149E+02 -0.12987222824E+03  0.16365987729E+03  0.41800000000E+01 0.  1.
</event>
<event>
11    1  0.6763327E-009  0.1403207E+03  0.7561462E-02  0.1107201E+00
         22   -1    0    0    0    0  0.00000000000E+00  0.00000000000E+00  0.57760675788E+03  0.57760675788E+03  0.00000000000E+00 0.  1.
         22   -1    0    0    0    0 -0.00000000000E+00 -0.00000000000E+00 -0.25183047712E+04  0.25183047712E+04  0.00000000000E+00 0. -1.
         24    2    1    2    0    0  0.22108921304E+00  0.71292869749E+02 -0.16078824605E+04  0.16115020020E+04  0.81055374228E+02 0.  0.
         25    2    1    2    0    0 -0.18550261416E+02 -0.41913826070E+02 -0.90034390285E+03  0.91014693451E+03  0.12508963977E+03 0.  0.
        -24    2    1    2    0    0  0.18329172203E+02 -0.29379043679E+02  0.56752835004E+03  0.57426259252E+03  0.80560600229E+02 0.  0.
        -11    1    3    3    0    0 -0.16483132019E+02 -0.31467720958E+01 -0.76236595041E+03  0.76255061351E+03  0.00000000000E+00 0.  1.
         12    1    3    3    0    0  0.16704221232E+02  0.74439641845E+02 -0.84551651007E+03  0.84895138853E+03  0.00000000000E+00 0. -1.
         13    1    5    5    0    0  0.16588325314E+02 -0.54622323534E+02  0.47201420498E+03  0.47545365754E+03  0.00000000000E+00 0. -1.
        -14    1    5    5    0    0  0.17408468888E+01  0.25243279855E+02  0.95514145060E+02  0.98808934982E+02  0.00000000000E+00 0.  1.
          5    1    4    4  501    0 -0.56678702018E+02  0.19948795220E+02 -0.38288453540E+03  0.38759317530E+03  0.41800000000E+01 0. -1.
         -5    1    4    4    0  501  0.38128440602E+02 -0.61862621290E+02 -0.51745936745E+03  0.52255375921E+03  0.41800000000E+01 0. -1.
</event>
<event>
11    1  0.6763327E-009  0.1276157E+03  0.7561462E-02  0.1122234E+00
         22   -1    0    0    0    0  0.00000000000E+00  0.00000000000E+00  0.68039311797E+03  0.68039311797E+03  0.00000000000E+00 0. -1.
         22   -1    0    0    0    0 -0.00000000000E+00 -0.00000000000E+00 -0.20231942054E+03  0.20231942054E+03  0.00000000000E+00 0. -1.
        -24    2    1    2    0    0 -0.36326601717E+01  0.25259047000E+02 -0.16589897203E+03  0.18520582123E+03  0.78278423721E+02 0.  0.
         25    2    1    2    0    0 -0.38685244105E+01 -0.21580375607E+02  0.14829287005E+03  0.19523984339E+03  0.12508854083E+03 0.  0.
         24    2    1    2    0    0  0.75011845822E+01 -0.36786713939E+01  0.49567979941E+03  0.50226687389E+03  0.80645822411E+02 0.  0.
        -13    1    5    5    0    0  0.33910187993E+02  0.21905351577E+02  0.18107214902E+03  0.18551783857E+03  0.00000000000E+00 0.  1.
         14    1    5    5    0    0 -0.26409003411E+02 -0.25584022971E+02  0.31460765039E+03  0.31674903532E+03  0.00000000000E+00 0. -1.
         11    1    3    3    0    0  0.14418995092E+02  0.33752864732E+02 -0.16035184864E+03  0.16449887130E+03  0.00000000000E+00 0. -1.
        -12    1    3    3    0    0 -0.18051655264E+02 -0.84938177312E+01 -0.55471233939E+01  0.20706949929E+02  0.00000000000E+00 0.  1.
          5    1    4    4  501    0 -0.56195686364E+02  0.51398917942E+01  0.11351383251E+03  0.12683546911E+03  0.41800000000E+01 0.  1.
         -5    1    4    4    0  501  0.52327161954E+02 -0.26720267401E+02  0.34779037541E+02  0.68404374278E+02  0.41800000000E+01 0.  1.
</event>
<event>
11    1  0.6763327E-009  0.1384870E+03  0.7561462E-02  0.1109260E+00
         22   -1    0    0    0    0  0.00000000000E+00  0.00000000000E+00  0.54418611855E+03  0.54418611855E+03  0.00000000000E+00 0.  1.
         22   -1    0    0    0    0 -0.00000000000E+00 -0.00000000000E+00 -0.23953386690E+03  0.23953386690E+03  0.00000000000E+00 0. -1.
         24    2    1    2    0    0 -0.50612340755E+02 -0.25569911769E+02 -0.18537399685E+03  0.20956806510E+03  0.79623022914E+02 0.  0.
         25    2    1    2    0    0  0.93410378539E+02  0.33787249611E+02  0.13769563056E+03  0.21088842499E+03  0.12508702597E+03 0.  0.
        -24    2    1    2    0    0 -0.42798037784E+02 -0.82173378425E+01  0.35233061794E+03  0.36326349535E+03  0.76969513651E+02 0.  0.
        -13    1    3    3    0    0 -0.31319475323E+02 -0.49607594720E+02 -0.76444177540E+02  0.96361482284E+02  0.00000000000E+00 0.  1.
         14    1    3    3    0    0 -0.19292865432E+02  0.24037682951E+02 -0.10892981931E+03  0.11320658282E+03  0.00000000000E+00 0. -1.
         11    1    5    5    0    0 -0.72969817540E+01  0.15532924085E+02  0.13725851319E+02  0.21975365020E+02  0.00000000000E+00 0. -1.
        -12    1    5    5    0    0 -0.35501056030E+02 -0.23750261927E+02  0.33860476662E+03  0.34128813033E+03  0.00000000000E+00 0.  1.
          5    1    4    4  501    0 -0.26816791261E+02  0.11578405193E+02  0.41768501719E+01  0.29801312685E+02  0.41800000000E+01 0. -1.
         -5    1    4    4    0  501  0.12022716980E+03  0.22208844419E+02  0.13351878038E+03  0.18108711231E+03  0.41800000000E+01 0. -1.
</event>
<event>
11    1  0.6763327E-009  0.1394153E+03  0.7561462E-02  0.1108213E+00
         22   -1    0    0    0    0  0.00000000000E+00  0.00000000000E+00  0.29542058522E+03  0.29542058522E+03  0.00000000000E+00 0.  1.
         22   -1    0    0    0    0 -0.00000000000E+00 -0.00000000000E+00 -0.36905176541E+03  0.36905176541E+03  0.00000000000E+00 0. -1.
        -24    2    1    2    0    0 -0.25727268752E+01  0.23976051538E+02 -0.30216381909E+03  0.31244381258E+03  0.75740956422E+02 0.  0.
         25    2    1    2    0    0 -0.57840663610E+02 -0.33110367569E+02  0.56523425935E+02  0.15258840192E+03  0.12508590613E+03 0.  0.
         24    2    1    2    0    0  0.60413390486E+02  0.91343160312E+01  0.17200921297E+03  0.19944013614E+03  0.80349144838E+02 0.  0.
        -11    1    5    5    0    0  0.64322614042E+02 -0.19517136423E+02  0.88954245715E+02  0.11149517982E+03  0.00000000000E+00 0.  1.
         12    1    5    5    0    0 -0.39092235562E+01  0.28651452455E+02  0.83054967256E+02  0.87944956322E+02  0.00000000000E+00 0. -1.
         11    1    3    3    0    0  0.85995610999E+01 -0.18089366869E+02 -0.20501331328E+03  0.20598940814E+03  0.00000000000E+00 0. -1.
        -12    1    3    3    0    0 -0.11172287975E+02  0.42065418407E+02 -0.97150505807E+02  0.10645440443E+03  0.00000000000E+00 0.  1.
          5    1    4    4  501    0 -0.95142852026E+02 -0.37257625344E+02  0.30459134807E+02  0.10670297199E+03  0.41800000000E+01 0. -1.
         -5    1    4    4    0  501  0.37302188415E+02  0.41472577745E+01  0.26064291128E+02  0.45885429928E+02  0.41800000000E+01 0. -1.
</event>
<event>
11    1  0.6763327E-009  0.2717234E+03  0.7561462E-02  0.1012924E+00
         22   -1    0    0    0    0  0.00000000000E+00  0.00000000000E+00  0.10836400013E+04  0.10836400013E+04  0.00000000000E+00 0.  1.
         22   -1    0    0    0    0 -0.00000000000E+00 -0.00000000000E+00 -0.24289770311E+03  0.24289770311E+03  0.00000000000E+00 0. -1.
         24    2    1    2    0    0 -0.16392867544E+03  0.14194201919E+03 -0.21242605156E+02  0.22954772549E+03  0.72254844547E+02 0.  0.
         25    2    1    2    0    0  0.16668625219E+03 -0.25785145275E+03  0.13760851673E+03  0.35896534921E+03  0.12509332398E+03 0.  0.
        -24    2    1    2    0    0 -0.27575767460E+01  0.11590943356E+03  0.72437638665E+03  0.73802462974E+03  0.80725482716E+02 0.  0.
        -13    1    3    3    0    0 -0.45094528323E+02  0.40800651552E+01 -0.14001700822E+02  0.47394208953E+02  0.00000000000E+00 0.  1.
         14    1    3    3    0    0 -0.11883414712E+03  0.13786195403E+03 -0.72409043337E+01  0.18215351654E+03  0.00000000000E+00 0. -1.
         13    1    5    5    0    0  0.28901228106E+00 -0.12587118380E+02  0.75114898703E+02  0.76162767048E+02  0.00000000000E+00 0. -1.
        -14    1    5    5    0    0 -0.30465890271E+01  0.12849655194E+03  0.64926148794E+03  0.66186186269E+03  0.00000000000E+00 0.  1.
          5    1    4    4  501    0  0.17611030963E+03 -0.21687528464E+03  0.14694963956E+03  0.31569193720E+03  0.41800000000E+01 0.  1.
         -5    1    4    4    0  501 -0.94240574371E+01 -0.40976168102E+02 -0.93411228347E+01  0.43273412007E+02  0.41800000000E+01 0.  1.
</event>
<event>
11    1  0.6763327E-009  0.2515906E+03  0.7561462E-02  0.1023055E+00
         22   -1    0    0    0    0  0.00000000000E+00  0.00000000000E+00  0.10682311935E+03  0.10682311935E+03  0.00000000000E+00 0.  1.
         22   -1    0    0    0    0 -0.00000000000E+00 -0.00000000000E+00 -0.15838761655E+04  0.15838761655E+04  0.00000000000E+00 0. -1.
         24    2    1    2    0    0  0.22478523733E+03  0.53360303185E+01 -0.11754117020E+04  0.11993886014E+04  0.79896633155E+02 0.  0.
         25    2    1    2    0    0 -0.19651574406E+03 -0.29020366785E+02 -0.32430667533E+03  0.40035499059E+03  0.12509468207E+03 0.  0.
        -24    2    1    2    0    0 -0.28269493272E+02  0.23684336467E+02  0.22665331175E+02  0.90955692785E+02  0.79994429612E+02 0.  0.
        -13    1    3    3    0    0  0.94992839881E+02 -0.14088498921E+02 -0.68588859211E+03  0.69257872204E+03  0.00000000000E+00 0.  1.
         14    1    3    3    0    0  0.12979239745E+03  0.19424529239E+02 -0.48952310985E+03  0.50680987939E+03  0.00000000000E+00 0. -1.
         11    1    5    5    0    0 -0.37184407245E+02 -0.18754342426E+02 -0.79037108944E+00  0.41653693576E+02  0.00000000000E+00 0. -1.
        -12    1    5    5    0    0  0.89149139734E+01  0.42438678893E+02  0.23455702265E+02  0.49301999209E+02  0.00000000000E+00 0.  1.
          5    1    4    4  501    0 -0.80578994392E+02  0.48187608480E+02 -0.15254912610E+03  0.17917513283E+03  0.41800000000E+01 0.  1.
         -5    1    4    4    0  501 -0.11593674967E+03 -0.77207975265E+02 -0.17175754922E+03  0.22117985777E+03  0.41800000000E+01 0.  1.
</event>
<event>
11    1  0.6763327E-009  0.3087841E+03  0.7561462E-02  0.9965406E-01
         22   -1    0    0    0    0  0.00000000000E+00  0.00000000000E+00  0.10193597216E+04  0.10193597216E+04  0.00000000000E+00 0. -1.
         22   -1    0    0    0    0 -0.00000000000E+00 -0.00000000000E+00 -0.75537842645E+03  0.75537842645E+03  0.00000000000E+00 0. -1.
        -24    2    1    2    0    0  0.54638930248E+02  0.36135689052E+02 -0.44498046307E+03  0.45672998176E+03  0.79394351227E+02 0.  0.
         25    2    1    2    0    0 -0.12262814316E+03 -0.30631273789E+03 -0.17063509198E+03  0.39195657913E+03  0.12509384645E+03 0.  0.
         24    2    1    2    0    0  0.67989212915E+02  0.27017704884E+03  0.87959685022E+03  0.92605158720E+03  0.79137553876E+02 0.  0.
        -11    1    5    5    0    0  0.34945715998E+00  0.12105825162E+02  0.12682394687E+03  0.12740088942E+03  0.00000000000E+00 0.  1.
         12    1    5    5    0    0  0.67639755755E+02  0.25807122367E+03  0.75277290335E+03  0.79865069778E+03  0.00000000000E+00 0. -1.
         11    1    3    3    0    0  0.64082719865E+02  0.52854166711E+02 -0.33937627802E+03  0.34939435600E+03  0.00000000000E+00 0. -1.
        -12    1    3    3    0    0 -0.94437896174E+01 -0.16718477659E+02 -0.10560418504E+03  0.10733562576E+03  0.00000000000E+00 0.  1.
          5    1    4    4  501    0 -0.10672952887E+03 -0.29325785904E+03 -0.18831152441E+03  0.36451346593E+03  0.41800000000E+01 0.  1.
         -5    1    4    4    0  501 -0.15898614291E+02 -0.13054878852E+02  0.17676432436E+02  0.27443113196E+02  0.41800000000E+01 0.  1.
</event>
<event>
11    1  0.6763327E-009  0.1892696E+03  0.7561462E-02  0.1062382E+00
         22   -1    0    0    0    0  0.00000000000E+00  0.00000000000E+00  0.48500171219E+03  0.48500171219E+03  0.00000000000E+00 0. -1.
         22   -1    0    0    0    0 -0.00000000000E+00 -0.00000000000E+00 -0.47377334809E+03  0.47377334809E+03  0.00000000000E+00 0. -1.
        -24    2    1    2    0    0 -0.99600864641E+02 -0.91360107662E+02 -0.34448951188E+03  0.37912234379E+03  0.82424063597E+02 0.  0.
         25    2    1    2    0    0  0.15556714941E+03  0.11517162533E+03  0.23040606267E+02  0.23161149077E+03  0.12508945544E+03 0.  0.
         24    2    1    2    0    0 -0.55966284770E+02 -0.23811517673E+02  0.33267726971E+03  0.34804122572E+03  0.82215057107E+02 0.  0.
        -13    1    5    5    0    0  0.13794981587E+02  0.54568022525E+01  0.13625109644E+02  0.20142537591E+02  0.00000000000E+00 0.  1.
         14    1    5    5    0    0 -0.69761266357E+02 -0.29268319926E+02  0.31905216006E+03  0.32789868813E+03  0.00000000000E+00 0. -1.
         13    1    3    3    0    0 -0.23669176673E+02 -0.56948240547E+02 -0.22587193580E+03  0.23413983730E+03  0.00000000000E+00 0. -1.
        -14    1    3    3    0    0 -0.75931687968E+02 -0.34411867115E+02 -0.11861757607E+03  0.14498250649E+03  0.00000000000E+00 0.  1.
          5    1    4    4  501    0  0.13016728414E+03  0.79799329775E+02  0.69491201116E+02  0.16780332036E+03  0.41800000000E+01 0.  1.
         -5    1    4    4    0  501  0.25399865272E+02  0.35372295560E+02 -0.46450594849E+02  0.63808170408E+02  0.41800000000E+01 0.  1.
</event>
<event>
11    1  0.6763327E-009  0.1476097E+03  0.7561462E-02  0.1099347E+00
         22   -1    0    0    0    0  0.00000000000E+00  0.00000000000E+00  0.10257379714E+04  0.10257379714E+04  0.00000000000E+00 0. -1.
         22   -1    0    0    0    0 -0.00000000000E+00 -0.00000000000E+00 -0.12362845333E+04  0.12362845333E+04  0.00000000000E+00 0. -1.
        -24    2    1    2    0    0  0.58077018308E+02 -0.53237985152E+02 -0.11915790697E+04  0.11969767061E+04  0.81763881892E+02 0.  0.
         25    2    1    2    0    0 -0.62927742052E+02  0.18780126944E+02  0.85250984776E+02  0.16500528349E+03  0.12508564780E+03 0.  0.
         24    2    1    2    0    0  0.48507237434E+01  0.34457858208E+02  0.89578152312E+03  0.90004051510E+03  0.80234145752E+02 0.  0.
        -13    1    5    5    0    0 -0.79671371971E+01 -0.19757282301E+02  0.48877107519E+03  0.48923510649E+03  0.00000000000E+00 0.  1.
         14    1    5    5    0    0  0.12817860941E+02  0.54215140509E+02  0.40701044793E+03  0.41080540861E+03  0.00000000000E+00 0. -1.
         11    1    3    3    0    0  0.37387363229E+02 -0.55884889816E+02 -0.43995707193E+03  0.44506534462E+03  0.00000000000E+00 0. -1.
        -12    1    3    3    0    0  0.20689655079E+02  0.26469046634E+01 -0.75162199781E+03  0.75191136148E+03  0.00000000000E+00 0.  1.
          5    1    4    4  501    0 -0.61622837066E+01 -0.27156126770E+02  0.87406555647E+02  0.91830318151E+02  0.41800000000E+01 0.  1.
         -5    1    4    4    0  501 -0.56765458345E+02  0.45936253714E+02 -0.21555708715E+01  0.73174965338E+02  0.41800000000E+01 0.  1.
</event>
<event>
11    1  0.6763327E-009  0.1445971E+03  0.7561462E-02  0.1102531E+00
         22   -1    0    0    0    0  0.00000000000E+00  0.00000000000E+00  0.17818708672E+04  0.17818708672E+04  0.00000000000E+00 0.  1.
         22   -1    0    0    0    0 -0.00000000000E+00 -0.00000000000E+00 -0.12078377131E+03  0.12078377131E+03  0.00000000000E+00 0.  1.
        -24    2    1    2    0    0  0.63050641333E+02 -0.37677721936E+02 -0.79960992729E+02  0.13491596209E+03  0.80084719933E+02 0.  0.
         25    2    1    2    0    0 -0.69067604413E+01 -0.26769451800E+02  0.36744078603E+03  0.38913422170E+03  0.12509358244E+03 0.  0.
         24    2    1    2    0    0 -0.56143880892E+02  0.64447173736E+02  0.13736073026E+04  0.13786044547E+04  0.80297243421E+02 0.  0.
        -11    1    5    5    0    0 -0.31221594811E+02  0.79491868412E+02  0.11391221329E+04  0.11423191230E+04  0.00000000000E+00 0.  1.
         12    1    5    5    0    0 -0.24922286081E+02 -0.15044694676E+02  0.23448516971E+03  0.23628533174E+03  0.00000000000E+00 0. -1.
         11    1    3    3    0    0  0.18993380531E+02 -0.93554196261E+00  0.14831232614E+02  0.24116160632E+02  0.00000000000E+00 0. -1.
        -12    1    3    3    0    0  0.44057260802E+02 -0.36742179973E+02 -0.94792225343E+02  0.11079980146E+03  0.00000000000E+00 0.  1.
          5    1    4    4  501    0 -0.57350301209E+02 -0.86946991547E+01  0.28391564960E+03  0.28981066807E+03  0.41800000000E+01 0.  1.
         -5    1    4    4    0  501  0.50443540768E+02 -0.18074752645E+02  0.83525136434E+02  0.99323553625E+02  0.41800000000E+01 0.  1.
</event>
<event>
11    1  0.6763327E-009  0.1454174E+03  0.7561462E-02  0.1101655E+00
         22   -1    0    0    0    0  0.00000000000E+00  0.00000000000E+00  0.67100837186E+03  0.67100837186E+03  0.00000000000E+00 0.  1.
         22   -1    0    0    0    0 -0.00000000000E+00 -0.00000000000E+00 -0.42508991239E+03  0.42508991239E+03  0.00000000000E+00 0. -1.
         24    2    1    2    0    0 -0.27011116474E+02 -0.59973420021E+02 -0.24225780148E+03  0.26391722801E+03  0.81468087894E+02 0.  0.
         25    2    1    2    0    0 -0.23116993878E+02  0.11363339264E+03 -0.12373024504E+03  0.21072071994E+03  0.12508838853E+03 0.  0.
        -24    2    1    2    0    0  0.50128110352E+02 -0.53659972616E+02  0.61190650598E+03  0.62146033629E+03  0.79944714706E+02 0.  0.
        -11    1    3    3    0    0 -0.13893321343E+02 -0.56841269299E+01  0.29811780763E+00  0.15014078431E+02  0.00000000000E+00 0.  1.
         12    1    3    3    0    0 -0.13117795130E+02 -0.54289293091E+02 -0.24255591928E+03  0.24890314958E+03  0.00000000000E+00 0. -1.
         13    1    5    5    0    0  0.23179752117E+02 -0.23304939307E+02  0.63038347673E+02  0.71093279440E+02  0.00000000000E+00 0. -1.
        -14    1    5    5    0    0  0.26948358235E+02 -0.30355033309E+02  0.54886815831E+03  0.55036705685E+03  0.00000000000E+00 0.  1.
          5    1    4    4  501    0  0.84541023698E+00 -0.19210586713E+02 -0.56561621593E+02  0.59886983541E+02  0.41800000000E+01 0.  1.
         -5    1    4    4    0  501 -0.23962404115E+02  0.13284397935E+03 -0.67168623451E+02  0.15083373640E+03  0.41800000000E+01 0.  1.
</event>
<event>
11    1  0.6763327E-009  0.1514009E+03  0.7561462E-02  0.1095456E+00
         22   -1    0    0    0    0  0.00000000000E+00  0.00000000000E+00  0.14830416427E+03  0.14830416427E+03  0.00000000000E+00 0. -1.
         22   -1    0    0    0    0 -0.00000000000E+00 -0.00000000000E+00 -0.22643187155E+04  0.22643187155E+04  0.00000000000E+00 0.  1.
        -24    2    1    2    0    0 -0.52791661571E+01 -0.16838002175E+02 -0.13068974914E+04  0.13093287484E+04  0.77777440280E+02 0.  0.
         25    2    1    2    0    0 -0.10746525097E+02  0.10019054226E+03 -0.92371122188E+03  0.93757297029E+03  0.12508805153E+03 0.  0.
         24    2    1    2    0    0  0.16025691254E+02 -0.83352540086E+02  0.11459416207E+03  0.16572116114E+03  0.84422820075E+02 0.  0.
        -13    1    5    5    0    0  0.49042088171E+02 -0.32372142341E+02  0.61307949528E+02  0.84922003551E+02  0.00000000000E+00 0.  1.
         14    1    5    5    0    0 -0.33016396917E+02 -0.50980397745E+02  0.53286212547E+02  0.80799157590E+02  0.00000000000E+00 0. -1.
         13    1    3    3    0    0 -0.26641074627E+02  0.22050247388E+02 -0.48214919532E+03  0.48338784305E+03  0.00000000000E+00 0. -1.
        -14    1    3    3    0    0  0.21361908470E+02 -0.38888249562E+02 -0.82474829613E+03  0.82594090530E+03  0.00000000000E+00 0.  1.
          5    1    4    4  501    0  0.23384777138E+02  0.11774781353E+03 -0.63157459636E+03  0.64289605579E+03  0.41800000000E+01 0.  1.
         -5    1    4    4    0  501 -0.34131302235E+02 -0.17557271265E+02 -0.29213662552E+03  0.29467691450E+03  0.41800000000E+01 0.  1.
</event>
<event>
11    1  0.6763327E-009  0.1327641E+03  0.7561462E-02  0.1115919E+00
         22   -1    0    0    0    0  0.00000000000E+00  0.00000000000E+00  0.13406764120E+03  0.13406764120E+03  0.00000000000E+00 0. -1.
         22   -1    0    0    0    0 -0.00000000000E+00 -0.00000000000E+00 -0.20090686498E+04  0.20090686498E+04  0.00000000000E+00 0.  1.
        -24    2    1    2    0    0  0.36203748823E+02 -0.26341728514E+02 -0.17875355574E+04  0.17899108923E+04  0.80579371765E+02 0.  0.
         25    2    1    2    0    0 -0.48360206503E+02 -0.70341974565E+00 -0.18258415781E+03  0.22654690466E+03  0.12508925196E+03 0.  0.
         24    2    1    2    0    0  0.12156457680E+02  0.27045148259E+02  0.95118706693E+02  0.12667849400E+03  0.78234602134E+02 0.  0.
        -13    1    5    5    0    0  0.28660665030E+02 -0.14904623920E+02  0.17046625989E+02  0.36526278099E+02  0.00000000000E+00 0.  1.
         14    1    5    5    0    0 -0.16504207350E+02  0.41949772179E+02  0.78072080704E+02  0.90152215900E+02  0.00000000000E+00 0. -1.
         11    1    3    3    0    0 -0.11531209988E+02  0.21456135194E+02 -0.53693382124E+03  0.53748605836E+03  0.00000000000E+00 0. -1.
        -12    1    3    3    0    0  0.47734958811E+02 -0.47797863708E+02 -0.12506017362E+04  0.12524248339E+04  0.00000000000E+00 0.  1.
          5    1    4    4  501    0  0.16844563312E+02  0.15585085702E+02 -0.14988485500E+03  0.15168907795E+03  0.41800000000E+01 0. -1.
         -5    1    4    4    0  501 -0.65204769816E+02 -0.16288505448E+02 -0.32699302810E+02  0.74857826716E+02  0.41800000000E+01 0. -1.
</event>
<event>
11    1  0.6763327E-009  0.1677128E+03  0.7561462E-02  0.1080039E+00
         22   -1    0    0    0    0  0.00000000000E+00  0.00000000000E+00  0.33399615636E+03  0.33399615636E+03  0.00000000000E+00 0. -1.
         22   -1    0    0    0    0 -0.00000000000E+00 -0.00000000000E+00 -0.31822338193E+03  0.31822338193E+03  0.00000000000E+00 0.  1.
        -24    2    1    2    0    0 -0.95206493739E+02  0.63734234137E+02 -0.25319211982E+03  0.28958328202E+03  0.81399623069E+02 0.  0.
         25    2    1    2    0    0  0.70162874126E+02 -0.49954433113E+02  0.12977671418E+03  0.19975580597E+03  0.12506843000E+03 0.  0.
         24    2    1    2    0    0  0.25043619613E+02 -0.13779801025E+02  0.13918818007E+03  0.16288045030E+03  0.79621767260E+02 0.  0.
        -11    1    5    5    0    0  0.20148848427E+02 -0.22497658709E+02  0.79071819438E+01  0.31219293179E+02  0.00000000000E+00 0.  1.
         12    1    5    5    0    0  0.48947711862E+01  0.87178576846E+01  0.13128099812E+03  0.13166115712E+03  0.00000000000E+00 0. -1.
         13    1    3    3    0    0 -0.10604437953E+02 -0.37892460387E+01 -0.10746175332E+03  0.10805017777E+03  0.00000000000E+00 0. -1.
        -14    1    3    3    0    0 -0.84602055786E+02  0.67523480176E+02 -0.14573036650E+03  0.18153310425E+03  0.00000000000E+00 0.  1.
          5    1    4    4  501    0  0.32466159613E+02 -0.76701214318E+02  0.12867106023E+03  0.15333245559E+03  0.41800000000E+01 0. -1.
         -5    1    4    4    0  501  0.37696714513E+02  0.26746781205E+02  0.11056539559E+01  0.46423350381E+02  0.41800000000E+01 0. -1.
</event>
<event>
11    1  0.6763327E-009  0.1318598E+03  0.7561462E-02  0.1117005E+00
         22   -1    0    0    0    0  0.00000000000E+00  0.00000000000E+00  0.47593392192E+03  0.47593392192E+03  0.00000000000E+00 0.  1.
         22   -1    0    0    0    0 -0.00000000000E+00 -0.00000000000E+00 -0.23426324538E+03  0.23426324538E+03  0.00000000000E+00 0. -1.
        -24    2    1    2    0    0 -0.27482376960E+02 -0.16888624435E+02 -0.18172306339E+03  0.20146812718E+03  0.80781358136E+02 0.  0.
         25    2    1    2    0    0  0.20661239704E+01  0.50199921402E+02  0.87577894535E+02  0.16075816834E+03  0.12509596356E+03 0.  0.
         24    2    1    2    0    0  0.25416252989E+02 -0.33311296966E+02  0.33581584539E+03  0.34797087177E+03  0.80968000859E+02 0.  0.
        -11    1    5    5    0    0  0.15874135985E+02 -0.58587084981E+02  0.27165449714E+03  0.27835337349E+03  0.00000000000E+00 0.  1.
         12    1    5    5    0    0  0.95421170039E+01  0.25275788015E+02  0.64161348257E+02  0.69617498280E+02  0.00000000000E+00 0. -1.
         13    1    3    3    0    0 -0.10985073637E+02 -0.12207282322E+02 -0.18349479773E+03  0.18422820190E+03  0.00000000000E+00 0. -1.
        -14    1    3    3    0    0 -0.16497303323E+02 -0.46813421136E+01  0.17717343357E+01  0.17239925274E+02  0.00000000000E+00 0.  1.
          5    1    4    4  501    0 -0.21153870930E+01  0.84818772130E+02  0.92162676604E+02  0.12534005875E+03  0.41800000000E+01 0.  1.
         -5    1    4    4    0  501  0.41815110634E+01 -0.34618850728E+02 -0.45847820689E+01  0.35418109593E+02  0.41800000000E+01 0.  1.
</event>
<event>
11    1  0.6763327E-009  0.2230598E+03  0.7561462E-02  0.1039317E+00
         22   -1    0    0    0    0  0.00000000000E+00  0.00000000000E+00  0.20906416898E+04  0.20906416898E+04  0.00000000000E+00 0.  1.
         22   -1    0    0    0    0 -0.00000000000E+00 -0.00000000000E+00 -0.19960042561E+04  0.19960042561E+04  0.00000000000E+00 0. -1.
         24    2    1    2    0    0  0.64270127452E+02 -0.47477556215E+02 -0.17684519091E+04  0.17712092639E+04  0.58097626739E+02 0.  0.
         25    2    1    2    0    0 -0.12230477514E+03 -0.12841589978E+03 -0.16794556598E+03  0.27441729153E+03  0.12510010159E+03 0.  0.
        -24    2    1    2    0    0  0.58034647686E+02  0.17589345599E+03  0.20310349088E+04  0.20410193904E+04  0.79692051376E+02 0.  0.
        -13    1    3    3    0    0  0.31263966253E+02 -0.28369925411E+01 -0.28591538858E+03  0.28763360989E+03  0.00000000000E+00 0.  1.
         14    1    3    3    0    0  0.33006161199E+02 -0.44640563674E+02 -0.14825365205E+04  0.14835756541E+04  0.00000000000E+00 0. -1.
         13    1    5    5    0    0 -0.11191567770E+02  0.20461284374E+02  0.10896583861E+03  0.11143369926E+03  0.00000000000E+00 0. -1.
        -14    1    5    5    0    0  0.69226215457E+02  0.15543217162E+03  0.19220690702E+04  0.19295856912E+04  0.00000000000E+00 0.  1.
          5    1    4    4  501    0 -0.13170217158E+02 -0.88555447604E+02 -0.11725375810E+03  0.14758535872E+03  0.41800000000E+01 0. -1.
         -5    1    4    4    0  501 -0.10913455798E+03 -0.39860452173E+02 -0.50691807881E+02  0.12683193281E+03  0.41800000000E+01 0. -1.
</event>
<event>
11    1  0.6763327E-009  0.1330833E+03  0.7561462E-02  0.1115538E+00
         22   -1    0    0    0    0  0.00000000000E+00  0.00000000000E+00  0.58037754456E+03  0.58037754456E+03  0.00000000000E+00 0. -1.
         22   -1    0    0    0    0 -0.00000000000E+00 -0.00000000000E+00 -0.17115715478E+04  0.17115715478E+04  0.00000000000E+00 0. -1.
         24    2    1    2    0    0  0.10760814169E+02 -0.10500330386E+02 -0.11490792141E+04  0.11518703053E+04  0.78715360368E+02 0.  0.
         25    2    1    2    0    0 -0.42712145621E+02 -0.21788614713E+02 -0.54921866893E+03  0.56532101080E+03  0.12509047856E+03 0.  0.
        -24    2    1    2    0    0  0.31951331452E+02  0.32288945098E+02  0.56710387984E+03  0.57475777618E+03  0.81708183170E+02 0.  0.
        -11    1    3    3    0    0  0.14013055372E+02 -0.20087986934E+02 -0.10802418726E+03  0.11076605064E+03  0.00000000000E+00 0.  1.
         12    1    3    3    0    0 -0.32522412031E+01  0.95876565480E+01 -0.10410550268E+04  0.10411042547E+04  0.00000000000E+00 0. -1.
         13    1    5    5    0    0  0.57601825180E+02  0.28445643056E+02  0.46473289032E+03  0.46915219728E+03  0.00000000000E+00 0. -1.
        -14    1    5    5    0    0 -0.25650493728E+02  0.38433020419E+01  0.10237098952E+03  0.10560557890E+03  0.00000000000E+00 0.  1.
          5    1    4    4  501    0  0.15552267274E+02 -0.19636958841E+02 -0.18566389582E+02  0.31458963620E+02  0.41800000000E+01 0.  1.
         -5    1    4    4    0  501 -0.58264412895E+02 -0.21516558714E+01 -0.53065227935E+03  0.53386204718E+03  0.41800000000E+01 0.  1.
</event>
<event>
11    1  0.2017637E-008  0.1755413E+03  0.7561462E-02  0.1073308E+00
         22   -1    0    0    0    0  0.00000000000E+00  0.00000000000E+00  0.10414349655E+04  0.10414349655E+04  0.00000000000E+00 0.  1.
         22   -1    0    0    0    0 -0.00000000000E+00 -0.00000000000E+00 -0.59715214926E+03  0.59715214926E+03  0.00000000000E+00 0.  1.
         24    2    1    2    0    0 -0.23336892939E+02  0.33215232500E+02 -0.34037675548E+03  0.35209421552E+03  0.80412304309E+02 0.  0.
         25    2    1    2    0    0  0.14497385318E+03 -0.48626689876E+02 -0.20629413332E+03  0.28563620224E+03  0.12509515383E+03 0.  0.
        -24    2    1    2    0    0 -0.12163696024E+03  0.15411457376E+02  0.99095370501E+03  0.10008566970E+04  0.68496856026E+02 0.  0.
        -13    1    3    3    0    0 -0.44295586665E+02  0.31170110749E+01 -0.10692492255E+03  0.11577890057E+03  0.00000000000E+00 0.  1.
         14    1    3    3    0    0  0.20958693726E+02  0.30098221425E+02 -0.23345183294E+03  0.23631531494E+03  0.00000000000E+00 0. -1.
         13    1    5    5    0    0 -0.38945773027E+02  0.67961649749E+01  0.12949367944E+03  0.13539414356E+03  0.00000000000E+00 0. -1.
        -14    1    5    5    0    0 -0.82691187211E+02  0.86152924010E+01  0.86146002556E+03  0.86546255341E+03  0.00000000000E+00 0.  1.
          5    1    4    4  501    0 -0.21255333658E+02 -0.11422412503E+02 -0.12198367954E+02  0.27359336561E+02  0.41800000000E+01 0. -1.
         -5    1    4    4    0  501  0.16622918684E+03 -0.37204277373E+02 -0.19409576537E+03  0.25827686568E+03  0.41800000000E+01 0. -1.
</event>
<event>
11    1  0.6763327E-009  0.1488569E+03  0.7561462E-02  0.1098053E+00
         22   -1    0    0    0    0  0.00000000000E+00  0.00000000000E+00  0.10389080251E+04  0.10389080251E+04  0.00000000000E+00 0.  1.
         22   -1    0    0    0    0 -0.00000000000E+00 -0.00000000000E+00 -0.14533994862E+03  0.14533994862E+03  0.00000000000E+00 0. -1.
        -24    2    1    2    0    0 -0.25737869774E+02  0.49069139192E+02 -0.65183026237E+02  0.11768009085E+03  0.80805683660E+02 0.  0.
         25    2    1    2    0    0 -0.26935031132E+02  0.18488869494E+02  0.36323582707E+02  0.13429178930E+03  0.12509015874E+03 0.  0.
         24    2    1    2    0    0  0.52672900906E+02 -0.67558008685E+02  0.92242751997E+03  0.93227609353E+03  0.10453547692E+03 0.  0.
        -13    1    5    5    0    0  0.64811298274E+02 -0.66946015148E+02  0.91047218866E+03  0.91522777474E+03  0.00000000000E+00 0.  1.
         14    1    5    5    0    0 -0.12138397367E+02 -0.61199353728E+00  0.11955331306E+02  0.17048318785E+02  0.00000000000E+00 0. -1.
         13    1    3    3    0    0 -0.50679948094E+02  0.37120926931E+02 -0.64468710698E+02  0.90014637777E+02  0.00000000000E+00 0. -1.
        -14    1    3    3    0    0  0.24942078320E+02  0.11948212260E+02 -0.71431553955E+00  0.27665453075E+02  0.00000000000E+00 0.  1.
          5    1    4    4  501    0  0.48394941104E+02  0.22737257706E+02  0.17515961986E+02  0.56421046930E+02  0.41800000000E+01 0. -1.
         -5    1    4    4    0  501 -0.75329972236E+02 -0.42483882121E+01  0.18807620721E+02  0.77870742366E+02  0.41800000000E+01 0. -1.
</event>
<event>
11    1  0.6763327E-009  0.1492682E+03  0.7561462E-02  0.1097629E+00
         22   -1    0    0    0    0  0.00000000000E+00  0.00000000000E+00  0.34661086186E+03  0.34661086186E+03  0.00000000000E+00 0. -1.
         22   -1    0    0    0    0 -0.00000000000E+00 -0.00000000000E+00 -0.95562857255E+03  0.95562857255E+03  0.00000000000E+00 0.  1.
         24    2    1    2    0    0 -0.34529541528E+02  0.51355994366E+02 -0.79326406561E+03  0.79970250828E+03  0.80165432420E+02 0.  0.
         25    2    1    2    0    0  0.10569041725E+03 -0.12845146799E+02 -0.10288957427E+03  0.19383817447E+03  0.12510600022E+03 0.  0.
        -24    2    1    2    0    0 -0.71160875723E+02 -0.38510847567E+02  0.28713592919E+03  0.30869875166E+03  0.79378346112E+02 0.  0.
        -11    1    3    3    0    0 -0.79134666356E+01 -0.20126246372E+02 -0.27584027412E+03  0.27668672822E+03  0.00000000000E+00 0.  1.
         12    1    3    3    0    0 -0.26616074892E+02  0.71482240737E+02 -0.51742379150E+03  0.52301578006E+03  0.00000000000E+00 0. -1.
         13    1    5    5    0    0 -0.39836232238E+02  0.18324470824E+02  0.16077746151E+03  0.16664964375E+03  0.00000000000E+00 0. -1.
        -14    1    5    5    0    0 -0.31324643485E+02 -0.56835318391E+02  0.12635846768E+03  0.14204910792E+03  0.00000000000E+00 0.  1.
          5    1    4    4  501    0  0.12968310604E+03 -0.25999022135E+02 -0.10028457829E+03  0.16603652064E+03  0.41800000000E+01 0. -1.
         -5    1    4    4    0  501 -0.23992688786E+02  0.13153875336E+02 -0.26049959821E+01  0.27801653829E+02  0.41800000000E+01 0. -1.
</event>
<event>
11    1  0.6763327E-009  0.1270380E+03  0.7561462E-02  0.1122963E+00
         22   -1    0    0    0    0  0.00000000000E+00  0.00000000000E+00  0.46506215503E+03  0.46506215503E+03  0.00000000000E+00 0.  1.
         22   -1    0    0    0    0 -0.00000000000E+00 -0.00000000000E+00 -0.36530859599E+03  0.36530859599E+03  0.00000000000E+00 0.  1.
         24    2    1    2    0    0 -0.15004208488E+02  0.10971072086E+02 -0.32006277287E+03  0.33016005290E+03  0.78866921222E+02 0.  0.
         25    2    1    2    0    0 -0.32511119196E+01  0.54962331990E+01  0.77367804368E+02  0.14722108155E+03  0.12508993321E+03 0.  0.
        -24    2    1    2    0    0  0.18255320407E+02 -0.16467305285E+02  0.34244852754E+03  0.35298961656E+03  0.82013697147E+02 0.  0.
        -11    1    3    3    0    0 -0.16405690248E+02  0.14779296710E+01 -0.32014021574E+03  0.32056370457E+03  0.00000000000E+00 0.  1.
         12    1    3    3    0    0  0.14014817603E+01  0.94931424150E+01  0.77442875912E-01  0.95963483386E+01  0.00000000000E+00 0. -1.
         11    1    5    5    0    0  0.46208389441E+02  0.82879329699E+01  0.15929099473E+03  0.16606482496E+03  0.00000000000E+00 0. -1.
        -12    1    5    5    0    0 -0.27953069034E+02 -0.24755238255E+02  0.18315753281E+03  0.18692479160E+03  0.00000000000E+00 0.  1.
          5    1    4    4  501    0  0.53814768482E+02  0.20210480927E+02  0.64975583557E+02  0.86855003913E+02  0.41800000000E+01 0.  1.
         -5    1    4    4    0  501 -0.57065880402E+02 -0.14714247728E+02  0.12392220810E+02  0.60366077633E+02  0.41800000000E+01 0.  1.
</event>
<event>
11    1  0.6763327E-009  0.1353351E+03  0.7561462E-02  0.1112882E+00
         22   -1    0    0    0    0  0.00000000000E+00  0.00000000000E+00  0.27537863792E+03  0.27537863792E+03  0.00000000000E+00 0. -1.
         22   -1    0    0    0    0 -0.00000000000E+00 -0.00000000000E+00 -0.12951773001E+04  0.12951773001E+04  0.00000000000E+00 0. -1.
         24    2    1    2    0    0 -0.14773694059E+02 -0.35280521254E+02 -0.11247788298E+04  0.11282170734E+04  0.79267721063E+02 0.  0.
         25    2    1    2    0    0  0.34828684315E+02  0.80551800739E+02 -0.12260225573E+03  0.19590998711E+03  0.12509108715E+03 0.  0.
        -24    2    1    2    0    0 -0.20054990256E+02 -0.45271279485E+02  0.22758242333E+03  0.24642887750E+03  0.80509259574E+02 0.  0.
        -13    1    3    3    0    0 -0.41344351645E+01  0.19797971037E+02 -0.10707591522E+03  0.10896928389E+03  0.00000000000E+00 0.  1.
         14    1    3    3    0    0 -0.10639258895E+02 -0.55078492291E+02 -0.10177029145E+04  0.10192477895E+04  0.00000000000E+00 0. -1.
         11    1    5    5    0    0  0.28774924660E+02 -0.32969904963E+02  0.94583178689E+02  0.10421606696E+03  0.00000000000E+00 0. -1.
        -12    1    5    5    0    0 -0.48829914916E+02 -0.12301374522E+02  0.13299924464E+03  0.14221281054E+03  0.00000000000E+00 0.  1.
          5    1    4    4  501    0  0.13374147966E+02 -0.41288349375E+01  0.22301414720E+02  0.26659718871E+02  0.41800000000E+01 0. -1.
         -5    1    4    4    0  501  0.21454536349E+02  0.84680635677E+02 -0.14490367045E+03  0.16925026824E+03  0.41800000000E+01 0. -1.
</event>
<event>
11    1  0.6763327E-009  0.1477078E+03  0.7561462E-02  0.1099244E+00
         22   -1    0    0    0    0  0.00000000000E+00  0.00000000000E+00  0.31224994431E+03  0.31224994431E+03  0.00000000000E+00 0.  1.
         22   -1    0    0    0    0 -0.00000000000E+00 -0.00000000000E+00 -0.73892307681E+03  0.73892307681E+03  0.00000000000E+00 0.  1.
         24    2    1    2    0    0 -0.67717182905E+02  0.43303693133E+02 -0.59659573918E+03  0.60830388238E+03  0.87443185069E+02 0.  0.
         25    2    1    2    0    0  0.70682708237E+02 -0.10610328411E+02 -0.89315201488E+02  0.16951301437E+03  0.12509529373E+03 0.  0.
        -24    2    1    2    0    0 -0.29655253315E+01 -0.32693364723E+02  0.25923780816E+03  0.27335612436E+03  0.80260071674E+02 0.  0.
        -11    1    3    3    0    0 -0.58688433389E+02  0.69263368397E+02 -0.48029158027E+03  0.48879622390E+03  0.00000000000E+00 0.  1.
         12    1    3    3    0    0 -0.90287495160E+01 -0.25959675264E+02 -0.11630415891E+03  0.11950765849E+03  0.00000000000E+00 0. -1.
         11    1    5    5    0    0  0.31203975899E+00 -0.23225292163E+01 -0.59603408820E+01  0.64044651769E+01  0.00000000000E+00 0. -1.
        -12    1    5    5    0    0 -0.32775650905E+01 -0.30370835506E+02  0.26519814905E+03  0.26695165918E+03  0.00000000000E+00 0.  1.
          5    1    4    4  501    0  0.93058476764E+02  0.17274733009E+02 -0.28659501028E+02  0.98980482406E+02  0.41800000000E+01 0.  1.
         -5    1    4    4    0  501 -0.22375768528E+02 -0.27885061419E+02 -0.60655700460E+02  0.70532531968E+02  0.41800000000E+01 0.  1.
</event>
<event>
11    1  0.6763327E-009  0.2119187E+03  0.7561462E-02  0.1046401E+00
         22   -1    0    0    0    0  0.00000000000E+00  0.00000000000E+00  0.10432019426E+04  0.10432019426E+04  0.00000000000E+00 0.  1.
         22   -1    0    0    0    0 -0.00000000000E+00 -0.00000000000E+00 -0.15585459035E+04  0.15585459035E+04  0.00000000000E+00 0.  1.
        -24    2    1    2    0    0 -0.21325654730E+01 -0.10894415711E+03 -0.14635628649E+04  0.14698122372E+04  0.80364021587E+02 0.  0.
         25    2    1    2    0    0 -0.36063986281E+02 -0.70426943970E+02 -0.13847534516E+02  0.14866320518E+03  0.12509368018E+03 0.  0.
         24    2    1    2    0    0  0.38196551754E+02  0.17937110108E+03  0.96206643856E+03  0.98327240374E+03  0.87291576199E+02 0.  0.
        -11    1    5    5    0    0 -0.12651776121E+02  0.17513372459E+01  0.14579587171E+03  0.14635426481E+03  0.00000000000E+00 0.  1.
         12    1    5    5    0    0  0.50848327874E+02  0.17761976384E+03  0.81627056685E+03  0.83691813893E+03  0.00000000000E+00 0. -1.
         13    1    3    3    0    0 -0.38453110368E+02 -0.74881483545E+02 -0.81287660626E+03  0.81722350388E+03  0.00000000000E+00 0. -1.
        -14    1    3    3    0    0  0.36320544895E+02 -0.34062673566E+02 -0.65068625861E+03  0.65258873332E+03  0.00000000000E+00 0.  1.
          5    1    4    4  501    0 -0.75704462293E+02 -0.59877627091E+02  0.15776398789E+02  0.97892098741E+02  0.41800000000E+01 0.  1.
         -5    1    4    4    0  501  0.39640476012E+02 -0.10549316879E+02 -0.29623933305E+02  0.50771106444E+02  0.41800000000E+01 0.  1.
</event>
<event>
11    1  0.6763327E-009  0.1469111E+03  0.7561462E-02  0.1100077E+00
         22   -1    0    0    0    0  0.00000000000E+00  0.00000000000E+00  0.19139598254E+03  0.19139598254E+03  0.00000000000E+00 0.  1.
         22   -1    0    0    0    0 -0.00000000000E+00 -0.00000000000E+00 -0.18552643685E+04  0.18552643685E+04  0.00000000000E+00 0.  1.
        -24    2    1    2    0    0 -0.52343910599E+02  0.57313547869E+02 -0.17810578407E+04  0.17845778612E+04  0.80786032211E+02 0.  0.
         25    2    1    2    0    0  0.32285937482E+02 -0.38416580525E+02  0.26205151569E+02  0.13730486676E+03  0.12509077124E+03 0.  0.
         24    2    1    2    0    0  0.20057973118E+02 -0.18896967344E+02  0.90984303239E+02  0.12477762302E+03  0.80820134313E+02 0.  0.
        -11    1    5    5    0    0 -0.76613467818E+01 -0.45905492933E+01  0.93085918792E+02  0.93513408956E+02  0.00000000000E+00 0.  1.
         12    1    5    5    0    0  0.27719319899E+02 -0.14306418050E+02 -0.21016155529E+01  0.31264214064E+02  0.00000000000E+00 0. -1.
         11    1    3    3    0    0 -0.13339425846E+02  0.62058050576E+02 -0.71994956775E+03  0.72274236214E+03  0.00000000000E+00 0. -1.
        -12    1    3    3    0    0 -0.39004484753E+02 -0.47445027066E+01 -0.10611082730E+04  0.10618354991E+04  0.00000000000E+00 0.  1.
          5    1    4    4  501    0 -0.45100907552E+02 -0.17500344142E+02  0.29763585148E+02  0.56953466163E+02  0.41800000000E+01 0. -1.
         -5    1    4    4    0  501  0.77386845033E+02 -0.20916236383E+02 -0.35584335797E+01  0.80351400599E+02  0.41800000000E+01 0. -1.
</event>
<event>
11    1  0.6763327E-009  0.1433361E+03  0.7561462E-02  0.1103889E+00
         22   -1    0    0    0    0  0.00000000000E+00  0.00000000000E+00  0.18548599524E+03  0.18548599524E+03  0.00000000000E+00 0. -1.
         22   -1    0    0    0    0 -0.00000000000E+00 -0.00000000000E+00 -0.11901845178E+04  0.11901845178E+04  0.00000000000E+00 0.  1.
         24    2    1    2    0    0 -0.74930967780E+02 -0.27202672214E+02 -0.91135271836E+03  0.91848137281E+03  0.81790095004E+02 0.  0.
         25    2    1    2    0    0  0.19005998067E+02  0.24014635785E+02 -0.24384901314E+03  0.27576804052E+03  0.12509092800E+03 0.  0.
        -24    2    1    2    0    0  0.55924969713E+02  0.31880364287E+01  0.15050320897E+03  0.18142109967E+03  0.84407545174E+02 0.  0.
        -11    1    3    3    0    0 -0.74810427045E+02  0.19796080301E+01 -0.79539808741E+03  0.79891090636E+03  0.00000000000E+00 0.  1.
         12    1    3    3    0    0 -0.12054073558E+00 -0.29182280244E+02 -0.11595463095E+03  0.11957046646E+03  0.00000000000E+00 0. -1.
         13    1    5    5    0    0  0.18044057747E+02 -0.75488184646E+01  0.13904585904E+03  0.14041482684E+03  0.00000000000E+00 0. -1.
        -14    1    5    5    0    0  0.37880911966E+02  0.10736854893E+02  0.11457349934E+02  0.41006272836E+02  0.00000000000E+00 0.  1.
          5    1    4    4  501    0 -0.15880589474E+02  0.66711758640E+02 -0.17118644997E+03  0.18445846393E+03  0.41800000000E+01 0.  1.
         -5    1    4    4    0  501  0.34886587541E+02 -0.42697122854E+02 -0.72662563171E+02  0.91309576589E+02  0.41800000000E+01 0.  1.
</event>
<event>
11    1  0.1244632E-008  0.1661884E+03  0.7561462E-02  0.1081397E+00
         22   -1    0    0    0    0  0.00000000000E+00  0.00000000000E+00  0.93253927568E+03  0.93253927568E+03  0.00000000000E+00 0.  1.
         22   -1    0    0    0    0 -0.00000000000E+00 -0.00000000000E+00 -0.60037130119E+03  0.60037130119E+03  0.00000000000E+00 0.  1.
        -24    2    1    2    0    0 -0.58228528302E+02  0.77068996910E+02 -0.35000789949E+03  0.37179267264E+03  0.79962928455E+02 0.  0.
         25    2    1    2    0    0  0.83564899152E+02 -0.13929508955E+03 -0.19177069542E+03  0.28072894540E+03  0.12508607765E+03 0.  0.
         24    2    1    2    0    0 -0.25336370850E+02  0.62226092639E+02  0.87394656940E+03  0.88038895884E+03  0.82389892555E+02 0.  0.
        -11    1    5    5    0    0 -0.45183826783E+02  0.54928831749E+02  0.80823929812E+03  0.81136275352E+03  0.00000000000E+00 0.  1.
         12    1    5    5    0    0  0.19847455933E+02  0.72972608895E+01  0.65707271272E+02  0.69026205325E+02  0.00000000000E+00 0. -1.
         13    1    3    3    0    0  0.10947434044E+02  0.18062606552E+02 -0.18617275369E+02  0.28155053006E+02  0.00000000000E+00 0. -1.
        -14    1    3    3    0    0 -0.69175962345E+02  0.59006390358E+02 -0.33139062412E+03  0.34363761963E+03  0.00000000000E+00 0.  1.
          5    1    4    4  501    0  0.10078376316E+03 -0.15162360130E+03 -0.16057982835E+03  0.24279711090E+03  0.41800000000E+01 0.  1.
         -5    1    4    4    0  501 -0.17218864012E+02  0.12328511755E+02 -0.31190867067E+02  0.37931834498E+02  0.41800000000E+01 0.  1.
</event>
<event>
11    1  0.6763327E-009  0.1385056E+03  0.7561462E-02  0.1109239E+00
         22   -1    0    0    0    0  0.00000000000E+00  0.00000000000E+00  0.94852570538E+02  0.94852570538E+02  0.00000000000E+00 0. -1.
         22   -1    0    0    0    0 -0.00000000000E+00 -0.00000000000E+00 -0.93218942450E+03  0.93218942450E+03  0.00000000000E+00 0. -1.
        -24    2    1    2    0    0 -0.22497152344E+02 -0.61181470795E+02 -0.61567536188E+03  0.62428893970E+03  0.80194979717E+02 0.  0.
         25    2    1    2    0    0  0.53251308829E+02  0.16516420720E+02 -0.26410363268E+03  0.29750120916E+03  0.12509095334E+03 0.  0.
         24    2    1    2    0    0 -0.30754156485E+02  0.44665050075E+02  0.42442140600E+02  0.10525184619E+03  0.79597933311E+02 0.  0.
        -11    1    5    5    0    0  0.14172950628E+02 -0.15506108816E+02  0.64270145518E+01  0.21968578838E+02  0.00000000000E+00 0.  1.
         12    1    5    5    0    0 -0.44927107113E+02  0.60171158891E+02  0.36015126048E+02  0.83283267347E+02  0.00000000000E+00 0. -1.
         11    1    3    3    0    0 -0.38856331318E+02 -0.56516079429E+02 -0.58665238342E+03  0.59064786522E+03  0.00000000000E+00 0. -1.
        -12    1    3    3    0    0  0.16359178974E+02 -0.46653913664E+01 -0.29022978457E+02  0.33641074475E+02  0.00000000000E+00 0.  1.
          5    1    4    4  501    0  0.10442124024E+01 -0.46620212690E+02 -0.14881759187E+03  0.15600859803E+03  0.41800000000E+01 0.  1.
         -5    1    4    4    0  501  0.52207096427E+02  0.63136633410E+02 -0.11528604082E+03  0.14149261112E+03  0.41800000000E+01 0.  1.
</event>
<event>
11    1  0.6763327E-009  0.1359349E+03  0.7561462E-02  0.1112185E+00
         22   -1    0    0    0    0  0.00000000000E+00  0.00000000000E+00  0.12556179130E+04  0.12556179130E+04  0.00000000000E+00 0.  1.
         22   -1    0    0    0    0 -0.00000000000E+00 -0.00000000000E+00 -0.67123583661E+03  0.67123583661E+03  0.00000000000E+00 0.  1.
         24    2    1    2    0    0  0.32810450874E+02 -0.18751781724E+02 -0.64818610865E+03  0.65335885456E+03  0.72831355761E+02 0.  0.
         25    2    1    2    0    0 -0.65119868702E+02  0.55648757502E+02  0.29946842792E+03  0.33565928868E+03  0.12509371386E+03 0.  0.
        -24    2    1    2    0    0  0.32309417827E+02 -0.36896975778E+02  0.93309975708E+03  0.93783560632E+03  0.80344150546E+02 0.  0.
        -11    1    3    3    0    0  0.31995605985E+02 -0.32906462365E+02 -0.62103575534E+03  0.62272944645E+03  0.00000000000E+00 0.  1.
         12    1    3    3    0    0  0.81484488912E+00  0.14154680641E+02 -0.27150353308E+02  0.30629408107E+02  0.00000000000E+00 0. -1.
         13    1    5    5    0    0 -0.15065648321E+02 -0.37303463309E+02  0.26256865304E+03  0.26563286636E+03  0.00000000000E+00 0. -1.
        -14    1    5    5    0    0  0.47375066148E+02  0.40648753153E+00  0.67053110404E+03  0.67220273996E+03  0.00000000000E+00 0.  1.
          5    1    4    4  501    0 -0.27190617896E+02  0.92871623359E+02  0.21446763771E+03  0.23532596149E+03  0.41800000000E+01 0. -1.
         -5    1    4    4    0  501 -0.37929250806E+02 -0.37222865856E+02  0.85000790213E+02  0.10033332720E+03  0.41800000000E+01 0. -1.
</event>
<event>
11    1  0.6763327E-009  0.5187502E+03  0.7561462E-02  0.9352572E-01
         22   -1    0    0    0    0  0.00000000000E+00  0.00000000000E+00  0.36420564338E+04  0.36420564338E+04  0.00000000000E+00 0.  1.
         22   -1    0    0    0    0 -0.00000000000E+00 -0.00000000000E+00 -0.99299120379E+02  0.99299120379E+02  0.00000000000E+00 0.  1.
         24    2    1    2    0    0 -0.16865829092E+03  0.29134037708E+03  0.35230461631E+03  0.49389642936E+03  0.80562434476E+02 0.  0.
         25    2    1    2    0    0 -0.30928579815E+02  0.60673870395E+02  0.36110470161E+03  0.38817763355E+03  0.12508946426E+03 0.  0.
        -24    2    1    2    0    0  0.19958687073E+03 -0.35201424748E+03  0.28293479955E+04  0.28592814913E+04  0.80818421488E+02 0.  0.
        -13    1    3    3    0    0 -0.17245938159E+03  0.24688921317E+03  0.29889226029E+03  0.42430308170E+03  0.00000000000E+00 0.  1.
         14    1    3    3    0    0  0.38010906693E+01  0.44451163911E+02  0.53412356017E+02  0.69593347660E+02  0.00000000000E+00 0. -1.
         13    1    5    5    0    0  0.45801550967E+02 -0.85116413913E+02  0.94401189642E+03  0.94894733603E+03  0.00000000000E+00 0. -1.
        -14    1    5    5    0    0  0.15378531976E+03 -0.26689783356E+03  0.18853360991E+04  0.19103341553E+04  0.00000000000E+00 0.  1.
          5    1    4    4  501    0 -0.10978573667E+02 -0.34131869912E+02  0.45900049122E+02  0.58393497351E+02  0.41800000000E+01 0. -1.
         -5    1    4    4    0  501 -0.19950006148E+02  0.94805740307E+02  0.31520465248E+03  0.32978413620E+03  0.41800000000E+01 0. -1.
</event>
<event>
11    1  0.6763327E-009  0.1393503E+03  0.7561462E-02  0.1108286E+00
         22   -1    0    0    0    0  0.00000000000E+00  0.00000000000E+00  0.21127584309E+03  0.21127584309E+03  0.00000000000E+00 0.  1.
         22   -1    0    0    0    0 -0.00000000000E+00 -0.00000000000E+00 -0.21363301230E+04  0.21363301230E+04  0.00000000000E+00 0.  1.
         24    2    1    2    0    0  0.10407762289E+02 -0.12781989647E+02 -0.14967500905E+04  0.14992065029E+04  0.84187910348E+02 0.  0.
         25    2    1    2    0    0 -0.42520329154E+02  0.64746510942E+02 -0.61702240421E+03  0.63432164964E+03  0.12508884375E+03 0.  0.
        -24    2    1    2    0    0  0.32112566865E+02 -0.51964521295E+02  0.18871821478E+03  0.21407781354E+03  0.80518427942E+02 0.  0.
        -13    1    3    3    0    0  0.30112767153E+02 -0.39932243268E+02 -0.10547741729E+04  0.10559592410E+04  0.00000000000E+00 0.  1.
         14    1    3    3    0    0 -0.19705004865E+02  0.27150253622E+02 -0.44197591751E+03  0.44324726187E+03  0.00000000000E+00 0. -1.
         13    1    5    5    0    0 -0.18755652912E+02 -0.59185020968E+01  0.88494324317E+01  0.21566539769E+02  0.00000000000E+00 0. -1.
        -14    1    5    5    0    0  0.50868219778E+02 -0.46046019198E+02  0.17986878235E+03  0.19251127377E+03  0.00000000000E+00 0.  1.
          5    1    4    4  501    0 -0.92256328900E+00  0.51612777191E+02 -0.56007894199E+03  0.56246833116E+03  0.41800000000E+01 0.  1.
         -5    1    4    4    0  501 -0.41597765865E+02  0.13133733751E+02 -0.56943462219E+02  0.71853318480E+02  0.41800000000E+01 0.  1.
</event>
<event>
11    1  0.6763327E-009  0.1552450E+03  0.7561462E-02  0.1091637E+00
         22   -1    0    0    0    0  0.00000000000E+00  0.00000000000E+00  0.22415421462E+04  0.22415421462E+04  0.00000000000E+00 0.  1.
         22   -1    0    0    0    0 -0.00000000000E+00 -0.00000000000E+00 -0.12817172289E+03  0.12817172289E+03  0.00000000000E+00 0.  1.
        -24    2    1    2    0    0 -0.94311144120E+02  0.15113780893E+02 -0.49929474670E+02  0.12331853069E+03  0.59929035471E+02 0.  0.
         25    2    1    2    0    0  0.79144890657E+02 -0.41636689287E+01  0.93674277488E+02  0.17522089785E+03  0.12508494284E+03 0.  0.
         24    2    1    2    0    0  0.15166253463E+02 -0.10950111965E+02  0.20696256205E+04  0.20711744406E+04  0.77868055135E+02 0.  0.
        -13    1    5    5    0    0 -0.12760470138E+02  0.22454119445E+02  0.13412485140E+04  0.13414971463E+04  0.00000000000E+00 0.  1.
         14    1    5    5    0    0  0.27926723601E+02 -0.33404231409E+02  0.72837710646E+03  0.72967729427E+03  0.00000000000E+00 0. -1.
         13    1    3    3    0    0 -0.76669513430E+01  0.24432619044E+02 -0.10748896856E+02  0.27771816647E+02  0.00000000000E+00 0. -1.
        -14    1    3    3    0    0 -0.86644192777E+02 -0.93188381513E+01 -0.39180577814E+02  0.95546714042E+02  0.00000000000E+00 0.  1.
          5    1    4    4  501    0  0.60691711814E+02  0.43209936721E+02  0.98954976786E+02  0.12393604135E+03  0.41800000000E+01 0.  1.
         -5    1    4    4    0  501  0.18453178843E+02 -0.47373605650E+02 -0.52806992982E+01  0.51284856505E+02  0.41800000000E+01 0.  1.
</event>
<event>
11    1  0.6763327E-009  0.1671381E+03  0.7561462E-02  0.1080549E+00
         22   -1    0    0    0    0  0.00000000000E+00  0.00000000000E+00  0.82244103091E+03  0.82244103091E+03  0.00000000000E+00 0.  1.
         22   -1    0    0    0    0 -0.00000000000E+00 -0.00000000000E+00 -0.32162971379E+03  0.32162971379E+03  0.00000000000E+00 0.  1.
        -24    2    1    2    0    0 -0.92704912531E+02  0.61015560995E+02 -0.26025352928E+03  0.29428191043E+03  0.80949637523E+02 0.  0.
         25    2    1    2    0    0  0.44377102153E+02 -0.12721433483E+03  0.17944282121E+03  0.25690320680E+03  0.12508683943E+03 0.  0.
         24    2    1    2    0    0  0.48327810378E+02  0.66198773835E+02  0.58162202519E+03  0.59288562748E+03  0.80692826073E+02 0.  0.
        -11    1    5    5    0    0  0.60217394008E+02  0.77774353669E+02  0.50432940064E+03  0.51383181001E+03  0.00000000000E+00 0.  1.
         12    1    5    5    0    0 -0.11889583631E+02 -0.11575579834E+02  0.77292624548E+02  0.79053817472E+02  0.00000000000E+00 0. -1.
         11    1    3    3    0    0 -0.61639231181E-01 -0.17210600133E+01 -0.93229360726E+02  0.93245265554E+02  0.00000000000E+00 0. -1.
        -12    1    3    3    0    0 -0.92643273299E+02  0.62736621008E+02 -0.16702416855E+03  0.20103664488E+03  0.00000000000E+00 0.  1.
          5    1    4    4  501    0 -0.31307178476E+02 -0.91458892196E+02  0.12001603912E+03  0.15416286982E+03  0.41800000000E+01 0. -1.
         -5    1    4    4    0  501  0.75684280629E+02 -0.35755442634E+02  0.59426782085E+02  0.10274033697E+03  0.41800000000E+01 0. -1.
</event>
<event>
11    1  0.7982977E-009  0.1660343E+03  0.7561462E-02  0.1081535E+00
         22   -1    0    0    0    0  0.00000000000E+00  0.00000000000E+00  0.13527783014E+04  0.13527783014E+04  0.00000000000E+00 0. -1.
         22   -1    0    0    0    0 -0.00000000000E+00 -0.00000000000E+00 -0.53456964963E+03  0.53456964963E+03  0.00000000000E+00 0.  1.
         24    2    1    2    0    0  0.11628696059E+03  0.72303132078E+01 -0.47415098647E+03  0.49468720128E+03  0.79506820462E+02 0.  0.
         25    2    1    2    0    0 -0.34244464941E+02 -0.45220093782E+02  0.52937281984E+02  0.14719433527E+03  0.12508507605E+03 0.  0.
        -24    2    1    2    0    0 -0.82042495646E+02  0.37989780574E+02  0.12394223562E+04  0.12454664145E+04  0.82732205904E+02 0.  0.
        -11    1    3    3    0    0  0.10425159446E+03  0.41102205454E+01 -0.47020773807E+03  0.48164365023E+03  0.00000000000E+00 0.  1.
         12    1    3    3    0    0  0.12035366126E+02  0.31200926625E+01 -0.39432484020E+01  0.13043551049E+02  0.00000000000E+00 0. -1.
         13    1    5    5    0    0 -0.72275021581E+02  0.82322752266E+01  0.11071336831E+04  0.11095208161E+04  0.00000000000E+00 0. -1.
        -14    1    5    5    0    0 -0.97674740649E+01  0.29757505348E+02  0.13228867311E+03  0.13594559833E+03  0.00000000000E+00 0.  1.
          5    1    4    4  501    0  0.35887419586E+02  0.17938639834E+01 -0.14583164338E+02  0.39003409013E+02  0.41800000000E+01 0.  1.
         -5    1    4    4    0  501 -0.70131884528E+02 -0.47013957765E+02  0.67520446321E+02  0.10819092625E+03  0.41800000000E+01 0.  1.
</event>
<event>
11    1  0.6763327E-009  0.1436586E+03  0.7561462E-02  0.1103540E+00
         22   -1    0    0    0    0  0.00000000000E+00  0.00000000000E+00  0.45197305675E+03  0.45197305675E+03  0.00000000000E+00 0.  1.
         22   -1    0    0    0    0 -0.00000000000E+00 -0.00000000000E+00 -0.30417717835E+03  0.30417717835E+03  0.00000000000E+00 0.  1.
        -24    2    1    2    0    0  0.11580409944E+02 -0.12639576129E+02 -0.23215251658E+03  0.24032419421E+03  0.59724890859E+02 0.  0.
         25    2    1    2    0    0 -0.43798477210E+02  0.73370696018E+02  0.35191268891E+02  0.15552040748E+03  0.12508639453E+03 0.  0.
         24    2    1    2    0    0  0.32218067266E+02 -0.60731119889E+02  0.34475712608E+03  0.36030563341E+03  0.78970885161E+02 0.  0.
        -13    1    5    5    0    0  0.48483787124E+02 -0.70607901379E+02  0.27919864923E+03  0.29204115991E+03  0.00000000000E+00 0.  1.
         14    1    5    5    0    0 -0.16265719858E+02  0.98767814903E+01  0.65558476852E+02  0.68264473500E+02  0.00000000000E+00 0. -1.
         11    1    3    3    0    0  0.26342586205E+02 -0.56774892029E+01 -0.44929434674E+02  0.52391028161E+02  0.00000000000E+00 0. -1.
        -12    1    3    3    0    0 -0.14762176260E+02 -0.69620869265E+01 -0.18722308190E+03  0.18793316605E+03  0.00000000000E+00 0.  1.
          5    1    4    4  501    0  0.18186185365E+02 -0.31178957842E+01 -0.31351100595E+02  0.36617243490E+02  0.41800000000E+01 0.  1.
         -5    1    4    4    0  501 -0.61984662575E+02  0.76488591802E+02  0.66542369486E+02  0.11890316399E+03  0.41800000000E+01 0.  1.
</event>
<event>
11    1  0.6763327E-009  0.1335693E+03  0.7561462E-02  0.1114960E+00
         22   -1    0    0    0    0  0.00000000000E+00  0.00000000000E+00  0.28980920138E+03  0.28980920138E+03  0.00000000000E+00 0.  1.
         22   -1    0    0    0    0 -0.00000000000E+00 -0.00000000000E+00 -0.25860727330E+03  0.25860727330E+03  0.00000000000E+00 0.  1.
        -24    2    1    2    0    0  0.30713467272E+02 -0.22959346686E+02 -0.12247118281E+03  0.15141856879E+03  0.80361332012E+02 0.  0.
         25    2    1    2    0    0 -0.71762488000E+02  0.38759519117E+02 -0.62636731372E+02  0.16193394235E+03  0.12508831505E+03 0.  0.
         24    2    1    2    0    0  0.41049020728E+02 -0.15800172430E+02  0.21630984226E+03  0.23506396355E+03  0.80811209284E+02 0.  0.
        -11    1    5    5    0    0  0.34454774794E+02 -0.34676076827E+02  0.20756005542E+03  0.21323868884E+03  0.00000000000E+00 0.  1.
         12    1    5    5    0    0  0.65942459342E+01  0.18875904397E+02  0.87497868383E+01  0.21825274705E+02  0.00000000000E+00 0. -1.
         11    1    3    3    0    0 -0.92793835117E+00  0.23436782136E+02 -0.72661498949E+02  0.76353370954E+02  0.00000000000E+00 0. -1.
        -12    1    3    3    0    0  0.31641405623E+02 -0.46396128822E+02 -0.49809683860E+02  0.75065197833E+02  0.00000000000E+00 0.  1.
          5    1    4    4  501    0 -0.14309143040E+02  0.53163592326E+02 -0.82543007997E+02  0.99307299292E+02  0.41800000000E+01 0.  1.
         -5    1    4    4    0  501 -0.57453344960E+02 -0.14404073209E+02  0.19906276625E+02  0.62626643062E+02  0.41800000000E+01 0.  1.
</event>
<event>
11    1  0.7141409E-009  0.2154393E+03  0.7561462E-02  0.1044113E+00
         22   -1    0    0    0    0  0.00000000000E+00  0.00000000000E+00  0.37705907602E+03  0.37705907602E+03  0.00000000000E+00 0. -1.
         22   -1    0    0    0    0 -0.00000000000E+00 -0.00000000000E+00 -0.18710799396E+04  0.18710799396E+04  0.00000000000E+00 0.  1.
         24    2    1    2    0    0  0.65350698089E+02  0.41142215375E+01 -0.11331003999E+04  0.11375991840E+04  0.76991860152E+02 0.  0.
         25    2    1    2    0    0 -0.23827248465E+03  0.38321910445E+01 -0.68422921505E+03  0.73525896934E+03  0.12509064968E+03 0.  0.
        -24    2    1    2    0    0  0.17292178656E+03 -0.79464125820E+01  0.32330875140E+03  0.37528086229E+03  0.79637222018E+02 0.  0.
        -11    1    3    3    0    0  0.33955803379E+02  0.40554791600E+02 -0.61580331241E+03  0.61807071382E+03  0.00000000000E+00 0.  1.
         12    1    3    3    0    0  0.31394894711E+02 -0.36440570063E+02 -0.51729708752E+03  0.51952847017E+03  0.00000000000E+00 0. -1.
         13    1    5    5    0    0  0.15745722055E+03 -0.31890832801E+02  0.25667798188E+03  0.30280916086E+03  0.00000000000E+00 0. -1.
        -14    1    5    5    0    0  0.15464566014E+02  0.23944420219E+02  0.66630769515E+02  0.72471701427E+02  0.00000000000E+00 0.  1.
          5    1    4    4  501    0 -0.12145435518E+03  0.24082872525E+02 -0.18876184164E+03  0.22578673655E+03  0.41800000000E+01 0. -1.
         -5    1    4    4    0  501 -0.11681812947E+03 -0.20250681480E+02 -0.49546737340E+03  0.50947223279E+03  0.41800000000E+01 0. -1.
</event>
<event>
11    1  0.6763327E-009  0.1654468E+03  0.7561462E-02  0.1082063E+00
         22   -1    0    0    0    0  0.00000000000E+00  0.00000000000E+00  0.52309122632E+03  0.52309122632E+03  0.00000000000E+00 0.  1.
         22   -1    0    0    0    0 -0.00000000000E+00 -0.00000000000E+00 -0.23626908372E+03  0.23626908372E+03  0.00000000000E+00 0. -1.
         24    2    1    2    0    0 -0.61699684352E+01 -0.10029284973E+03 -0.14114737707E+03  0.19395457418E+03  0.87172648089E+02 0.  0.
         25    2    1    2    0    0  0.59505068768E+02  0.16115428207E+03  0.13686325689E+03  0.25276493002E+03  0.12508798072E+03 0.  0.
        -24    2    1    2    0    0 -0.53335100333E+02 -0.60861432340E+02  0.29110626278E+03  0.31264080584E+03  0.80328515317E+02 0.  0.
        -13    1    3    3    0    0 -0.38672039875E+02 -0.60499218314E+02 -0.44432551176E+02  0.84438934673E+02  0.00000000000E+00 0.  1.
         14    1    3    3    0    0  0.32502071439E+02 -0.39793631413E+02 -0.96714825898E+02  0.10951563951E+03  0.00000000000E+00 0. -1.
         11    1    5    5    0    0 -0.13385736245E+02 -0.71450171070E+02  0.18477088783E+03  0.19855625366E+03  0.00000000000E+00 0. -1.
        -12    1    5    5    0    0 -0.39949364089E+02  0.10588738730E+02  0.10633537496E+03  0.11408455218E+03  0.00000000000E+00 0.  1.
          5    1    4    4  501    0  0.12041479615E+02  0.19166049940E+02  0.94294568401E+02  0.97063240887E+02  0.41800000000E+01 0.  1.
         -5    1    4    4    0  501  0.47463589153E+02  0.14198823213E+03  0.42568688490E+02  0.15570168913E+03  0.41800000000E+01 0.  1.
</event>
<event>
11    1  0.6763327E-009  0.1554351E+03  0.7561462E-02  0.1091451E+00
         22   -1    0    0    0    0  0.00000000000E+00  0.00000000000E+00  0.59297902019E+03  0.59297902019E+03  0.00000000000E+00 0. -1.
         22   -1    0    0    0    0 -0.00000000000E+00 -0.00000000000E+00 -0.38205835833E+03  0.38205835833E+03  0.00000000000E+00 0.  1.
        -24    2    1    2    0    0  0.30719893950E+02  0.14103816574E+02 -0.33941169992E+03  0.35693633826E+03  0.10516947276E+03 0.  0.
         25    2    1    2    0    0  0.54957250858E+02 -0.66429586823E+02  0.31377785388E+03  0.34862824797E+03  0.12510765072E+03 0.  0.
         24    2    1    2    0    0 -0.85677144808E+02  0.52325770249E+02  0.23655450790E+03  0.26947279230E+03  0.81110980807E+02 0.  0.
        -13    1    5    5    0    0 -0.56314372708E+02  0.39999965989E+02  0.64536028113E+02  0.94531501507E+02  0.00000000000E+00 0.  1.
         14    1    5    5    0    0 -0.29362772100E+02  0.12325804260E+02  0.17201847979E+03  0.17494129079E+03  0.00000000000E+00 0. -1.
         11    1    3    3    0    0 -0.56640950409E+01 -0.35587424625E+02 -0.53754715914E+02  0.64715656893E+02  0.00000000000E+00 0. -1.
        -12    1    3    3    0    0  0.36383988991E+02  0.49691241200E+02 -0.28565698401E+03  0.29222068137E+03  0.00000000000E+00 0.  1.
          5    1    4    4  501    0  0.37309332464E+00 -0.51098982756E+02  0.30404008314E+02  0.59608064545E+02  0.41800000000E+01 0. -1.
         -5    1    4    4    0  501  0.54584157534E+02 -0.15330604067E+02  0.28337384557E+03  0.28902018342E+03  0.41800000000E+01 0. -1.
</event>
<event>
11    1  0.6763327E-009  0.1553082E+03  0.7561462E-02  0.1091575E+00
         22   -1    0    0    0    0  0.00000000000E+00  0.00000000000E+00  0.20130960144E+03  0.20130960144E+03  0.00000000000E+00 0. -1.
         22   -1    0    0    0    0 -0.00000000000E+00 -0.00000000000E+00 -0.66984482373E+03  0.66984482373E+03  0.00000000000E+00 0.  1.
         24    2    1    2    0    0  0.40467283073E+02 -0.55357941767E+02 -0.40376743858E+03  0.41738967760E+03  0.80522641477E+02 0.  0.
         25    2    1    2    0    0 -0.43380477099E+02 -0.41331351633E+02 -0.21611322777E+03  0.25679406449E+03  0.12509243750E+03 0.  0.
        -24    2    1    2    0    0  0.29131940257E+01  0.96689293399E+02  0.15134544407E+03  0.19697068308E+03  0.80837493738E+02 0.  0.
        -13    1    3    3    0    0  0.36962323866E+02 -0.61298842392E+02 -0.40418963194E+03  0.41047901290E+03  0.00000000000E+00 0.  1.
         14    1    3    3    0    0  0.35049592073E+01  0.59409006250E+01  0.42219336137E+00  0.69106646942E+01  0.00000000000E+00 0. -1.
         11    1    5    5    0    0  0.17643350250E+02  0.78063509798E+02  0.15351588738E+03  0.17312517739E+03  0.00000000000E+00 0. -1.
        -12    1    5    5    0    0 -0.14730156224E+02  0.18625783602E+02 -0.21704433089E+01  0.23845505684E+02  0.00000000000E+00 0.  1.
          5    1    4    4  501    0  0.41707617639E+01  0.27411111570E+02 -0.14282000354E+03  0.14554652212E+03  0.41800000000E+01 0. -1.
         -5    1    4    4    0  501 -0.47551238863E+02 -0.68742463202E+02 -0.73293224234E+02  0.11124754237E+03  0.41800000000E+01 0. -1.
</event>
<event>
11    1  0.6763327E-009  0.1453810E+03  0.7561462E-02  0.1101694E+00
         22   -1    0    0    0    0  0.00000000000E+00  0.00000000000E+00  0.32014843473E+03  0.32014843473E+03  0.00000000000E+00 0.  1.
         22   -1    0    0    0    0 -0.00000000000E+00 -0.00000000000E+00 -0.16791709241E+04  0.16791709241E+04  0.00000000000E+00 0.  1.
         24    2    1    2    0    0  0.35942451446E+01 -0.75637734154E+02 -0.15589138819E+04  0.15628514282E+04  0.80982158766E+02 0.  0.
         25    2    1    2    0    0 -0.39742132159E+02  0.36674440212E+02 -0.67667698997E+02  0.15215230439E+03  0.12508778762E+03 0.  0.
        -24    2    1    2    0    0  0.36147887014E+02  0.38963293942E+02  0.26755909160E+03  0.28431562615E+03  0.80141747958E+02 0.  0.
        -13    1    3    3    0    0 -0.10407459503E+02 -0.89868179614E+02 -0.12196814398E+04  0.12230320599E+04  0.00000000000E+00 0.  1.
         14    1    3    3    0    0  0.14001704648E+02  0.14230445460E+02 -0.33923244217E+03  0.33981936839E+03  0.00000000000E+00 0. -1.
         11    1    5    5    0    0  0.18634872204E+02  0.45418901533E+02  0.67914569697E+02  0.83800500331E+02  0.00000000000E+00 0. -1.
        -12    1    5    5    0    0  0.17513014810E+02 -0.64556075914E+01  0.19964452190E+03  0.20051512582E+03  0.00000000000E+00 0.  1.
          5    1    4    4  501    0 -0.72761112826E+02  0.24968251671E+02 -0.83387351433E+02  0.11352759977E+03  0.41800000000E+01 0.  1.
         -5    1    4    4    0  501  0.33018980667E+02  0.11706188542E+02  0.15719652436E+02  0.38624704622E+02  0.41800000000E+01 0.  1.
</event>
<event>
11    1  0.6763327E-009  0.2100004E+03  0.7561462E-02  0.1047669E+00
         22   -1    0    0    0    0  0.00000000000E+00  0.00000000000E+00  0.11770856642E+04  0.11770856642E+04  0.00000000000E+00 0.  1.
         22   -1    0    0    0    0 -0.00000000000E+00 -0.00000000000E+00 -0.24547394497E+03  0.24547394497E+03  0.00000000000E+00 0.  1.
        -24    2    1    2    0    0 -0.90368474895E+02 -0.14064573195E+03 -0.15562245455E+03  0.24267996265E+03  0.82021538284E+02 0.  0.
         25    2    1    2    0    0  0.13172469793E+03  0.12633100436E+03  0.23376874446E+03  0.32188360453E+03  0.12510120011E+03 0.  0.
         24    2    1    2    0    0 -0.41356223034E+02  0.14314727590E+02  0.85346542936E+03  0.85799604203E+03  0.76411520224E+02 0.  0.
        -11    1    5    5    0    0 -0.30922220931E+02  0.89910675421E+01  0.83788442923E+03  0.83850303505E+03  0.00000000000E+00 0.  1.
         12    1    5    5    0    0 -0.10434002104E+02  0.53236600476E+01  0.15581000131E+02  0.19493006984E+02  0.00000000000E+00 0. -1.
         11    1    3    3    0    0  0.89397184014E+01 -0.13063829589E+01 -0.27428177498E+02  0.28877848300E+02  0.00000000000E+00 0. -1.
        -12    1    3    3    0    0 -0.99308193296E+02 -0.13933934899E+03 -0.12819427705E+03  0.21380211435E+03  0.00000000000E+00 0.  1.
          5    1    4    4  501    0  0.73005890369E+02 -0.90100573590E+01  0.78776231713E+02  0.10786198703E+03  0.41800000000E+01 0.  1.
         -5    1    4    4    0  501  0.58718807560E+02  0.13534106172E+03  0.15499251275E+03  0.21402161750E+03  0.41800000000E+01 0.  1.
</event>
<event>
11    1  0.7137011E-009  0.1361617E+03  0.7561462E-02  0.1111922E+00
         22   -1    0    0    0    0  0.00000000000E+00  0.00000000000E+00  0.19115197280E+04  0.19115197280E+04  0.00000000000E+00 0.  1.
         22   -1    0    0    0    0 -0.00000000000E+00 -0.00000000000E+00 -0.91064272481E+03  0.91064272481E+03  0.00000000000E+00 0.  1.
        -24    2    1    2    0    0 -0.54853197156E+02  0.45406550073E+02 -0.71486888560E+03  0.72273424966E+03  0.78972425601E+02 0.  0.
         25    2    1    2    0    0  0.55962483937E+01 -0.22362802756E+02 -0.16901665055E+03  0.21152268720E+03  0.12507520175E+03 0.  0.
         24    2    1    2    0    0  0.49256948763E+02 -0.23043747318E+02  0.18847625394E+04  0.18879055160E+04  0.94340585842E+02 0.  0.
        -13    1    5    5    0    0  0.45023422098E+02 -0.19578968968E+02  0.18800328984E+04  0.18806738536E+04  0.00000000000E+00 0.  1.
         14    1    5    5    0    0  0.42335266643E+01 -0.34647783492E+01  0.47296409925E+01  0.72316623915E+01  0.00000000000E+00 0. -1.
         11    1    3    3    0    0  0.11111077180E+02 -0.17834349101E+01 -0.18469221218E+02  0.21627501210E+02  0.00000000000E+00 0. -1.
        -12    1    3    3    0    0 -0.65964274337E+02  0.47189984984E+02 -0.69639966439E+03  0.70110674845E+03  0.00000000000E+00 0.  1.
          5    1    4    4  501    0 -0.97888135741E+01  0.41355022328E+02 -0.12592064686E+03  0.13296443302E+03  0.41800000000E+01 0. -1.
         -5    1    4    4    0  501  0.15385061968E+02 -0.63717825084E+02 -0.43096003696E+02  0.78558254180E+02  0.41800000000E+01 0. -1.
</event>
<event>
11    1  0.6763327E-009  0.2183502E+03  0.7561462E-02  0.1042256E+00
         22   -1    0    0    0    0  0.00000000000E+00  0.00000000000E+00  0.97578973498E+03  0.97578973498E+03  0.00000000000E+00 0. -1.
         22   -1    0    0    0    0 -0.00000000000E+00 -0.00000000000E+00 -0.78418290011E+03  0.78418290011E+03  0.00000000000E+00 0. -1.
         24    2    1    2    0    0  0.36141629341E+02 -0.16600430513E+03 -0.54888436834E+03  0.58005943389E+03  0.79569154508E+02 0.  0.
         25    2    1    2    0    0 -0.13372699084E+02  0.22539531929E+03 -0.14002999869E+03  0.29366600684E+03  0.12509773780E+03 0.  0.
        -24    2    1    2    0    0 -0.22768930257E+02 -0.59391014161E+02  0.88052120191E+03  0.88624719435E+03  0.77915247166E+02 0.  0.
        -11    1    3    3    0    0  0.14585898363E+02 -0.93954595430E+02 -0.17980873195E+03  0.20339959321E+03  0.00000000000E+00 0.  1.
         12    1    3    3    0    0  0.21555730978E+02 -0.72049709697E+02 -0.36907563639E+03  0.37665984068E+03  0.00000000000E+00 0. -1.
         11    1    5    5    0    0  0.15231112786E+02 -0.39086433015E+02  0.67271222076E+03  0.67401889291E+03  0.00000000000E+00 0. -1.
        -12    1    5    5    0    0 -0.38000043043E+02 -0.20304581146E+02  0.20780898115E+03  0.21222830144E+03  0.00000000000E+00 0.  1.
          5    1    4    4  501    0 -0.94150388097E+01  0.79495663380E+01  0.19831242296E+02  0.23718961439E+02  0.41800000000E+01 0.  1.
         -5    1    4    4    0  501 -0.39576602744E+01  0.21744575295E+03 -0.15986124099E+03  0.26994704540E+03  0.41800000000E+01 0.  1.
</event>
<event>
11    1  0.6763327E-009  0.1383889E+03  0.7561462E-02  0.1109371E+00
         22   -1    0    0    0    0  0.00000000000E+00  0.00000000000E+00  0.21387590421E+04  0.21387590421E+04  0.00000000000E+00 0. -1.
         22   -1    0    0    0    0 -0.00000000000E+00 -0.00000000000E+00 -0.70272498836E+03  0.70272498836E+03  0.00000000000E+00 0. -1.
        -24    2    1    2    0    0 -0.17967934755E+02  0.24892804421E+02 -0.38088968034E+03  0.39089913950E+03  0.82357090050E+02 0.  0.
         25    2    1    2    0    0  0.73691416492E+02 -0.50235328514E+01 -0.29893069506E+03  0.33235974749E+03  0.12509108901E+03 0.  0.
         24    2    1    2    0    0 -0.55723481738E+02 -0.19869271570E+02  0.21158544291E+04  0.21182251435E+04  0.80857274064E+02 0.  0.
        -11    1    5    5    0    0 -0.26872237705E+02 -0.33483950837E+02  0.44503066928E+03  0.44709684490E+03  0.00000000000E+00 0.  1.
         12    1    5    5    0    0 -0.28851244032E+02  0.13614679267E+02  0.16708237599E+04  0.16711282986E+04  0.00000000000E+00 0. -1.
         11    1    3    3    0    0 -0.26104384454E+02 -0.19296443577E+02 -0.25834965766E+03  0.26038113840E+03  0.00000000000E+00 0. -1.
        -12    1    3    3    0    0  0.81364496995E+01  0.44189247998E+02 -0.12254002268E+03  0.13051800110E+03  0.00000000000E+00 0.  1.
          5    1    4    4  501    0 -0.17508643640E+02 -0.21844346232E+02 -0.11926554014E+02  0.30715519775E+02  0.41800000000E+01 0. -1.
         -5    1    4    4    0  501  0.91200060133E+02  0.16820813381E+02 -0.28700414105E+03  0.30164422771E+03  0.41800000000E+01 0. -1.
</event>
<event>
11    1  0.6763327E-009  0.1353227E+03  0.7561462E-02  0.1112897E+00
         22   -1    0    0    0    0  0.00000000000E+00  0.00000000000E+00  0.14019457552E+03  0.14019457552E+03  0.00000000000E+00 0.  1.
         22   -1    0    0    0    0 -0.00000000000E+00 -0.00000000000E+00 -0.78795696709E+03  0.78795696709E+03  0.00000000000E+00 0.  1.
        -24    2    1    2    0    0  0.26352716362E+02  0.45558976492E+02 -0.68001897935E+03  0.68682758374E+03  0.80846963496E+02 0.  0.
         25    2    1    2    0    0 -0.18244545546E+02 -0.32112177540E+02 -0.35469112857E+02  0.13516247804E+03  0.12508709812E+03 0.  0.
         24    2    1    2    0    0 -0.81081708159E+01 -0.13446798952E+02  0.67725700639E+02  0.10616148082E+03  0.80230484525E+02 0.  0.
        -11    1    5    5    0    0  0.75497148663E+01 -0.43513523364E+02  0.22281019096E+02  0.49465833886E+02  0.00000000000E+00 0.  1.
         12    1    5    5    0    0 -0.15657885682E+02  0.30066724411E+02  0.45444681543E+02  0.56695646935E+02  0.00000000000E+00 0. -1.
         11    1    3    3    0    0  0.37149200009E+02 -0.28166770823E+01 -0.15248951011E+03  0.15697467129E+03  0.00000000000E+00 0. -1.
        -12    1    3    3    0    0 -0.10796483647E+02  0.48375653574E+02 -0.52752946924E+03  0.52985291245E+03  0.00000000000E+00 0.  1.
          5    1    4    4  501    0 -0.38785857290E+02  0.30044081678E+02 -0.47564787131E+02  0.68460725562E+02  0.41800000000E+01 0.  1.
         -5    1    4    4    0  501  0.20541311744E+02 -0.62156259217E+02  0.12095674275E+02  0.66701752482E+02  0.41800000000E+01 0.  1.
</event>
<event>
11    1  0.6763327E-009  0.1342433E+03  0.7561462E-02  0.1114163E+00
         22   -1    0    0    0    0  0.00000000000E+00  0.00000000000E+00  0.26074117220E+03  0.26074117220E+03  0.00000000000E+00 0. -1.
         22   -1    0    0    0    0 -0.00000000000E+00 -0.00000000000E+00 -0.98823203428E+03  0.98823203428E+03  0.00000000000E+00 0.  1.
        -24    2    1    2    0    0 -0.38415222899E+02  0.32383002036E+02 -0.81916094492E+03  0.82458886111E+03  0.79985923757E+02 0.  0.
         25    2    1    2    0    0  0.38710216271E+02 -0.54508760529E+01 -0.13134969354E+03  0.18554921819E+03  0.12509027733E+03 0.  0.
         24    2    1    2    0    0 -0.29499337134E+00 -0.26932125983E+02  0.22301977638E+03  0.23883512719E+03  0.81110855566E+02 0.  0.
        -13    1    5    5    0    0 -0.29151755802E+02 -0.24510964295E+02  0.47217722921E+02  0.60664038729E+02  0.00000000000E+00 0.  1.
         14    1    5    5    0    0  0.28856762431E+02 -0.24211616877E+01  0.17580205346E+03  0.17817108846E+03  0.00000000000E+00 0. -1.
         11    1    3    3    0    0 -0.22514929448E+02  0.37273517345E+02 -0.17931531541E+03  0.18452701560E+03  0.00000000000E+00 0. -1.
        -12    1    3    3    0    0 -0.15900293451E+02 -0.48905153094E+01 -0.63984562951E+03  0.64006184551E+03  0.00000000000E+00 0.  1.
          5    1    4    4  501    0  0.48341648305E+01 -0.60468488043E+02 -0.37187810580E+02  0.71275611899E+02  0.41800000000E+01 0. -1.
         -5    1    4    4    0  501  0.33876051440E+02  0.55017611991E+02 -0.94161882964E+02  0.11427360629E+03  0.41800000000E+01 0. -1.
</event>
<event>
11    1  0.6763327E-009  0.1458302E+03  0.7561462E-02  0.1101217E+00
         22   -1    0    0    0    0  0.00000000000E+00  0.00000000000E+00  0.28173984620E+03  0.28173984620E+03  0.00000000000E+00 0. -1.
         22   -1    0    0    0    0 -0.00000000000E+00 -0.00000000000E+00 -0.32974293717E+03  0.32974293717E+03  0.00000000000E+00 0. -1.
        -24    2    1    2    0    0  0.67336484133E+02 -0.28086980106E+02 -0.23022667765E+03  0.25464145166E+03  0.80714715219E+02 0.  0.
         25    2    1    2    0    0 -0.75135826977E+02  0.45871482113E+02 -0.45198233921E+01  0.15302451837E+03  0.12508592668E+03 0.  0.
         24    2    1    2    0    0  0.77993428438E+01 -0.17784502008E+02  0.18674341007E+03  0.20381681334E+03  0.79316290476E+02 0.  0.
        -13    1    5    5    0    0 -0.23459878483E+02 -0.24234965774E+02  0.34444055303E+02  0.48208841618E+02  0.00000000000E+00 0.  1.
         14    1    5    5    0    0  0.31259221326E+02  0.64504637661E+01  0.15229935477E+03  0.15560797172E+03  0.00000000000E+00 0. -1.
         13    1    3    3    0    0  0.46683762863E+02 -0.90685947401E+01 -0.21949019238E+03  0.22458307523E+03  0.00000000000E+00 0. -1.
        -14    1    3    3    0    0  0.20652721271E+02 -0.19018385366E+02 -0.10736485269E+02  0.30058376432E+02  0.00000000000E+00 0.  1.
          5    1    4    4  501    0 -0.62150401273E+02  0.23246565119E+02 -0.61278088968E+02  0.90418757765E+02  0.41800000000E+01 0.  1.
         -5    1    4    4    0  501 -0.12985425704E+02  0.22624916994E+02  0.56758265576E+02  0.62605760605E+02  0.41800000000E+01 0.  1.
</event>
<event>
11    1  0.6763327E-009  0.1344706E+03  0.7561462E-02  0.1113895E+00
         22   -1    0    0    0    0  0.00000000000E+00  0.00000000000E+00  0.48210909609E+03  0.48210909609E+03  0.00000000000E+00 0. -1.
         22   -1    0    0    0    0 -0.00000000000E+00 -0.00000000000E+00 -0.17059903095E+03  0.17059903095E+03  0.00000000000E+00 0. -1.
        -24    2    1    2    0    0  0.56858400991E+02 -0.18360563532E+02 -0.95253754816E+02  0.13807704705E+03  0.80137413603E+02 0.  0.
         25    2    1    2    0    0 -0.64749521708E+01  0.99238097160E+01  0.34297249620E+02  0.13024945596E+03  0.12509281531E+03 0.  0.
         24    2    1    2    0    0 -0.50383448820E+02  0.84367538164E+01  0.37246657033E+03  0.38438162403E+03  0.80051334447E+02 0.  0.
        -13    1    5    5    0    0  0.14441860626E+02 -0.12423296132E+01  0.14641048178E+02  0.20602694313E+02  0.00000000000E+00 0.  1.
         14    1    5    5    0    0 -0.64825309446E+02  0.96790834296E+01  0.35782552215E+03  0.36377892971E+03  0.00000000000E+00 0. -1.
         11    1    3    3    0    0  0.46679971737E+02  0.19965540122E+02 -0.81661905251E+02  0.96157731477E+02  0.00000000000E+00 0. -1.
        -12    1    3    3    0    0  0.10178429254E+02 -0.38326103655E+02 -0.13591849565E+02  0.41919315572E+02  0.00000000000E+00 0.  1.
          5    1    4    4  501    0  0.13429691764E+02 -0.31852732667E+02  0.65569514592E+02  0.74241409220E+02  0.41800000000E+01 0. -1.
         -5    1    4    4    0  501 -0.19904643935E+02  0.41776542383E+02 -0.31272264972E+02  0.56008046744E+02  0.41800000000E+01 0. -1.
</event>
<event>
11    1  0.6763327E-009  0.1853799E+03  0.7561462E-02  0.1065372E+00
         22   -1    0    0    0    0  0.00000000000E+00  0.00000000000E+00  0.43321817351E+03  0.43321817351E+03  0.00000000000E+00 0. -1.
         22   -1    0    0    0    0 -0.00000000000E+00 -0.00000000000E+00 -0.98214777705E+03  0.98214777705E+03  0.00000000000E+00 0. -1.
         24    2    1    2    0    0 -0.36732025427E+01  0.14375524460E+03 -0.88389362152E+03  0.89890845480E+03  0.78034692207E+02 0.  0.
         25    2    1    2    0    0 -0.79772417686E+02 -0.57949854095E+02  0.91182918939E+01  0.15956944112E+03  0.12512968903E+03 0.  0.
        -24    2    1    2    0    0  0.83445620229E+02 -0.85805390502E+02  0.32584572608E+03  0.35688805464E+03  0.82872853002E+02 0.  0.
        -11    1    3    3    0    0  0.78586943390E+01  0.88349432924E+02 -0.31632527822E+03  0.32852558959E+03  0.00000000000E+00 0.  1.
         12    1    3    3    0    0 -0.11531896882E+02  0.55405811673E+02 -0.56756834330E+03  0.57038286521E+03  0.00000000000E+00 0. -1.
         11    1    5    5    0    0  0.39001279272E+02 -0.12883811167E+01  0.16743475011E+03  0.17192194524E+03  0.00000000000E+00 0. -1.
        -12    1    5    5    0    0  0.44444340957E+02 -0.84517009385E+02  0.15841097598E+03  0.18496610941E+03  0.00000000000E+00 0.  1.
          5    1    4    4  501    0 -0.54726001939E+02 -0.85424881935E+02  0.41884844102E+02  0.10983696239E+03  0.41800000000E+01 0. -1.
         -5    1    4    4    0  501 -0.25046415747E+02  0.27475027840E+02 -0.32766552208E+02  0.49732478725E+02  0.41800000000E+01 0. -1.
</event>
<event>
11    1  0.6763327E-009  0.1489843E+03  0.7561462E-02  0.1097921E+00
         22   -1    0    0    0    0  0.00000000000E+00  0.00000000000E+00  0.48824611006E+03  0.48824611006E+03  0.00000000000E+00 0. -1.
         22   -1    0    0    0    0 -0.00000000000E+00 -0.00000000000E+00 -0.20989056168E+04  0.20989056168E+04  0.00000000000E+00 0.  1.
        -24    2    1    2    0    0  0.46993000282E+02 -0.58786721765E+02 -0.19098950616E+04  0.19128245996E+04  0.74394770038E+02 0.  0.
         25    2    1    2    0    0 -0.56276177603E+02  0.13666194148E+03 -0.12827635097E+03  0.23226348428E+03  0.12509200413E+03 0.  0.
         24    2    1    2    0    0  0.92831773215E+01 -0.77875219717E+02  0.42751190580E+03  0.44206364300E+03  0.80641847916E+02 0.  0.
        -13    1    5    5    0    0  0.20177757341E+02 -0.10555917200E+02  0.26290701041E+03  0.26389138940E+03  0.00000000000E+00 0.  1.
         14    1    5    5    0    0 -0.10894580020E+02 -0.67319302517E+02  0.16460489539E+03  0.17817225360E+03  0.00000000000E+00 0. -1.
         11    1    3    3    0    0  0.56844801062E+02 -0.30949953426E+02 -0.82771301425E+03  0.83023976356E+03  0.00000000000E+00 0. -1.
        -12    1    3    3    0    0 -0.98518007804E+01 -0.27836768339E+02 -0.10821820473E+04  0.10825848360E+04  0.00000000000E+00 0.  1.
          5    1    4    4  501    0 -0.66885443423E+02  0.92315757042E+02 -0.21501281477E+02  0.11608462019E+03  0.41800000000E+01 0.  1.
         -5    1    4    4    0  501  0.10609265820E+02  0.44346184439E+02 -0.10677506949E+03  0.11617886409E+03  0.41800000000E+01 0.  1.
</event>
<event>
11    1  0.6763327E-009  0.1505604E+03  0.7561462E-02  0.1096308E+00
         22   -1    0    0    0    0  0.00000000000E+00  0.00000000000E+00  0.59573432655E+03  0.59573432655E+03  0.00000000000E+00 0. -1.
         22   -1    0    0    0    0 -0.00000000000E+00 -0.00000000000E+00 -0.19303034074E+03  0.19303034074E+03  0.00000000000E+00 0. -1.
         24    2    1    2    0    0  0.89608275966E+02 -0.23104411499E+02 -0.36458395707E+02  0.12755679531E+03  0.79862785203E+02 0.  0.
         25    2    1    2    0    0 -0.74585844438E+02 -0.55627400548E+02 -0.46521866014E+02  0.16268991908E+03  0.12508505055E+03 0.  0.
        -24    2    1    2    0    0 -0.15022431528E+02  0.78731812047E+02  0.48568424754E+03  0.49851795290E+03  0.78781910222E+02 0.  0.
        -11    1    3    3    0    0  0.42452692038E+02 -0.48087147747E+02 -0.22808203858E+01  0.64185722566E+02  0.00000000000E+00 0.  1.
         12    1    3    3    0    0  0.47155583928E+02  0.24982736248E+02 -0.34177575321E+02  0.63371072745E+02  0.00000000000E+00 0. -1.
         13    1    5    5    0    0 -0.29011547388E+02  0.65830002430E+02  0.46451409263E+03  0.47005170073E+03  0.00000000000E+00 0. -1.
        -14    1    5    5    0    0  0.13989115860E+02  0.12901809617E+02  0.21170154902E+02  0.28466252168E+02  0.00000000000E+00 0.  1.
          5    1    4    4  501    0  0.90529384249E+01 -0.32988819571E+01  0.33803469613E+02  0.35397532035E+02  0.41800000000E+01 0.  1.
         -5    1    4    4    0  501 -0.83638782863E+02 -0.52328518591E+02 -0.80325335627E+02  0.12729238705E+03  0.41800000000E+01 0.  1.
</event>
<event>
11    1  0.6763327E-009  0.1655627E+03  0.7561462E-02  0.1081959E+00
         22   -1    0    0    0    0  0.00000000000E+00  0.00000000000E+00  0.12404429141E+03  0.12404429141E+03  0.00000000000E+00 0. -1.
         22   -1    0    0    0    0 -0.00000000000E+00 -0.00000000000E+00 -0.17496698788E+04  0.17496698788E+04  0.00000000000E+00 0.  1.
        -24    2    1    2    0    0 -0.52356879421E+02  0.98201257622E+02 -0.12070126107E+04  0.12147810403E+04  0.80179820856E+02 0.  0.
         25    2    1    2    0    0  0.43406325315E+02 -0.89697406237E+02 -0.51168539450E+03  0.53609563624E+03  0.12508738739E+03 0.  0.
         24    2    1    2    0    0  0.89505541053E+01 -0.85038513847E+01  0.93072417770E+02  0.12283749370E+03  0.79209513334E+02 0.  0.
        -13    1    5    5    0    0  0.25151607493E+02  0.26623225646E+02  0.24365936870E+02  0.43989753157E+02  0.00000000000E+00 0.  1.
         14    1    5    5    0    0 -0.16201053388E+02 -0.35127077031E+02  0.68706480900E+02  0.78847740546E+02  0.00000000000E+00 0. -1.
         11    1    3    3    0    0 -0.17464211662E+02 -0.59940175906E+01 -0.38684277975E+03  0.38728318215E+03  0.00000000000E+00 0. -1.
        -12    1    3    3    0    0 -0.34892667758E+02  0.10419527521E+03 -0.82016983092E+03  0.82749785812E+03  0.00000000000E+00 0.  1.
          5    1    4    4  501    0  0.63377292713E+02 -0.10540176163E+03 -0.32276232306E+03  0.34542611681E+03  0.41800000000E+01 0.  1.
         -5    1    4    4    0  501 -0.19970967398E+02  0.15704355392E+02 -0.18892307144E+03  0.19066951942E+03  0.41800000000E+01 0.  1.
</event>
<event>
11    1  0.6763327E-009  0.1917340E+03  0.7561462E-02  0.1060528E+00
         22   -1    0    0    0    0  0.00000000000E+00  0.00000000000E+00  0.76663878355E+02  0.76663878355E+02  0.00000000000E+00 0. -1.
         22   -1    0    0    0    0 -0.00000000000E+00 -0.00000000000E+00 -0.18867172224E+04  0.18867172224E+04  0.00000000000E+00 0. -1.
         24    2    1    2    0    0  0.14526900058E+03  0.15289299434E+02 -0.13555558313E+04  0.13657745675E+04  0.80446951865E+02 0.  0.
         25    2    1    2    0    0 -0.14349874558E+03  0.45468840940E+01 -0.47558765480E+03  0.51229538182E+03  0.12510146562E+03 0.  0.
        -24    2    1    2    0    0 -0.17702549912E+01 -0.19836183528E+02  0.21090142098E+02  0.85311151458E+02  0.80228364621E+02 0.  0.
        -11    1    3    3    0    0 -0.11762564460E+01 -0.15504191748E+02 -0.19328816325E+03  0.19391255141E+03  0.00000000000E+00 0.  1.
         12    1    3    3    0    0  0.14644525702E+03  0.30793491181E+02 -0.11622676681E+04  0.11718620160E+04  0.00000000000E+00 0. -1.
         13    1    5    5    0    0  0.10183981968E+02 -0.30610600977E+01  0.49270476707E+02  0.50404994322E+02  0.00000000000E+00 0. -1.
        -14    1    5    5    0    0 -0.11954236959E+02 -0.16775123430E+02 -0.28180334609E+02  0.34906157137E+02  0.00000000000E+00 0.  1.
          5    1    4    4  501    0 -0.10131281048E+03  0.33306344563E+02 -0.43213912502E+03  0.44512390851E+03  0.41800000000E+01 0. -1.
         -5    1    4    4    0  501 -0.42185935102E+02 -0.28759460469E+02 -0.43448529785E+02  0.67171473316E+02  0.41800000000E+01 0. -1.
</event>
<event>
11    1  0.6763327E-009  0.1803523E+03  0.7561462E-02  0.1069358E+00
         22   -1    0    0    0    0  0.00000000000E+00  0.00000000000E+00  0.11714502614E+04  0.11714502614E+04  0.00000000000E+00 0. -1.
         22   -1    0    0    0    0 -0.00000000000E+00 -0.00000000000E+00 -0.10608188185E+04  0.10608188185E+04  0.00000000000E+00 0. -1.
        -24    2    1    2    0    0 -0.10399679329E+03 -0.77098253046E+02 -0.94202251734E+03  0.95457394048E+03  0.83937542468E+02 0.  0.
         25    2    1    2    0    0  0.12174677204E+03  0.63458538435E+02 -0.33197980407E+02  0.18867263519E+03  0.12508395086E+03 0.  0.
         24    2    1    2    0    0 -0.17749978756E+02  0.13639714612E+02  0.10858519407E+04  0.10890225042E+04  0.79965455260E+02 0.  0.
        -13    1    5    5    0    0  0.11610943212E+02 -0.21563260607E+01  0.25022607864E+02  0.27669381068E+02  0.00000000000E+00 0.  1.
         14    1    5    5    0    0 -0.29360921968E+02  0.15796040673E+02  0.10608293328E+04  0.10613531231E+04  0.00000000000E+00 0. -1.
         13    1    3    3    0    0 -0.47982551856E+02 -0.10114218927E+02 -0.58408311681E+03  0.58613796161E+03  0.00000000000E+00 0. -1.
        -14    1    3    3    0    0 -0.56014241433E+02 -0.66984034120E+02 -0.35793940053E+03  0.36843597887E+03  0.00000000000E+00 0.  1.
          5    1    4    4  501    0  0.14392875880E+02 -0.98118179494E+01 -0.54075650513E+02  0.56965559999E+02  0.41800000000E+01 0. -1.
         -5    1    4    4    0  501  0.10735389616E+03  0.73270356384E+02  0.20877670106E+02  0.13170707519E+03  0.41800000000E+01 0. -1.
</event>
<event>
11    1  0.6763327E-009  0.1377218E+03  0.7561462E-02  0.1110129E+00
         22   -1    0    0    0    0  0.00000000000E+00  0.00000000000E+00  0.18355144620E+03  0.18355144620E+03  0.00000000000E+00 0. -1.
         22   -1    0    0    0    0 -0.00000000000E+00 -0.00000000000E+00 -0.52702358825E+03  0.52702358825E+03  0.00000000000E+00 0.  1.
        -24    2    1    2    0    0 -0.13218898265E+02 -0.34543847350E+02 -0.44036027799E+03  0.44925179758E+03  0.80882547817E+02 0.  0.
         25    2    1    2    0    0  0.37684250304E+02 -0.26775531722E+02  0.25860004453E+02  0.13584227763E+03  0.12508937901E+03 0.  0.
         24    2    1    2    0    0 -0.24465352039E+02  0.61319379072E+02  0.71028131480E+02  0.12548095924E+03  0.79635770675E+02 0.  0.
        -13    1    5    5    0    0 -0.21486690870E+02  0.78595949051E+02  0.42248504195E+02  0.91782009122E+02  0.00000000000E+00 0.  1.
         14    1    5    5    0    0 -0.29786611686E+01 -0.17276569979E+02  0.28779627285E+02  0.33698950121E+02  0.00000000000E+00 0. -1.
         13    1    3    3    0    0  0.29297310271E+02 -0.19218381511E+02 -0.10120674631E+03  0.10710034583E+03  0.00000000000E+00 0. -1.
        -14    1    3    3    0    0 -0.42516208536E+02 -0.15325465839E+02 -0.33915353167E+03  0.34215145176E+03  0.00000000000E+00 0.  1.
          5    1    4    4  501    0  0.61889839385E+02  0.22633071959E+02 -0.14344196981E+02  0.67570974186E+02  0.41800000000E+01 0.  1.
         -5    1    4    4    0  501 -0.24205589081E+02 -0.49408603681E+02  0.40204201434E+02  0.68271303440E+02  0.41800000000E+01 0.  1.
</event>
<event>
11    1  0.6763327E-009  0.1451080E+03  0.7561462E-02  0.1101985E+00
         22   -1    0    0    0    0  0.00000000000E+00  0.00000000000E+00  0.27210323887E+04  0.27210323887E+04  0.00000000000E+00 0. -1.
         22   -1    0    0    0    0 -0.00000000000E+00 -0.00000000000E+00 -0.32135365129E+02  0.32135365129E+02  0.00000000000E+00 0.  1.
        -24    2    1    2    0    0  0.37653437885E+01 -0.17561718660E+02  0.40637398301E+02  0.89106496190E+02  0.77239742014E+02 0.  0.
         25    2    1    2    0    0  0.37911724607E+02  0.75089207859E+02  0.89740783308E+03  0.90998033428E+03  0.12509077462E+03 0.  0.
         24    2    1    2    0    0 -0.41677068395E+02 -0.57527489199E+02  0.17508517922E+04  0.17540809233E+04  0.79192786598E+02 0.  0.
        -11    1    5    5    0    0 -0.93287072877E+01 -0.47699353251E+02  0.42048908914E+03  0.42328870427E+03  0.00000000000E+00 0.  1.
         12    1    5    5    0    0 -0.32348361108E+02 -0.98281359479E+01  0.13303627030E+04  0.13307922190E+04  0.00000000000E+00 0. -1.
         11    1    3    3    0    0 -0.35064532908E+02 -0.94415989104E+01  0.67548009809E+01  0.36936331631E+02  0.00000000000E+00 0. -1.
        -12    1    3    3    0    0  0.38829876696E+02 -0.81201197498E+01  0.33882597320E+02  0.52170164559E+02  0.00000000000E+00 0.  1.
          5    1    4    4  501    0 -0.86485606792E+01 -0.10506985524E+02  0.51934682855E+03  0.51954190887E+03  0.41800000000E+01 0.  1.
         -5    1    4    4    0  501  0.46560285286E+02  0.85596193384E+02  0.37806100453E+03  0.39043842541E+03  0.41800000000E+01 0.  1.
</event>
<event>
11    1  0.6763327E-009  0.1490680E+03  0.7561462E-02  0.1097835E+00
         22   -1    0    0    0    0  0.00000000000E+00  0.00000000000E+00  0.16043195489E+04  0.16043195489E+04  0.00000000000E+00 0. -1.
         22   -1    0    0    0    0 -0.00000000000E+00 -0.00000000000E+00 -0.60247936607E+03  0.60247936607E+03  0.00000000000E+00 0. -1.
        -24    2    1    2    0    0  0.13878325230E+02 -0.79994667830E+02 -0.56235052529E+03  0.57837168318E+03  0.10809225608E+03 0.  0.
         25    2    1    2    0    0 -0.71253898423E+01  0.78652109370E+02  0.14499440629E+03  0.20714062148E+03  0.12508770413E+03 0.  0.
         24    2    1    2    0    0 -0.67529353874E+01  0.13425584607E+01  0.14191963018E+04  0.14212866103E+04  0.76746862556E+02 0.  0.
        -13    1    5    5    0    0 -0.33711945248E+02  0.14135030949E+02  0.40361783968E+03  0.40526985437E+03  0.00000000000E+00 0.  1.
         14    1    5    5    0    0  0.26959009861E+02 -0.12792472488E+02  0.10155784621E+04  0.10160167559E+04  0.00000000000E+00 0. -1.
         11    1    3    3    0    0 -0.20791115260E+02 -0.83477041438E+02 -0.49623283355E+03  0.50363450240E+03  0.00000000000E+00 0. -1.
        -12    1    3    3    0    0  0.34669440490E+02  0.34823736080E+01 -0.66117691739E+02  0.74737180779E+02  0.00000000000E+00 0.  1.
          5    1    4    4  501    0  0.28029844516E+02  0.71915049852E+02  0.24067261579E+02  0.80957717722E+02  0.41800000000E+01 0. -1.
         -5    1    4    4    0  501 -0.35155234358E+02  0.67370595172E+01  0.12092714471E+03  0.12618290376E+03  0.41800000000E+01 0. -1.
</event>
<event>
11    1  0.6763327E-009  0.1338591E+03  0.7561462E-02  0.1114616E+00
         22   -1    0    0    0    0  0.00000000000E+00  0.00000000000E+00  0.65668542340E+03  0.65668542340E+03  0.00000000000E+00 0.  1.
         22   -1    0    0    0    0 -0.00000000000E+00 -0.00000000000E+00 -0.11832402751E+03  0.11832402751E+03  0.00000000000E+00 0.  1.
        -24    2    1    2    0    0 -0.23801056592E+02 -0.92569249549E+01 -0.45100204400E+02  0.95761052787E+02  0.80523101278E+02 0.  0.
         25    2    1    2    0    0 -0.44673267231E+01  0.48255189479E+02  0.59129779794E+02  0.14660274538E+03  0.12509002268E+03 0.  0.
         24    2    1    2    0    0  0.28268383315E+02 -0.38998264524E+02  0.52433182050E+03  0.53264565274E+03  0.80421186675E+02 0.  0.
        -11    1    5    5    0    0  0.20587013824E+02  0.88447136530E+01  0.37457789617E+03  0.37524745755E+03  0.00000000000E+00 0.  1.
         12    1    5    5    0    0  0.76813694910E+01 -0.47842978177E+02  0.14975392433E+03  0.15739819519E+03  0.00000000000E+00 0. -1.
         13    1    3    3    0    0 -0.50829335981E+01 -0.43118802891E+02 -0.12538248252E+02  0.45191537326E+02  0.00000000000E+00 0. -1.
        -14    1    3    3    0    0 -0.18718122994E+02  0.33861877936E+02 -0.32561956148E+02  0.50569515461E+02  0.00000000000E+00 0.  1.
          5    1    4    4  501    0  0.85614037915E+00  0.15475206005E+02  0.95694406910E+02  0.97031473714E+02  0.41800000000E+01 0.  1.
         -5    1    4    4    0  501 -0.53234671023E+01  0.32779983474E+02 -0.36564627116E+02  0.49571271667E+02  0.41800000000E+01 0.  1.
</event>
<event>
11    1  0.6763327E-009  0.1398008E+03  0.7561462E-02  0.1107781E+00
         22   -1    0    0    0    0  0.00000000000E+00  0.00000000000E+00  0.15167846452E+04  0.15167846452E+04  0.00000000000E+00 0.  1.
         22   -1    0    0    0    0 -0.00000000000E+00 -0.00000000000E+00 -0.11988139407E+04  0.11988139407E+04  0.00000000000E+00 0. -1.
         24    2    1    2    0    0  0.16288835776E+01  0.36230338647E+02 -0.11286705993E+04  0.11321459222E+04  0.80881250735E+02 0.  0.
         25    2    1    2    0    0  0.60297960450E+02 -0.26705302149E+02  0.95458845662E+01  0.14173003124E+03  0.12508901089E+03 0.  0.
        -24    2    1    2    0    0 -0.61926844027E+02 -0.95250364977E+01  0.14370954193E+04  0.14417226324E+04  0.96929068810E+02 0.  0.
        -13    1    3    3    0    0 -0.39363995716E+02  0.12939640339E+02 -0.50782254995E+03  0.50951025572E+03  0.00000000000E+00 0.  1.
         14    1    3    3    0    0  0.40992879294E+02  0.23290698308E+02 -0.62084804937E+03  0.62263566649E+03  0.00000000000E+00 0. -1.
         13    1    5    5    0    0 -0.18023811179E+02  0.19334514147E+02  0.11194113000E+04  0.11197233318E+04  0.00000000000E+00 0. -1.
        -14    1    5    5    0    0 -0.43903032849E+02 -0.28859550644E+02  0.31768411927E+03  0.32199930061E+03  0.00000000000E+00 0.  1.
          5    1    4    4  501    0  0.28254043605E+02 -0.68055210059E+02 -0.26105180930E+02  0.78286368338E+02  0.41800000000E+01 0.  1.
         -5    1    4    4    0  501  0.32043916845E+02  0.41349907910E+02  0.35651065496E+02  0.63443662898E+02  0.41800000000E+01 0.  1.
</event>
<event>
11    1  0.6763327E-009  0.1259321E+03  0.7561462E-02  0.1124371E+00
         22   -1    0    0    0    0  0.00000000000E+00  0.00000000000E+00  0.14933267360E+04  0.14933267360E+04  0.00000000000E+00 0. -1.
         22   -1    0    0    0    0 -0.00000000000E+00 -0.00000000000E+00 -0.26072369746E+03  0.26072369746E+03  0.00000000000E+00 0.  1.
         24    2    1    2    0    0 -0.31708322015E+02 -0.17788594828E+02 -0.23620066128E+03  0.25034422757E+03  0.74562913704E+02 0.  0.
         25    2    1    2    0    0  0.34878502321E+02  0.27364232361E+02  0.28123125673E+03  0.31097346857E+03  0.12509263470E+03 0.  0.
        -24    2    1    2    0    0 -0.31701803066E+01 -0.95756375326E+01  0.11875724431E+04  0.11927327373E+04  0.11036907267E+03 0.  0.
        -11    1    3    3    0    0 -0.54837910062E+02 -0.17894753892E+02 -0.14033692653E+03  0.15172960010E+03  0.00000000000E+00 0.  1.
         12    1    3    3    0    0  0.23129588047E+02  0.10615906369E+00 -0.95863734745E+02  0.98614627476E+02  0.00000000000E+00 0. -1.
         13    1    5    5    0    0  0.43182693598E+02 -0.24559624738E+02  0.87283793549E+03  0.87425052578E+03  0.00000000000E+00 0. -1.
        -14    1    5    5    0    0 -0.46352873905E+02  0.14983987205E+02  0.31473450759E+03  0.31848221153E+03  0.00000000000E+00 0.  1.
          5    1    4    4  501    0 -0.32937609287E+02  0.43672560631E+02  0.72899159254E+02  0.91235620662E+02  0.41800000000E+01 0.  1.
         -5    1    4    4    0  501  0.67816111608E+02 -0.16308328270E+02  0.20833209748E+03  0.21973784791E+03  0.41800000000E+01 0.  1.
</event>
<event>
11    1  0.6763327E-009  0.1509657E+03  0.7561462E-02  0.1095896E+00
         22   -1    0    0    0    0  0.00000000000E+00  0.00000000000E+00  0.43954421737E+03  0.43954421737E+03  0.00000000000E+00 0.  1.
         22   -1    0    0    0    0 -0.00000000000E+00 -0.00000000000E+00 -0.29111050038E+03  0.29111050038E+03  0.00000000000E+00 0. -1.
        -24    2    1    2    0    0  0.68133869640E+02 -0.36379341539E+02 -0.13859352019E+03  0.17805170679E+03  0.80799540651E+02 0.  0.
         25    2    1    2    0    0 -0.10174703717E+03  0.27556477353E+02 -0.75204955962E+02  0.18007086114E+03  0.12513157321E+03 0.  0.
         24    2    1    2    0    0  0.33613167527E+02  0.88228641855E+01  0.36223219314E+03  0.37253214983E+03  0.79751820974E+02 0.  0.
        -13    1    5    5    0    0 -0.11449275590E+02  0.24803744806E+01  0.26412525505E+03  0.26438492491E+03  0.00000000000E+00 0.  1.
         14    1    5    5    0    0  0.45062443117E+02  0.63424897049E+01  0.98106938091E+02  0.10814722492E+03  0.00000000000E+00 0. -1.
         13    1    3    3    0    0  0.29000050694E+02 -0.59573201443E+02 -0.80139231715E+02  0.10398204523E+03  0.00000000000E+00 0. -1.
        -14    1    3    3    0    0  0.39133818946E+02  0.23193859904E+02 -0.58454288471E+02  0.74069661557E+02  0.00000000000E+00 0.  1.
          5    1    4    4  501    0 -0.10897168913E+03  0.15692604310E+01 -0.96363255819E+02  0.14553570380E+03  0.41800000000E+01 0. -1.
         -5    1    4    4    0  501  0.72246519611E+01  0.25987216922E+02  0.21158299857E+02  0.34535157335E+02  0.41800000000E+01 0. -1.
</event>
<event>
11    1  0.6763327E-009  0.1568156E+03  0.7561462E-02  0.1090111E+00
         22   -1    0    0    0    0  0.00000000000E+00  0.00000000000E+00  0.33914455560E+03  0.33914455560E+03  0.00000000000E+00 0. -1.
         22   -1    0    0    0    0 -0.00000000000E+00 -0.00000000000E+00 -0.78772566369E+03  0.78772566369E+03  0.00000000000E+00 0. -1.
         24    2    1    2    0    0  0.10992457836E+02 -0.55762775893E+02 -0.62330083989E+03  0.63103845583E+03  0.80469089819E+02 0.  0.
         25    2    1    2    0    0 -0.71482418917E+02  0.12308932220E+03 -0.86326632558E+02  0.20822867006E+03  0.12508466769E+03 0.  0.
        -24    2    1    2    0    0  0.60489961080E+02 -0.67326546308E+02  0.26104636437E+03  0.28760309341E+03  0.79865109767E+02 0.  0.
        -11    1    3    3    0    0 -0.30393101627E+02 -0.25836793349E+02 -0.15860587289E+03  0.16354541703E+03  0.00000000000E+00 0.  1.
         12    1    3    3    0    0  0.41385559463E+02 -0.29925982543E+02 -0.46469496700E+03  0.46749303880E+03  0.00000000000E+00 0. -1.
         11    1    5    5    0    0  0.55979263725E+02 -0.56430959711E+02  0.26378174197E+03  0.27549761991E+03  0.00000000000E+00 0. -1.
        -12    1    5    5    0    0  0.45106973551E+01 -0.10895586596E+02 -0.27353776009E+01  0.12105473494E+02  0.00000000000E+00 0.  1.
          5    1    4    4  501    0 -0.63713509044E+02  0.13706837303E+03 -0.10438947863E+03  0.18374380471E+03  0.41800000000E+01 0. -1.
         -5    1    4    4    0  501 -0.77689098729E+01 -0.13979050830E+02  0.18062846077E+02  0.24484865348E+02  0.41800000000E+01 0. -1.
</event>
<event>
11    1  0.6763327E-009  0.2154744E+03  0.7561462E-02  0.1044090E+00
         22   -1    0    0    0    0  0.00000000000E+00  0.00000000000E+00  0.13729617551E+04  0.13729617551E+04  0.00000000000E+00 0.  1.
         22   -1    0    0    0    0 -0.00000000000E+00 -0.00000000000E+00 -0.63354342693E+02  0.63354342693E+02  0.00000000000E+00 0.  1.
        -24    2    1    2    0    0  0.69456439829E+02 -0.15252964662E+03  0.20302641034E+03  0.27780769798E+03  0.88701204215E+02 0.  0.
         25    2    1    2    0    0 -0.77264205403E+02  0.17892545580E+03  0.57243991365E+03  0.61751031429E+03  0.12508979716E+03 0.  0.
         24    2    1    2    0    0  0.78077655734E+01 -0.26395809188E+02  0.53414108841E+03  0.54099808552E+03  0.81329737821E+02 0.  0.
        -11    1    5    5    0    0 -0.57743527038E+01 -0.53194393741E+02  0.39804875734E+03  0.40162893309E+03  0.00000000000E+00 0.  1.
         12    1    5    5    0    0  0.13582118277E+02  0.26798584554E+02  0.13609233107E+03  0.13936915243E+03  0.00000000000E+00 0. -1.
         11    1    3    3    0    0  0.48418844337E+02 -0.73209339774E+02  0.16600447096E+03  0.18778039380E+03  0.00000000000E+00 0. -1.
        -12    1    3    3    0    0  0.21037595492E+02 -0.79320306843E+02  0.37021939378E+02  0.90027304175E+02  0.00000000000E+00 0.  1.
          5    1    4    4  501    0  0.51144280296E+01  0.11819009718E+03  0.39787823266E+03  0.41511398057E+03  0.41800000000E+01 0.  1.
         -5    1    4    4    0  501 -0.82378633432E+02  0.60735358625E+02  0.17456168099E+03  0.20239633372E+03  0.41800000000E+01 0.  1.
</event>
<event>
11    1  0.6763327E-009  0.1268364E+03  0.7561462E-02  0.1123218E+00
         22   -1    0    0    0    0  0.00000000000E+00  0.00000000000E+00  0.92578795083E+03  0.92578795083E+03  0.00000000000E+00 0. -1.
         22   -1    0    0    0    0 -0.00000000000E+00 -0.00000000000E+00 -0.10336963823E+03  0.10336963823E+03  0.00000000000E+00 0. -1.
         24    2    1    2    0    0 -0.28789453246E+02 -0.13077891342E+02 -0.34616625920E+02  0.10309304969E+03  0.91815043668E+02 0.  0.
         25    2    1    2    0    0 -0.14703711798E+02 -0.12959918624E+02  0.95591222580E+02  0.15864940521E+03  0.12509114001E+03 0.  0.
        -24    2    1    2    0    0  0.43493165044E+02  0.26037809967E+02  0.76144371594E+03  0.76741513415E+03  0.80992793709E+02 0.  0.
        -11    1    3    3    0    0 -0.12940985143E+02 -0.51504724886E+02 -0.79234736103E+01  0.53693455989E+02  0.00000000000E+00 0.  1.
         12    1    3    3    0    0 -0.15848468103E+02  0.38426833544E+02 -0.26693152310E+02  0.49399593699E+02  0.00000000000E+00 0. -1.
         11    1    5    5    0    0  0.57264334598E+02  0.40272659482E+02  0.68015139893E+03  0.68374484757E+03  0.00000000000E+00 0. -1.
        -12    1    5    5    0    0 -0.13771169554E+02 -0.14234849516E+02  0.81292317009E+02  0.83670286580E+02  0.00000000000E+00 0.  1.
          5    1    4    4  501    0 -0.14459367627E+02  0.25250795370E+02  0.11277541559E+03  0.11654373746E+03  0.41800000000E+01 0. -1.
         -5    1    4    4    0  501 -0.24434417050E+00 -0.38210713995E+02 -0.17184193008E+02  0.42105667759E+02  0.41800000000E+01 0. -1.
</event>
<event>
11    1  0.6763327E-009  0.1721070E+03  0.7561462E-02  0.1076213E+00
         22   -1    0    0    0    0  0.00000000000E+00  0.00000000000E+00  0.15388499290E+04  0.15388499290E+04  0.00000000000E+00 0.  1.
         22   -1    0    0    0    0 -0.00000000000E+00 -0.00000000000E+00 -0.16806294215E+04  0.16806294215E+04  0.00000000000E+00 0. -1.
        -24    2    1    2    0    0  0.29179941245E+01 -0.19689437281E+02 -0.15351325231E+04  0.15373494702E+04  0.80095825312E+02 0.  0.
         25    2    1    2    0    0  0.99402523420E+02 -0.40130905405E+02 -0.92574133782E+02  0.18896539572E+03  0.12508636737E+03 0.  0.
         24    2    1    2    0    0 -0.10232051754E+03  0.59820342686E+02  0.14859271643E+04  0.14931644846E+04  0.86675710313E+02 0.  0.
        -13    1    5    5    0    0 -0.93878992511E+02  0.77709479438E+02  0.13826209701E+04  0.13879815472E+04  0.00000000000E+00 0.  1.
         14    1    5    5    0    0 -0.84415250335E+01 -0.17889136752E+02  0.10330619426E+03  0.10518293746E+03  0.00000000000E+00 0. -1.
         11    1    3    3    0    0 -0.17866119176E+02  0.16083443077E+02 -0.10980822083E+04  0.10983453062E+04  0.00000000000E+00 0. -1.
        -12    1    3    3    0    0  0.20784113301E+02 -0.35772880358E+02 -0.43705031479E+03  0.43900416398E+03  0.00000000000E+00 0.  1.
          5    1    4    4  501    0  0.87105219517E+02 -0.42564717983E+02 -0.16159629329E+01  0.97052347835E+02  0.41800000000E+01 0. -1.
         -5    1    4    4    0  501  0.12297303903E+02  0.24338125776E+01 -0.90958170849E+02  0.91913047883E+02  0.41800000000E+01 0. -1.
</event>
<event>
11    1  0.6763327E-009  0.4118020E+03  0.7561462E-02  0.9615563E-01
         22   -1    0    0    0    0  0.00000000000E+00  0.00000000000E+00  0.21152443977E+03  0.21152443977E+03  0.00000000000E+00 0.  1.
         22   -1    0    0    0    0 -0.00000000000E+00 -0.00000000000E+00 -0.11878184738E+04  0.11878184738E+04  0.00000000000E+00 0.  1.
         24    2    1    2    0    0 -0.14440829047E+03 -0.16652020864E+03 -0.95888495144E+03  0.98717308372E+03  0.80421470185E+02 0.  0.
         25    2    1    2    0    0 -0.54673470710E+02  0.93952996157E+02 -0.68455210625E+02  0.17930768579E+03  0.12509506959E+03 0.  0.
        -24    2    1    2    0    0  0.19908176118E+03  0.72567212482E+02  0.51046128039E+02  0.23286214405E+03  0.81972696566E+02 0.  0.
        -11    1    3    3    0    0 -0.25585760667E+02 -0.75373363344E+02 -0.23998690840E+03  0.25284281926E+03  0.00000000000E+00 0.  1.
         12    1    3    3    0    0 -0.11882252980E+03 -0.91146845296E+02 -0.71889804305E+03  0.73433026445E+03  0.00000000000E+00 0. -1.
         13    1    5    5    0    0  0.11705245481E+03  0.24520000200E+01  0.42723919366E+02  0.12462994330E+03  0.00000000000E+00 0. -1.
        -14    1    5    5    0    0  0.82029306374E+02  0.70115212462E+02  0.83222086733E+01  0.10823220075E+03  0.00000000000E+00 0.  1.
          5    1    4    4  501    0 -0.76288632319E+02  0.99836554669E+02 -0.22087276082E+02  0.12764252126E+03  0.41800000000E+01 0.  1.
         -5    1    4    4    0  501  0.21615161609E+02 -0.58835585115E+01 -0.46367934543E+02  0.51665164530E+02  0.41800000000E+01 0.  1.
</event>
<event>
11    1  0.6763327E-009  0.1628796E+03  0.7561462E-02  0.1084400E+00
         22   -1    0    0    0    0  0.00000000000E+00  0.00000000000E+00  0.68004900468E+03  0.68004900468E+03  0.00000000000E+00 0.  1.
         22   -1    0    0    0    0 -0.00000000000E+00 -0.00000000000E+00 -0.47651810552E+03  0.47651810552E+03  0.00000000000E+00 0. -1.
        -24    2    1    2    0    0 -0.10581383910E+03  0.73086872563E+01 -0.43161262564E+03  0.45230945563E+03  0.83930921508E+02 0.  0.
         25    2    1    2    0    0  0.72138496126E+02  0.53831463063E+02  0.18054681279E+03  0.23737380343E+03  0.12508949559E+03 0.  0.
         24    2    1    2    0    0  0.33675342971E+02 -0.61140150319E+02  0.45459671202E+03  0.46688385115E+03  0.80313219217E+02 0.  0.
        -11    1    5    5    0    0  0.27643583695E+02 -0.78406070157E+02  0.41530012481E+03  0.42353969498E+03  0.00000000000E+00 0.  1.
         12    1    5    5    0    0  0.60317592762E+01  0.17265919837E+02  0.39296587211E+02  0.43344156172E+02  0.00000000000E+00 0. -1.
         13    1    3    3    0    0 -0.11087827287E+03 -0.15142469002E+02 -0.34531534172E+03  0.36299582779E+03  0.00000000000E+00 0. -1.
        -14    1    3    3    0    0  0.50644337704E+01  0.22451156258E+02 -0.86297283921E+02  0.89313627845E+02  0.00000000000E+00 0.  1.
          5    1    4    4  501    0  0.10464973639E+03  0.29587996997E+02  0.10341829707E+03  0.15013271949E+03  0.41800000000E+01 0.  1.
         -5    1    4    4    0  501 -0.32511240261E+02  0.24243466066E+02  0.77128515713E+02  0.87241083936E+02  0.41800000000E+01 0.  1.
</event>
<event>
11    1  0.6763327E-009  0.1354340E+03  0.7561462E-02  0.1112767E+00
         22   -1    0    0    0    0  0.00000000000E+00  0.00000000000E+00  0.56557026553E+03  0.56557026553E+03  0.00000000000E+00 0. -1.
         22   -1    0    0    0    0 -0.00000000000E+00 -0.00000000000E+00 -0.12796639916E+04  0.12796639916E+04  0.00000000000E+00 0.  1.
        -24    2    1    2    0    0  0.52517911802E+02  0.75610601172E+01 -0.12143543987E+04  0.12185010616E+04  0.85281479500E+02 0.  0.
         25    2    1    2    0    0 -0.14361766799E+02  0.13487374005E+02  0.87094348607E+01  0.12695562683E+03  0.12511477661E+03 0.  0.
         24    2    1    2    0    0 -0.38156145002E+02 -0.21048434122E+02  0.49155123783E+03  0.49977756866E+03  0.79095326928E+02 0.  0.
        -11    1    5    5    0    0  0.43884271255E+01  0.15509369103E+02  0.24227355994E+02  0.29099202757E+02  0.00000000000E+00 0.  1.
         12    1    5    5    0    0 -0.42544572128E+02 -0.36557803225E+02  0.46732388184E+03  0.47067836590E+03  0.00000000000E+00 0. -1.
         11    1    3    3    0    0  0.13995225407E+02 -0.30583656330E+02 -0.20926193379E+03  0.21194759565E+03  0.00000000000E+00 0. -1.
        -12    1    3    3    0    0  0.38522686394E+02  0.38144716447E+02 -0.10050924649E+04  0.10065534660E+04  0.00000000000E+00 0.  1.
          5    1    4    4  501    0  0.16158937360E+02 -0.11048381713E+02  0.59447488968E+02  0.62726823128E+02  0.41800000000E+01 0. -1.
         -5    1    4    4    0  501 -0.30520704159E+02  0.24535755718E+02 -0.50738054108E+02  0.64228803707E+02  0.41800000000E+01 0. -1.
</event>
<event>
11    1  0.6763327E-009  0.1356386E+03  0.7561462E-02  0.1112529E+00
         22   -1    0    0    0    0  0.00000000000E+00  0.00000000000E+00  0.23084649984E+04  0.23084649984E+04  0.00000000000E+00 0. -1.
         22   -1    0    0    0    0 -0.00000000000E+00 -0.00000000000E+00 -0.17297710786E+03  0.17297710786E+03  0.00000000000E+00 0.  1.
        -24    2    1    2    0    0 -0.88616969183E+01  0.44715230786E+02 -0.13742859111E+03  0.16602457143E+03  0.81237670618E+02 0.  0.
         25    2    1    2    0    0  0.48089427117E+02 -0.76699969002E+02  0.27547817457E+03  0.31580420407E+03  0.12509433402E+03 0.  0.
         24    2    1    2    0    0 -0.39227730199E+02  0.31984738216E+02  0.19974383071E+04  0.19996133308E+04  0.78306089407E+02 0.  0.
        -13    1    5    5    0    0 -0.12153373465E+02  0.79811325515E+01  0.56597021003E+02  0.58434799134E+02  0.00000000000E+00 0.  1.
         14    1    5    5    0    0 -0.27074356734E+02  0.24003605664E+02  0.19408412861E+04  0.19411785316E+04  0.00000000000E+00 0. -1.
         11    1    3    3    0    0  0.14805547754E+02 -0.14278023587E+02 -0.84557439511E+01  0.22238835572E+02  0.00000000000E+00 0. -1.
        -12    1    3    3    0    0 -0.23667244672E+02  0.58993254373E+02 -0.12897284716E+03  0.14378573586E+03  0.00000000000E+00 0.  1.
          5    1    4    4  501    0  0.75889118400E+02 -0.26773279452E+02  0.22656472595E+03  0.24046832271E+03  0.41800000000E+01 0.  1.
         -5    1    4    4    0  501 -0.27799691283E+02 -0.49926689550E+02  0.48913448618E+02  0.75335881362E+02  0.41800000000E+01 0.  1.
</event>
<event>
11    1  0.6763327E-009  0.1326035E+03  0.7561462E-02  0.1116111E+00
         22   -1    0    0    0    0  0.00000000000E+00  0.00000000000E+00  0.19461600361E+03  0.19461600361E+03  0.00000000000E+00 0.  1.
         22   -1    0    0    0    0 -0.00000000000E+00 -0.00000000000E+00 -0.65087277560E+03  0.65087277560E+03  0.00000000000E+00 0. -1.
        -24    2    1    2    0    0 -0.16801082684E+02  0.40157885140E+02 -0.49644215290E+03  0.50480257418E+03  0.80472949483E+02 0.  0.
         25    2    1    2    0    0  0.46222698499E+02 -0.31266147922E+02 -0.10453508817E+03  0.17230475020E+03  0.12508889807E+03 0.  0.
         24    2    1    2    0    0 -0.29421615815E+02 -0.88917372184E+01  0.14472046908E+03  0.16838145484E+03  0.80396552752E+02 0.  0.
        -11    1    5    5    0    0 -0.21632116271E+01  0.19336796636E+02  0.12094387172E+03  0.12249902569E+03  0.00000000000E+00 0.  1.
         12    1    5    5    0    0 -0.27258404188E+02 -0.28228533854E+02  0.23776597363E+02  0.45882429148E+02  0.00000000000E+00 0. -1.
         11    1    3    3    0    0 -0.17308384669E+02  0.64661237417E+02 -0.35619038902E+03  0.36242550825E+03  0.00000000000E+00 0. -1.
        -12    1    3    3    0    0  0.50730198410E+00 -0.24503352277E+02 -0.14025176388E+03  0.14237706592E+03  0.00000000000E+00 0.  1.
          5    1    4    4  501    0  0.63136359931E+02 -0.52986743296E+02 -0.22309692416E+02  0.85492629425E+02  0.41800000000E+01 0. -1.
         -5    1    4    4    0  501 -0.16913661432E+02  0.21720595374E+02 -0.82225395750E+02  0.86812120770E+02  0.41800000000E+01 0. -1.
</event>
<event>
11    1  0.6763327E-009  0.1530936E+03  0.7561462E-02  0.1093759E+00
         22   -1    0    0    0    0  0.00000000000E+00  0.00000000000E+00  0.94180583041E+03  0.94180583041E+03  0.00000000000E+00 0.  1.
         22   -1    0    0    0    0 -0.00000000000E+00 -0.00000000000E+00 -0.20898336435E+04  0.20898336435E+04  0.00000000000E+00 0. -1.
         24    2    1    2    0    0  0.21487014054E+02  0.85380872980E+02 -0.20596870497E+04  0.20630704859E+04  0.78724214276E+02 0.  0.
         25    2    1    2    0    0 -0.80485815591E+02 -0.12586492842E+03  0.38645637844E+03  0.43279972820E+03  0.12508847098E+03 0.  0.
        -24    2    1    2    0    0  0.58998801537E+02  0.40484055444E+02  0.52520285813E+03  0.53576925984E+03  0.78043835574E+02 0.  0.
        -11    1    3    3    0    0  0.25859860238E+02  0.32910975492E+02 -0.33843895999E+03  0.34101729328E+03  0.00000000000E+00 0.  1.
         12    1    3    3    0    0 -0.43728461848E+01  0.52469897487E+02 -0.17212480897E+04  0.17220531926E+04  0.00000000000E+00 0. -1.
         11    1    5    5    0    0 -0.40951899766E+00  0.45382493532E+02  0.26188660553E+03  0.26579001595E+03  0.00000000000E+00 0. -1.
        -12    1    5    5    0    0  0.59408320535E+02 -0.48984380882E+01  0.26331625260E+03  0.26997924388E+03  0.00000000000E+00 0.  1.
          5    1    4    4  501    0 -0.89679417309E+02 -0.43987647899E+02  0.28505588670E+03  0.30207886718E+03  0.41800000000E+01 0. -1.
         -5    1    4    4    0  501  0.91936017176E+01 -0.81877280525E+02  0.10140049174E+03  0.13072086101E+03  0.41800000000E+01 0. -1.
</event>
<event>
11    1  0.6763327E-009  0.1682341E+03  0.7561462E-02  0.1079579E+00
         22   -1    0    0    0    0  0.00000000000E+00  0.00000000000E+00  0.40002192791E+04  0.40002192791E+04  0.00000000000E+00 0. -1.
         22   -1    0    0    0    0 -0.00000000000E+00 -0.00000000000E+00 -0.58604186837E+03  0.58604186837E+03  0.00000000000E+00 0.  1.
         24    2    1    2    0    0  0.21168076914E+02  0.13803244437E+02 -0.48771924036E+03  0.49514406204E+03  0.81602498270E+02 0.  0.
         25    2    1    2    0    0  0.45511208893E+02  0.77182174179E+02 -0.29982266797E+02  0.15676468511E+03  0.12509145466E+03 0.  0.
        -24    2    1    2    0    0 -0.66679285807E+02 -0.90985418617E+02  0.39318789179E+04  0.39343524003E+04  0.82051882464E+02 0.  0.
        -11    1    3    3    0    0  0.38380293472E+02 -0.15058037418E+02 -0.38185838799E+03  0.38407762222E+03  0.00000000000E+00 0.  1.
         12    1    3    3    0    0 -0.17212216558E+02  0.28861281855E+02 -0.10586085237E+03  0.11106643982E+03  0.00000000000E+00 0. -1.
         11    1    5    5    0    0 -0.73335125555E+02 -0.10250746983E+03  0.35007091049E+04  0.35029773135E+04  0.00000000000E+00 0. -1.
        -12    1    5    5    0    0  0.66558397482E+01  0.11522051210E+02  0.43116981300E+03  0.43137508680E+03  0.00000000000E+00 0.  1.
          5    1    4    4  501    0  0.19666163344E+01 -0.30570070574E+02  0.11944568601E+02  0.33144259137E+02  0.41800000000E+01 0. -1.
         -5    1    4    4    0  501  0.43544592559E+02  0.10775224475E+03 -0.41926835398E+02  0.12362042597E+03  0.41800000000E+01 0. -1.
</event>
<event>
11    1  0.6763327E-009  0.1321370E+03  0.7561462E-02  0.1116671E+00
         22   -1    0    0    0    0  0.00000000000E+00  0.00000000000E+00  0.74276465222E+03  0.74276465222E+03  0.00000000000E+00 0. -1.
         22   -1    0    0    0    0 -0.00000000000E+00 -0.00000000000E+00 -0.11122771852E+03  0.11122771852E+03  0.00000000000E+00 0. -1.
         24    2    1    2    0    0 -0.39066079940E+02 -0.56255435091E+01 -0.43320868604E+02  0.98623423863E+02  0.79322611759E+02 0.  0.
         25    2    1    2    0    0  0.56002209080E+02  0.10376287635E+02  0.88900666324E+02  0.16368370261E+03  0.12508041917E+03 0.  0.
        -24    2    1    2    0    0 -0.16936129140E+02 -0.47507441264E+01  0.58595713598E+03  0.59168524427E+03  0.80226311436E+02 0.  0.
        -11    1    3    3    0    0  0.18648140842E+02 -0.10063086736E+02  0.65912063409E+01  0.22191504513E+02  0.00000000000E+00 0.  1.
         12    1    3    3    0    0 -0.57714220781E+02  0.44375432269E+01 -0.49912074945E+02  0.76431919350E+02  0.00000000000E+00 0. -1.
         13    1    5    5    0    0 -0.44400487026E+02 -0.46178076535E+00  0.48316188499E+03  0.48519792208E+03  0.00000000000E+00 0. -1.
        -14    1    5    5    0    0  0.27464357886E+02 -0.42889633610E+01  0.10279525099E+03  0.10648732219E+03  0.00000000000E+00 0.  1.
          5    1    4    4  501    0  0.53021056120E+02  0.15802690660E+02 -0.16604085443E+02  0.57914812247E+02  0.41800000000E+01 0. -1.
         -5    1    4    4    0  501  0.29811529601E+01 -0.54264030246E+01  0.10550475177E+03  0.10576889036E+03  0.41800000000E+01 0. -1.
</event>
<event>
11    1  0.6763327E-009  0.1732762E+03  0.7561462E-02  0.1075215E+00
         22   -1    0    0    0    0  0.00000000000E+00  0.00000000000E+00  0.54846111760E+03  0.54846111760E+03  0.00000000000E+00 0.  1.
         22   -1    0    0    0    0 -0.00000000000E+00 -0.00000000000E+00 -0.49451608803E+03  0.49451608803E+03  0.00000000000E+00 0.  1.
         24    2    1    2    0    0  0.35871042517E+02 -0.39001750465E+02 -0.25799819583E+03  0.27620163812E+03  0.83164942244E+02 0.  0.
         25    2    1    2    0    0  0.71336368760E+02 -0.19567689019E+02 -0.19286617043E+03  0.24148759689E+03  0.12508847987E+03 0.  0.
        -24    2    1    2    0    0 -0.10720741128E+03  0.58569439483E+02  0.50480939583E+03  0.52528797062E+03  0.78556461739E+02 0.  0.
        -13    1    3    3    0    0  0.58637165576E+02 -0.13042324385E+02 -0.19871950524E+03  0.20760024367E+03  0.00000000000E+00 0.  1.
         14    1    3    3    0    0 -0.22766123059E+02 -0.25959426079E+02 -0.59278690595E+02  0.68601394448E+02  0.00000000000E+00 0. -1.
         11    1    5    5    0    0 -0.14699812916E+02 -0.37897357163E+01  0.10287196717E+02  0.18337748304E+02  0.00000000000E+00 0. -1.
        -12    1    5    5    0    0 -0.92507598361E+02  0.62359175199E+02  0.49452219912E+03  0.50695022231E+03  0.00000000000E+00 0.  1.
          5    1    4    4  501    0 -0.26747897712E+02 -0.34328745926E+02 -0.40269629749E+02  0.59439282541E+02  0.41800000000E+01 0. -1.
         -5    1    4    4    0  501  0.98084266472E+02  0.14761056908E+02 -0.15259654068E+03  0.18204831435E+03  0.41800000000E+01 0. -1.
</event>
<event>
11    1  0.6763327E-009  0.1455881E+03  0.7561462E-02  0.1101474E+00
         22   -1    0    0    0    0  0.00000000000E+00  0.00000000000E+00  0.28393386761E+04  0.28393386761E+04  0.00000000000E+00 0. -1.
         22   -1    0    0    0    0 -0.00000000000E+00 -0.00000000000E+00 -0.38455082221E+03  0.38455082221E+03  0.00000000000E+00 0.  1.
        -24    2    1    2    0    0  0.48448075797E+02  0.56071421152E+02 -0.36756840271E+03  0.38370712133E+03  0.81445711800E+02 0.  0.
         25    2    1    2    0    0 -0.68481593401E+02 -0.10522897035E+03  0.10438482804E+04  0.10587869687E+04  0.12509095782E+03 0.  0.
         24    2    1    2    0    0  0.20033517604E+02  0.49157549199E+02  0.17785079762E+04  0.17813954083E+04  0.86378080630E+02 0.  0.
        -13    1    5    5    0    0  0.32524572548E+02  0.73161806725E+01  0.24406832598E+03  0.24633457343E+03  0.00000000000E+00 0.  1.
         14    1    5    5    0    0 -0.12491054944E+02  0.41841368527E+02  0.15344396502E+04  0.15350608348E+04  0.00000000000E+00 0. -1.
         13    1    3    3    0    0  0.24004017762E+02  0.53080409924E+02 -0.10576048386E+03  0.12074354116E+03  0.00000000000E+00 0. -1.
        -14    1    3    3    0    0  0.24444058035E+02  0.29910112282E+01 -0.26180791886E+03  0.26296358017E+03  0.00000000000E+00 0.  1.
          5    1    4    4  501    0 -0.64526353192E+02 -0.99570920983E+01  0.22272377676E+03  0.23213389902E+03  0.41800000000E+01 0. -1.
         -5    1    4    4    0  501 -0.39552402085E+01 -0.95271878254E+02  0.82112450366E+03  0.82665306969E+03  0.41800000000E+01 0. -1.
</event>
<event>
11    1  0.6763327E-009  0.1843451E+03  0.7561462E-02  0.1066181E+00
         22   -1    0    0    0    0  0.00000000000E+00  0.00000000000E+00  0.11834399257E+04  0.11834399257E+04  0.00000000000E+00 0. -1.
         22   -1    0    0    0    0 -0.00000000000E+00 -0.00000000000E+00 -0.22652588846E+03  0.22652588846E+03  0.00000000000E+00 0. -1.
         24    2    1    2    0    0  0.51842350748E+02 -0.32912565250E+02 -0.13942666888E+03  0.17485403224E+03  0.85809500138E+02 0.  0.
         25    2    1    2    0    0 -0.12962903331E+03  0.13737858213E+03  0.14000655201E+03  0.26631885147E+03  0.12508930783E+03 0.  0.
        -24    2    1    2    0    0  0.77786682566E+02 -0.10446601688E+03  0.95633415410E+03  0.96879293045E+03  0.83790280562E+02 0.  0.
        -11    1    3    3    0    0  0.46532290347E+02 -0.11683520177E+01 -0.19127444999E+02  0.50323734396E+02  0.00000000000E+00 0.  1.
         12    1    3    3    0    0  0.53100604003E+01 -0.31744213232E+02 -0.12029922388E+03  0.12453029784E+03  0.00000000000E+00 0. -1.
         11    1    5    5    0    0 -0.16940348490E+02 -0.10699503640E+02  0.85412060422E+02  0.87730695031E+02  0.00000000000E+00 0. -1.
        -12    1    5    5    0    0  0.94727031056E+02 -0.93766513243E+02  0.87092209368E+03  0.88106223542E+03  0.00000000000E+00 0.  1.
          5    1    4    4  501    0  0.11944471314E+01  0.51780146554E+02  0.86718424137E+02  0.10109484540E+03  0.41800000000E+01 0. -1.
         -5    1    4    4    0  501 -0.13082348045E+03  0.85598435580E+02  0.53288127872E+02  0.16522400607E+03  0.41800000000E+01 0. -1.
</event>
<event>
11    1  0.6763327E-009  0.1463831E+03  0.7561462E-02  0.1100633E+00
         22   -1    0    0    0    0  0.00000000000E+00  0.00000000000E+00  0.13588214735E+04  0.13588214735E+04  0.00000000000E+00 0. -1.
         22   -1    0    0    0    0 -0.00000000000E+00 -0.00000000000E+00 -0.44327530206E+03  0.44327530206E+03  0.00000000000E+00 0. -1.
        -24    2    1    2    0    0  0.44648397513E+02  0.58358619282E+02 -0.38096136352E+03  0.39701746522E+03  0.84214602951E+02 0.  0.
         25    2    1    2    0    0 -0.81606097849E+02 -0.92000764866E+02  0.94505323548E+02  0.19925491997E+03  0.12509025146E+03 0.  0.
         24    2    1    2    0    0  0.36957700336E+02  0.33642145584E+02  0.12020022115E+04  0.12058243904E+04  0.81886986788E+02 0.  0.
        -11    1    5    5    0    0 -0.66197543989E+01 -0.23137435197E+02  0.26339190420E+03  0.26448904941E+03  0.00000000000E+00 0.  1.
         12    1    5    5    0    0  0.43577454735E+02  0.56779580782E+02  0.93861030725E+03  0.94133534101E+03  0.00000000000E+00 0. -1.
         13    1    3    3    0    0  0.19916957402E+02 -0.12772173236E+02 -0.19433103048E+03  0.19576609259E+03  0.00000000000E+00 0. -1.
        -14    1    3    3    0    0  0.24731440111E+02  0.71130792518E+02 -0.18663033304E+03  0.20125137262E+03  0.00000000000E+00 0.  1.
          5    1    4    4  501    0 -0.93867951884E+02 -0.44786940320E+02  0.13993046257E+02  0.10502542624E+03  0.41800000000E+01 0.  1.
         -5    1    4    4    0  501  0.12261854034E+02 -0.47213824546E+02  0.80512277291E+02  0.94229493723E+02  0.41800000000E+01 0.  1.
</event>
<event>
11    1  0.6763327E-009  0.1470135E+03  0.7561462E-02  0.1099970E+00
         22   -1    0    0    0    0  0.00000000000E+00  0.00000000000E+00  0.22139458126E+03  0.22139458126E+03  0.00000000000E+00 0. -1.
         22   -1    0    0    0    0 -0.00000000000E+00 -0.00000000000E+00 -0.12564340855E+04  0.12564340855E+04  0.00000000000E+00 0. -1.
        -24    2    1    2    0    0  0.32333407586E+02  0.36138491847E+02 -0.67231026537E+03  0.67887026661E+03  0.80698860730E+02 0.  0.
         25    2    1    2    0    0 -0.78351668685E+02 -0.96547513476E+02 -0.55152825291E+03  0.57904362220E+03  0.12509075229E+03 0.  0.
         24    2    1    2    0    0  0.46018261099E+02  0.60409021629E+02  0.18879901407E+03  0.21991477791E+03  0.83369728207E+02 0.  0.
        -11    1    5    5    0    0  0.24659365087E+02 -0.82693364183E+01  0.11224494107E+02  0.28327645141E+02  0.00000000000E+00 0.  1.
         12    1    5    5    0    0  0.21358896012E+02  0.68678358048E+02  0.17757451997E+03  0.19158713277E+03  0.00000000000E+00 0. -1.
         11    1    3    3    0    0  0.38887183454E+01 -0.31159042520E+01 -0.49577494419E+03  0.49579998616E+03  0.00000000000E+00 0. -1.
        -12    1    3    3    0    0  0.28444689241E+02  0.39254396099E+02 -0.17653532118E+03  0.18307028045E+03  0.00000000000E+00 0.  1.
          5    1    4    4  501    0 -0.45176696082E+02 -0.69481288199E+01 -0.37910977150E+03  0.38187812403E+03  0.41800000000E+01 0. -1.
         -5    1    4    4    0  501 -0.33174972603E+02 -0.89599384656E+02 -0.17241848141E+03  0.19716549817E+03  0.41800000000E+01 0. -1.
</event>
<event>
11    1  0.6763327E-009  0.1447651E+03  0.7561462E-02  0.1102351E+00
         22   -1    0    0    0    0  0.00000000000E+00  0.00000000000E+00  0.32104114221E+03  0.32104114221E+03  0.00000000000E+00 0. -1.
         22   -1    0    0    0    0 -0.00000000000E+00 -0.00000000000E+00 -0.16579604556E+04  0.16579604556E+04  0.00000000000E+00 0.  1.
        -24    2    1    2    0    0  0.61152309974E+02  0.39536602203E+02 -0.15660061485E+04  0.15697402485E+04  0.80040255271E+02 0.  0.
         25    2    1    2    0    0 -0.25904755364E+02 -0.96213453079E+02  0.27281323164E+01  0.15994889818E+03  0.12509245549E+03 0.  0.
         24    2    1    2    0    0 -0.35247554610E+02  0.56676850876E+02  0.22635870281E+03  0.24931245119E+03  0.80397639600E+02 0.  0.
        -13    1    5    5    0    0 -0.44985411410E+02  0.45698689793E+01  0.14764277285E+03  0.15441165538E+03  0.00000000000E+00 0.  1.
         14    1    5    5    0    0  0.97378568004E+01  0.52106981896E+02  0.78715929957E+02  0.94900795816E+02  0.00000000000E+00 0. -1.
         13    1    3    3    0    0  0.32235198505E+02  0.18377546508E+02 -0.20948014536E+03  0.21274109508E+03  0.00000000000E+00 0. -1.
        -14    1    3    3    0    0  0.28917111468E+02  0.21159055695E+02 -0.13565260032E+04  0.13569991534E+04  0.00000000000E+00 0.  1.
          5    1    4    4  501    0  0.64459277059E+01 -0.10215548409E+03  0.40078663949E+02  0.11000483907E+03  0.41800000000E+01 0. -1.
         -5    1    4    4    0  501 -0.32350683070E+02  0.59420310153E+01 -0.37350531633E+02  0.49944059115E+02  0.41800000000E+01 0. -1.
</event>
<event>
11    1  0.6763327E-009  0.1347984E+03  0.7561462E-02  0.1113510E+00
         22   -1    0    0    0    0  0.00000000000E+00  0.00000000000E+00  0.42079511534E+03  0.42079511534E+03  0.00000000000E+00 0.  1.
         22   -1    0    0    0    0 -0.00000000000E+00 -0.00000000000E+00 -0.25672714532E+03  0.25672714532E+03  0.00000000000E+00 0. -1.
        -24    2    1    2    0    0 -0.21064463486E+01 -0.50893780635E+02 -0.21890391306E+03  0.23874436706E+03  0.80531581550E+02 0.  0.
         25    2    1    2    0    0  0.12639232206E+02  0.31315211313E+02  0.24328868043E+03  0.27563899982E+03  0.12508830300E+03 0.  0.
         24    2    1    2    0    0 -0.10532785858E+02  0.19578569322E+02  0.13968320265E+03  0.16313889378E+03  0.81293552068E+02 0.  0.
        -13    1    5    5    0    0  0.44006012484E+01  0.37862772266E+02  0.13335799996E+03  0.13869863362E+03  0.00000000000E+00 0.  1.
         14    1    5    5    0    0 -0.14933387106E+02 -0.18284202944E+02  0.63252026900E+01  0.24440260163E+02  0.00000000000E+00 0. -1.
         13    1    3    3    0    0 -0.36400424956E+02 -0.26706369940E+02 -0.64439955306E+02  0.78681185630E+02  0.00000000000E+00 0. -1.
        -14    1    3    3    0    0  0.34293978607E+02 -0.24187410695E+02 -0.15446395775E+03  0.16006318143E+03  0.00000000000E+00 0.  1.
          5    1    4    4  501    0 -0.30699461309E+02 -0.28874074689E+02  0.15281505321E+03  0.15857516200E+03  0.41800000000E+01 0. -1.
         -5    1    4    4    0  501  0.43338693515E+02  0.60189286001E+02  0.90473627216E+02  0.11706383783E+03  0.41800000000E+01 0. -1.
</event>
<event>
11    1  0.6763327E-009  0.1579786E+03  0.7561462E-02  0.1088994E+00
         22   -1    0    0    0    0  0.00000000000E+00  0.00000000000E+00  0.23277697257E+03  0.23277697257E+03  0.00000000000E+00 0.  1.
         22   -1    0    0    0    0 -0.00000000000E+00 -0.00000000000E+00 -0.72539490414E+03  0.72539490414E+03  0.00000000000E+00 0.  1.
         24    2    1    2    0    0 -0.13472423715E+01  0.29169105365E+02 -0.57459707360E+03  0.58088994744E+03  0.80116679140E+02 0.  0.
         25    2    1    2    0    0  0.35684615723E+02  0.65285829029E+02 -0.83412178382E+02  0.16775110178E+03  0.12508880595E+03 0.  0.
        -24    2    1    2    0    0 -0.34337373351E+02 -0.94454934394E+02  0.16539132041E+03  0.20953082749E+03  0.80299993536E+02 0.  0.
        -11    1    3    3    0    0  0.20368825702E+01 -0.25199663881E+02 -0.29186553959E+03  0.29295847001E+03  0.00000000000E+00 0.  1.
         12    1    3    3    0    0 -0.33841249417E+01  0.54368769247E+02 -0.28273153401E+03  0.28793147743E+03  0.00000000000E+00 0. -1.
         11    1    5    5    0    0  0.16836795581E+02 -0.39869854630E+02  0.23814231751E+02  0.49398386892E+02  0.00000000000E+00 0. -1.
        -12    1    5    5    0    0 -0.51174168932E+02 -0.54585079764E+02  0.14157708866E+03  0.16013244060E+03  0.00000000000E+00 0.  1.
          5    1    4    4  501    0  0.33132571533E+02  0.46893964404E+02  0.21254480458E+02  0.61368041630E+02  0.41800000000E+01 0. -1.
         -5    1    4    4    0  501  0.25520441901E+01  0.18391864624E+02 -0.10466665884E+03  0.10638306015E+03  0.41800000000E+01 0. -1.
</event>
<event>
11    1  0.6763327E-009  0.1291987E+03  0.7561462E-02  0.1120257E+00
         22   -1    0    0    0    0  0.00000000000E+00  0.00000000000E+00  0.19965723171E+02  0.19965723171E+02  0.00000000000E+00 0.  1.
         22   -1    0    0    0    0 -0.00000000000E+00 -0.00000000000E+00 -0.44906333661E+04  0.44906333661E+04  0.00000000000E+00 0. -1.
        -24    2    1    2    0    0  0.41973798529E+02  0.41799676101E+02 -0.27416672656E+04  0.27435332518E+04  0.82013994352E+02 0.  0.
         25    2    1    2    0    0 -0.60748660908E+01 -0.29046825628E+02 -0.15524956945E+04  0.15578099643E+04  0.12509349088E+03 0.  0.
         24    2    1    2    0    0 -0.35898932438E+02 -0.12752850472E+02 -0.17650468286E+03  0.20925587326E+03  0.10574851714E+03 0.  0.
        -13    1    5    5    0    0 -0.56410045215E+02  0.77711742954E+01 -0.39719882151E+02  0.69427324514E+02  0.00000000000E+00 0.  1.
         14    1    5    5    0    0  0.20511112777E+02 -0.20524024768E+02 -0.13678480071E+03  0.13982854875E+03  0.00000000000E+00 0. -1.
         11    1    3    3    0    0  0.37608556326E+02  0.62715162886E+02 -0.16048395186E+04  0.16065047388E+04  0.00000000000E+00 0. -1.
        -12    1    3    3    0    0  0.43652422035E+01 -0.20915486785E+02 -0.11368277470E+04  0.11370285130E+04  0.00000000000E+00 0.  1.
          5    1    4    4  501    0 -0.41759522404E+02 -0.45629891501E+02 -0.41297489413E+03  0.41760229919E+03  0.41800000000E+01 0. -1.
         -5    1    4    4    0  501  0.35684656313E+02  0.16583065873E+02 -0.11395208003E+04  0.11402076651E+04  0.41800000000E+01 0. -1.
</event>
<event>
11    1  0.6763327E-009  0.1437786E+03  0.7561462E-02  0.1103411E+00
         22   -1    0    0    0    0  0.00000000000E+00  0.00000000000E+00  0.32764372018E+03  0.32764372018E+03  0.00000000000E+00 0.  1.
         22   -1    0    0    0    0 -0.00000000000E+00 -0.00000000000E+00 -0.60481836346E+03  0.60481836346E+03  0.00000000000E+00 0. -1.
         24    2    1    2    0    0 -0.44347754787E+02  0.56653833930E+02 -0.52853852613E+03  0.53944009779E+03  0.80413091287E+02 0.  0.
         25    2    1    2    0    0  0.13967570600E+02 -0.59770982815E+02  0.13628344258E+02  0.14000119876E+03  0.12508773110E+03 0.  0.
        -24    2    1    2    0    0  0.30380184187E+02  0.31171488856E+01  0.23773553859E+03  0.25302078708E+03  0.81047271258E+02 0.  0.
        -13    1    3    3    0    0 -0.33106613107E+02 -0.14287741405E+02 -0.18110333025E+03  0.18465807216E+03  0.00000000000E+00 0.  1.
         14    1    3    3    0    0 -0.11241141679E+02  0.70941575334E+02 -0.34743519587E+03  0.35478202563E+03  0.00000000000E+00 0. -1.
         13    1    5    5    0    0  0.37393292121E+02  0.16129914608E+02  0.49028253718E+02  0.63735406985E+02  0.00000000000E+00 0. -1.
        -14    1    5    5    0    0 -0.70131079341E+01 -0.13012765722E+02  0.18870728487E+03  0.18928538010E+03  0.00000000000E+00 0.  1.
          5    1    4    4  501    0  0.47482347691E+02 -0.20872865789E+02  0.53670344163E+02  0.74754452115E+02  0.41800000000E+01 0. -1.
         -5    1    4    4    0  501 -0.33514777091E+02 -0.38898117026E+02 -0.40041999905E+02  0.65246746647E+02  0.41800000000E+01 0. -1.
</event>
<event>
11    1  0.6763327E-009  0.1657992E+03  0.7561462E-02  0.1081746E+00
         22   -1    0    0    0    0  0.00000000000E+00  0.00000000000E+00  0.10348616461E+04  0.10348616461E+04  0.00000000000E+00 0. -1.
         22   -1    0    0    0    0 -0.00000000000E+00 -0.00000000000E+00 -0.12767492433E+03  0.12767492433E+03  0.00000000000E+00 0. -1.
        -24    2    1    2    0    0  0.94549342081E+02 -0.49676569289E+02  0.23082127436E+02  0.12887087040E+03  0.68319667784E+02 0.  0.
         25    2    1    2    0    0 -0.15170998974E+03  0.13388156280E+03  0.13507484247E+03  0.27355824251E+03  0.12509478461E+03 0.  0.
         24    2    1    2    0    0  0.57160647656E+02 -0.84204993508E+02  0.74902975189E+03  0.76010745755E+03  0.79749340006E+02 0.  0.
        -11    1    5    5    0    0  0.27443945970E+02 -0.17858917229E+01  0.66280388537E+02  0.71759664744E+02  0.00000000000E+00 0.  1.
         12    1    5    5    0    0  0.29716701686E+02 -0.82419101785E+02  0.68274936335E+03  0.68834779280E+03  0.00000000000E+00 0. -1.
         13    1    3    3    0    0  0.58987889766E+02 -0.65190080602E+02  0.18016057875E+02  0.89743501655E+02  0.00000000000E+00 0. -1.
        -14    1    3    3    0    0  0.35561452315E+02  0.15513511313E+02  0.50660695613E+01  0.39127368744E+02  0.00000000000E+00 0.  1.
          5    1    4    4  501    0 -0.15265098243E+03  0.79564856896E+02  0.13543271263E+03  0.21907163427E+03  0.41800000000E+01 0. -1.
         -5    1    4    4    0  501  0.94099269680E+00  0.54316705901E+02 -0.35787016115E+00  0.54486608247E+02  0.41800000000E+01 0. -1.
</event>
<event>
11    1  0.6763327E-009  0.1578657E+03  0.7561462E-02  0.1089102E+00
         22   -1    0    0    0    0  0.00000000000E+00  0.00000000000E+00  0.51850949338E+03  0.51850949338E+03  0.00000000000E+00 0.  1.
         22   -1    0    0    0    0 -0.00000000000E+00 -0.00000000000E+00 -0.12853019129E+04  0.12853019129E+04  0.00000000000E+00 0. -1.
        -24    2    1    2    0    0 -0.50365761670E+02 -0.81323102089E+02 -0.12200464570E+04  0.12265298007E+04  0.81925807391E+02 0.  0.
         25    2    1    2    0    0  0.14338831865E+03  0.72263521758E+02  0.15959647038E+03  0.25865442524E+03  0.12509537096E+03 0.  0.
         24    2    1    2    0    0 -0.93022556982E+02  0.90595803309E+01  0.29365756711E+03  0.31862718032E+03  0.80952092110E+02 0.  0.
        -11    1    5    5    0    0 -0.95410000767E+02  0.17316839987E+02  0.29443963957E+03  0.30999619763E+03  0.00000000000E+00 0.  1.
         12    1    5    5    0    0  0.23874437856E+01 -0.82572596566E+01 -0.78207246584E+00  0.86309826907E+01  0.00000000000E+00 0. -1.
         13    1    3    3    0    0 -0.41206124132E+02  0.26576424674E+01 -0.37086954879E+03  0.37316113135E+03  0.00000000000E+00 0. -1.
        -14    1    3    3    0    0 -0.91596375383E+01 -0.83980744557E+02 -0.84917690823E+03  0.85336866939E+03  0.00000000000E+00 0.  1.
          5    1    4    4  501    0  0.87764401494E+02  0.13230619249E+02  0.11294913910E+02  0.89569453139E+02  0.41800000000E+01 0. -1.
         -5    1    4    4    0  501  0.55623917158E+02  0.59032902510E+02  0.14830155647E+03  0.16908497210E+03  0.41800000000E+01 0. -1.
</event>
<event>
11    1  0.6763327E-009  0.1372725E+03  0.7561462E-02  0.1110643E+00
         22   -1    0    0    0    0  0.00000000000E+00  0.00000000000E+00  0.19295066763E+03  0.19295066763E+03  0.00000000000E+00 0. -1.
         22   -1    0    0    0    0 -0.00000000000E+00 -0.00000000000E+00 -0.11139154692E+04  0.11139154692E+04  0.00000000000E+00 0.  1.
         24    2    1    2    0    0 -0.42610077757E+02  0.57652076003E+02 -0.10300161617E+04  0.10356635571E+04  0.80785700591E+02 0.  0.
         25    2    1    2    0    0 -0.20109095684E+01  0.12021062431E+02  0.25561426802E+02  0.12825514315E+03  0.12508974980E+03 0.  0.
        -24    2    1    2    0    0  0.44620987325E+02 -0.69673138434E+02  0.83489933396E+02  0.14294743657E+03  0.81351225645E+02 0.  0.
        -11    1    3    3    0    0 -0.66350028956E+02  0.36016508548E+02 -0.68066272914E+03  0.68483667109E+03  0.00000000000E+00 0.  1.
         12    1    3    3    0    0  0.23739951199E+02  0.21635567455E+02 -0.34935343259E+03  0.35082688598E+03  0.00000000000E+00 0. -1.
         13    1    5    5    0    0  0.52187898567E+02 -0.35318630503E+02  0.87186894064E+02  0.10757572642E+03  0.00000000000E+00 0. -1.
        -14    1    5    5    0    0 -0.75669112419E+01 -0.34354507931E+02 -0.36969606682E+01  0.35371710152E+02  0.00000000000E+00 0.  1.
          5    1    4    4  501    0  0.45650794532E+02 -0.16812797137E+02 -0.23242694183E+02  0.54077355906E+02  0.41800000000E+01 0. -1.
         -5    1    4    4    0  501 -0.47661704100E+02  0.28833859568E+02  0.48804120985E+02  0.74177787244E+02  0.41800000000E+01 0. -1.
</event>
<event>
11    1  0.6763327E-009  0.1322899E+03  0.7561462E-02  0.1116487E+00
         22   -1    0    0    0    0  0.00000000000E+00  0.00000000000E+00  0.33162815936E+04  0.33162815936E+04  0.00000000000E+00 0. -1.
         22   -1    0    0    0    0 -0.00000000000E+00 -0.00000000000E+00 -0.18445017460E+02  0.18445017460E+02  0.00000000000E+00 0. -1.
         24    2    1    2    0    0 -0.15739390230E+02  0.40644184785E+02  0.15509723153E+03  0.17993870655E+03  0.80144299396E+02 0.  0.
         25    2    1    2    0    0  0.92165032019E+01 -0.39721197425E+02  0.81087662181E+03  0.82148100165E+03  0.12508965908E+03 0.  0.
        -24    2    1    2    0    0  0.65228870280E+01 -0.92298736005E+00  0.23318627228E+04  0.23333069029E+04  0.81816532562E+02 0.  0.
        -13    1    3    3    0    0 -0.78320055976E+01 -0.70208106095E+00  0.13139268994E+03  0.13162777898E+03  0.00000000000E+00 0.  1.
         14    1    3    3    0    0 -0.79073846323E+01  0.41346265846E+02  0.23704541594E+02  0.48310927577E+02  0.00000000000E+00 0. -1.
         13    1    5    5    0    0  0.34867878939E+02  0.14214339209E+02  0.18453566048E+04  0.18457407226E+04  0.00000000000E+00 0. -1.
        -14    1    5    5    0    0 -0.28344991911E+02 -0.15137326569E+02  0.48650611805E+03  0.48756618025E+03  0.00000000000E+00 0.  1.
          5    1    4    4  501    0 -0.56838276369E+01  0.44902819346E+02  0.29468483858E+03  0.29816974288E+03  0.41800000000E+01 0. -1.
         -5    1    4    4    0  501  0.14900330839E+02 -0.84624016770E+02  0.51619178323E+03  0.52331125877E+03  0.41800000000E+01 0. -1.
</event>
<event>
11    1  0.6763327E-009  0.1760067E+03  0.7561462E-02  0.1072920E+00
         22   -1    0    0    0    0  0.00000000000E+00  0.00000000000E+00  0.15643934203E+04  0.15643934203E+04  0.00000000000E+00 0.  1.
         22   -1    0    0    0    0 -0.00000000000E+00 -0.00000000000E+00 -0.24059477770E+03  0.24059477770E+03  0.00000000000E+00 0.  1.
        -24    2    1    2    0    0 -0.80016000708E+02 -0.57764591145E+02 -0.19286775828E+03  0.22967914110E+03  0.76257637720E+02 0.  0.
         25    2    1    2    0    0 -0.50682821400E+02  0.97498608184E+01  0.16199424190E+03  0.21107501223E+03  0.12508684265E+03 0.  0.
         24    2    1    2    0    0  0.13069882211E+03  0.48014730326E+02  0.13546721590E+04  0.13642340447E+04  0.81303591188E+02 0.  0.
        -13    1    5    5    0    0  0.11612020367E+03  0.28901884612E+02  0.12844390884E+04  0.12900011598E+04  0.00000000000E+00 0.  1.
         14    1    5    5    0    0  0.14578618434E+02  0.19112845714E+02  0.70233070625E+02  0.74232884870E+02  0.00000000000E+00 0. -1.
         13    1    3    3    0    0  0.10675958338E+00 -0.21179899829E+02 -0.43819973580E+01  0.21628718298E+02  0.00000000000E+00 0. -1.
        -14    1    3    3    0    0 -0.80122760291E+02 -0.36584691315E+02 -0.18848576093E+03  0.20805042280E+03  0.00000000000E+00 0.  1.
          5    1    4    4  501    0 -0.14354592302E+02  0.44592462238E+02  0.63727441916E+01  0.47461840221E+02  0.41800000000E+01 0. -1.
         -5    1    4    4    0  501 -0.36328229098E+02 -0.34842601420E+02  0.15562149771E+03  0.16361317200E+03  0.41800000000E+01 0. -1.
</event>
<event>
11    1  0.6763327E-009  0.1530428E+03  0.7561462E-02  0.1093810E+00
         22   -1    0    0    0    0  0.00000000000E+00  0.00000000000E+00  0.22525019483E+03  0.22525019483E+03  0.00000000000E+00 0. -1.
         22   -1    0    0    0    0 -0.00000000000E+00 -0.00000000000E+00 -0.10599407393E+04  0.10599407393E+04  0.00000000000E+00 0.  1.
        -24    2    1    2    0    0  0.28984051101E+02  0.82474261678E+02 -0.89330422741E+03  0.90117518509E+03  0.80512063945E+02 0.  0.
         25    2    1    2    0    0  0.36734198877E+02 -0.11467008071E+03 -0.93749578081E+02  0.19731927214E+03  0.12508910021E+03 0.  0.
         24    2    1    2    0    0 -0.65718249978E+02  0.32195819029E+02  0.15236326104E+03  0.18669647689E+03  0.79281473402E+02 0.  0.
        -13    1    5    5    0    0  0.18820245780E+01  0.17864695092E+02 -0.15018565115E+01  0.18026228675E+02  0.00000000000E+00 0.  1.
         14    1    5    5    0    0 -0.67600274556E+02  0.14331123937E+02  0.15386511755E+03  0.16867024822E+03  0.00000000000E+00 0. -1.
         13    1    3    3    0    0  0.13484617036E+02  0.20102906674E+02 -0.61780377016E+03  0.61827781795E+03  0.00000000000E+00 0. -1.
        -14    1    3    3    0    0  0.15499434065E+02  0.62371355004E+02 -0.27550045726E+03  0.28289736713E+03  0.00000000000E+00 0.  1.
          5    1    4    4  501    0  0.48400182554E+02 -0.46447367364E+02  0.14507874118E+02  0.68759627819E+02  0.41800000000E+01 0. -1.
         -5    1    4    4    0  501 -0.11665983677E+02 -0.68222713344E+02 -0.10825745220E+03  0.12855964432E+03  0.41800000000E+01 0. -1.
</event>
<event>
11    1  0.6763327E-009  0.1428967E+03  0.7561462E-02  0.1104366E+00
         22   -1    0    0    0    0  0.00000000000E+00  0.00000000000E+00  0.23227419162E+03  0.23227419162E+03  0.00000000000E+00 0. -1.
         22   -1    0    0    0    0 -0.00000000000E+00 -0.00000000000E+00 -0.40677678640E+03  0.40677678640E+03  0.00000000000E+00 0.  1.
        -24    2    1    2    0    0 -0.11259821366E+02  0.14546612989E+02 -0.23645092570E+03  0.25063034756E+03  0.81044082619E+02 0.  0.
         25    2    1    2    0    0 -0.21821015305E+02 -0.74428253047E+02 -0.11219315297E+03  0.18506867581E+03  0.12508952646E+03 0.  0.
         24    2    1    2    0    0  0.33080836671E+02  0.59881640058E+02  0.17414148389E+03  0.20335195465E+03  0.79665604121E+02 0.  0.
        -11    1    5    5    0    0 -0.32999829953E+01  0.76107453026E+01 -0.73051939056E+01  0.11053469583E+02  0.00000000000E+00 0.  1.
         12    1    5    5    0    0  0.36380819666E+02  0.52270894755E+02  0.18144667779E+03  0.19229848507E+03  0.00000000000E+00 0. -1.
         13    1    3    3    0    0 -0.26131373153E+02  0.29792643803E+02 -0.54216791005E+02  0.67155868802E+02  0.00000000000E+00 0. -1.
        -14    1    3    3    0    0  0.14871551786E+02 -0.15246030814E+02 -0.18223413469E+03  0.18347447876E+03  0.00000000000E+00 0.  1.
          5    1    4    4  501    0 -0.21291927272E+02 -0.86369712612E+02 -0.13338536166E+03  0.16038142202E+03  0.41800000000E+01 0. -1.
         -5    1    4    4    0  501 -0.52908803256E+00  0.11941459565E+02  0.21192208686E+02  0.24687253790E+02  0.41800000000E+01 0. -1.
</event>
<event>
11    1  0.6763327E-009  0.2742995E+03  0.7561462E-02  0.1011696E+00
         22   -1    0    0    0    0  0.00000000000E+00  0.00000000000E+00  0.84904033308E+03  0.84904033308E+03  0.00000000000E+00 0. -1.
         22   -1    0    0    0    0 -0.00000000000E+00 -0.00000000000E+00 -0.78993231190E+03  0.78993231190E+03  0.00000000000E+00 0. -1.
        -24    2    1    2    0    0 -0.79152827757E+02  0.21763816284E+03 -0.58516879782E+03  0.63386327811E+03  0.75687471416E+02 0.  0.
         25    2    1    2    0    0  0.67807186180E+02 -0.34711916766E+03  0.34892063332E+02  0.37676927727E+03  0.12509237048E+03 0.  0.
         24    2    1    2    0    0  0.11345641578E+02  0.12948100482E+03  0.60938475566E+03  0.62834008960E+03  0.81039703680E+02 0.  0.
        -13    1    5    5    0    0  0.20272352871E+02  0.12809894685E+02  0.36816623590E+02  0.43937745337E+02  0.00000000000E+00 0.  1.
         14    1    5    5    0    0 -0.89267112928E+01  0.11667111013E+03  0.57256813207E+03  0.58440234426E+03  0.00000000000E+00 0. -1.
         11    1    3    3    0    0 -0.18570667727E+02  0.11696454558E+03 -0.37278556574E+03  0.39114530886E+03  0.00000000000E+00 0. -1.
        -12    1    3    3    0    0 -0.60582160031E+02  0.10067361727E+03 -0.21238323208E+03  0.24271796925E+03  0.00000000000E+00 0.  1.
          5    1    4    4  501    0  0.53197578775E+02 -0.24674185545E+03 -0.33065648497E+02  0.25460230779E+03  0.41800000000E+01 0. -1.
         -5    1    4    4    0  501  0.14609607405E+02 -0.10037731221E+03  0.67957711829E+02  0.12216696948E+03  0.41800000000E+01 0. -1.
</event>
<event>
11    1  0.6763327E-009  0.1496943E+03  0.7561462E-02  0.1097192E+00
         22   -1    0    0    0    0  0.00000000000E+00  0.00000000000E+00  0.16109096283E+03  0.16109096283E+03  0.00000000000E+00 0.  1.
         22   -1    0    0    0    0 -0.00000000000E+00 -0.00000000000E+00 -0.61317870523E+03  0.61317870523E+03  0.00000000000E+00 0. -1.
         24    2    1    2    0    0  0.74490838067E+02  0.24073067698E+01 -0.33902633871E+03  0.35607468299E+03  0.79345078268E+02 0.  0.
         25    2    1    2    0    0 -0.94054432501E+02  0.75342161009E+02 -0.20576044151E+03  0.26927622638E+03  0.12509855835E+03 0.  0.
        -24    2    1    2    0    0  0.19563594434E+02 -0.77749467779E+02  0.92699037819E+02  0.14891875869E+03  0.84592973179E+02 0.  0.
        -11    1    3    3    0    0  0.53634455653E+02  0.34044712858E+02 -0.14383771562E+03  0.15724180660E+03  0.00000000000E+00 0.  1.
         12    1    3    3    0    0  0.20856382414E+02 -0.31637406088E+02 -0.19518862309E+03  0.19883287639E+03  0.00000000000E+00 0. -1.
         11    1    5    5    0    0  0.14570918867E+02  0.16046884445E+02  0.10424504764E+02  0.24051704235E+02  0.00000000000E+00 0. -1.
        -12    1    5    5    0    0  0.49926755670E+01 -0.93796352224E+02  0.82274533056E+02  0.12486705446E+03  0.00000000000E+00 0.  1.
          5    1    4    4  501    0 -0.11821116518E+03  0.54635138085E+02 -0.11782211084E+03  0.17566559165E+03  0.41800000000E+01 0.  1.
         -5    1    4    4    0  501  0.24156732680E+02  0.20707022924E+02 -0.87938330670E+02  0.93610634723E+02  0.41800000000E+01 0.  1.
</event>
<event>
11    1  0.6763327E-009  0.1558447E+03  0.7561462E-02  0.1091052E+00
         22   -1    0    0    0    0  0.00000000000E+00  0.00000000000E+00  0.65558182223E+03  0.65558182223E+03  0.00000000000E+00 0. -1.
         22   -1    0    0    0    0 -0.00000000000E+00 -0.00000000000E+00 -0.18732978201E+04  0.18732978201E+04  0.00000000000E+00 0.  1.
        -24    2    1    2    0    0  0.56676627125E+02 -0.69845843299E+01 -0.65540362403E+03  0.66256757266E+03  0.78618404156E+02 0.  0.
         25    2    1    2    0    0 -0.93094117931E+02 -0.78453785100E+02 -0.12023236491E+04  0.12149285941E+04  0.12509124884E+03 0.  0.
         24    2    1    2    0    0  0.36417490805E+02  0.85438369430E+02  0.64001127526E+03  0.65138347552E+03  0.77846330150E+02 0.  0.
        -13    1    5    5    0    0  0.36207532830E+02  0.46413524904E+00  0.19015222636E+03  0.19356929004E+03  0.00000000000E+00 0.  1.
         14    1    5    5    0    0  0.20995797532E+00  0.84974234181E+02  0.44985904889E+03  0.45781418548E+03  0.00000000000E+00 0. -1.
         13    1    3    3    0    0  0.35976418424E+02 -0.42499661079E+02 -0.34774150008E+03  0.35217137129E+03  0.00000000000E+00 0. -1.
        -14    1    3    3    0    0  0.20700208702E+02  0.35515076749E+02 -0.30766212394E+03  0.31039620137E+03  0.00000000000E+00 0.  1.
          5    1    4    4  501    0  0.30515959394E+02 -0.25241349902E+02 -0.25837827255E+03  0.26142906045E+03  0.41800000000E+01 0. -1.
         -5    1    4    4    0  501 -0.12361007732E+03 -0.53212435198E+02 -0.94394537653E+03  0.95349953369E+03  0.41800000000E+01 0. -1.
</event>
<event>
11    1  0.6763327E-009  0.2009075E+03  0.7561462E-02  0.1053884E+00
         22   -1    0    0    0    0  0.00000000000E+00  0.00000000000E+00  0.63543196817E+03  0.63543196817E+03  0.00000000000E+00 0.  1.
         22   -1    0    0    0    0 -0.00000000000E+00 -0.00000000000E+00 -0.20964555255E+04  0.20964555255E+04  0.00000000000E+00 0. -1.
        -24    2    1    2    0    0  0.11743987118E+03  0.95414695009E+02 -0.17945469060E+04  0.18031896319E+04  0.90543707965E+02 0.  0.
         25    2    1    2    0    0 -0.20368425850E+03 -0.14321959230E+03 -0.22355493324E+03  0.35724479844E+03  0.12509160266E+03 0.  0.
         24    2    1    2    0    0  0.86244387319E+02  0.47804897288E+02  0.55707828194E+03  0.57145306339E+03  0.80616306645E+02 0.  0.
        -13    1    5    5    0    0  0.63171475351E+02  0.74457615206E+01  0.16854700340E+03  0.18015040110E+03  0.00000000000E+00 0.  1.
         14    1    5    5    0    0  0.23072911968E+02  0.40359135767E+02  0.38853127854E+03  0.39130266229E+03  0.00000000000E+00 0. -1.
         13    1    3    3    0    0  0.78286465804E+02  0.83529922519E+02 -0.16144128074E+04  0.16184667842E+04  0.00000000000E+00 0. -1.
        -14    1    3    3    0    0  0.39153405375E+02  0.11884772490E+02 -0.18013409862E+03  0.18472284768E+03  0.00000000000E+00 0.  1.
          5    1    4    4  501    0 -0.58741189662E+02 -0.95989769898E+02 -0.42124935250E+02  0.12023537690E+03  0.41800000000E+01 0. -1.
         -5    1    4    4    0  501 -0.14494306884E+03 -0.47229822399E+02 -0.18142999799E+03  0.23700942154E+03  0.41800000000E+01 0. -1.
</event>
<event>
11    1  0.6763327E-009  0.1662468E+03  0.7561462E-02  0.1081345E+00
         22   -1    0    0    0    0  0.00000000000E+00  0.00000000000E+00  0.11621418706E+04  0.11621418706E+04  0.00000000000E+00 0. -1.
         22   -1    0    0    0    0 -0.00000000000E+00 -0.00000000000E+00 -0.12927478941E+03  0.12927478941E+03  0.00000000000E+00 0.  1.
         24    2    1    2    0    0  0.39562313265E+02  0.95467126084E+02  0.24248348412E+02  0.13569577334E+03  0.84535269020E+02 0.  0.
         25    2    1    2    0    0 -0.13179319091E+03 -0.55128237803E+02  0.61031672822E+02  0.19944784635E+03  0.12508401397E+03 0.  0.
        -24    2    1    2    0    0  0.92230877645E+02 -0.40338888281E+02  0.94758705995E+03  0.95627304031E+03  0.80019564754E+02 0.  0.
        -13    1    3    3    0    0  0.61088155181E+02  0.89901015363E+02  0.96974666844E+01  0.10912376518E+03  0.00000000000E+00 0.  1.
         14    1    3    3    0    0 -0.21525841916E+02  0.55661107211E+01  0.14550881727E+02  0.26572008162E+02  0.00000000000E+00 0. -1.
         13    1    5    5    0    0  0.44892598769E+01 -0.86165300507E+01  0.44458837514E+03  0.44469452589E+03  0.00000000000E+00 0. -1.
        -14    1    5    5    0    0  0.87741617768E+02 -0.31722358230E+02  0.50299868481E+03  0.51157851443E+03  0.00000000000E+00 0.  1.
          5    1    4    4  501    0 -0.10218846310E+03 -0.10197444970E+02 -0.17398178512E+02  0.10424317192E+03  0.41800000000E+01 0. -1.
         -5    1    4    4    0  501 -0.29604727806E+02 -0.44930792833E+02  0.78429851335E+02  0.95204674431E+02  0.41800000000E+01 0. -1.
</event>
<event>
11    1  0.6763327E-009  0.1497508E+03  0.7561462E-02  0.1097134E+00
         22   -1    0    0    0    0  0.00000000000E+00  0.00000000000E+00  0.42670777942E+03  0.42670777942E+03  0.00000000000E+00 0.  1.
         22   -1    0    0    0    0 -0.00000000000E+00 -0.00000000000E+00 -0.34363568038E+03  0.34363568038E+03  0.00000000000E+00 0.  1.
         24    2    1    2    0    0 -0.14713946338E+02  0.77187086562E+02 -0.26879928372E+03  0.29156652658E+03  0.81139620061E+02 0.  0.
         25    2    1    2    0    0  0.65322147759E+02 -0.13411247164E+03  0.13815526210E+03  0.23871879173E+03  0.12508655819E+03 0.  0.
        -24    2    1    2    0    0 -0.50608201422E+02  0.56925385078E+02  0.21371612066E+03  0.24005814148E+03  0.78432401104E+02 0.  0.
        -11    1    3    3    0    0 -0.88313877175E-01  0.19638280060E+02 -0.19883188149E+03  0.19979936671E+03  0.00000000000E+00 0.  1.
         12    1    3    3    0    0 -0.14625632460E+02  0.57548806502E+02 -0.69967402236E+02  0.91767159869E+02  0.00000000000E+00 0. -1.
         13    1    5    5    0    0 -0.29435159069E+02 -0.99164931737E+01  0.29047248383E+02  0.42526557172E+02  0.00000000000E+00 0. -1.
        -14    1    5    5    0    0 -0.21173042353E+02  0.66841878252E+02  0.18466887228E+03  0.19753158431E+03  0.00000000000E+00 0.  1.
          5    1    4    4  501    0  0.26027429853E+02  0.94773417642E+01  0.69094934351E+02  0.74557558065E+02  0.41800000000E+01 0. -1.
         -5    1    4    4    0  501  0.39294717907E+02 -0.14358981340E+03  0.69060327747E+02  0.16416123366E+03  0.41800000000E+01 0. -1.
</event>
<event>
11    1  0.6763327E-009  0.1678833E+03  0.7561462E-02  0.1079889E+00
         22   -1    0    0    0    0  0.00000000000E+00  0.00000000000E+00  0.22865125431E+03  0.22865125431E+03  0.00000000000E+00 0.  1.
         22   -1    0    0    0    0 -0.00000000000E+00 -0.00000000000E+00 -0.77480001693E+03  0.77480001693E+03  0.00000000000E+00 0.  1.
        -24    2    1    2    0    0  0.14183525181E+01  0.10541417500E+02 -0.51666107446E+03  0.52260294293E+03  0.77859083569E+02 0.  0.
         25    2    1    2    0    0  0.52502127084E+02  0.88674152503E+02 -0.20231183529E+03  0.25922367128E+03  0.12508898586E+03 0.  0.
         24    2    1    2    0    0 -0.53920479602E+02 -0.99215570004E+02  0.17282414714E+03  0.22162465702E+03  0.80611136410E+02 0.  0.
        -13    1    5    5    0    0 -0.35694676326E+02 -0.10038394677E+03  0.17321413407E+03  0.20335727901E+03  0.00000000000E+00 0.  1.
         14    1    5    5    0    0 -0.18225803276E+02  0.11683767628E+01 -0.38998693410E+00  0.18267378004E+02  0.00000000000E+00 0. -1.
         11    1    3    3    0    0  0.23993240193E+02 -0.46761045314E+01 -0.55570513173E+02  0.60709335879E+02  0.00000000000E+00 0. -1.
        -12    1    3    3    0    0 -0.22574887675E+02  0.15217522032E+02 -0.46109056129E+03  0.46189360705E+03  0.00000000000E+00 0.  1.
          5    1    4    4  501    0 -0.17565247276E+02 -0.23418253572E+02 -0.42660985675E+02  0.51907461997E+02  0.41800000000E+01 0. -1.
         -5    1    4    4    0  501  0.70067374360E+02  0.11209240608E+03 -0.15965084962E+03  0.20731620929E+03  0.41800000000E+01 0. -1.
</event>
<event>
11    1  0.6763327E-009  0.1408049E+03  0.7561462E-02  0.1106663E+00
         22   -1    0    0    0    0  0.00000000000E+00  0.00000000000E+00  0.12121533750E+04  0.12121533750E+04  0.00000000000E+00 0. -1.
         22   -1    0    0    0    0 -0.00000000000E+00 -0.00000000000E+00 -0.12184398273E+03  0.12184398273E+03  0.00000000000E+00 0. -1.
         24    2    1    2    0    0  0.49294012135E+02 -0.40024051013E+02 -0.82014404419E+02  0.13057456732E+03  0.79319170489E+02 0.  0.
         25    2    1    2    0    0 -0.80297275290E+02  0.37337011910E+02  0.44060038210E+03  0.46649512653E+03  0.12508917415E+03 0.  0.
        -24    2    1    2    0    0  0.31003263155E+02  0.26870391024E+01  0.73172341462E+03  0.73692766391E+03  0.81699472710E+02 0.  0.
        -13    1    3    3    0    0  0.28059815594E+02 -0.34913437955E+02  0.93148060517E+00  0.44801440346E+02  0.00000000000E+00 0.  1.
         14    1    3    3    0    0  0.21234196541E+02 -0.51106130580E+01 -0.82945885024E+02  0.85773126975E+02  0.00000000000E+00 0. -1.
         11    1    5    5    0    0  0.41819158942E+02 -0.26827116307E+02  0.57111866722E+03  0.57327573494E+03  0.00000000000E+00 0. -1.
        -12    1    5    5    0    0 -0.10815895786E+02  0.29514155410E+02  0.16060474739E+03  0.16365192897E+03  0.00000000000E+00 0.  1.
          5    1    4    4  501    0  0.84551398146E+00 -0.21417539401E+02  0.93737181317E+01  0.23764782337E+02  0.41800000000E+01 0.  1.
         -5    1    4    4    0  501 -0.81142789272E+02  0.58754551312E+02  0.43122666397E+03  0.44273034419E+03  0.41800000000E+01 0.  1.
</event>
<event>
11    1  0.1091060E-008  0.1987850E+03  0.7561462E-02  0.1055386E+00
         22   -1    0    0    0    0  0.00000000000E+00  0.00000000000E+00  0.13083393249E+04  0.13083393249E+04  0.00000000000E+00 0.  1.
         22   -1    0    0    0    0 -0.00000000000E+00 -0.00000000000E+00 -0.74665864277E+03  0.74665864277E+03  0.00000000000E+00 0.  1.
        -24    2    1    2    0    0  0.86106264106E+02  0.63591624894E+02 -0.44335441573E+03  0.46326161965E+03  0.81178856955E+02 0.  0.
         25    2    1    2    0    0 -0.82379789533E+02 -0.21674828611E+03 -0.22686710269E+03  0.34768459552E+03  0.12509854686E+03 0.  0.
         24    2    1    2    0    0 -0.37264745731E+01  0.15315666122E+03  0.12319022005E+04  0.12440517525E+04  0.81307328826E+02 0.  0.
        -13    1    5    5    0    0 -0.14143638113E+02  0.11572789104E+03  0.11100463099E+04  0.11161522286E+04  0.00000000000E+00 0.  1.
         14    1    5    5    0    0  0.10417163540E+02  0.37428770172E+02  0.12185589060E+03  0.12789952387E+03  0.00000000000E+00 0. -1.
         13    1    3    3    0    0  0.44138679839E+02  0.57570096459E+02 -0.14738298251E+03  0.16426893376E+03  0.00000000000E+00 0. -1.
        -14    1    3    3    0    0  0.41967584267E+02  0.60215284359E+01 -0.29597143322E+03  0.29899268589E+03  0.00000000000E+00 0.  1.
          5    1    4    4  501    0 -0.76217565530E+02 -0.97473210135E+02 -0.18182146667E+03  0.21996968458E+03  0.41800000000E+01 0. -1.
         -5    1    4    4    0  501 -0.61622240032E+01 -0.11927507598E+03 -0.45045636014E+02  0.12771491095E+03  0.41800000000E+01 0. -1.
</event>
<event>
11    1  0.8151026E-009  0.1949726E+03  0.7561462E-02  0.1058137E+00
         22   -1    0    0    0    0  0.00000000000E+00  0.00000000000E+00  0.57818966976E+03  0.57818966976E+03  0.00000000000E+00 0. -1.
         22   -1    0    0    0    0 -0.00000000000E+00 -0.00000000000E+00 -0.49099501399E+03  0.49099501399E+03  0.00000000000E+00 0. -1.
         24    2    1    2    0    0  0.12846743773E+02 -0.14377648027E+03 -0.27957175181E+03  0.32518574773E+03  0.82150416981E+02 0.  0.
         25    2    1    2    0    0 -0.10810545662E+03  0.14862865448E+03 -0.11231676922E+03  0.24907765198E+03  0.12508938159E+03 0.  0.
        -24    2    1    2    0    0  0.95258712850E+02 -0.48521742068E+01  0.47908317680E+03  0.49492128403E+03  0.79552631166E+02 0.  0.
        -13    1    3    3    0    0 -0.25107796481E+02 -0.36278011692E+02 -0.38655404193E+02  0.58657785926E+02  0.00000000000E+00 0.  1.
         14    1    3    3    0    0  0.37954540254E+02 -0.10749846858E+03 -0.24091634762E+03  0.26652796180E+03  0.00000000000E+00 0. -1.
         13    1    5    5    0    0  0.10019123209E+03 -0.22274329130E+02  0.35554063164E+03  0.37005887299E+03  0.00000000000E+00 0. -1.
        -14    1    5    5    0    0 -0.49325192401E+01  0.17422154924E+02  0.12354254516E+03  0.12486241105E+03  0.00000000000E+00 0.  1.
          5    1    4    4  501    0 -0.11634799016E+03  0.16262200443E+03 -0.11694408801E+03  0.23168116725E+03  0.41800000000E+01 0.  1.
         -5    1    4    4    0  501  0.82425335363E+01 -0.13993349951E+02  0.46273187858E+01  0.17396484734E+02  0.41800000000E+01 0.  1.
</event>
<event>
11    1  0.6763327E-009  0.1303625E+03  0.7561462E-02  0.1118824E+00
         22   -1    0    0    0    0  0.00000000000E+00  0.00000000000E+00  0.38068790503E+03  0.38068790503E+03  0.00000000000E+00 0. -1.
         22   -1    0    0    0    0 -0.00000000000E+00 -0.00000000000E+00 -0.24782845598E+03  0.24782845598E+03  0.00000000000E+00 0. -1.
        -24    2    1    2    0    0  0.35201902084E+02 -0.13861077426E+02 -0.20433802056E+03  0.22300610375E+03  0.80909778681E+02 0.  0.
         25    2    1    2    0    0 -0.47598061418E+01  0.32408103385E+02  0.14758178073E+03  0.19620633348E+03  0.12507438736E+03 0.  0.
         24    2    1    2    0    0 -0.30442095942E+02 -0.18547025958E+02  0.18961568887E+03  0.20930392378E+03  0.81137597114E+02 0.  0.
        -11    1    5    5    0    0 -0.15854345118E+02 -0.32403247205E+02  0.26027838555E+02  0.44483469609E+02  0.00000000000E+00 0.  1.
         12    1    5    5    0    0 -0.14587750825E+02  0.13856221247E+02  0.16358785032E+03  0.16482045417E+03  0.00000000000E+00 0. -1.
         11    1    3    3    0    0 -0.18905319958E+02 -0.26566474546E+02 -0.93328480377E+02  0.98860477148E+02  0.00000000000E+00 0. -1.
        -12    1    3    3    0    0  0.54107222042E+02  0.12705397120E+02 -0.11100954018E+03  0.12414562660E+03  0.00000000000E+00 0.  1.
          5    1    4    4  501    0  0.56579864914E+02  0.36822320850E+02  0.75660207003E+02  0.10148450005E+03  0.41800000000E+01 0. -1.
         -5    1    4    4    0  501 -0.61339671056E+02 -0.44142174653E+01  0.71921573728E+02  0.94721833432E+02  0.41800000000E+01 0. -1.
</event>
<event>
11    1  0.6763327E-009  0.1412437E+03  0.7561462E-02  0.1106177E+00
         22   -1    0    0    0    0  0.00000000000E+00  0.00000000000E+00  0.31113484379E+03  0.31113484379E+03  0.00000000000E+00 0. -1.
         22   -1    0    0    0    0 -0.00000000000E+00 -0.00000000000E+00 -0.68095319175E+03  0.68095319175E+03  0.00000000000E+00 0. -1.
         24    2    1    2    0    0 -0.58405283216E+02 -0.25875754880E+02 -0.55028304307E+03  0.55980042923E+03  0.80525531835E+02 0.  0.
         25    2    1    2    0    0  0.59048348403E+02  0.71614446928E+02 -0.65856494365E+02  0.16911673952E+03  0.12509219511E+03 0.  0.
        -24    2    1    2    0    0 -0.64306518716E+00 -0.45738692048E+02  0.24632118948E+03  0.26317086678E+03  0.80575028714E+02 0.  0.
        -13    1    3    3    0    0 -0.61866278610E+01 -0.38568682237E+01 -0.72303533467E+00  0.73261570336E+01  0.00000000000E+00 0.  1.
         14    1    3    3    0    0 -0.52218655355E+02 -0.22018886657E+02 -0.54956000774E+03  0.55247427220E+03  0.00000000000E+00 0. -1.
         11    1    5    5    0    0 -0.20681902805E+02 -0.18826374237E+02  0.21644412201E+03  0.21824351405E+03  0.00000000000E+00 0. -1.
        -12    1    5    5    0    0  0.20038837618E+02 -0.26912317810E+02  0.29877067466E+02  0.44927352731E+02  0.00000000000E+00 0.  1.
          5    1    4    4  501    0  0.11003998633E+02 -0.24372378261E+02  0.18286402644E+02  0.32664441365E+02  0.41800000000E+01 0. -1.
         -5    1    4    4    0  501  0.48044349770E+02  0.95986825188E+02 -0.84142897010E+02  0.13645229815E+03  0.41800000000E+01 0. -1.
</event>
<event>
11    1  0.6763327E-009  0.1563293E+03  0.7561462E-02  0.1090581E+00
         22   -1    0    0    0    0  0.00000000000E+00  0.00000000000E+00  0.25668198900E+03  0.25668198900E+03  0.00000000000E+00 0. -1.
         22   -1    0    0    0    0 -0.00000000000E+00 -0.00000000000E+00 -0.28981457504E+03  0.28981457504E+03  0.00000000000E+00 0. -1.
        -24    2    1    2    0    0 -0.16545137795E+02 -0.15332722108E+02 -0.13278108500E+03  0.15661333063E+03  0.79925495599E+02 0.  0.
         25    2    1    2    0    0  0.83905517890E+02 -0.49571999407E+02 -0.75295959272E+02  0.17553925506E+03  0.12508808707E+03 0.  0.
         24    2    1    2    0    0 -0.67360380094E+02  0.64904721515E+02  0.17494445823E+03  0.21434397834E+03  0.81164856345E+02 0.  0.
        -13    1    5    5    0    0  0.43962276977E+01  0.19661597338E+01 -0.72256836524E+01  0.86834962033E+01  0.00000000000E+00 0.  1.
         14    1    5    5    0    0 -0.71756607792E+02  0.62938561781E+02  0.18217014188E+03  0.20566048214E+03  0.00000000000E+00 0. -1.
         11    1    3    3    0    0 -0.24642550356E+01  0.94906078620E+00 -0.13495229713E+03  0.13497813071E+03  0.00000000000E+00 0. -1.
        -12    1    3    3    0    0 -0.14080882760E+02 -0.16281782894E+02  0.21712121342E+01  0.21635199921E+02  0.00000000000E+00 0.  1.
          5    1    4    4  501    0 -0.74455467464E+01 -0.34781177129E+02  0.21327664764E+02  0.41683427560E+02  0.41800000000E+01 0. -1.
         -5    1    4    4    0  501  0.91351064636E+02 -0.14790822278E+02 -0.96623624037E+02  0.13385582750E+03  0.41800000000E+01 0. -1.
</event>
<event>
11    1  0.6763327E-009  0.1369089E+03  0.7561462E-02  0.1111060E+00
         22   -1    0    0    0    0  0.00000000000E+00  0.00000000000E+00  0.12116614753E+04  0.12116614753E+04  0.00000000000E+00 0. -1.
         22   -1    0    0    0    0 -0.00000000000E+00 -0.00000000000E+00 -0.30552900621E+02  0.30552900621E+02  0.00000000000E+00 0. -1.
         24    2    1    2    0    0  0.24274661067E+01  0.72987615003E+01  0.88960622957E+02  0.12056113352E+03  0.81005123096E+02 0.  0.
         25    2    1    2    0    0  0.98832137360E+01 -0.59953872806E+02  0.41742561537E+03  0.43998414143E+03  0.12509898308E+03 0.  0.
        -24    2    1    2    0    0 -0.12310679843E+02  0.52655111305E+02  0.67472233639E+03  0.68166910100E+03  0.80612768577E+02 0.  0.
        -11    1    3    3    0    0  0.35001495107E+02 -0.17209281225E+02  0.31636839579E+02  0.50221047764E+02  0.00000000000E+00 0.  1.
         12    1    3    3    0    0 -0.32574029000E+02  0.24508042725E+02  0.57323783378E+02  0.70340085757E+02  0.00000000000E+00 0. -1.
         13    1    5    5    0    0  0.62208566200E+01  0.40976752096E+02  0.63464083817E+03  0.63599275683E+03  0.00000000000E+00 0. -1.
        -14    1    5    5    0    0 -0.18531536463E+02  0.11678359210E+02  0.40081498217E+02  0.45676344171E+02  0.00000000000E+00 0.  1.
          5    1    4    4  501    0  0.65643795133E+02 -0.43507513184E+02  0.20308395360E+03  0.21785907406E+03  0.41800000000E+01 0. -1.
         -5    1    4    4    0  501 -0.55760581397E+02 -0.16446359622E+02  0.21434166178E+03  0.22212506737E+03  0.41800000000E+01 0. -1.
</event>
<event>
11    1  0.6763327E-009  0.1364142E+03  0.7561462E-02  0.1111630E+00
         22   -1    0    0    0    0  0.00000000000E+00  0.00000000000E+00  0.25425750237E+04  0.25425750237E+04  0.00000000000E+00 0.  1.
         22   -1    0    0    0    0 -0.00000000000E+00 -0.00000000000E+00 -0.52281291465E+02  0.52281291465E+02  0.00000000000E+00 0.  1.
         24    2    1    2    0    0 -0.15620858157E+02  0.82263612773E+01 -0.15951264840E+02  0.77121518847E+02  0.73359400146E+02 0.  0.
         25    2    1    2    0    0  0.42557505435E+01  0.48214948188E+02  0.11090373487E+04  0.11171186364E+04  0.12508962518E+03 0.  0.
        -24    2    1    2    0    0  0.11365107613E+02 -0.56441309466E+02  0.13972076484E+04  0.14006161600E+04  0.78877295032E+02 0.  0.
        -13    1    3    3    0    0  0.19438265149E+02  0.67167132773E+01 -0.32392169555E+02  0.38369428426E+02  0.00000000000E+00 0.  1.
         14    1    3    3    0    0 -0.35059123306E+02  0.15096480000E+01  0.16440904715E+02  0.38752090420E+02  0.00000000000E+00 0. -1.
         11    1    5    5    0    0 -0.26399551087E+01  0.19546430647E+02  0.35556607315E+03  0.35611271346E+03  0.00000000000E+00 0. -1.
        -12    1    5    5    0    0  0.14005062722E+02 -0.75987740113E+02  0.10416415753E+04  0.10445034465E+04  0.00000000000E+00 0.  1.
          5    1    4    4  501    0  0.23820948685E+02 -0.22096683932E+02  0.74998096379E+03  0.75069608996E+03  0.41800000000E+01 0. -1.
         -5    1    4    4    0  501 -0.19565198142E+02  0.70311632120E+02  0.35905638489E+03  0.36642254642E+03  0.41800000000E+01 0. -1.
</event>
<event>
11    1  0.6763327E-009  0.1914248E+03  0.7561462E-02  0.1060759E+00
         22   -1    0    0    0    0  0.00000000000E+00  0.00000000000E+00  0.33247892000E+04  0.33247892000E+04  0.00000000000E+00 0.  1.
         22   -1    0    0    0    0 -0.00000000000E+00 -0.00000000000E+00 -0.94007309822E+02  0.94007309822E+02  0.00000000000E+00 0.  1.
         24    2    1    2    0    0  0.24184848881E+02  0.74142297396E+02 -0.35372974044E+02  0.11835454135E+03  0.81697998673E+02 0.  0.
         25    2    1    2    0    0 -0.20137983633E+01  0.81232929126E+02  0.37051760097E+03  0.39941792638E+03  0.12509413706E+03 0.  0.
        -24    2    1    2    0    0 -0.22171050518E+02 -0.15537522652E+03  0.28956372632E+04  0.29010240421E+04  0.81193078276E+02 0.  0.
        -13    1    3    3    0    0 -0.25503344000E+02  0.34017780867E+02 -0.34056869437E+02  0.54474767794E+02  0.00000000000E+00 0.  1.
         14    1    3    3    0    0  0.49688192881E+02  0.40124516529E+02 -0.13161046067E+01  0.63879773557E+02  0.00000000000E+00 0. -1.
         11    1    5    5    0    0  0.16946696596E+02 -0.81606880418E+02  0.96888558968E+03  0.97246396301E+03  0.00000000000E+00 0. -1.
        -12    1    5    5    0    0 -0.39117747114E+02 -0.73768346104E+02  0.19267516736E+04  0.19285600791E+04  0.00000000000E+00 0.  1.
          5    1    4    4  501    0 -0.56030258434E+02  0.65134499510E+02  0.16255202711E+03  0.18390901773E+03  0.41800000000E+01 0. -1.
         -5    1    4    4    0  501  0.54016460070E+02  0.16098429616E+02  0.20796557386E+03  0.21550890865E+03  0.41800000000E+01 0. -1.
</event>
<event>
11    1  0.6763327E-009  0.1893718E+03  0.7561462E-02  0.1062305E+00
         22   -1    0    0    0    0  0.00000000000E+00  0.00000000000E+00  0.79781940717E+03  0.79781940717E+03  0.00000000000E+00 0. -1.
         22   -1    0    0    0    0 -0.00000000000E+00 -0.00000000000E+00 -0.59730571558E+03  0.59730571558E+03  0.00000000000E+00 0.  1.
         24    2    1    2    0    0 -0.10779149760E+02 -0.49225855835E+01 -0.51669061548E+03  0.52290374004E+03  0.79490296871E+02 0.  0.
         25    2    1    2    0    0  0.10990146309E+03 -0.96259119420E+02  0.69858001292E+02  0.20462546080E+03  0.12508912503E+03 0.  0.
        -24    2    1    2    0    0 -0.99122313333E+02  0.10118170500E+03  0.64734630578E+03  0.66759592192E+03  0.81019163929E+02 0.  0.
        -11    1    3    3    0    0  0.31332558248E+02 -0.12468475579E+02 -0.31020471573E+03  0.31203230242E+03  0.00000000000E+00 0.  1.
         12    1    3    3    0    0 -0.42111708008E+02  0.75458899956E+01 -0.20648589975E+03  0.21087143762E+03  0.00000000000E+00 0. -1.
         11    1    5    5    0    0 -0.77090345380E+02  0.10220392356E+03  0.61664613952E+03  0.62979443053E+03  0.00000000000E+00 0. -1.
        -12    1    5    5    0    0 -0.22031967952E+02 -0.10222185525E+01  0.30700166259E+02  0.37801491385E+02  0.00000000000E+00 0.  1.
          5    1    4    4  501    0  0.20366140360E+02  0.16565208931E+02 -0.21345718297E+02  0.34092490518E+02  0.41800000000E+01 0.  1.
         -5    1    4    4    0  501  0.89535322733E+02 -0.11282432835E+03  0.91203719589E+02  0.17053297028E+03  0.41800000000E+01 0.  1.
</event>
<event>
11    1  0.6763327E-009  0.1455779E+03  0.7561462E-02  0.1101485E+00
         22   -1    0    0    0    0  0.00000000000E+00  0.00000000000E+00  0.21373835372E+04  0.21373835372E+04  0.00000000000E+00 0.  1.
         22   -1    0    0    0    0 -0.00000000000E+00 -0.00000000000E+00 -0.10821059912E+03  0.10821059912E+03  0.00000000000E+00 0.  1.
        -24    2    1    2    0    0 -0.51820966212E+02 -0.53680093275E+02 -0.57551369981E+02  0.12562542213E+03  0.83082016974E+02 0.  0.
         25    2    1    2    0    0  0.37500185371E+02  0.65002751855E+02  0.32222354904E+03  0.35370520898E+03  0.12509091753E+03 0.  0.
         24    2    1    2    0    0  0.14320780841E+02 -0.11322658580E+02  0.17645007590E+04  0.17662635052E+04  0.76749943939E+02 0.  0.
        -11    1    5    5    0    0  0.44335631642E+02 -0.17693247729E+02  0.11659984689E+04  0.11669752048E+04  0.00000000000E+00 0.  1.
         12    1    5    5    0    0 -0.30014850801E+02  0.63705891494E+01  0.59850229010E+03  0.59928830034E+03  0.00000000000E+00 0. -1.
         13    1    3    3    0    0  0.19051612383E+02 -0.10740868170E+02 -0.32281224224E+02  0.38992404656E+02  0.00000000000E+00 0. -1.
        -14    1    3    3    0    0 -0.70872578595E+02 -0.42939225105E+02 -0.25270145757E+02  0.86633017470E+02  0.00000000000E+00 0.  1.
          5    1    4    4  501    0  0.29673658577E+02 -0.14237151945E+02  0.22742636908E+03  0.22983352293E+03  0.41800000000E+01 0.  1.
         -5    1    4    4    0  501  0.78265267935E+01  0.79239903800E+02  0.94797179958E+02  0.12387168605E+03  0.41800000000E+01 0.  1.
</event>
<event>
11    1  0.6763327E-009  0.1346025E+03  0.7561462E-02  0.1113740E+00
         22   -1    0    0    0    0  0.00000000000E+00  0.00000000000E+00  0.10676446906E+04  0.10676446906E+04  0.00000000000E+00 0.  1.
         22   -1    0    0    0    0 -0.00000000000E+00 -0.00000000000E+00 -0.13904867694E+04  0.13904867694E+04  0.00000000000E+00 0. -1.
        -24    2    1    2    0    0  0.15252443786E+02 -0.15415188200E+02 -0.10714308252E+04  0.10739979433E+04  0.70973967906E+02 0.  0.
         25    2    1    2    0    0 -0.23219133947E+02  0.64346284183E+02 -0.29923146352E+03  0.33146001655E+03  0.12508677526E+03 0.  0.
         24    2    1    2    0    0  0.79666901604E+01 -0.48931095983E+02  0.10478202099E+04  0.10526735001E+04  0.87957861537E+02 0.  0.
        -13    1    5    5    0    0 -0.87839738375E+01 -0.71090591558E+02  0.83090126772E+03  0.83398318154E+03  0.00000000000E+00 0.  1.
         14    1    5    5    0    0  0.16750663998E+02  0.22159495575E+02  0.21691894214E+03  0.21869031860E+03  0.00000000000E+00 0. -1.
         11    1    3    3    0    0  0.23868770811E+02  0.25261787350E+01 -0.98550107007E+03  0.98579331449E+03  0.00000000000E+00 0. -1.
        -12    1    3    3    0    0 -0.86163270243E+01 -0.17941366935E+02 -0.85929755093E+02  0.88204628842E+02  0.00000000000E+00 0.  1.
          5    1    4    4  501    0  0.34654843012E+02  0.27423645017E+02 -0.29985567271E+02  0.53568844442E+02  0.41800000000E+01 0.  1.
         -5    1    4    4    0  501 -0.57873976959E+02  0.36922639166E+02 -0.26924589625E+03  0.27789117211E+03  0.41800000000E+01 0.  1.
</event>
<event>
11    1  0.6763327E-009  0.1540671E+03  0.7561462E-02  0.1092794E+00
         22   -1    0    0    0    0  0.00000000000E+00  0.00000000000E+00  0.17490647011E+04  0.17490647011E+04  0.00000000000E+00 0. -1.
         22   -1    0    0    0    0 -0.00000000000E+00 -0.00000000000E+00 -0.18992220296E+03  0.18992220296E+03  0.00000000000E+00 0.  1.
        -24    2    1    2    0    0 -0.81481578156E+02  0.45304229408E+02 -0.15150553634E+03  0.19516611736E+03  0.80275556946E+02 0.  0.
         25    2    1    2    0    0  0.49875413766E+02 -0.14709944811E+01  0.28584971186E+03  0.31598795922E+03  0.12509441186E+03 0.  0.
         24    2    1    2    0    0  0.31606164390E+02 -0.43833234927E+02  0.14247983226E+04  0.14278328275E+04  0.75736523401E+02 0.  0.
        -13    1    5    5    0    0  0.35816951577E+02 -0.23906029638E+02  0.32435453446E+03  0.32720057503E+03  0.00000000000E+00 0.  1.
         14    1    5    5    0    0 -0.42107871868E+01 -0.19927205289E+02  0.11004437881E+04  0.11006322524E+04  0.00000000000E+00 0. -1.
         11    1    3    3    0    0 -0.53975821759E+01 -0.17997213801E+02 -0.70741339249E+01  0.20076776851E+02  0.00000000000E+00 0. -1.
        -12    1    3    3    0    0 -0.76083995980E+02  0.63301443209E+02 -0.14443140241E+03  0.17508934051E+03  0.00000000000E+00 0.  1.
          5    1    4    4  501    0  0.73830023697E+02  0.35764041960E+02  0.23220902776E+03  0.24630965079E+03  0.41800000000E+01 0. -1.
         -5    1    4    4    0  501 -0.23954609931E+02 -0.37235036441E+02  0.53640684095E+02  0.69678308431E+02  0.41800000000E+01 0. -1.
</event>
<event>
11    1  0.7257378E-009  0.1565283E+03  0.7561462E-02  0.1090389E+00
         22   -1    0    0    0    0  0.00000000000E+00  0.00000000000E+00  0.71686053601E+03  0.71686053601E+03  0.00000000000E+00 0.  1.
         22   -1    0    0    0    0 -0.00000000000E+00 -0.00000000000E+00 -0.54485120895E+03  0.54485120895E+03  0.00000000000E+00 0.  1.
        -24    2    1    2    0    0 -0.60820960720E+02  0.20666978615E+02 -0.38524667067E+03  0.39886745542E+03  0.80956386155E+02 0.  0.
         25    2    1    2    0    0  0.98225907814E+02  0.65416883486E+02 -0.96784264217E+02  0.19734085516E+03  0.12509405143E+03 0.  0.
         24    2    1    2    0    0 -0.37404947094E+02 -0.86083862101E+02  0.65404026194E+03  0.66550343438E+03  0.79477012742E+02 0.  0.
        -13    1    5    5    0    0 -0.31756365817E+02 -0.47920127194E+02  0.57159032799E+03  0.57447394059E+03  0.00000000000E+00 0.  1.
         14    1    5    5    0    0 -0.56485812766E+01 -0.38163734907E+02  0.82449933950E+02  0.91029493796E+02  0.00000000000E+00 0. -1.
         13    1    3    3    0    0  0.13087931064E+02 -0.15769307443E+02 -0.92620706557E+02  0.94860741510E+02  0.00000000000E+00 0. -1.
        -14    1    3    3    0    0 -0.73908891784E+02  0.36436286058E+02 -0.29262596411E+03  0.30400671391E+03  0.00000000000E+00 0.  1.
          5    1    4    4  501    0  0.10866089073E+02  0.62530823842E+02  0.41670934934E+01  0.63741767235E+02  0.41800000000E+01 0.  1.
         -5    1    4    4    0  501  0.87359818741E+02  0.28860596442E+01 -0.10095135771E+03  0.13359908792E+03  0.41800000000E+01 0.  1.
</event>
<event>
11    1  0.6763327E-009  0.1725817E+03  0.7561462E-02  0.1075807E+00
         22   -1    0    0    0    0  0.00000000000E+00  0.00000000000E+00  0.38034156789E+03  0.38034156789E+03  0.00000000000E+00 0. -1.
         22   -1    0    0    0    0 -0.00000000000E+00 -0.00000000000E+00 -0.14363243514E+04  0.14363243514E+04  0.00000000000E+00 0. -1.
         24    2    1    2    0    0  0.75131633594E+02  0.81217508800E+01 -0.13305678352E+04  0.13351360547E+04  0.80416386050E+02 0.  0.
         25    2    1    2    0    0 -0.11507687915E+03 -0.11290924471E+03  0.37590168147E+02  0.20748554420E+03  0.12508415030E+03 0.  0.
        -24    2    1    2    0    0  0.39945245558E+02  0.10478749383E+03  0.23699488356E+03  0.27404432041E+03  0.79735018698E+02 0.  0.
        -13    1    3    3    0    0 -0.10599882317E+02  0.20691156727E+02 -0.23504569236E+03  0.23619263107E+03  0.00000000000E+00 0.  1.
         14    1    3    3    0    0  0.85731515911E+02 -0.12569405847E+02 -0.10955221429E+04  0.10989434236E+04  0.00000000000E+00 0. -1.
         11    1    5    5    0    0  0.43325365819E+02  0.72075428231E+02  0.89024539196E+02  0.12246355889E+03  0.00000000000E+00 0. -1.
        -12    1    5    5    0    0 -0.33801202607E+01  0.32712065596E+02  0.14797034437E+03  0.15158076151E+03  0.00000000000E+00 0.  1.
          5    1    4    4  501    0 -0.10914743138E+03 -0.12877886240E+03  0.31670453443E+01  0.16889245026E+03  0.41800000000E+01 0.  1.
         -5    1    4    4    0  501 -0.59294477715E+01  0.15869617695E+02  0.34423122803E+02  0.38593093944E+02  0.41800000000E+01 0.  1.
</event>
<event>
11    1  0.6763327E-009  0.1484748E+03  0.7561462E-02  0.1098448E+00
         22   -1    0    0    0    0  0.00000000000E+00  0.00000000000E+00  0.12531249537E+03  0.12531249537E+03  0.00000000000E+00 0.  1.
         22   -1    0    0    0    0 -0.00000000000E+00 -0.00000000000E+00 -0.10944955950E+04  0.10944955950E+04  0.00000000000E+00 0. -1.
        -24    2    1    2    0    0  0.15962994089E+02  0.27134018203E+02 -0.86237204649E+03  0.86670085191E+03  0.80583794993E+02 0.  0.
         25    2    1    2    0    0 -0.88329069530E+02  0.53541959918E+01 -0.16529945510E+03  0.22539343753E+03  0.12509036687E+03 0.  0.
         24    2    1    2    0    0  0.72366075440E+02 -0.32488214195E+02  0.58488401918E+02  0.12771380098E+03  0.81225543180E+02 0.  0.
        -13    1    5    5    0    0  0.87809923356E+02 -0.38163180175E+02  0.56417967889E+02  0.11113054513E+03  0.00000000000E+00 0.  1.
         14    1    5    5    0    0 -0.15443847916E+02  0.56749659804E+01  0.20704340294E+01  0.16583255844E+02  0.00000000000E+00 0. -1.
         11    1    3    3    0    0  0.43820167904E+02  0.36530001512E+02 -0.55282378482E+03  0.55575964696E+03  0.00000000000E+00 0. -1.
        -12    1    3    3    0    0 -0.27857173814E+02 -0.93959833093E+01 -0.30954826166E+03  0.31094120495E+03  0.00000000000E+00 0.  1.
          5    1    4    4  501    0 -0.12820784046E+02  0.58917482465E+02 -0.69523399504E+02  0.92122840393E+02  0.41800000000E+01 0.  1.
         -5    1    4    4    0  501 -0.75508285484E+02 -0.53563286473E+02 -0.95776055596E+02  0.13327059713E+03  0.41800000000E+01 0.  1.
</event>
<event>
11    1  0.6763327E-009  0.1537323E+03  0.7561462E-02  0.1093125E+00
         22   -1    0    0    0    0  0.00000000000E+00  0.00000000000E+00  0.39216434753E+03  0.39216434753E+03  0.00000000000E+00 0. -1.
         22   -1    0    0    0    0 -0.00000000000E+00 -0.00000000000E+00 -0.61534323107E+03  0.61534323107E+03  0.00000000000E+00 0.  1.
         24    2    1    2    0    0 -0.83485919042E+02  0.26675171496E+02 -0.44548248461E+03  0.46191003520E+03  0.84998665081E+02 0.  0.
         25    2    1    2    0    0  0.76583694167E+02 -0.77017067570E+02 -0.11199641031E+03  0.19996709104E+03  0.12508777185E+03 0.  0.
        -24    2    1    2    0    0  0.69022248747E+01  0.50341896073E+02  0.33430001139E+03  0.34563045236E+03  0.71567903252E+02 0.  0.
        -11    1    3    3    0    0 -0.76446490273E+02 -0.12220865851E+02 -0.35202217141E+03  0.36043449419E+03  0.00000000000E+00 0.  1.
         12    1    3    3    0    0 -0.70394287681E+01  0.38896037348E+02 -0.93460313206E+02  0.10147554101E+03  0.00000000000E+00 0. -1.
         11    1    5    5    0    0 -0.20138244062E+02  0.51675893733E+02  0.27362744373E+03  0.27919155580E+03  0.00000000000E+00 0. -1.
        -12    1    5    5    0    0  0.27040468936E+02 -0.13339976594E+01  0.60672567656E+02  0.66438896560E+02  0.00000000000E+00 0.  1.
          5    1    4    4  501    0  0.11485489352E+02  0.12976617555E+02 -0.83282524596E+02  0.85169010631E+02  0.41800000000E+01 0. -1.
         -5    1    4    4    0  501  0.65098204814E+02 -0.89993685124E+02 -0.28713885716E+02  0.11479808041E+03  0.41800000000E+01 0. -1.
</event>
<event>
11    1  0.6763327E-009  0.1521089E+03  0.7561462E-02  0.1094743E+00
         22   -1    0    0    0    0  0.00000000000E+00  0.00000000000E+00  0.70653843140E+02  0.70653843140E+02  0.00000000000E+00 0.  1.
         22   -1    0    0    0    0 -0.00000000000E+00 -0.00000000000E+00 -0.16880152333E+04  0.16880152333E+04  0.00000000000E+00 0. -1.
        -24    2    1    2    0    0 -0.23937576846E+02 -0.29876287747E+02 -0.11934843458E+04  0.11967230915E+04  0.79219149885E+02 0.  0.
         25    2    1    2    0    0  0.38018321490E+02 -0.58709268531E+02 -0.41753103252E+03  0.44145872073E+03  0.12514578701E+03 0.  0.
         24    2    1    2    0    0 -0.14080744644E+02  0.88585556278E+02 -0.63460117491E+01  0.12048726421E+03  0.80195017425E+02 0.  0.
        -13    1    5    5    0    0  0.16045356594E+02  0.78748506750E+02 -0.24431944160E+02  0.83998218309E+02  0.00000000000E+00 0.  1.
         14    1    5    5    0    0 -0.30126101239E+02  0.98370495280E+01  0.18085932411E+02  0.36489045897E+02  0.00000000000E+00 0. -1.
         13    1    3    3    0    0 -0.14192798682E+02  0.98607135550E+01 -0.92300340895E+03  0.92316518681E+03  0.00000000000E+00 0. -1.
        -14    1    3    3    0    0 -0.97447781638E+01 -0.39737001302E+02 -0.27048093689E+03  0.27355790465E+03  0.00000000000E+00 0.  1.
          5    1    4    4  501    0  0.47236439961E+02 -0.38588558864E+02 -0.41420339054E+03  0.41869115022E+03  0.41800000000E+01 0.  1.
         -5    1    4    4    0  501 -0.92181184715E+01 -0.20120709668E+02 -0.33276419797E+01  0.22767570508E+02  0.41800000000E+01 0.  1.
</event>
<event>
11    1  0.6763327E-009  0.1370551E+03  0.7561462E-02  0.1110892E+00
         22   -1    0    0    0    0  0.00000000000E+00  0.00000000000E+00  0.56091757547E+03  0.56091757547E+03  0.00000000000E+00 0. -1.
         22   -1    0    0    0    0 -0.00000000000E+00 -0.00000000000E+00 -0.68273951876E+03  0.68273951876E+03  0.00000000000E+00 0.  1.
        -24    2    1    2    0    0 -0.52492908678E+02  0.40138316072E+02 -0.35298744881E+03  0.36785379945E+03  0.79684935057E+02 0.  0.
         25    2    1    2    0    0  0.30038366051E+02 -0.23074152393E+02 -0.30567416243E+03  0.33244306290E+03  0.12508787532E+03 0.  0.
         24    2    1    2    0    0  0.22454542626E+02 -0.17064163679E+02  0.53683966796E+03  0.54336023188E+03  0.79045052500E+02 0.  0.
        -11    1    5    5    0    0  0.39813973773E+02  0.15540634416E+01  0.13608917907E+03  0.14180208842E+03  0.00000000000E+00 0.  1.
         12    1    5    5    0    0 -0.17359431146E+02 -0.18618227121E+02  0.40075048889E+03  0.40155814346E+03  0.00000000000E+00 0. -1.
         13    1    3    3    0    0 -0.43752776166E+02 -0.14232041882E+02 -0.12185288520E+03  0.13024969124E+03  0.00000000000E+00 0. -1.
        -14    1    3    3    0    0 -0.87401325116E+01  0.54370357955E+02 -0.23113456362E+03  0.23760410821E+03  0.00000000000E+00 0.  1.
          5    1    4    4  501    0 -0.38786000500E+02 -0.36732793092E+02 -0.18688869454E+03  0.19441838511E+03  0.41800000000E+01 0.  1.
         -5    1    4    4    0  501  0.68824366551E+02  0.13658640700E+02 -0.11878546789E+03  0.13802467779E+03  0.41800000000E+01 0.  1.
</event>
<event>
11    1  0.6763327E-009  0.3694591E+03  0.7561462E-02  0.9744433E-01
         22   -1    0    0    0    0  0.00000000000E+00  0.00000000000E+00  0.55379128518E+03  0.55379128518E+03  0.00000000000E+00 0.  1.
         22   -1    0    0    0    0 -0.00000000000E+00 -0.00000000000E+00 -0.16508918829E+04  0.16508918829E+04  0.00000000000E+00 0.  1.
         24    2    1    2    0    0 -0.31438433625E+03 -0.15885591211E+03 -0.13468006866E+04  0.13943905611E+04  0.79876377706E+02 0.  0.
         25    2    1    2    0    0  0.28896783157E+03  0.15143710729E+03 -0.16518091902E+03  0.38648573908E+03  0.12510349858E+03 0.  0.
        -24    2    1    2    0    0  0.25416504687E+02  0.74188048135E+01  0.41488100786E+03  0.42380686797E+03  0.82370949256E+02 0.  0.
        -11    1    3    3    0    0 -0.29582130318E+03 -0.16576981629E+03 -0.13014545269E+04  0.13449065994E+04  0.00000000000E+00 0.  1.
         12    1    3    3    0    0 -0.18563033075E+02  0.69139041892E+01 -0.45346159650E+02  0.49483961675E+02  0.00000000000E+00 0. -1.
         11    1    5    5    0    0  0.49978345578E+02 -0.42573361161E+01  0.16514455954E+03  0.17259399029E+03  0.00000000000E+00 0. -1.
        -12    1    5    5    0    0 -0.24561840891E+02  0.11676140930E+02  0.24973644831E+03  0.25121287768E+03  0.00000000000E+00 0.  1.
          5    1    4    4  501    0  0.95320611438E+01  0.39638253965E+02  0.40377449756E+01  0.41180421944E+02  0.41800000000E+01 0. -1.
         -5    1    4    4    0  501  0.27943577042E+03  0.11179885333E+03 -0.16921866400E+03  0.34530531714E+03  0.41800000000E+01 0. -1.
</event>
<event>
11    1  0.6763327E-009  0.3134302E+03  0.7561462E-02  0.9946622E-01
         22   -1    0    0    0    0  0.00000000000E+00  0.00000000000E+00  0.31724583915E+04  0.31724583915E+04  0.00000000000E+00 0.  1.
         22   -1    0    0    0    0 -0.00000000000E+00 -0.00000000000E+00 -0.29456938813E+03  0.29456938813E+03  0.00000000000E+00 0. -1.
         24    2    1    2    0    0  0.12226803836E+03 -0.54532537723E+02 -0.14521431937E+03  0.21204425144E+03  0.77151118877E+02 0.  0.
         25    2    1    2    0    0 -0.47703017230E+02  0.33047944250E+03  0.18593258631E+03  0.40213295585E+03  0.12509095794E+03 0.  0.
        -24    2    1    2    0    0 -0.74565021131E+02 -0.27594690478E+03  0.28371707364E+04  0.28528505723E+04  0.86671585927E+02 0.  0.
        -11    1    3    3    0    0  0.73098466959E+02  0.93542236672E+01 -0.63901087392E+02  0.97540947002E+02  0.00000000000E+00 0.  1.
         12    1    3    3    0    0  0.49169571402E+02 -0.63886761390E+02 -0.81313231975E+02  0.11450330444E+03  0.00000000000E+00 0. -1.
         11    1    5    5    0    0  0.11112501735E+02 -0.35796573212E+02  0.60596517070E+03  0.60712327451E+03  0.00000000000E+00 0. -1.
        -12    1    5    5    0    0 -0.85677522866E+02 -0.24015033156E+03  0.22312055657E+04  0.22457272978E+04  0.00000000000E+00 0.  1.
          5    1    4    4  501    0 -0.29799110170E+02  0.21239038427E+03  0.18398552032E+03  0.28260538987E+03  0.41800000000E+01 0. -1.
         -5    1    4    4    0  501 -0.17903907060E+02  0.11808905823E+03  0.19470659867E+01  0.11952756597E+03  0.41800000000E+01 0. -1.
</event>
<event>
11    1  0.6763327E-009  0.1339518E+03  0.7561462E-02  0.1114507E+00
         22   -1    0    0    0    0  0.00000000000E+00  0.00000000000E+00  0.29514169306E+02  0.29514169306E+02  0.00000000000E+00 0. -1.
         22   -1    0    0    0    0 -0.00000000000E+00 -0.00000000000E+00 -0.26759789054E+04  0.26759789054E+04  0.00000000000E+00 0. -1.
        -24    2    1    2    0    0  0.35391763230E+02 -0.14686352116E+02 -0.10398770314E+04  0.10437426376E+04  0.81155328919E+02 0.  0.
         25    2    1    2    0    0 -0.67762312255E+02 -0.63383148705E+01 -0.15490745250E+04  0.15556061117E+04  0.12508631158E+03 0.  0.
         24    2    1    2    0    0  0.32370549025E+02  0.21024666987E+02 -0.57513179667E+02  0.10614432538E+03  0.80429863288E+02 0.  0.
        -11    1    5    5    0    0 -0.57491778537E+00 -0.88759963916E+01 -0.60879761485E+02  0.61526085532E+02  0.00000000000E+00 0.  1.
         12    1    5    5    0    0  0.32945466811E+02  0.29900663378E+02  0.33665818182E+01  0.44618239846E+02  0.00000000000E+00 0. -1.
         13    1    3    3    0    0  0.56918172345E+02 -0.12707268015E+02 -0.92582745246E+03  0.92766245194E+03  0.00000000000E+00 0. -1.
        -14    1    3    3    0    0 -0.21526409115E+02 -0.19790841009E+01 -0.11404957890E+03  0.11608018570E+03  0.00000000000E+00 0.  1.
          5    1    4    4  501    0  0.20827004615E+02  0.28674726329E+02 -0.19942595757E+03  0.20259365490E+03  0.41800000000E+01 0. -1.
         -5    1    4    4    0  501 -0.88589316870E+02 -0.35013041199E+02 -0.13496485675E+04  0.13530124568E+04  0.41800000000E+01 0. -1.
</event>
<event>
11    1  0.6763327E-009  0.1524765E+03  0.7561462E-02  0.1094375E+00
         22   -1    0    0    0    0  0.00000000000E+00  0.00000000000E+00  0.30507752103E+04  0.30507752103E+04  0.00000000000E+00 0. -1.
         22   -1    0    0    0    0 -0.00000000000E+00 -0.00000000000E+00 -0.50281609214E+02  0.50281609214E+02  0.00000000000E+00 0.  1.
        -24    2    1    2    0    0 -0.28381267515E+02 -0.77757858717E+02  0.13533275140E+03  0.17752384766E+03  0.79674223860E+02 0.  0.
         25    2    1    2    0    0  0.11374728857E+03  0.83375383922E+02  0.29154481784E+03  0.34718217779E+03  0.12508870239E+03 0.  0.
         24    2    1    2    0    0 -0.85366021056E+02 -0.56175252044E+01  0.25736160318E+04  0.25763507940E+04  0.82249745041E+02 0.  0.
        -11    1    5    5    0    0 -0.39410669193E+00  0.18340993328E+02  0.14858044671E+03  0.14970870550E+03  0.00000000000E+00 0.  1.
         12    1    5    5    0    0 -0.84971914364E+02 -0.23958518532E+02  0.24250355851E+04  0.24266420886E+04  0.00000000000E+00 0. -1.
         13    1    3    3    0    0  0.17602794624E+02 -0.25666971366E+02  0.88284903231E+02  0.93610234143E+02  0.00000000000E+00 0. -1.
        -14    1    3    3    0    0 -0.45984062139E+02 -0.52090887352E+02  0.47047848169E+02  0.83913613515E+02  0.00000000000E+00 0.  1.
          5    1    4    4  501    0  0.10342073667E+03  0.40673672931E+00  0.14078338848E+03  0.17473823017E+03  0.41800000000E+01 0. -1.
         -5    1    4    4    0  501  0.10326551899E+02  0.82968647193E+02  0.15076142935E+03  0.17244394762E+03  0.41800000000E+01 0. -1.
</event>
<event>
11    1  0.6763327E-009  0.1299866E+03  0.7561462E-02  0.1119285E+00
         22   -1    0    0    0    0  0.00000000000E+00  0.00000000000E+00  0.10469627146E+04  0.10469627146E+04  0.00000000000E+00 0. -1.
         22   -1    0    0    0    0 -0.00000000000E+00 -0.00000000000E+00 -0.48443877349E+03  0.48443877349E+03  0.00000000000E+00 0. -1.
         24    2    1    2    0    0  0.27655281641E+02 -0.17726445308E+02 -0.41466429602E+03  0.42624208693E+03  0.93041908871E+02 0.  0.
         25    2    1    2    0    0 -0.40260363691E+02  0.73286965277E+02  0.30660354747E+02  0.15355897123E+03  0.12509366142E+03 0.  0.
        -24    2    1    2    0    0  0.12605082049E+02 -0.55560519969E+02  0.94652788237E+03  0.95160042992E+03  0.79890466521E+02 0.  0.
        -11    1    3    3    0    0 -0.41121483738E+01 -0.12623632450E+02 -0.33784085746E+01  0.13699616965E+02  0.00000000000E+00 0.  1.
         12    1    3    3    0    0  0.31767430015E+02 -0.51028128576E+01 -0.41128588745E+03  0.41254246996E+03  0.00000000000E+00 0. -1.
         11    1    5    5    0    0  0.30542077491E+02 -0.56236450003E+02  0.88984898931E+03  0.89214717428E+03  0.00000000000E+00 0. -1.
        -12    1    5    5    0    0 -0.17936995441E+02  0.67593003357E+00  0.56678893067E+02  0.59453255639E+02  0.00000000000E+00 0.  1.
          5    1    4    4  501    0 -0.69268614943E+02  0.23176587009E+02  0.54060282139E+02  0.90968575378E+02  0.41800000000E+01 0.  1.
         -5    1    4    4    0  501  0.29008251252E+02  0.50110378268E+02 -0.23399927391E+02  0.62590395851E+02  0.41800000000E+01 0.  1.
</event>
<event>
11    1  0.6763327E-009  0.1425300E+03  0.7561462E-02  0.1104766E+00
         22   -1    0    0    0    0  0.00000000000E+00  0.00000000000E+00  0.17833931718E+03  0.17833931718E+03  0.00000000000E+00 0. -1.
         22   -1    0    0    0    0 -0.00000000000E+00 -0.00000000000E+00 -0.43414168886E+03  0.43414168886E+03  0.00000000000E+00 0. -1.
        -24    2    1    2    0    0 -0.25688463547E+02 -0.18636622167E+02 -0.23689160186E+03  0.25201096793E+03  0.79904168113E+02 0.  0.
         25    2    1    2    0    0  0.96362904781E+01 -0.50287625747E+02 -0.14317799130E+03  0.19689845877E+03  0.12508941793E+03 0.  0.
         24    2    1    2    0    0  0.16052173069E+02  0.68924247913E+02  0.12426722148E+03  0.16357157933E+03  0.79404628447E+02 0.  0.
        -13    1    5    5    0    0 -0.23613516532E+02 -0.21076109054E+01  0.39582452759E+02  0.46139037193E+02  0.00000000000E+00 0.  1.
         14    1    5    5    0    0  0.39665689601E+02  0.71031858819E+02  0.84684768721E+02  0.11743254213E+03  0.00000000000E+00 0. -1.
         11    1    3    3    0    0 -0.23014176843E+02  0.20021234826E+02 -0.18361986013E+03  0.18613638875E+03  0.00000000000E+00 0. -1.
        -12    1    3    3    0    0 -0.26742867046E+01 -0.38657856992E+02 -0.53271741725E+02  0.65874579187E+02  0.00000000000E+00 0.  1.
          5    1    4    4  501    0 -0.27763957057E+02 -0.54961095145E+02 -0.14636256682E+03  0.15884279227E+03  0.41800000000E+01 0. -1.
         -5    1    4    4    0  501  0.37400247535E+02  0.46734693986E+01  0.31845755150E+01  0.38055666505E+02  0.41800000000E+01 0. -1.
</event>
<event>
11    1  0.6763327E-009  0.2146393E+03  0.7561462E-02  0.1044628E+00
         22   -1    0    0    0    0  0.00000000000E+00  0.00000000000E+00  0.11078933364E+04  0.11078933364E+04  0.00000000000E+00 0.  1.
         22   -1    0    0    0    0 -0.00000000000E+00 -0.00000000000E+00 -0.78465590750E+03  0.78465590750E+03  0.00000000000E+00 0. -1.
         24    2    1    2    0    0  0.36085742780E+02  0.10006806131E+03 -0.66458003410E+03  0.67784100307E+03  0.80535743593E+02 0.  0.
         25    2    1    2    0    0 -0.18871209277E+03 -0.12958331150E+02  0.19843589714E+02  0.22764230258E+03  0.12508827910E+03 0.  0.
        -24    2    1    2    0    0  0.15262634999E+03 -0.87109730163E+02  0.96797387327E+03  0.98706593825E+03  0.80267299083E+02 0.  0.
        -11    1    3    3    0    0  0.21038597026E+02 -0.71646946052E+01 -0.68802710936E+02  0.72303308678E+02  0.00000000000E+00 0.  1.
         12    1    3    3    0    0  0.15047145753E+02  0.10723275592E+03 -0.59577732316E+03  0.60553769439E+03  0.00000000000E+00 0. -1.
         13    1    5    5    0    0  0.47513482126E+02  0.11157287273E+02  0.27729031462E+03  0.28155272086E+03  0.00000000000E+00 0. -1.
        -14    1    5    5    0    0  0.10511286786E+03 -0.98267017436E+02  0.69068355866E+03  0.70551321739E+03  0.00000000000E+00 0.  1.
          5    1    4    4  501    0 -0.25175905972E+02 -0.47779395853E+01  0.54367804094E+02  0.60249360745E+02  0.41800000000E+01 0. -1.
         -5    1    4    4    0  501 -0.16353618680E+03 -0.81803915644E+01 -0.34524214380E+02  0.16739294184E+03  0.41800000000E+01 0. -1.
</event>
<event>
11    1  0.6763327E-009  0.2270549E+03  0.7561462E-02  0.1036886E+00
         22   -1    0    0    0    0  0.00000000000E+00  0.00000000000E+00  0.85900927347E+02  0.85900927347E+02  0.00000000000E+00 0.  1.
         22   -1    0    0    0    0 -0.00000000000E+00 -0.00000000000E+00 -0.26513228853E+04  0.26513228853E+04  0.00000000000E+00 0. -1.
        -24    2    1    2    0    0 -0.18651233664E+03 -0.12987823995E+02 -0.14884604314E+04  0.15023150794E+04  0.80502214827E+02 0.  0.
         25    2    1    2    0    0  0.19137734791E+03 -0.96395096571E+02 -0.10688395488E+04  0.10972614067E+04  0.12508920707E+03 0.  0.
         24    2    1    2    0    0 -0.48650112729E+01  0.10938292057E+03 -0.81219778549E+01  0.13764732662E+03  0.83021252432E+02 0.  0.
        -11    1    5    5    0    0 -0.21649238005E+02  0.10741078685E+03 -0.26448977789E+02  0.11271785601E+03  0.00000000000E+00 0.  1.
         12    1    5    5    0    0  0.16784226732E+02  0.19721337195E+01  0.18326999934E+02  0.24929470612E+02  0.00000000000E+00 0. -1.
         13    1    3    3    0    0 -0.18900257933E+03 -0.55932263235E+00 -0.13320607569E+04  0.13454025970E+04  0.00000000000E+00 0. -1.
        -14    1    3    3    0    0  0.24902426907E+01 -0.12428501363E+02 -0.15639967446E+03  0.15691248237E+03  0.00000000000E+00 0.  1.
          5    1    4    4  501    0  0.16980046888E+03 -0.26027068644E+02 -0.67125393406E+03  0.69289892765E+03  0.41800000000E+01 0.  1.
         -5    1    4    4    0  501  0.21576879027E+02 -0.70368027927E+02 -0.39758561469E+03  0.40436247906E+03  0.41800000000E+01 0.  1.
</event>
<event>
11    1  0.6763327E-009  0.1804144E+03  0.7561462E-02  0.1069308E+00
         22   -1    0    0    0    0  0.00000000000E+00  0.00000000000E+00  0.26094711778E+03  0.26094711778E+03  0.00000000000E+00 0.  1.
         22   -1    0    0    0    0 -0.00000000000E+00 -0.00000000000E+00 -0.10199480024E+04  0.10199480024E+04  0.00000000000E+00 0.  1.
         24    2    1    2    0    0  0.65612293144E+02 -0.11347771020E+03 -0.71986294283E+03  0.73637421996E+03  0.82838225686E+02 0.  0.
         25    2    1    2    0    0 -0.11820159125E+03  0.73115273695E+02 -0.24769688381E+03  0.31035217215E+03  0.12508902865E+03 0.  0.
        -24    2    1    2    0    0  0.52589298109E+02  0.40362436503E+02  0.20855894201E+03  0.23416872809E+03  0.83327068633E+02 0.  0.
        -11    1    3    3    0    0  0.67775140867E+02 -0.69380543113E+02 -0.32822121881E+03  0.34225180491E+03  0.00000000000E+00 0.  1.
         12    1    3    3    0    0 -0.21628477235E+01 -0.44097167085E+02 -0.39164172402E+03  0.39412241505E+03  0.00000000000E+00 0. -1.
         11    1    5    5    0    0  0.10767565490E+02 -0.13276378339E+02  0.26263206699E+01  0.17294514987E+02  0.00000000000E+00 0. -1.
        -12    1    5    5    0    0  0.41821732619E+02  0.53638814842E+02  0.20593262134E+03  0.21687421310E+03  0.00000000000E+00 0.  1.
          5    1    4    4  501    0 -0.85192272725E+02  0.78555569902E+02 -0.25098525744E+03  0.27647743624E+03  0.41800000000E+01 0. -1.
         -5    1    4    4    0  501 -0.33009318528E+02 -0.54402962068E+01  0.32883736268E+01  0.33874735919E+02  0.41800000000E+01 0. -1.
</event>
<event>
11    1  0.6763327E-009  0.1430957E+03  0.7561462E-02  0.1104150E+00
         22   -1    0    0    0    0  0.00000000000E+00  0.00000000000E+00  0.37585641008E+03  0.37585641008E+03  0.00000000000E+00 0. -1.
         22   -1    0    0    0    0 -0.00000000000E+00 -0.00000000000E+00 -0.44528891527E+03  0.44528891527E+03  0.00000000000E+00 0.  1.
         24    2    1    2    0    0  0.23810637972E+02 -0.51172076700E+02 -0.36246046732E+03  0.37576506471E+03  0.81463277426E+02 0.  0.
         25    2    1    2    0    0 -0.49987912987E+02 -0.18819872063E+02  0.47234467686E+01  0.13609527788E+03  0.12508650879E+03 0.  0.
        -24    2    1    2    0    0  0.26177275015E+02  0.69991948764E+02  0.28830451536E+03  0.30928498277E+03  0.83388154850E+02 0.  0.
        -11    1    3    3    0    0 -0.39567649104E+01 -0.64618947197E+02 -0.28759500810E+03  0.29479171123E+03  0.00000000000E+00 0.  1.
         12    1    3    3    0    0  0.27767402882E+02  0.13446870497E+02 -0.74865459220E+02  0.80973353476E+02  0.00000000000E+00 0. -1.
         11    1    5    5    0    0  0.53778896800E+01  0.84954018917E+02  0.20058399003E+03  0.21789916036E+03  0.00000000000E+00 0. -1.
        -12    1    5    5    0    0  0.20799385335E+02 -0.14962070153E+02  0.87720525329E+02  0.91385822410E+02  0.00000000000E+00 0.  1.
          5    1    4    4  501    0 -0.74242700906E+02 -0.47196778656E+02  0.27375722555E+02  0.92230239828E+02  0.41800000000E+01 0. -1.
         -5    1    4    4    0  501  0.24254787919E+02  0.28376906593E+02 -0.22652275787E+02  0.43865038050E+02  0.41800000000E+01 0. -1.
</event>
<event>
11    1  0.6763327E-009  0.1357407E+03  0.7561462E-02  0.1112410E+00
         22   -1    0    0    0    0  0.00000000000E+00  0.00000000000E+00  0.12540251003E+04  0.12540251003E+04  0.00000000000E+00 0. -1.
         22   -1    0    0    0    0 -0.00000000000E+00 -0.00000000000E+00 -0.97241895056E+02  0.97241895056E+02  0.00000000000E+00 0. -1.
         24    2    1    2    0    0  0.52681817656E+01  0.57003654326E+02 -0.37588256402E+02  0.10615238090E+03  0.81106600264E+02 0.  0.
         25    2    1    2    0    0 -0.20204237434E+02 -0.26918752747E+02  0.15460300463E+03  0.20169782590E+03  0.12508834267E+03 0.  0.
        -24    2    1    2    0    0  0.14936055668E+02 -0.30084901579E+02  0.10397684570E+04  0.10434167886E+04  0.80448513743E+02 0.  0.
        -11    1    3    3    0    0 -0.99878375579E+01  0.21005671891E+02  0.23859597202E+02  0.33320797249E+02  0.00000000000E+00 0.  1.
         12    1    3    3    0    0  0.15256019323E+02  0.35997982434E+02 -0.61447853604E+02  0.72831583654E+02  0.00000000000E+00 0. -1.
         13    1    5    5    0    0  0.16164084911E+02  0.78622640121E+01  0.83284849599E+03  0.83304244197E+03  0.00000000000E+00 0. -1.
        -14    1    5    5    0    0 -0.12280292423E+01 -0.37947165591E+02  0.20691996105E+03  0.21037434661E+03  0.00000000000E+00 0.  1.
          5    1    4    4  501    0 -0.31687070167E+02 -0.10007292369E+02  0.17156816075E+03  0.17480652877E+03  0.41800000000E+01 0.  1.
         -5    1    4    4    0  501  0.11482832733E+02 -0.16911460378E+02 -0.16965156117E+02  0.26891297138E+02  0.41800000000E+01 0.  1.
</event>
<event>
11    1  0.6763327E-009  0.4135802E+03  0.7561462E-02  0.9610517E-01
         22   -1    0    0    0    0  0.00000000000E+00  0.00000000000E+00  0.27387886517E+04  0.27387886517E+04  0.00000000000E+00 0. -1.
         22   -1    0    0    0    0 -0.00000000000E+00 -0.00000000000E+00 -0.52739157227E+03  0.52739157227E+03  0.00000000000E+00 0. -1.
        -24    2    1    2    0    0 -0.24858598613E+03  0.30400667175E+03 -0.41633396144E+03  0.57913403800E+03  0.88584522118E+02 0.  0.
         25    2    1    2    0    0  0.26649848787E+03 -0.33473398002E+03  0.17886941526E+04  0.18434052040E+04  0.12509073984E+03 0.  0.
         24    2    1    2    0    0 -0.17912501745E+02  0.30727308273E+02  0.83903688822E+03  0.84364098192E+03  0.80511995280E+02 0.  0.
        -11    1    5    5    0    0  0.22172928920E+02  0.20978944967E+02  0.13550185419E+03  0.13889747081E+03  0.00000000000E+00 0.  1.
         12    1    5    5    0    0 -0.40085430664E+02  0.97483633063E+01  0.70353503403E+03  0.70474351111E+03  0.00000000000E+00 0. -1.
         11    1    3    3    0    0 -0.97961200671E+02  0.16687603421E+03 -0.15585334604E+03  0.24846382654E+03  0.00000000000E+00 0. -1.
        -12    1    3    3    0    0 -0.15062478545E+03  0.13713063754E+03 -0.26048061540E+03  0.33067021146E+03  0.00000000000E+00 0.  1.
          5    1    4    4  501    0  0.18225496362E+03 -0.23048712641E+03  0.96128857545E+03  0.10052036534E+04  0.41800000000E+01 0. -1.
         -5    1    4    4    0  501  0.84243524249E+02 -0.10424685361E+03  0.82740557718E+03  0.83820155060E+03  0.41800000000E+01 0. -1.
</event>
<event>
11    1  0.6763327E-009  0.1304161E+03  0.7561462E-02  0.1118759E+00
         22   -1    0    0    0    0  0.00000000000E+00  0.00000000000E+00  0.31832712782E+03  0.31832712782E+03  0.00000000000E+00 0.  1.
         22   -1    0    0    0    0 -0.00000000000E+00 -0.00000000000E+00 -0.58119580183E+03  0.58119580183E+03  0.00000000000E+00 0.  1.
        -24    2    1    2    0    0  0.23601513757E+02  0.28220228478E+02 -0.52838247251E+03  0.53558942297E+03  0.79464331582E+02 0.  0.
         25    2    1    2    0    0 -0.38792805699E+02 -0.19701235016E+02  0.65406291339E+02  0.14770884150E+03  0.12508756323E+03 0.  0.
         24    2    1    2    0    0  0.15191291942E+02 -0.85189934615E+01  0.20010750716E+03  0.21622466518E+03  0.80042131464E+02 0.  0.
        -11    1    5    5    0    0  0.16023980421E+02 -0.35565085763E+02  0.17505666937E+03  0.17935016243E+03  0.00000000000E+00 0.  1.
         12    1    5    5    0    0 -0.83268847921E+00  0.27046092301E+02  0.25050837796E+02  0.36874502751E+02  0.00000000000E+00 0. -1.
         13    1    3    3    0    0  0.20255490067E+02 -0.95122737881E+01 -0.40768949575E+02  0.46506725104E+02  0.00000000000E+00 0. -1.
        -14    1    3    3    0    0  0.33460236898E+01  0.37732502266E+02 -0.48761352293E+03  0.48908269786E+03  0.00000000000E+00 0.  1.
          5    1    4    4  501    0  0.38539175350E+02  0.54567560045E+01  0.52149589466E+02  0.65208099989E+02  0.41800000000E+01 0.  1.
         -5    1    4    4    0  501 -0.77331981049E+02 -0.25157991021E+02  0.13256701873E+02  0.82500741510E+02  0.41800000000E+01 0.  1.
</event>
<event>
11    1  0.6763327E-009  0.2189740E+03  0.7561462E-02  0.1041862E+00
         22   -1    0    0    0    0  0.00000000000E+00  0.00000000000E+00  0.88057015958E+03  0.88057015958E+03  0.00000000000E+00 0. -1.
         22   -1    0    0    0    0 -0.00000000000E+00 -0.00000000000E+00 -0.13584204200E+04  0.13584204200E+04  0.00000000000E+00 0. -1.
        -24    2    1    2    0    0  0.12435229070E+03 -0.12995778306E+03 -0.11683515154E+04  0.11848137316E+04  0.79911186021E+02 0.  0.
         25    2    1    2    0    0 -0.12415721533E+03  0.12840909998E+03 -0.11367153153E+03  0.24591085502E+03  0.12508805084E+03 0.  0.
         24    2    1    2    0    0 -0.19507537249E+00  0.15486830754E+01  0.80417278645E+03  0.80826599293E+03  0.81225663402E+02 0.  0.
        -11    1    5    5    0    0 -0.13043470871E+02  0.20714486941E+02  0.78538163064E+02  0.82264604534E+02  0.00000000000E+00 0.  1.
         12    1    5    5    0    0  0.12848395498E+02 -0.19165803866E+02  0.72563462338E+03  0.72600138840E+03  0.00000000000E+00 0. -1.
         13    1    3    3    0    0  0.83403401639E+02 -0.13095501937E+03 -0.96002967403E+03  0.97250312057E+03  0.00000000000E+00 0. -1.
        -14    1    3    3    0    0  0.40948889062E+02  0.99723631446E+00 -0.20832184132E+03  0.21231061106E+03  0.00000000000E+00 0.  1.
          5    1    4    4  501    0 -0.12970408226E+02 -0.24665411500E+02 -0.21337329651E+02  0.35346400817E+02  0.41800000000E+01 0. -1.
         -5    1    4    4    0  501 -0.11118680710E+03  0.15307451148E+03 -0.92334201880E+02  0.21056445421E+03  0.41800000000E+01 0. -1.
</event>
<event>
11    1  0.6763327E-009  0.1860178E+03  0.7561462E-02  0.1064877E+00
         22   -1    0    0    0    0  0.00000000000E+00  0.00000000000E+00  0.25935495335E+03  0.25935495335E+03  0.00000000000E+00 0. -1.
         22   -1    0    0    0    0 -0.00000000000E+00 -0.00000000000E+00 -0.51154323925E+03  0.51154323925E+03  0.00000000000E+00 0. -1.
         24    2    1    2    0    0  0.19202752002E+01 -0.14300985945E+03 -0.38467268152E+03  0.41826485394E+03  0.80727373156E+02 0.  0.
         25    2    1    2    0    0 -0.75358765007E+02  0.10440383869E+03  0.38273802223E+01  0.17955976743E+03  0.12509179127E+03 0.  0.
        -24    2    1    2    0    0  0.73438489807E+02  0.38606020765E+02  0.12865701540E+03  0.17307357122E+03  0.80735350485E+02 0.  0.
        -13    1    3    3    0    0  0.22134051254E+02 -0.41397600853E+02 -0.53061376907E+02  0.70846222910E+02  0.00000000000E+00 0.  1.
         14    1    3    3    0    0 -0.20213776054E+02 -0.10161225860E+03 -0.33161130462E+03  0.34741863104E+03  0.00000000000E+00 0. -1.
         13    1    5    5    0    0  0.50483290590E+02 -0.70928844320E+01  0.10501087871E+03  0.11673112818E+03  0.00000000000E+00 0. -1.
        -14    1    5    5    0    0  0.22955199217E+02  0.45698905197E+02  0.23646136692E+02  0.56342443040E+02  0.00000000000E+00 0.  1.
          5    1    4    4  501    0  0.10441162377E+02  0.43159994165E+02  0.47699008505E+02  0.65302915559E+02  0.41800000000E+01 0. -1.
         -5    1    4    4    0  501 -0.85799927384E+02  0.61243844522E+02 -0.43871628282E+02  0.11425685187E+03  0.41800000000E+01 0. -1.
</event>
<event>
11    1  0.6763327E-009  0.2149158E+03  0.7561462E-02  0.1044450E+00
         22   -1    0    0    0    0  0.00000000000E+00  0.00000000000E+00  0.10415316493E+03  0.10415316493E+03  0.00000000000E+00 0. -1.
         22   -1    0    0    0    0 -0.00000000000E+00 -0.00000000000E+00 -0.17428388318E+04  0.17428388318E+04  0.00000000000E+00 0. -1.
         24    2    1    2    0    0 -0.54141105911E+02  0.16546164020E+03 -0.13250863244E+04  0.13388610497E+04  0.79914515631E+02 0.  0.
         25    2    1    2    0    0 -0.22543340562E+01 -0.18623615386E+03 -0.33711230981E+03  0.40494579702E+03  0.12508957620E+03 0.  0.
        -24    2    1    2    0    0  0.56395439967E+02  0.20774513658E+02  0.23512967333E+02  0.10318514992E+03  0.80512666479E+02 0.  0.
        -11    1    3    3    0    0 -0.46881819236E+02  0.75313011768E+02 -0.41996571114E+03  0.42923321546E+03  0.00000000000E+00 0.  1.
         12    1    3    3    0    0 -0.72592866752E+01  0.90148628431E+02 -0.90512061321E+03  0.90962783429E+03  0.00000000000E+00 0. -1.
         11    1    5    5    0    0  0.16940712785E+02  0.48470333655E+02  0.51586397189E+01  0.51603997500E+02  0.00000000000E+00 0. -1.
        -12    1    5    5    0    0  0.39454727182E+02 -0.27695819997E+02  0.18354327614E+02  0.51581152415E+02  0.00000000000E+00 0.  1.
          5    1    4    4  501    0  0.55591838358E+02 -0.47853429150E+02 -0.12772293235E+03  0.14734660845E+03  0.41800000000E+01 0. -1.
         -5    1    4    4    0  501 -0.57846172414E+02 -0.13838272471E+03 -0.20938937746E+03  0.25759918857E+03  0.41800000000E+01 0. -1.
</event>
<event>
11    1  0.6763327E-009  0.1369088E+03  0.7561462E-02  0.1111060E+00
         22   -1    0    0    0    0  0.00000000000E+00  0.00000000000E+00  0.19194447098E+03  0.19194447098E+03  0.00000000000E+00 0. -1.
         22   -1    0    0    0    0 -0.00000000000E+00 -0.00000000000E+00 -0.92174135062E+03  0.92174135062E+03  0.00000000000E+00 0.  1.
         24    2    1    2    0    0  0.23626871116E+02  0.66245729833E+02 -0.45808514300E+03  0.47029121534E+03  0.79906840970E+02 0.  0.
         25    2    1    2    0    0 -0.14545171684E+02 -0.29883280561E+02 -0.43743421307E+03  0.45618109152E+03  0.12509166647E+03 0.  0.
        -24    2    1    2    0    0 -0.90816994322E+01 -0.36362449272E+02  0.16572247644E+03  0.18721351474E+03  0.78614603742E+02 0.  0.
        -13    1    3    3    0    0  0.31006701305E+02  0.57948401496E+02 -0.45356528354E+03  0.45830219200E+03  0.00000000000E+00 0.  1.
         14    1    3    3    0    0 -0.73798301889E+01  0.82973283374E+01 -0.45198594587E+01  0.11989023341E+02  0.00000000000E+00 0. -1.
         11    1    5    5    0    0  0.19790579962E+02  0.13922794892E+02  0.81085834155E+02  0.84619287242E+02  0.00000000000E+00 0. -1.
        -12    1    5    5    0    0 -0.28872279395E+02 -0.50285244163E+02  0.84636642283E+02  0.10259422749E+03  0.00000000000E+00 0.  1.
          5    1    4    4  501    0 -0.34370576763E+01  0.72862861792E+01  0.60989709605E+01  0.10934952150E+02  0.41800000000E+01 0.  1.
         -5    1    4    4    0  501 -0.11108114008E+02 -0.37169566741E+02 -0.44353318403E+03  0.44524613937E+03  0.41800000000E+01 0.  1.
</event>
<event>
11    1  0.6763327E-009  0.2390804E+03  0.7561462E-02  0.1029882E+00
         22   -1    0    0    0    0  0.00000000000E+00  0.00000000000E+00  0.15561534475E+04  0.15561534475E+04  0.00000000000E+00 0. -1.
         22   -1    0    0    0    0 -0.00000000000E+00 -0.00000000000E+00 -0.13326377704E+04  0.13326377704E+04  0.00000000000E+00 0.  1.
        -24    2    1    2    0    0  0.20387054079E+03  0.57766525286E+01 -0.12955228512E+04  0.13139144010E+04  0.79968918010E+02 0.  0.
         25    2    1    2    0    0 -0.17918900599E+03 -0.13470700658E+03  0.82677174856E+03  0.86571314938E+03  0.12511217087E+03 0.  0.
         24    2    1    2    0    0 -0.24681534794E+02  0.12893035405E+03  0.69226677978E+03  0.70916366758E+03  0.80296940605E+02 0.  0.
        -13    1    5    5    0    0 -0.14679375017E+02 -0.51851138471E+01  0.13516526436E+03  0.13605887750E+03  0.00000000000E+00 0.  1.
         14    1    5    5    0    0 -0.10002159776E+02  0.13411546790E+03  0.55710151542E+03  0.57310479008E+03  0.00000000000E+00 0. -1.
         11    1    3    3    0    0  0.75009938218E+02 -0.17490838158E+02 -0.29625839589E+03  0.30610693782E+03  0.00000000000E+00 0. -1.
        -12    1    3    3    0    0  0.12886060257E+03  0.23267490687E+02 -0.99926445535E+03  0.10078074631E+04  0.00000000000E+00 0.  1.
          5    1    4    4  501    0 -0.15075773508E+03 -0.12823980818E+03  0.80526355052E+03  0.82924073784E+03  0.41800000000E+01 0. -1.
         -5    1    4    4    0  501 -0.28431270912E+02 -0.64671983935E+01  0.21508198037E+02  0.36472411540E+02  0.41800000000E+01 0. -1.
</event>
<event>
11    1  0.6763327E-009  0.1453074E+03  0.7561462E-02  0.1101772E+00
         22   -1    0    0    0    0  0.00000000000E+00  0.00000000000E+00  0.12249103690E+04  0.12249103690E+04  0.00000000000E+00 0.  1.
         22   -1    0    0    0    0 -0.00000000000E+00 -0.00000000000E+00 -0.85355804137E+02  0.85355804137E+02  0.00000000000E+00 0. -1.
        -24    2    1    2    0    0  0.53483644678E+02 -0.24459511872E+02 -0.27259470755E+02  0.10461334931E+03  0.82110329060E+02 0.  0.
         25    2    1    2    0    0 -0.11640651864E+03  0.10429107887E+02  0.45320556268E+03  0.48445862358E+03  0.12508250095E+03 0.  0.
         24    2    1    2    0    0  0.62922873959E+02  0.14030403985E+02  0.71360847297E+03  0.72119420029E+03  0.82023664407E+02 0.  0.
        -11    1    5    5    0    0  0.71881552509E+02  0.22872601393E+01  0.68705879855E+03  0.69081255186E+03  0.00000000000E+00 0.  1.
         12    1    5    5    0    0 -0.89586785506E+01  0.11743143846E+02  0.26549674428E+02  0.30381648425E+02  0.00000000000E+00 0. -1.
         11    1    3    3    0    0  0.50338640582E+02 -0.36114011419E+02 -0.49505502762E+02  0.79303186318E+02  0.00000000000E+00 0. -1.
        -12    1    3    3    0    0  0.31450040968E+01  0.11654499547E+02  0.22246032007E+02  0.25310162989E+02  0.00000000000E+00 0.  1.
          5    1    4    4  501    0 -0.22683698015E+02 -0.43342469891E+02  0.24474548891E+03  0.24962160683E+03  0.41800000000E+01 0. -1.
         -5    1    4    4    0  501 -0.93722820623E+02  0.53771577778E+02  0.20846007377E+03  0.23483701676E+03  0.41800000000E+01 0. -1.
</event>
<event>
11    1  0.6763327E-009  0.1280140E+03  0.7561462E-02  0.1121733E+00
         22   -1    0    0    0    0  0.00000000000E+00  0.00000000000E+00  0.10023381313E+04  0.10023381313E+04  0.00000000000E+00 0. -1.
         22   -1    0    0    0    0 -0.00000000000E+00 -0.00000000000E+00 -0.10303636843E+03  0.10303636843E+03  0.00000000000E+00 0. -1.
         24    2    1    2    0    0  0.28937263769E+02  0.72417977108E+00 -0.60845152243E+02  0.10584151832E+03  0.81623555290E+02 0.  0.
         25    2    1    2    0    0 -0.93900505767E+01  0.11887519066E+01  0.20987888463E+03  0.24451479082E+03  0.12509496607E+03 0.  0.
        -24    2    1    2    0    0 -0.19547213193E+02 -0.19129316777E+01  0.75026803052E+03  0.75501819061E+03  0.82247174384E+02 0.  0.
        -13    1    3    3    0    0  0.10852113279E+02  0.38440450305E+02 -0.12369537536E+02  0.41814376010E+02  0.00000000000E+00 0.  1.
         14    1    3    3    0    0  0.18085150490E+02 -0.37716270534E+02 -0.48475614707E+02  0.64027142310E+02  0.00000000000E+00 0. -1.
         11    1    5    5    0    0 -0.51005996107E+01 -0.29967220088E+01  0.73042734816E+03  0.73045130392E+03  0.00000000000E+00 0. -1.
        -12    1    5    5    0    0 -0.14446613582E+02  0.10837903311E+01  0.19840682351E+02  0.24566886690E+02  0.00000000000E+00 0.  1.
          5    1    4    4  501    0 -0.11601108694E+02 -0.46881142627E+02  0.18284584353E+03  0.18916263413E+03  0.41800000000E+01 0.  1.
         -5    1    4    4    0  501  0.22110581175E+01  0.48069894534E+02  0.27033041101E+02  0.55352156685E+02  0.41800000000E+01 0.  1.
</event>
<event>
11    1  0.6763327E-009  0.2130183E+03  0.7561462E-02  0.1045681E+00
         22   -1    0    0    0    0  0.00000000000E+00  0.00000000000E+00  0.23056922480E+04  0.23056922480E+04  0.00000000000E+00 0. -1.
         22   -1    0    0    0    0 -0.00000000000E+00 -0.00000000000E+00 -0.20830802462E+03  0.20830802462E+03  0.00000000000E+00 0. -1.
        -24    2    1    2    0    0  0.52545051166E+02 -0.23422042574E+02 -0.14397101729E+03  0.17447321417E+03  0.80022960224E+02 0.  0.
         25    2    1    2    0    0  0.35020111408E+01  0.18593583707E+03  0.23608117748E+03  0.32552124382E+03  0.12508140641E+03 0.  0.
         24    2    1    2    0    0 -0.56047062306E+02 -0.16251379449E+03  0.20052740632E+04  0.20140058146E+04  0.74453651354E+02 0.  0.
        -11    1    5    5    0    0  0.10718192738E+02  0.88480322452E+00  0.12867858836E+03  0.12912723041E+03  0.00000000000E+00 0.  1.
         12    1    5    5    0    0 -0.66765255044E+02 -0.16339859772E+03  0.18765954748E+04  0.18848785842E+04  0.00000000000E+00 0. -1.
         13    1    3    3    0    0  0.11106338400E+02 -0.75492882998E+01 -0.12581214517E+03  0.12652682869E+03  0.00000000000E+00 0. -1.
        -14    1    3    3    0    0  0.41438712765E+02 -0.15872754274E+02 -0.18158872123E+02  0.47946385480E+02  0.00000000000E+00 0.  1.
          5    1    4    4  501    0 -0.49170398732E+02  0.26199428730E+02  0.58773948096E+02  0.81092462980E+02  0.41800000000E+01 0. -1.
         -5    1    4    4    0  501  0.52672409873E+02  0.15973640834E+03  0.17730722938E+03  0.24442878084E+03  0.41800000000E+01 0. -1.
</event>
<event>
11    1  0.6763327E-009  0.1682517E+03  0.7561462E-02  0.1079563E+00
         22   -1    0    0    0    0  0.00000000000E+00  0.00000000000E+00  0.83041728470E+02  0.83041728470E+02  0.00000000000E+00 0.  1.
         22   -1    0    0    0    0 -0.00000000000E+00 -0.00000000000E+00 -0.15350378285E+04  0.15350378285E+04  0.00000000000E+00 0.  1.
        -24    2    1    2    0    0 -0.10223348582E+03 -0.38466170788E+02 -0.11965883160E+04  0.12042626199E+04  0.80582428719E+02 0.  0.
         25    2    1    2    0    0  0.15044328844E+03  0.14328213937E+00 -0.24312925645E+03  0.31207740014E+03  0.12508902738E+03 0.  0.
         24    2    1    2    0    0 -0.48209802614E+02  0.38322888649E+02 -0.12278527577E+02  0.10173953691E+03  0.80045876028E+02 0.  0.
        -13    1    5    5    0    0  0.11191872154E+02  0.38249559806E+02  0.42549782404E+01  0.40079816210E+02  0.00000000000E+00 0.  1.
         14    1    5    5    0    0 -0.59401674768E+02  0.73328843084E-01 -0.16533505817E+02  0.61659720702E+02  0.00000000000E+00 0. -1.
         13    1    3    3    0    0 -0.62328461934E+02 -0.12934457848E+02 -0.31312049628E+03  0.31952555854E+03  0.00000000000E+00 0. -1.
        -14    1    3    3    0    0 -0.39905023891E+02 -0.25531712940E+02 -0.88346781975E+03  0.88473706141E+03  0.00000000000E+00 0.  1.
          5    1    4    4  501    0 -0.51607396055E+01  0.26257510138E+02 -0.82702674736E+02  0.87024679720E+02  0.41800000000E+01 0.  1.
         -5    1    4    4    0  501  0.15560402804E+03 -0.26114227998E+02 -0.16042658171E+03  0.22505272042E+03  0.41800000000E+01 0.  1.
</event>
<event>
11    1  0.6763327E-009  0.1464468E+03  0.7561462E-02  0.1100566E+00
         22   -1    0    0    0    0  0.00000000000E+00  0.00000000000E+00  0.91281576317E+03  0.91281576317E+03  0.00000000000E+00 0. -1.
         22   -1    0    0    0    0 -0.00000000000E+00 -0.00000000000E+00 -0.14678095986E+03  0.14678095986E+03  0.00000000000E+00 0. -1.
         24    2    1    2    0    0  0.14077548904E+02  0.75801103385E+02 -0.10265601208E+03  0.15142191704E+03  0.80289199070E+02 0.  0.
         25    2    1    2    0    0  0.36352156478E+02 -0.69278689749E+02  0.33985773681E+03  0.37050106837E+03  0.12508694681E+03 0.  0.
        -24    2    1    2    0    0 -0.50429705382E+02 -0.65224136361E+01  0.52883307858E+03  0.53767373762E+03  0.82721980515E+02 0.  0.
        -11    1    3    3    0    0  0.18502264534E+02  0.11219499112E+02  0.81259496391E+01  0.23113675838E+02  0.00000000000E+00 0.  1.
         12    1    3    3    0    0 -0.44247156298E+01  0.64581604274E+02 -0.11078196172E+03  0.12830824121E+03  0.00000000000E+00 0. -1.
         13    1    5    5    0    0 -0.22022805256E+02  0.11577251084E+02  0.46351454536E+03  0.46418182909E+03  0.00000000000E+00 0. -1.
        -14    1    5    5    0    0 -0.28406900126E+02 -0.18099664720E+02  0.65318533221E+02  0.73491908533E+02  0.00000000000E+00 0.  1.
          5    1    4    4  501    0  0.14257681015E+02 -0.69628462755E+02  0.34063767859E+03  0.34799842639E+03  0.41800000000E+01 0.  1.
         -5    1    4    4    0  501  0.22094475463E+02  0.34977300600E+00 -0.77994177860E+00  0.22502641985E+02  0.41800000000E+01 0.  1.
</event>
<event>
11    1  0.6763327E-009  0.1284910E+03  0.7561462E-02  0.1121137E+00
         22   -1    0    0    0    0  0.00000000000E+00  0.00000000000E+00  0.94745917367E+03  0.94745917367E+03  0.00000000000E+00 0. -1.
         22   -1    0    0    0    0 -0.00000000000E+00 -0.00000000000E+00 -0.26318990613E+03  0.26318990613E+03  0.00000000000E+00 0. -1.
         24    2    1    2    0    0  0.24422119707E+02 -0.28835876442E+02 -0.23978319165E+03  0.25546082627E+03  0.79600923746E+02 0.  0.
         25    2    1    2    0    0 -0.13644570479E+02  0.50340168768E+02  0.38821438479E+03  0.41118959400E+03  0.12508463839E+03 0.  0.
        -24    2    1    2    0    0 -0.10777549228E+02 -0.21504292326E+02  0.53583807440E+03  0.54399865953E+03  0.90738687666E+02 0.  0.
        -13    1    3    3    0    0 -0.11028982096E+02 -0.22901794404E+02 -0.18908757197E+02  0.31680778584E+02  0.00000000000E+00 0.  1.
         14    1    3    3    0    0  0.35451101803E+02 -0.59340820379E+01 -0.22087443445E+03  0.22378004769E+03  0.00000000000E+00 0. -1.
         13    1    5    5    0    0  0.41708875199E+01 -0.55644866371E+02  0.28557420142E+03  0.29097486484E+03  0.00000000000E+00 0. -1.
        -14    1    5    5    0    0 -0.14948436748E+02  0.34140574045E+02  0.25026387298E+03  0.25302379469E+03  0.00000000000E+00 0.  1.
          5    1    4    4  501    0 -0.28421173542E+02  0.82313385700E+02  0.18030579635E+03  0.20027708099E+03  0.41800000000E+01 0. -1.
         -5    1    4    4    0  501  0.14776603063E+02 -0.31973216932E+02  0.20790858844E+03  0.21091251301E+03  0.41800000000E+01 0. -1.
</event>
<event>
11    1  0.6763327E-009  0.1518007E+03  0.7561462E-02  0.1095053E+00
         22   -1    0    0    0    0  0.00000000000E+00  0.00000000000E+00  0.54912443204E+03  0.54912443204E+03  0.00000000000E+00 0. -1.
         22   -1    0    0    0    0 -0.00000000000E+00 -0.00000000000E+00 -0.32534810707E+03  0.32534810707E+03  0.00000000000E+00 0.  1.
        -24    2    1    2    0    0 -0.77923160737E+02  0.29293600982E+02 -0.24511034787E+03  0.27094576112E+03  0.80014928591E+02 0.  0.
         25    2    1    2    0    0  0.86389575149E+02 -0.87038825392E+02  0.65436327523E+02  0.18699783324E+03  0.12508941145E+03 0.  0.
         24    2    1    2    0    0 -0.84664144120E+01  0.57745224410E+02  0.40345034532E+03  0.41652894476E+03  0.85545248672E+02 0.  0.
        -11    1    5    5    0    0 -0.36265798034E+02  0.10456427211E+02  0.79955260092E+02  0.88415997385E+02  0.00000000000E+00 0.  1.
         12    1    5    5    0    0  0.27799383622E+02  0.47288797199E+02  0.32349508523E+03  0.32811294738E+03  0.00000000000E+00 0. -1.
         13    1    3    3    0    0 -0.64619565677E+02  0.42606847634E+02 -0.10983844042E+03  0.13437081055E+03  0.00000000000E+00 0. -1.
        -14    1    3    3    0    0 -0.13303595060E+02 -0.13313246652E+02 -0.13527190745E+03  0.13657495057E+03  0.00000000000E+00 0.  1.
          5    1    4    4  501    0  0.80717084284E+02 -0.31814676250E+02  0.90944090967E+02  0.12576057173E+03  0.41800000000E+01 0.  1.
         -5    1    4    4    0  501  0.56724908654E+01 -0.55224149142E+02 -0.25507763444E+02  0.61237261508E+02  0.41800000000E+01 0.  1.
</event>
<event>
11    1  0.6763327E-009  0.1363396E+03  0.7561462E-02  0.1111716E+00
         22   -1    0    0    0    0  0.00000000000E+00  0.00000000000E+00  0.37953929418E+03  0.37953929418E+03  0.00000000000E+00 0. -1.
         22   -1    0    0    0    0 -0.00000000000E+00 -0.00000000000E+00 -0.12294207380E+03  0.12294207380E+03  0.00000000000E+00 0. -1.
         24    2    1    2    0    0 -0.22721825907E+02 -0.50744871592E+02 -0.52496354098E+02  0.11112361012E+03  0.80630429540E+02 0.  0.
         25    2    1    2    0    0 -0.27750170089E+02  0.57084702413E+02  0.21681831513E+03  0.25823660932E+03  0.12508888611E+03 0.  0.
        -24    2    1    2    0    0  0.50471995996E+02 -0.63398308210E+01  0.92275259344E+02  0.13312114853E+03  0.81356627665E+02 0.  0.
        -11    1    3    3    0    0 -0.73368672011E+01 -0.20163371432E+02  0.21013978665E+02  0.30032956351E+02  0.00000000000E+00 0.  1.
         12    1    3    3    0    0 -0.15384958706E+02 -0.30581500160E+02 -0.73510332763E+02  0.81090653773E+02  0.00000000000E+00 0. -1.
         11    1    5    5    0    0  0.40685193861E+01  0.15716561243E+02  0.78174789609E+02  0.79842725891E+02  0.00000000000E+00 0. -1.
        -12    1    5    5    0    0  0.46403476610E+02 -0.22056392064E+02  0.14100469734E+02  0.53278422641E+02  0.00000000000E+00 0.  1.
          5    1    4    4  501    0  0.16834631273E+02 -0.62995676914E+01  0.16241536949E+03  0.16346043561E+03  0.41800000000E+01 0. -1.
         -5    1    4    4    0  501 -0.44584801362E+02  0.63384270104E+02  0.54402945642E+02  0.94776173713E+02  0.41800000000E+01 0. -1.
</event>
<event>
11    1  0.6763327E-009  0.1462728E+03  0.7561462E-02  0.1100749E+00
         22   -1    0    0    0    0  0.00000000000E+00  0.00000000000E+00  0.77261192976E+03  0.77261192976E+03  0.00000000000E+00 0. -1.
         22   -1    0    0    0    0 -0.00000000000E+00 -0.00000000000E+00 -0.64557559964E+02  0.64557559964E+02  0.00000000000E+00 0. -1.
         24    2    1    2    0    0 -0.53158023314E+02 -0.58745127576E+01  0.42728378079E+02  0.10661967931E+03  0.81742011102E+02 0.  0.
         25    2    1    2    0    0 -0.34374351030E+02 -0.14062710425E+02  0.15304208932E+03  0.20111732337E+03  0.12508773251E+03 0.  0.
        -24    2    1    2    0    0  0.87532374344E+02  0.19937223183E+02  0.51228390240E+03  0.52943248705E+03  0.99017939068E+02 0.  0.
        -11    1    3    3    0    0 -0.73068957621E+02 -0.78394788195E+01  0.45480825226E+02  0.86423581615E+02  0.00000000000E+00 0.  1.
         12    1    3    3    0    0  0.19910934307E+02  0.19649660619E+01 -0.27524471470E+01  0.20196097690E+02  0.00000000000E+00 0. -1.
         11    1    5    5    0    0  0.81283310762E+02 -0.25866366032E+02  0.37482668689E+03  0.38441005542E+03  0.00000000000E+00 0. -1.
        -12    1    5    5    0    0  0.62490635822E+01  0.45803589215E+02  0.13745721551E+03  0.14502243163E+03  0.00000000000E+00 0.  1.
          5    1    4    4  501    0  0.79778461272E+01 -0.63795604263E+02  0.85554511452E+02  0.10710075622E+03  0.41800000000E+01 0.  1.
         -5    1    4    4    0  501 -0.42352197157E+02  0.49732893838E+02  0.67487577867E+02  0.94016567157E+02  0.41800000000E+01 0.  1.
</event>
<event>
11    1  0.6763327E-009  0.1433237E+03  0.7561462E-02  0.1103903E+00
         22   -1    0    0    0    0  0.00000000000E+00  0.00000000000E+00  0.15292764994E+04  0.15292764994E+04  0.00000000000E+00 0. -1.
         22   -1    0    0    0    0 -0.00000000000E+00 -0.00000000000E+00 -0.15308195786E+03  0.15308195786E+03  0.00000000000E+00 0.  1.
         24    2    1    2    0    0 -0.27174968493E+02 -0.31303193159E+02 -0.12493056412E+03  0.15450199516E+03  0.80900258613E+02 0.  0.
         25    2    1    2    0    0  0.63166444431E+02  0.80861528775E+02  0.60993463168E+03  0.63102738410E+03  0.12508684195E+03 0.  0.
        -24    2    1    2    0    0 -0.35991475938E+02 -0.49558335616E+02  0.89119047401E+03  0.89682907803E+03  0.79564560394E+02 0.  0.
        -11    1    3    3    0    0 -0.63594325724E+00 -0.37387938884E+02 -0.12142173265E+03  0.12704920133E+03  0.00000000000E+00 0.  1.
         12    1    3    3    0    0 -0.26539025236E+02  0.60847457254E+01 -0.35088314652E+01  0.27452793834E+02  0.00000000000E+00 0. -1.
         13    1    5    5    0    0 -0.41927162735E+02 -0.41724305460E+02  0.87979196668E+03  0.88177815196E+03  0.00000000000E+00 0. -1.
        -14    1    5    5    0    0  0.59356867972E+01 -0.78340301557E+01  0.11398507324E+02  0.15050926066E+02  0.00000000000E+00 0.  1.
          5    1    4    4  501    0 -0.25038683439E+02  0.54323588875E+02  0.35282824081E+03  0.35788717201E+03  0.41800000000E+01 0. -1.
         -5    1    4    4    0  501  0.88205127870E+02  0.26537939900E+02  0.25710639086E+03  0.27314021209E+03  0.41800000000E+01 0. -1.
</event>
<event>
11    1  0.6763327E-009  0.2131259E+03  0.7561462E-02  0.1045611E+00
         22   -1    0    0    0    0  0.00000000000E+00  0.00000000000E+00  0.44608309271E+03  0.44608309271E+03  0.00000000000E+00 0. -1.
         22   -1    0    0    0    0 -0.00000000000E+00 -0.00000000000E+00 -0.28667536747E+03  0.28667536747E+03  0.00000000000E+00 0.  1.
         24    2    1    2    0    0  0.77147554719E+02 -0.17183057234E+02 -0.15539483197E+03  0.19218966812E+03  0.80884560172E+02 0.  0.
         25    2    1    2    0    0  0.14581126253E+03  0.66270052314E+01  0.19694273309E+03  0.27520589338E+03  0.12508797765E+03 0.  0.
        -24    2    1    2    0    0 -0.22295881725E+03  0.10556052003E+02  0.11785982412E+03  0.26536289868E+03  0.81880800136E+02 0.  0.
        -11    1    3    3    0    0  0.61101122654E+02 -0.38805009322E+02 -0.14721795539E+03  0.16404969469E+03  0.00000000000E+00 0.  1.
         12    1    3    3    0    0  0.16046432064E+02  0.21621952087E+02 -0.81768765775E+01  0.28139973430E+02  0.00000000000E+00 0. -1.
         13    1    5    5    0    0 -0.16439030688E+03  0.43766053610E+02  0.90458829908E+02  0.19267184629E+03  0.00000000000E+00 0. -1.
        -14    1    5    5    0    0 -0.58568510373E+02 -0.33210001607E+02  0.27400994214E+02  0.72691052393E+02  0.00000000000E+00 0.  1.
          5    1    4    4  501    0  0.24699508258E+02 -0.39788186995E+02  0.10826019479E+03  0.11802926632E+03  0.41800000000E+01 0.  1.
         -5    1    4    4    0  501  0.12111175428E+03  0.46415192226E+02  0.88682538302E+02  0.15717662706E+03  0.41800000000E+01 0.  1.
</event>
<event>
11    1  0.6763327E-009  0.1314799E+03  0.7561462E-02  0.1117464E+00
         22   -1    0    0    0    0  0.00000000000E+00  0.00000000000E+00  0.12809811948E+03  0.12809811948E+03  0.00000000000E+00 0.  1.
         22   -1    0    0    0    0 -0.00000000000E+00 -0.00000000000E+00 -0.96299166800E+03  0.96299166800E+03  0.00000000000E+00 0.  1.
         24    2    1    2    0    0  0.15361955241E+02  0.37279938545E+02 -0.85657280151E+03  0.86171972578E+03  0.84959625886E+02 0.  0.
         25    2    1    2    0    0 -0.13717527173E+02 -0.45090969219E+02  0.51348305783E+02  0.14319722316E+03  0.12508968845E+03 0.  0.
        -24    2    1    2    0    0 -0.16444280687E+01  0.78110306736E+01 -0.29669052792E+02  0.86172838546E+02  0.80509558846E+02 0.  0.
        -11    1    3    3    0    0  0.32482169208E+02  0.41425429570E+02 -0.81326055298E+03  0.81496250501E+03  0.00000000000E+00 0.  1.
         12    1    3    3    0    0 -0.17120213967E+02 -0.41454910246E+01 -0.43312248523E+02  0.46757220771E+02  0.00000000000E+00 0. -1.
         13    1    5    5    0    0 -0.98209100146E+01  0.35011742377E+02 -0.41699161698E+02  0.55327140393E+02  0.00000000000E+00 0. -1.
        -14    1    5    5    0    0  0.81764819459E+01 -0.27200711703E+02  0.12030108906E+02  0.30845698152E+02  0.00000000000E+00 0.  1.
          5    1    4    4  501    0 -0.52891391139E+02 -0.15771267151E+02  0.71237336768E+02  0.90213428456E+02  0.41800000000E+01 0.  1.
         -5    1    4    4    0  501  0.39173863966E+02 -0.29319702068E+02 -0.19889030985E+02  0.52983794701E+02  0.41800000000E+01 0.  1.
</event>
<event>
11    1  0.6763327E-009  0.1287968E+03  0.7561462E-02  0.1120756E+00
         22   -1    0    0    0    0  0.00000000000E+00  0.00000000000E+00  0.24523434630E+04  0.24523434630E+04  0.00000000000E+00 0. -1.
         22   -1    0    0    0    0 -0.00000000000E+00 -0.00000000000E+00 -0.36018361927E+03  0.36018361927E+03  0.00000000000E+00 0. -1.
         24    2    1    2    0    0 -0.34648050903E+02  0.12034193852E+02 -0.32263027804E+03  0.33422429902E+03  0.79185077492E+02 0.  0.
         25    2    1    2    0    0  0.30388906067E+01 -0.85825835861E+01  0.97092849744E+02  0.15861131564E+03  0.12509049676E+03 0.  0.
        -24    2    1    2    0    0  0.31609160296E+02 -0.34516102656E+01  0.23176972721E+04  0.23196914676E+04  0.90756859231E+02 0.  0.
        -11    1    3    3    0    0 -0.28583271915E+02  0.13470280880E+02 -0.37550448485E+02  0.49076349516E+02  0.00000000000E+00 0.  1.
         12    1    3    3    0    0 -0.60647789877E+01 -0.14360870282E+01 -0.28507982955E+03  0.28514794951E+03  0.00000000000E+00 0. -1.
         11    1    5    5    0    0  0.30020852542E+02  0.52363098022E+01  0.22968296497E+04  0.22970318044E+04  0.00000000000E+00 0. -1.
        -12    1    5    5    0    0  0.15883077547E+01 -0.86879200678E+01  0.20867622336E+02  0.22659663249E+02  0.00000000000E+00 0.  1.
          5    1    4    4  501    0  0.53475624092E+02  0.47616111140E+01  0.91239877476E+02  0.10594575477E+03  0.41800000000E+01 0. -1.
         -5    1    4    4    0  501 -0.50436733486E+02 -0.13344194700E+02  0.58529722682E+01  0.52665560865E+02  0.41800000000E+01 0. -1.
</event>
<event>
11    1  0.6763327E-009  0.1390555E+03  0.7561462E-02  0.1108618E+00
         22   -1    0    0    0    0  0.00000000000E+00  0.00000000000E+00  0.68389433992E+03  0.68389433992E+03  0.00000000000E+00 0. -1.
         22   -1    0    0    0    0 -0.00000000000E+00 -0.00000000000E+00 -0.65119699296E+03  0.65119699296E+03  0.00000000000E+00 0.  1.
         24    2    1    2    0    0 -0.30525559635E+02 -0.53994794689E+02 -0.54829992769E+03  0.55790171636E+03  0.82305933966E+02 0.  0.
         25    2    1    2    0    0  0.18955958620E+02  0.44568468910E+02 -0.48204103968E+02  0.14253381082E+03  0.12508626943E+03 0.  0.
        -24    2    1    2    0    0  0.11569601015E+02  0.94263257797E+01  0.62920137862E+03  0.63465580570E+03  0.81675611789E+02 0.  0.
        -11    1    3    3    0    0 -0.17698815140E+02 -0.29439292435E+02 -0.50704970994E+03  0.50821189316E+03  0.00000000000E+00 0.  1.
         12    1    3    3    0    0 -0.12826744495E+02 -0.24555502254E+02 -0.41250217751E+02  0.49689823201E+02  0.00000000000E+00 0. -1.
         13    1    5    5    0    0  0.15929366302E+02  0.44461183331E+01  0.62763658517E+03  0.62785443833E+03  0.00000000000E+00 0. -1.
        -14    1    5    5    0    0 -0.43597652872E+01  0.49802074466E+01  0.15647934479E+01  0.68013673703E+01  0.00000000000E+00 0.  1.
          5    1    4    4  501    0 -0.91599242037E+01  0.73778576128E+02  0.60135960804E+01  0.74704874304E+02  0.41800000000E+01 0. -1.
         -5    1    4    4    0  501  0.28115882824E+02 -0.29210107218E+02 -0.54217700048E+02  0.67828936518E+02  0.41800000000E+01 0. -1.
</event>
<event>
11    1  0.6763327E-009  0.1374645E+03  0.7561462E-02  0.1110423E+00
         22   -1    0    0    0    0  0.00000000000E+00  0.00000000000E+00  0.19707183229E+04  0.19707183229E+04  0.00000000000E+00 0.  1.
         22   -1    0    0    0    0 -0.00000000000E+00 -0.00000000000E+00 -0.70180061508E+03  0.70180061508E+03  0.00000000000E+00 0. -1.
        -24    2    1    2    0    0  0.45813207889E+02  0.12917994825E+02 -0.65509481525E+03  0.66177620656E+03  0.80825775541E+02 0.  0.
         25    2    1    2    0    0 -0.18615907379E+02 -0.63350727830E+02  0.76911032076E+02  0.16100484395E+03  0.12508951273E+03 0.  0.
         24    2    1    2    0    0 -0.27197300510E+02  0.50432733005E+02  0.18471014910E+04  0.18497378875E+04  0.80393909068E+02 0.  0.
        -11    1    5    5    0    0 -0.12856537769E+01  0.78299909458E+01  0.13727162661E+04  0.13727391992E+04  0.00000000000E+00 0.  1.
         12    1    5    5    0    0 -0.25911646734E+02  0.42602742060E+02  0.47438522491E+03  0.47699868834E+03  0.00000000000E+00 0. -1.
         11    1    3    3    0    0  0.23170001629E+02  0.47017241926E+02 -0.39964198680E+03  0.40306474372E+03  0.00000000000E+00 0. -1.
        -12    1    3    3    0    0  0.22643206260E+02 -0.34099247101E+02 -0.25545282845E+03  0.25871146284E+03  0.00000000000E+00 0.  1.
          5    1    4    4  501    0 -0.31228031803E+01 -0.48329555648E+02 -0.26444484771E+02  0.55337880549E+02  0.41800000000E+01 0. -1.
         -5    1    4    4    0  501 -0.15493104198E+02 -0.15021172182E+02  0.10335551685E+03  0.10566696340E+03  0.41800000000E+01 0. -1.
</event>
<event>
11    1  0.6763327E-009  0.1335414E+03  0.7561462E-02  0.1114993E+00
         22   -1    0    0    0    0  0.00000000000E+00  0.00000000000E+00  0.63236699412E+03  0.63236699412E+03  0.00000000000E+00 0. -1.
         22   -1    0    0    0    0 -0.00000000000E+00 -0.00000000000E+00 -0.12204415217E+04  0.12204415217E+04  0.00000000000E+00 0. -1.
        -24    2    1    2    0    0  0.40857023900E+02  0.29240286865E+02 -0.10055011275E+04  0.10098671682E+04  0.79214197977E+02 0.  0.
         25    2    1    2    0    0 -0.23877149791E+02  0.95295160103E+01 -0.19049984620E+03  0.22937074202E+03  0.12513918626E+03 0.  0.
         24    2    1    2    0    0 -0.16979874109E+02 -0.38769802876E+02  0.60792644614E+03  0.61357060562E+03  0.71434658378E+02 0.  0.
        -11    1    5    5    0    0 -0.13460164465E+02  0.11410369693E+02  0.44021291906E+02  0.47426223811E+02  0.00000000000E+00 0.  1.
         12    1    5    5    0    0 -0.35197096447E+01 -0.50180172569E+02  0.56390515424E+03  0.56614438180E+03  0.00000000000E+00 0. -1.
         11    1    3    3    0    0  0.24659904065E+02 -0.15098455431E+01 -0.85689104863E+03  0.85724714040E+03  0.00000000000E+00 0. -1.
        -12    1    3    3    0    0  0.16197119836E+02  0.30750132409E+02 -0.14861007889E+03  0.15262002779E+03  0.00000000000E+00 0.  1.
          5    1    4    4  501    0 -0.21312637014E+02 -0.25663004814E+02 -0.19089810325E+03  0.19383595264E+03  0.41800000000E+01 0. -1.
         -5    1    4    4    0  501 -0.25645127771E+01  0.35192520824E+02  0.39825704943E+00  0.35534789382E+02  0.41800000000E+01 0. -1.
</event>
<event>
11    1  0.6763327E-009  0.1669611E+03  0.7561462E-02  0.1080707E+00
         22   -1    0    0    0    0  0.00000000000E+00  0.00000000000E+00  0.25556828027E+03  0.25556828027E+03  0.00000000000E+00 0. -1.
         22   -1    0    0    0    0 -0.00000000000E+00 -0.00000000000E+00 -0.59697159818E+03  0.59697159818E+03  0.00000000000E+00 0. -1.
         24    2    1    2    0    0 -0.56429704834E+02 -0.46014736019E+02 -0.45368528593E+03  0.46929835471E+03  0.95440764596E+02 0.  0.
         25    2    1    2    0    0 -0.33213355859E+02  0.11482491741E+03 -0.39706214429E+02  0.17751556941E+03  0.12508918920E+03 0.  0.
        -24    2    1    2    0    0  0.89643060694E+02 -0.68810181391E+02  0.15198818245E+03  0.20572595433E+03  0.80324599513E+02 0.  0.
        -13    1    3    3    0    0 -0.43067040818E+02 -0.37688219181E+02 -0.99658679648E+02  0.11492181820E+03  0.00000000000E+00 0.  1.
         14    1    3    3    0    0 -0.13362664017E+02 -0.83265168386E+01 -0.35402660628E+03  0.35437653651E+03  0.00000000000E+00 0. -1.
         13    1    5    5    0    0  0.40767546066E+02 -0.60422452413E+02  0.13479464458E+03  0.15323988311E+03  0.00000000000E+00 0. -1.
        -14    1    5    5    0    0  0.48875514628E+02 -0.83877289773E+01  0.17193537868E+02  0.52486071218E+02  0.00000000000E+00 0.  1.
          5    1    4    4  501    0 -0.69568994681E+02  0.64427912677E+02  0.13162168404E+02  0.95820227666E+02  0.41800000000E+01 0. -1.
         -5    1    4    4    0  501  0.36355638822E+02  0.50397004733E+02 -0.52868382832E+02  0.81695341749E+02  0.41800000000E+01 0. -1.
</event>
<event>
11    1  0.6763327E-009  0.2030611E+03  0.7561462E-02  0.1052380E+00
         22   -1    0    0    0    0  0.00000000000E+00  0.00000000000E+00  0.92578056978E+03  0.92578056978E+03  0.00000000000E+00 0. -1.
         22   -1    0    0    0    0 -0.00000000000E+00 -0.00000000000E+00 -0.87914857818E+02  0.87914857818E+02  0.00000000000E+00 0.  1.
         24    2    1    2    0    0  0.57545990883E+02 -0.25623665169E+02  0.17007528332E+02  0.10284144330E+03  0.79492094935E+02 0.  0.
         25    2    1    2    0    0  0.13399217922E+03  0.27012495232E+02  0.41627148488E+03  0.45564733180E+03  0.12509581472E+03 0.  0.
        -24    2    1    2    0    0 -0.19153817010E+03 -0.13888300627E+01  0.40458669875E+03  0.45520665250E+03  0.82667407225E+02 0.  0.
        -11    1    3    3    0    0 -0.72871344682E+01  0.18564640107E+02  0.13919704414E+02  0.24320903808E+02  0.00000000000E+00 0.  1.
         12    1    3    3    0    0  0.64833125352E+02 -0.44188305276E+02  0.30878239174E+01  0.78520539495E+02  0.00000000000E+00 0. -1.
         11    1    5    5    0    0 -0.98306867786E+02 -0.18116045536E+02  0.28881031855E+03  0.30562040419E+03  0.00000000000E+00 0. -1.
        -12    1    5    5    0    0 -0.93231302315E+02  0.16727215473E+02  0.11577638020E+03  0.14958624831E+03  0.00000000000E+00 0.  1.
          5    1    4    4  501    0  0.96245134062E+01  0.48546712512E+02  0.19141687211E+03  0.19775567218E+03  0.41800000000E+01 0.  1.
         -5    1    4    4    0  501  0.12436766581E+03 -0.21534217279E+02  0.22485461278E+03  0.25789165962E+03  0.41800000000E+01 0.  1.
</event>
<event>
11    1  0.6763327E-009  0.1856486E+03  0.7561462E-02  0.1065163E+00
         22   -1    0    0    0    0  0.00000000000E+00  0.00000000000E+00  0.10108290895E+04  0.10108290895E+04  0.00000000000E+00 0. -1.
         22   -1    0    0    0    0 -0.00000000000E+00 -0.00000000000E+00 -0.26486443104E+03  0.26486443104E+03  0.00000000000E+00 0. -1.
        -24    2    1    2    0    0  0.30232668279E+02  0.13376815760E+03 -0.16624887171E+03  0.22536610324E+03  0.65903406030E+02 0.  0.
         25    2    1    2    0    0 -0.68623404994E+02 -0.12422036270E+03  0.66906642453E+02  0.20066084135E+03  0.12509358186E+03 0.  0.
         24    2    1    2    0    0  0.38390736716E+02 -0.95477949003E+01  0.84530688775E+03  0.84966657599E+03  0.76318718704E+02 0.  0.
        -11    1    5    5    0    0  0.52142343386E+02  0.18004474649E+02  0.53770992625E+03  0.54053209883E+03  0.00000000000E+00 0.  1.
         12    1    5    5    0    0 -0.13751606670E+02 -0.27552269549E+02  0.30759696150E+03  0.30913447716E+03  0.00000000000E+00 0. -1.
         11    1    3    3    0    0  0.48413923777E+02  0.81429470091E+02 -0.12197704949E+03  0.15444438228E+03  0.00000000000E+00 0. -1.
        -12    1    3    3    0    0 -0.18181255498E+02  0.52338687510E+02 -0.44271822213E+02  0.70921720959E+02  0.00000000000E+00 0.  1.
          5    1    4    4  501    0 -0.10103730442E+03 -0.62204576013E+02  0.36113609931E+02  0.12409517067E+03  0.41800000000E+01 0.  1.
         -5    1    4    4    0  501  0.32413899425E+02 -0.62015786688E+02  0.30793032522E+02  0.76565670678E+02  0.41800000000E+01 0.  1.
</event>
<event>
11    1  0.6763327E-009  0.1446087E+03  0.7561462E-02  0.1102518E+00
         22   -1    0    0    0    0  0.00000000000E+00  0.00000000000E+00  0.33519746486E+03  0.33519746486E+03  0.00000000000E+00 0.  1.
         22   -1    0    0    0    0 -0.00000000000E+00 -0.00000000000E+00 -0.11777085373E+04  0.11777085373E+04  0.00000000000E+00 0. -1.
         24    2    1    2    0    0  0.18254805257E+00 -0.21179598444E+02 -0.93912940636E+03  0.94289684017E+03  0.81497242959E+02 0.  0.
         25    2    1    2    0    0 -0.61892005631E+02 -0.17784891013E+02 -0.20554408500E+03  0.24908732255E+03  0.12509676522E+03 0.  0.
        -24    2    1    2    0    0  0.61709457578E+02  0.38964489458E+02  0.30216241894E+03  0.32092183941E+03  0.79764722762E+02 0.  0.
        -11    1    3    3    0    0 -0.32093225800E+02 -0.29463264750E+02 -0.33095002865E+03  0.33380530339E+03  0.00000000000E+00 0.  1.
         12    1    3    3    0    0  0.32275773852E+02  0.82836663056E+01 -0.60817937771E+03  0.60909153678E+03  0.00000000000E+00 0. -1.
         13    1    5    5    0    0  0.63568643816E+02  0.17574755556E+02  0.11530378740E+03  0.13283376039E+03  0.00000000000E+00 0. -1.
        -14    1    5    5    0    0 -0.18591862378E+01  0.21389733901E+02  0.18685863154E+03  0.18808807903E+03  0.00000000000E+00 0.  1.
          5    1    4    4  501    0 -0.30326856093E+02 -0.70191616367E+02 -0.13827233155E+03  0.15806103656E+03  0.41800000000E+01 0. -1.
         -5    1    4    4    0  501 -0.31565149538E+02  0.52406725353E+02 -0.67271753455E+02  0.91026285986E+02  0.41800000000E+01 0. -1.
</event>
<event>
11    1  0.6763327E-009  0.1329757E+03  0.7561462E-02  0.1115666E+00
         22   -1    0    0    0    0  0.00000000000E+00  0.00000000000E+00  0.86594923510E+03  0.86594923510E+03  0.00000000000E+00 0.  1.
         22   -1    0    0    0    0 -0.00000000000E+00 -0.00000000000E+00 -0.14223281507E+03  0.14223281507E+03  0.00000000000E+00 0.  1.
         24    2    1    2    0    0  0.28360028507E+02  0.37819581458E+02 -0.70682066077E+02  0.11758545053E+03  0.81214356816E+02 0.  0.
         25    2    1    2    0    0 -0.35515862380E+02 -0.18075111402E+02  0.48188534826E+02  0.13984877993E+03  0.12508980864E+03 0.  0.
        -24    2    1    2    0    0  0.71558338739E+01 -0.19744470056E+02  0.74620995128E+03  0.75074781970E+03  0.79699105009E+02 0.  0.
        -13    1    3    3    0    0  0.47085006509E+01  0.29415388164E+01 -0.75016832021E+02  0.75221989574E+02  0.00000000000E+00 0.  1.
         14    1    3    3    0    0  0.23651527856E+02  0.34878042642E+02  0.43347659445E+01  0.42363460957E+02  0.00000000000E+00 0. -1.
         11    1    5    5    0    0 -0.27071086839E+02 -0.54359844448E+00  0.10835864762E+03  0.11169035660E+03  0.00000000000E+00 0. -1.
        -12    1    5    5    0    0  0.34226920713E+02 -0.19200871612E+02  0.63785130366E+03  0.63905746311E+03  0.00000000000E+00 0.  1.
          5    1    4    4  501    0 -0.71940251930E+02 -0.41520228553E+02  0.13628614200E+02  0.84276572972E+02  0.41800000000E+01 0. -1.
         -5    1    4    4    0  501  0.36424389550E+02  0.23445117150E+02  0.34559920626E+02  0.55572206956E+02  0.41800000000E+01 0. -1.
</event>
<event>
11    1  0.6763327E-009  0.1633196E+03  0.7561462E-02  0.1083996E+00
         22   -1    0    0    0    0  0.00000000000E+00  0.00000000000E+00  0.58611739978E+03  0.58611739978E+03  0.00000000000E+00 0.  1.
         22   -1    0    0    0    0 -0.00000000000E+00 -0.00000000000E+00 -0.29814363211E+03  0.29814363211E+03  0.00000000000E+00 0. -1.
        -24    2    1    2    0    0  0.80721359494E+02 -0.65170104569E+02 -0.23214203277E+03  0.26615542096E+03  0.78649248696E+02 0.  0.
         25    2    1    2    0    0 -0.39158633010E+02  0.14507171314E+03  0.21896600712E+03  0.29355336341E+03  0.12509302300E+03 0.  0.
         24    2    1    2    0    0 -0.41562726484E+02 -0.79901608569E+02  0.30114979332E+03  0.32455224751E+03  0.80816063157E+02 0.  0.
        -11    1    5    5    0    0 -0.53588802805E+02 -0.89130961475E+02  0.24025108317E+03  0.26179509362E+03  0.00000000000E+00 0.  1.
         12    1    5    5    0    0  0.12026076321E+02  0.92293529052E+01  0.60898710151E+02  0.62757153893E+02  0.00000000000E+00 0. -1.
         13    1    3    3    0    0  0.83849391038E+02 -0.21970047410E+02 -0.16153316702E+03  0.18332039550E+03  0.00000000000E+00 0. -1.
        -14    1    3    3    0    0 -0.31280315439E+01 -0.43200057158E+02 -0.70608865751E+02  0.82835025457E+02  0.00000000000E+00 0.  1.
          5    1    4    4  501    0 -0.60904912242E+02  0.14230014655E+02  0.75324481042E+02  0.97995670805E+02  0.41800000000E+01 0.  1.
         -5    1    4    4    0  501  0.21746279231E+02  0.13084169848E+03  0.14364152608E+03  0.19555769260E+03  0.41800000000E+01 0.  1.
</event>
<event>
11    1  0.6763327E-009  0.3807673E+03  0.7561462E-02  0.9708274E-01
         22   -1    0    0    0    0  0.00000000000E+00  0.00000000000E+00  0.24334212225E+04  0.24334212225E+04  0.00000000000E+00 0.  1.
         22   -1    0    0    0    0 -0.00000000000E+00 -0.00000000000E+00 -0.18063474534E+04  0.18063474534E+04  0.00000000000E+00 0. -1.
        -24    2    1    2    0    0  0.31167428201E+02  0.24624059403E+02 -0.10185720363E+04  0.10225465548E+04  0.80837557815E+02 0.  0.
         25    2    1    2    0    0  0.15117519530E+03 -0.33448993303E+03 -0.72289141308E+03  0.82033942500E+03  0.12508925669E+03 0.  0.
         24    2    1    2    0    0 -0.18234262350E+03  0.30986587362E+03  0.23685372184E+04  0.23968826960E+04  0.76239172595E+02 0.  0.
        -13    1    5    5    0    0 -0.12712029361E+03  0.19470209498E+03  0.12877284436E+04  0.13085537893E+04  0.00000000000E+00 0.  1.
         14    1    5    5    0    0 -0.55222329891E+02  0.11516377864E+03  0.10808087748E+04  0.10883289068E+04  0.00000000000E+00 0. -1.
         11    1    3    3    0    0  0.57247467488E+02  0.24775034193E+02 -0.79894289413E+03  0.80137433383E+03  0.00000000000E+00 0. -1.
        -12    1    3    3    0    0 -0.26080039287E+02 -0.15097478975E+00 -0.21962914218E+03  0.22117222099E+03  0.00000000000E+00 0.  1.
          5    1    4    4  501    0  0.16736582352E+03 -0.32839203199E+03 -0.70203536407E+03  0.79292103665E+03  0.41800000000E+01 0.  1.
         -5    1    4    4    0  501 -0.16190628228E+02 -0.60979010357E+01 -0.20856049010E+02  0.27418388351E+02  0.41800000000E+01 0.  1.
</event>
<event>
11    1  0.1009650E-008  0.1626344E+03  0.7561462E-02  0.1084625E+00
         22   -1    0    0    0    0  0.00000000000E+00  0.00000000000E+00  0.63036048851E+03  0.63036048851E+03  0.00000000000E+00 0. -1.
         22   -1    0    0    0    0 -0.00000000000E+00 -0.00000000000E+00 -0.16935552398E+04  0.16935552398E+04  0.00000000000E+00 0.  1.
        -24    2    1    2    0    0 -0.98020157366E+02 -0.89120652025E+01 -0.13022189567E+04  0.13085732833E+04  0.83080988188E+02 0.  0.
         25    2    1    2    0    0  0.14292478218E+03  0.42311178679E+02 -0.35959069077E+03  0.40886596423E+03  0.12509269607E+03 0.  0.
         24    2    1    2    0    0 -0.44904624817E+02 -0.33399113476E+02  0.59861489611E+03  0.60647648078E+03  0.79636686195E+02 0.  0.
        -13    1    5    5    0    0 -0.28054871577E+02 -0.50369277515E+02  0.23106727172E+03  0.23815168275E+03  0.00000000000E+00 0.  1.
         14    1    5    5    0    0 -0.16849753240E+02  0.16970164038E+02  0.36754762439E+03  0.36832479804E+03  0.00000000000E+00 0. -1.
         13    1    3    3    0    0 -0.58069200706E+02  0.31002646856E+02 -0.49130894275E+03  0.49569917632E+03  0.00000000000E+00 0. -1.
        -14    1    3    3    0    0 -0.39950956660E+02 -0.39914712058E+02 -0.81091001393E+03  0.81287410702E+03  0.00000000000E+00 0.  1.
          5    1    4    4  501    0  0.12066308602E+03 -0.24469174026E+02 -0.20949997230E+03  0.24303504191E+03  0.41800000000E+01 0.  1.
         -5    1    4    4    0  501  0.22261696163E+02  0.66780352705E+02 -0.15009071847E+03  0.16583092231E+03  0.41800000000E+01 0.  1.
</event>
<event>
11    1  0.6763327E-009  0.1457239E+03  0.7561462E-02  0.1101330E+00
         22   -1    0    0    0    0  0.00000000000E+00  0.00000000000E+00  0.28548784562E+03  0.28548784562E+03  0.00000000000E+00 0. -1.
         22   -1    0    0    0    0 -0.00000000000E+00 -0.00000000000E+00 -0.14288770415E+04  0.14288770415E+04  0.00000000000E+00 0.  1.
        -24    2    1    2    0    0 -0.45450558113E+02  0.56860774484E+02 -0.12763531485E+04  0.12811105225E+04  0.82872856203E+02 0.  0.
         25    2    1    2    0    0  0.71185492539E+02 -0.94313578517E+02 -0.87510457519E+02  0.19305078691E+03  0.12509236872E+03 0.  0.
         24    2    1    2    0    0 -0.25734934426E+02  0.37452804032E+02  0.22047441006E+03  0.24020357777E+03  0.83808077809E+02 0.  0.
        -13    1    5    5    0    0 -0.21105838440E+02  0.38482959587E+02  0.39141307123E+02  0.58808473183E+02  0.00000000000E+00 0.  1.
         14    1    5    5    0    0 -0.46290959855E+01 -0.10301555550E+01  0.18133310293E+03  0.18139510459E+03  0.00000000000E+00 0. -1.
         13    1    3    3    0    0  0.12667399860E+02  0.13908893037E+02 -0.66748014875E+02  0.69348524242E+02  0.00000000000E+00 0. -1.
        -14    1    3    3    0    0 -0.58117957973E+02  0.42951881448E+02 -0.12096051336E+04  0.12117619982E+04  0.00000000000E+00 0.  1.
          5    1    4    4  501    0  0.60542719143E+02 -0.92496320862E+02 -0.60726673689E+01  0.11079413298E+03  0.41800000000E+01 0. -1.
         -5    1    4    4    0  501  0.10642773396E+02 -0.18172576544E+01 -0.81437790150E+02  0.82256653929E+02  0.41800000000E+01 0. -1.
</event>
<event>
11    1  0.6763327E-009  0.1546723E+03  0.7561462E-02  0.1092198E+00
         22   -1    0    0    0    0  0.00000000000E+00  0.00000000000E+00  0.11447966797E+03  0.11447966797E+03  0.00000000000E+00 0.  1.
         22   -1    0    0    0    0 -0.00000000000E+00 -0.00000000000E+00 -0.19083081804E+04  0.19083081804E+04  0.00000000000E+00 0.  1.
        -24    2    1    2    0    0  0.15670859952E+02 -0.27944265137E+02 -0.12154942467E+04  0.12186277787E+04  0.81246178243E+02 0.  0.
         25    2    1    2    0    0  0.88961925084E+01  0.11430945462E+03 -0.64467150705E+03  0.66663074892E+03  0.12509760086E+03 0.  0.
         24    2    1    2    0    0 -0.24567052461E+02 -0.86365189484E+02  0.66337241318E+02  0.13752932074E+03  0.80319352937E+02 0.  0.
        -11    1    5    5    0    0 -0.39601428258E+02 -0.10521405429E+02  0.10933362490E+02  0.42408861192E+02  0.00000000000E+00 0.  1.
         12    1    5    5    0    0  0.15034375797E+02 -0.75843784055E+02  0.55403878828E+02  0.95120459548E+02  0.00000000000E+00 0. -1.
         13    1    3    3    0    0  0.37149879073E+02  0.94285891372E+01 -0.35688884223E+03  0.35894102234E+03  0.00000000000E+00 0. -1.
        -14    1    3    3    0    0 -0.21479019121E+02 -0.37372854275E+02 -0.85860540444E+03  0.85968675635E+03  0.00000000000E+00 0.  1.
          5    1    4    4  501    0  0.25398894206E+02  0.12554971552E+03 -0.62597205596E+03  0.63895721463E+03  0.41800000000E+01 0. -1.
         -5    1    4    4    0  501 -0.16502701698E+02 -0.11240260901E+02 -0.18699451095E+02  0.27673534283E+02  0.41800000000E+01 0. -1.
</event>
<event>
11    1  0.6763327E-009  0.1537558E+03  0.7561462E-02  0.1093102E+00
         22   -1    0    0    0    0  0.00000000000E+00  0.00000000000E+00  0.10255714498E+04  0.10255714498E+04  0.00000000000E+00 0.  1.
         22   -1    0    0    0    0 -0.00000000000E+00 -0.00000000000E+00 -0.40861148204E+03  0.40861148204E+03  0.00000000000E+00 0. -1.
        -24    2    1    2    0    0 -0.84671388605E+02 -0.11390799464E+02 -0.32967473348E+03  0.35151129707E+03  0.87038886182E+02 0.  0.
         25    2    1    2    0    0  0.14959316561E+03 -0.31978023346E+02  0.89026003987E+02  0.21673519284E+03  0.12509118776E+03 0.  0.
         24    2    1    2    0    0 -0.64921777006E+02  0.43368822810E+02  0.85760869726E+03  0.86593644194E+03  0.90871073148E+02 0.  0.
        -13    1    5    5    0    0 -0.32229002836E+02  0.66486725288E+02  0.67249809044E+03  0.67654480629E+03  0.00000000000E+00 0.  1.
         14    1    5    5    0    0 -0.32692774170E+02 -0.23117902478E+02  0.18511060682E+03  0.18939163565E+03  0.00000000000E+00 0. -1.
         11    1    3    3    0    0 -0.70292650712E+02  0.44418976329E+01 -0.32065572576E+03  0.32829998730E+03  0.00000000000E+00 0. -1.
        -12    1    3    3    0    0 -0.14378737893E+02 -0.15832697097E+02 -0.90190077226E+01  0.23211309766E+02  0.00000000000E+00 0.  1.
          5    1    4    4  501    0  0.72794262164E+01 -0.27402372147E+02  0.66636059549E+02  0.72537692806E+02  0.41800000000E+01 0. -1.
         -5    1    4    4    0  501  0.14231373939E+03 -0.45756511989E+01  0.22389944438E+02  0.14419750003E+03  0.41800000000E+01 0. -1.
</event>
<event>
11    1  0.6763327E-009  0.1718100E+03  0.7561462E-02  0.1076467E+00
         22   -1    0    0    0    0  0.00000000000E+00  0.00000000000E+00  0.15529973593E+04  0.15529973593E+04  0.00000000000E+00 0.  1.
         22   -1    0    0    0    0 -0.00000000000E+00 -0.00000000000E+00 -0.29801748150E+03  0.29801748150E+03  0.00000000000E+00 0.  1.
        -24    2    1    2    0    0  0.29392933129E+01  0.59535205408E+02 -0.26946484044E+03  0.28701442000E+03  0.78821931740E+02 0.  0.
         25    2    1    2    0    0 -0.10983444784E+03  0.35126108705E+01  0.45694927513E+03  0.48634191285E+03  0.12509944756E+03 0.  0.
         24    2    1    2    0    0  0.10689515452E+03 -0.63047816278E+02  0.10674954431E+04  0.10776585080E+04  0.79998359362E+02 0.  0.
        -13    1    5    5    0    0  0.38749114847E+02 -0.68978061074E+02  0.54968782672E+03  0.55535229688E+03  0.00000000000E+00 0.  1.
         14    1    5    5    0    0  0.68146039678E+02  0.59302447954E+01  0.51780761641E+03  0.52230621109E+03  0.00000000000E+00 0. -1.
         13    1    3    3    0    0  0.18272650419E+02 -0.86195747344E+01 -0.12411103195E+03  0.12574472185E+03  0.00000000000E+00 0. -1.
        -14    1    3    3    0    0 -0.15333357106E+02  0.68154780142E+02 -0.14535380849E+03  0.16126969814E+03  0.00000000000E+00 0.  1.
          5    1    4    4  501    0 -0.66004182221E+02  0.14716873015E+02  0.72552960756E+02  0.99270050551E+02  0.41800000000E+01 0.  1.
         -5    1    4    4    0  501 -0.43830265617E+02 -0.11204262145E+02  0.38439631438E+03  0.38707186229E+03  0.41800000000E+01 0.  1.
</event>
<event>
11    1  0.6763327E-009  0.1415166E+03  0.7561462E-02  0.1105877E+00
         22   -1    0    0    0    0  0.00000000000E+00  0.00000000000E+00  0.55209527788E+03  0.55209527788E+03  0.00000000000E+00 0.  1.
         22   -1    0    0    0    0 -0.00000000000E+00 -0.00000000000E+00 -0.11211740108E+03  0.11211740108E+03  0.00000000000E+00 0.  1.
         24    2    1    2    0    0 -0.38235697469E+02 -0.62622266848E+02 -0.50334367058E+02  0.12365155013E+03  0.85864081407E+02 0.  0.
         25    2    1    2    0    0  0.14375481086E+02  0.13001752973E+02  0.22587760457E+03  0.25892776629E+03  0.12508875197E+03 0.  0.
        -24    2    1    2    0    0  0.23860216383E+02  0.49620513875E+02  0.26443463928E+03  0.28163336255E+03  0.79750655959E+02 0.  0.
        -13    1    3    3    0    0  0.49226373970E+01 -0.60152759313E+02 -0.43077993745E+01  0.60507387543E+02  0.00000000000E+00 0.  1.
         14    1    3    3    0    0 -0.43158334866E+02 -0.24695075352E+01 -0.46026567683E+02  0.63144162585E+02  0.00000000000E+00 0. -1.
         11    1    5    5    0    0 -0.24661223231E+02  0.15683369705E+02  0.40126281276E+02  0.49641338273E+02  0.00000000000E+00 0. -1.
        -12    1    5    5    0    0  0.48521439614E+02  0.33937144170E+02  0.22430835800E+03  0.23199202427E+03  0.00000000000E+00 0.  1.
          5    1    4    4  501    0 -0.12384243881E+02  0.43574631164E+02  0.21155828567E+02  0.50171301158E+02  0.41800000000E+01 0. -1.
         -5    1    4    4    0  501  0.26759724967E+02 -0.30572878190E+02  0.20472177601E+03  0.20875646513E+03  0.41800000000E+01 0. -1.
</event>
<event>
11    1  0.6763327E-009  0.1501771E+03  0.7561462E-02  0.1096698E+00
         22   -1    0    0    0    0  0.00000000000E+00  0.00000000000E+00  0.86334355577E+03  0.86334355577E+03  0.00000000000E+00 0. -1.
         22   -1    0    0    0    0 -0.00000000000E+00 -0.00000000000E+00 -0.17425830659E+03  0.17425830659E+03  0.00000000000E+00 0.  1.
         24    2    1    2    0    0  0.48650810330E+02 -0.47743156710E+02 -0.11722641840E+03  0.15761406066E+03  0.80335848715E+02 0.  0.
         25    2    1    2    0    0 -0.12181680146E+03  0.63902554703E+02  0.24089513416E+03  0.30429092316E+03  0.12505850888E+03 0.  0.
        -24    2    1    2    0    0  0.73165991129E+02 -0.16159397993E+02  0.56541653343E+03  0.57569687853E+03  0.78209022974E+02 0.  0.
        -11    1    3    3    0    0 -0.27421562644E+01 -0.19397904107E+02 -0.91427104101E+02  0.93502478411E+02  0.00000000000E+00 0.  1.
         12    1    3    3    0    0  0.51392966594E+02 -0.28345252603E+02 -0.25799314304E+02  0.64111582254E+02  0.00000000000E+00 0. -1.
         11    1    5    5    0    0  0.80291403223E+02  0.93319952317E+01  0.38937158512E+03  0.39767326647E+03  0.00000000000E+00 0. -1.
        -12    1    5    5    0    0 -0.71254120942E+01 -0.25491393225E+02  0.17604494830E+03  0.17802361206E+03  0.00000000000E+00 0.  1.
          5    1    4    4  501    0 -0.78807851245E+01 -0.27084045260E+02  0.82266155207E+01  0.29678306635E+02  0.41800000000E+01 0.  1.
         -5    1    4    4    0  501 -0.11393601633E+03  0.90986599963E+02  0.23266851864E+03  0.27461261653E+03  0.41800000000E+01 0.  1.
</event>
<event>
11    1  0.6763327E-009  0.2081109E+03  0.7561462E-02  0.1048932E+00
         22   -1    0    0    0    0  0.00000000000E+00  0.00000000000E+00  0.49754859284E+03  0.49754859284E+03  0.00000000000E+00 0.  1.
         22   -1    0    0    0    0 -0.00000000000E+00 -0.00000000000E+00 -0.15223328660E+04  0.15223328660E+04  0.00000000000E+00 0.  1.
         24    2    1    2    0    0 -0.51651124715E+02 -0.64501455075E+02 -0.12257181724E+04  0.12310822891E+04  0.79688694829E+02 0.  0.
         25    2    1    2    0    0 -0.11618698024E+03  0.34110296695E+02 -0.24602347915E+03  0.30139305440E+03  0.12508914513E+03 0.  0.
        -24    2    1    2    0    0  0.16783810496E+03  0.30391158380E+02  0.44695737835E+03  0.48740611535E+03  0.93276852635E+02 0.  0.
        -13    1    3    3    0    0 -0.66741877709E+02 -0.63150714594E+02 -0.11603058910E+04  0.11639382508E+04  0.00000000000E+00 0.  1.
         14    1    3    3    0    0  0.15090752994E+02 -0.13507404806E+01 -0.65412281401E+02  0.67144038334E+02  0.00000000000E+00 0. -1.
         13    1    5    5    0    0  0.55494838999E+02  0.45281315104E+02  0.25120617218E+03  0.26121756372E+03  0.00000000000E+00 0. -1.
        -14    1    5    5    0    0  0.11234326596E+03 -0.14890156724E+02  0.19575120617E+03  0.22618855163E+03  0.00000000000E+00 0.  1.
          5    1    4    4  501    0  0.27043957496E+02  0.53405240778E+01 -0.36446194763E+02  0.45887845310E+02  0.41800000000E+01 0. -1.
         -5    1    4    4    0  501 -0.14323093774E+03  0.28769772617E+02 -0.20957728439E+03  0.25550520909E+03  0.41800000000E+01 0. -1.
</event>
<event>
11    1  0.6763327E-009  0.1728404E+03  0.7561462E-02  0.1075586E+00
         22   -1    0    0    0    0  0.00000000000E+00  0.00000000000E+00  0.37406155313E+03  0.37406155313E+03  0.00000000000E+00 0.  1.
         22   -1    0    0    0    0 -0.00000000000E+00 -0.00000000000E+00 -0.20863119293E+04  0.20863119293E+04  0.00000000000E+00 0. -1.
        -24    2    1    2    0    0 -0.67830843450E+02  0.97644816091E+02 -0.19967873159E+04  0.20019470093E+04  0.80602169983E+02 0.  0.
         25    2    1    2    0    0  0.54098290582E+02 -0.12703120391E+03  0.27803878792E+02  0.18837187739E+03  0.12508939485E+03 0.  0.
         24    2    1    2    0    0  0.13732552868E+02  0.29386387823E+02  0.25673306093E+03  0.27005459571E+03  0.77236502353E+02 0.  0.
        -11    1    5    5    0    0  0.17475798317E+01  0.74571063839E+01  0.23967464483E+03  0.23979699299E+03  0.00000000000E+00 0.  1.
         12    1    5    5    0    0  0.11984973036E+02  0.21929281439E+02  0.17058416098E+02  0.30257602728E+02  0.00000000000E+00 0. -1.
         13    1    3    3    0    0 -0.66804152666E+02  0.60432626960E+02 -0.17550307966E+04  0.17573411718E+04  0.00000000000E+00 0. -1.
        -14    1    3    3    0    0 -0.10266907843E+01  0.37212189131E+02 -0.24175651933E+03  0.24460583753E+03  0.00000000000E+00 0.  1.
          5    1    4    4  501    0  0.23835276761E+02 -0.12527762228E+03 -0.22431516718E+02  0.12955017717E+03  0.41800000000E+01 0. -1.
         -5    1    4    4    0  501  0.30263013822E+02 -0.17535816294E+01  0.50235395511E+02  0.58821700215E+02  0.41800000000E+01 0. -1.
</event>
<event>
11    1  0.6763327E-009  0.1439633E+03  0.7561462E-02  0.1103212E+00
         22   -1    0    0    0    0  0.00000000000E+00  0.00000000000E+00  0.64186886652E+03  0.64186886652E+03  0.00000000000E+00 0.  1.
         22   -1    0    0    0    0 -0.00000000000E+00 -0.00000000000E+00 -0.32833394337E+03  0.32833394337E+03  0.00000000000E+00 0.  1.
        -24    2    1    2    0    0  0.64224709466E+02  0.24405787488E+02 -0.20556538117E+03  0.23011238916E+03  0.77292496000E+02 0.  0.
         25    2    1    2    0    0 -0.78297414162E+02 -0.24915448068E+02 -0.54872044863E+02  0.15941001458E+03  0.12509734939E+03 0.  0.
         24    2    1    2    0    0  0.14072704697E+02  0.50966058009E+00  0.57397234920E+03  0.58068040615E+03  0.86874482277E+02 0.  0.
        -13    1    5    5    0    0  0.38429964334E+02 -0.22062583954E+02  0.45523700979E+03  0.45738862563E+03  0.00000000000E+00 0.  1.
         14    1    5    5    0    0 -0.24357259638E+02  0.22572244534E+02  0.11873533940E+03  0.12329178052E+03  0.00000000000E+00 0. -1.
         11    1    3    3    0    0  0.56079233228E+02  0.16588215591E+02 -0.58859831470E+02  0.82973062235E+02  0.00000000000E+00 0. -1.
        -12    1    3    3    0    0  0.81454762379E+01  0.78175718968E+01 -0.14670554970E+03  0.14713932692E+03  0.00000000000E+00 0.  1.
          5    1    4    4  501    0 -0.94952005148E+02  0.59832487939E+01 -0.72708898290E+02  0.11981543656E+03  0.41800000000E+01 0. -1.
         -5    1    4    4    0  501  0.16654590986E+02 -0.30898696862E+02  0.17836853426E+02  0.39594578023E+02  0.41800000000E+01 0. -1.
</event>
<event>
11    1  0.6763327E-009  0.1389224E+03  0.7561462E-02  0.1108768E+00
         22   -1    0    0    0    0  0.00000000000E+00  0.00000000000E+00  0.53488215689E+03  0.53488215689E+03  0.00000000000E+00 0.  1.
         22   -1    0    0    0    0 -0.00000000000E+00 -0.00000000000E+00 -0.34201409647E+03  0.34201409647E+03  0.00000000000E+00 0.  1.
        -24    2    1    2    0    0 -0.23881253740E+02  0.52462198849E+02 -0.18035881779E+03  0.20650230354E+03  0.82409354008E+02 0.  0.
         25    2    1    2    0    0  0.10741446582E+02 -0.68896794338E+02 -0.11017713778E+03  0.18069015345E+03  0.12509109848E+03 0.  0.
         24    2    1    2    0    0  0.13139807158E+02  0.16434595489E+02  0.48340401599E+03  0.48970379637E+03  0.75416278409E+02 0.  0.
        -11    1    5    5    0    0 -0.24966245242E+02 -0.93358905037E+01  0.27469597040E+03  0.27598613807E+03  0.00000000000E+00 0.  1.
         12    1    5    5    0    0  0.38106052400E+02  0.25770485993E+02  0.20870804559E+03  0.21371765831E+03  0.00000000000E+00 0. -1.
         13    1    3    3    0    0  0.21128174327E+02 -0.17206345743E+01 -0.12856970375E+02  0.24792378283E+02  0.00000000000E+00 0. -1.
        -14    1    3    3    0    0 -0.45009428066E+02  0.54182833424E+02 -0.16750184741E+03  0.18170992526E+03  0.00000000000E+00 0.  1.
          5    1    4    4  501    0  0.30154416952E+02  0.28185518905E+02 -0.17548712032E+02  0.45045999063E+02  0.41800000000E+01 0.  1.
         -5    1    4    4    0  501 -0.19412970370E+02 -0.97082313243E+02 -0.92628425746E+02  0.13564415439E+03  0.41800000000E+01 0.  1.
</event>
<event>
11    1  0.6763327E-009  0.1415947E+03  0.7561462E-02  0.1105791E+00
         22   -1    0    0    0    0  0.00000000000E+00  0.00000000000E+00  0.18156165180E+04  0.18156165180E+04  0.00000000000E+00 0.  1.
         22   -1    0    0    0    0 -0.00000000000E+00 -0.00000000000E+00 -0.58772786442E+02  0.58772786442E+02  0.00000000000E+00 0.  1.
         24    2    1    2    0    0  0.19721297698E+02 -0.62507943187E+02  0.77316856884E+01  0.10368453087E+03  0.79965807900E+02 0.  0.
         25    2    1    2    0    0 -0.70404800826E+02  0.11063690868E+02  0.62196027325E+03  0.63840436470E+03  0.12508521148E+03 0.  0.
        -24    2    1    2    0    0  0.50683503128E+02  0.51444252318E+02  0.11271517726E+04  0.11323004089E+04  0.80110978240E+02 0.  0.
        -11    1    3    3    0    0  0.32095842807E+02 -0.68534601706E+02 -0.14962276981E+02  0.77142753962E+02  0.00000000000E+00 0.  1.
         12    1    3    3    0    0 -0.12374545109E+02  0.60266585191E+01  0.22693962670E+02  0.26541776904E+02  0.00000000000E+00 0. -1.
         13    1    5    5    0    0 -0.14744503214E+02 -0.54888733298E+01  0.78064805111E+02  0.79634426617E+02  0.00000000000E+00 0. -1.
        -14    1    5    5    0    0  0.65428006343E+02  0.56933125648E+02  0.10490869675E+04  0.10526659822E+04  0.00000000000E+00 0.  1.
          5    1    4    4  501    0 -0.29857719337E+01 -0.31347572881E+02  0.42097292746E+03  0.42216970902E+03  0.41800000000E+01 0.  1.
         -5    1    4    4    0  501 -0.67419028893E+02  0.42411263749E+02  0.20098734579E+03  0.21623465568E+03  0.41800000000E+01 0.  1.
</event>
<event>
11    1  0.6763327E-009  0.1523181E+03  0.7561462E-02  0.1094533E+00
         22   -1    0    0    0    0  0.00000000000E+00  0.00000000000E+00  0.12233305039E+03  0.12233305039E+03  0.00000000000E+00 0. -1.
         22   -1    0    0    0    0 -0.00000000000E+00 -0.00000000000E+00 -0.14881455179E+04  0.14881455179E+04  0.00000000000E+00 0.  1.
         24    2    1    2    0    0  0.85704727475E+02  0.33928225622E+01 -0.13363377800E+04  0.13417035878E+04  0.83743917297E+02 0.  0.
         25    2    1    2    0    0 -0.11180660114E+03 -0.17461578362E+02 -0.58023167554E+02  0.17838073390E+03  0.12508946988E+03 0.  0.
        -24    2    1    2    0    0  0.26101873667E+02  0.14068755800E+02  0.28548480074E+02  0.90394246575E+02  0.80478981111E+02 0.  0.
        -13    1    3    3    0    0  0.14373449526E+02 -0.24444405057E+02 -0.72993729521E+03  0.73048790540E+03  0.00000000000E+00 0.  1.
         14    1    3    3    0    0  0.71331277950E+02  0.27837227619E+02 -0.60640048478E+03  0.61121568239E+03  0.00000000000E+00 0. -1.
         11    1    5    5    0    0 -0.15680723714E+02  0.31361907433E+01  0.42176224120E+02  0.45106038061E+02  0.00000000000E+00 0. -1.
        -12    1    5    5    0    0  0.41782597381E+02  0.10932565057E+02 -0.13627744046E+02  0.45288208514E+02  0.00000000000E+00 0.  1.
          5    1    4    4  501    0 -0.76241080295E+02  0.34478389986E+01  0.29184744746E+02  0.81815717587E+02  0.41800000000E+01 0.  1.
         -5    1    4    4    0  501 -0.35565520847E+02 -0.20909417361E+02 -0.87207912300E+02  0.96565016311E+02  0.41800000000E+01 0.  1.
</event>
<event>
11    1  0.6763327E-009  0.1337816E+03  0.7561462E-02  0.1114708E+00
         22   -1    0    0    0    0  0.00000000000E+00  0.00000000000E+00  0.64023537171E+03  0.64023537171E+03  0.00000000000E+00 0. -1.
         22   -1    0    0    0    0 -0.00000000000E+00 -0.00000000000E+00 -0.60499959153E+03  0.60499959153E+03  0.00000000000E+00 0. -1.
         24    2    1    2    0    0 -0.22201788815E+01 -0.51388786559E+02 -0.52607786683E+03  0.54008358110E+03  0.11084500903E+03 0.  0.
         25    2    1    2    0    0  0.43696956810E+02  0.65436439548E+01 -0.21351987996E+01  0.13267371917E+03  0.12508202659E+03 0.  0.
        -24    2    1    2    0    0 -0.41476777929E+02  0.44845142604E+02  0.56344884581E+03  0.57247766297E+03  0.80775385079E+02 0.  0.
        -13    1    3    3    0    0  0.37083302728E+01 -0.69908204998E+02 -0.17522253186E+03  0.18868981030E+03  0.00000000000E+00 0.  1.
         14    1    3    3    0    0 -0.59285091543E+01  0.18519418439E+02 -0.35085533497E+03  0.35139377080E+03  0.00000000000E+00 0. -1.
         11    1    5    5    0    0 -0.29392503851E+02  0.59578022294E+02  0.25735783413E+03  0.26579412110E+03  0.00000000000E+00 0. -1.
        -12    1    5    5    0    0 -0.12084274077E+02 -0.14732879690E+02  0.30609101168E+03  0.30668354187E+03  0.00000000000E+00 0.  1.
          5    1    4    4  501    0 -0.23499218979E+01 -0.14380995430E+02 -0.56384223982E+02  0.58386541913E+02  0.41800000000E+01 0. -1.
         -5    1    4    4    0  501  0.46046878708E+02  0.20924639385E+02  0.54249025182E+02  0.74287177261E+02  0.41800000000E+01 0. -1.
</event>
<event>
11    1  0.6763327E-009  0.1845245E+03  0.7561462E-02  0.1066041E+00
         22   -1    0    0    0    0  0.00000000000E+00  0.00000000000E+00  0.77397310964E+03  0.77397310964E+03  0.00000000000E+00 0. -1.
         22   -1    0    0    0    0 -0.00000000000E+00 -0.00000000000E+00 -0.32188899063E+03  0.32188899063E+03  0.00000000000E+00 0.  1.
        -24    2    1    2    0    0  0.13566409525E+03  0.35872419499E+01 -0.26654336538E+03  0.31015683528E+03  0.82062669949E+02 0.  0.
         25    2    1    2    0    0 -0.13379404668E+03 -0.38016479126E+02  0.27937687022E+03  0.33621605756E+03  0.12507478618E+03 0.  0.
         24    2    1    2    0    0 -0.18700485639E+01  0.34429237176E+02  0.43925061418E+03  0.44948920743E+03  0.88941419409E+02 0.  0.
        -11    1    5    5    0    0 -0.23347540277E+02 -0.22062004319E+02  0.10446075324E+03  0.10928809925E+03  0.00000000000E+00 0.  1.
         12    1    5    5    0    0  0.21477491713E+02  0.56491241495E+02  0.33478986095E+03  0.34020110818E+03  0.00000000000E+00 0. -1.
         11    1    3    3    0    0 -0.52200430419E+01 -0.12880388547E+02 -0.44989035421E+02  0.47086798220E+02  0.00000000000E+00 0. -1.
        -12    1    3    3    0    0  0.14088413829E+03  0.16467630497E+02 -0.22155432996E+03  0.26307003706E+03  0.00000000000E+00 0.  1.
          5    1    4    4  501    0 -0.20721938463E+02  0.54695374716E+01 -0.88312575139E+01  0.23553727584E+02  0.41800000000E+01 0.  1.
         -5    1    4    4    0  501 -0.11307210822E+03 -0.43486016598E+02  0.28820812773E+03  0.31266232998E+03  0.41800000000E+01 0.  1.
</event>
<event>
11    1  0.6763327E-009  0.4310248E+03  0.7561462E-02  0.9562407E-01
         22   -1    0    0    0    0  0.00000000000E+00  0.00000000000E+00  0.17689349570E+04  0.17689349570E+04  0.00000000000E+00 0. -1.
         22   -1    0    0    0    0 -0.00000000000E+00 -0.00000000000E+00 -0.76272082361E+03  0.76272082361E+03  0.00000000000E+00 0.  1.
        -24    2    1    2    0    0 -0.12422238716E+02  0.51520452481E+02 -0.59960473853E+03  0.60732332251E+03  0.80666638458E+02 0.  0.
         25    2    1    2    0    0  0.13663744596E+03  0.35123921014E+03  0.18113057730E+03  0.43645720781E+03  0.12509130199E+03 0.  0.
         24    2    1    2    0    0 -0.12421520724E+03 -0.40275966262E+03  0.14246882946E+04  0.14878752502E+04  0.79945356481E+02 0.  0.
        -11    1    5    5    0    0 -0.99988520420E+01 -0.62953193516E+00  0.51516569999E+02  0.52481714311E+02  0.00000000000E+00 0.  1.
         12    1    5    5    0    0 -0.11421635520E+03 -0.40213013069E+03  0.13731717246E+04  0.14353935359E+04  0.00000000000E+00 0. -1.
         13    1    3    3    0    0 -0.70970699363E+01  0.62243154676E+02 -0.25756627558E+03  0.26507539498E+03  0.00000000000E+00 0. -1.
        -14    1    3    3    0    0 -0.53251687800E+01 -0.10722702195E+02 -0.34203846295E+03  0.34224792753E+03  0.00000000000E+00 0.  1.
          5    1    4    4  501    0  0.14502674147E+03  0.21918631772E+03  0.14009418099E+03  0.29785776734E+03  0.41800000000E+01 0. -1.
         -5    1    4    4    0  501 -0.83892955123E+01  0.13205289242E+03  0.41036396313E+02  0.13859944046E+03  0.41800000000E+01 0. -1.
</event>
<event>
11    1  0.6763327E-009  0.1282597E+03  0.7561462E-02  0.1121426E+00
         22   -1    0    0    0    0  0.00000000000E+00  0.00000000000E+00  0.36840818646E+03  0.36840818646E+03  0.00000000000E+00 0.  1.
         22   -1    0    0    0    0 -0.00000000000E+00 -0.00000000000E+00 -0.27786435879E+04  0.27786435879E+04  0.00000000000E+00 0.  1.
        -24    2    1    2    0    0  0.15742620538E+02 -0.12804460628E+02 -0.27461760556E+04  0.27472582420E+04  0.74385048578E+02 0.  0.
         25    2    1    2    0    0 -0.34596975631E+02 -0.66211550262E+01  0.17261962079E+03  0.21606301394E+03  0.12507958304E+03 0.  0.
         24    2    1    2    0    0  0.18854355094E+02  0.19425615654E+02  0.16332103333E+03  0.18373051849E+03  0.79688783685E+02 0.  0.
        -13    1    5    5    0    0 -0.85962933301E+01 -0.23487069427E+02  0.96602509813E+02  0.99787692585E+02  0.00000000000E+00 0.  1.
         14    1    5    5    0    0  0.27450648424E+02  0.42912685081E+02  0.66718523518E+02  0.83942825901E+02  0.00000000000E+00 0. -1.
         11    1    3    3    0    0 -0.22752604062E+02 -0.27447951147E+02 -0.13883412998E+04  0.13887989904E+04  0.00000000000E+00 0. -1.
        -12    1    3    3    0    0  0.38495224600E+02  0.14643490519E+02 -0.13578347558E+04  0.13584592516E+04  0.00000000000E+00 0.  1.
          5    1    4    4  501    0  0.39768381853E+02 -0.20756360322E+02  0.28762289256E+02  0.53451776137E+02  0.41800000000E+01 0.  1.
         -5    1    4    4    0  501 -0.74365357484E+02  0.14135205295E+02  0.14385733154E+03  0.16261123780E+03  0.41800000000E+01 0.  1.
</event>
<event>
11    1  0.6763327E-009  0.1531492E+03  0.7561462E-02  0.1093704E+00
         22   -1    0    0    0    0  0.00000000000E+00  0.00000000000E+00  0.73450718310E+03  0.73450718310E+03  0.00000000000E+00 0.  1.
         22   -1    0    0    0    0 -0.00000000000E+00 -0.00000000000E+00 -0.11499694516E+03  0.11499694516E+03  0.00000000000E+00 0. -1.
         24    2    1    2    0    0  0.73376454350E+02 -0.60876394493E+02 -0.62810189885E+01  0.12318384122E+03  0.77748106599E+02 0.  0.
         25    2    1    2    0    0 -0.46060517278E+02  0.60605223797E+02  0.67201103106E+02  0.16111575438E+03  0.12509090154E+03 0.  0.
        -24    2    1    2    0    0 -0.27315937072E+02  0.27117069661E+00  0.55859015381E+03  0.56520453265E+03  0.81773894618E+02 0.  0.
        -11    1    3    3    0    0  0.43868795544E+02 -0.72958062556E+01  0.28498437628E+02  0.52819134399E+02  0.00000000000E+00 0.  1.
         12    1    3    3    0    0  0.29507658807E+02 -0.53580588238E+02 -0.34779456617E+02  0.70364706826E+02  0.00000000000E+00 0. -1.
         11    1    5    5    0    0 -0.25672555374E+02  0.17583081015E+02  0.73660838574E+02  0.79963516536E+02  0.00000000000E+00 0. -1.
        -12    1    5    5    0    0 -0.16433816988E+01 -0.17311910318E+02  0.48492931524E+03  0.48524101612E+03  0.00000000000E+00 0.  1.
          5    1    4    4  501    0 -0.77853877032E+02  0.10785281460E+02  0.64577120473E+02  0.10180975078E+03  0.41800000000E+01 0.  1.
         -5    1    4    4    0  501  0.31793359754E+02  0.49819942337E+02  0.26239826335E+01  0.59306003606E+02  0.41800000000E+01 0.  1.
</event>
<event>
11    1  0.6763327E-009  0.1445180E+03  0.7561462E-02  0.1102616E+00
         22   -1    0    0    0    0  0.00000000000E+00  0.00000000000E+00  0.23179561258E+04  0.23179561258E+04  0.00000000000E+00 0. -1.
         22   -1    0    0    0    0 -0.00000000000E+00 -0.00000000000E+00 -0.55662801962E+02  0.55662801962E+02  0.00000000000E+00 0.  1.
         24    2    1    2    0    0  0.30950765617E+02 -0.64034227779E+02  0.13248315548E+02  0.10620147506E+03  0.77748975694E+02 0.  0.
         25    2    1    2    0    0 -0.87597826675E+02  0.57799402235E+02  0.90366301875E+03  0.91829690085E+03  0.12509275165E+03 0.  0.
        -24    2    1    2    0    0  0.56647061058E+02  0.62348255433E+01  0.13453819896E+04  0.13491205519E+04  0.82618418453E+02 0.  0.
        -13    1    3    3    0    0  0.51523949568E+02 -0.17377462352E+02  0.63130002894E+01  0.54740730261E+02  0.00000000000E+00 0.  1.
         14    1    3    3    0    0 -0.20573183951E+02 -0.46656765427E+02  0.69353152582E+01  0.51460744803E+02  0.00000000000E+00 0. -1.
         11    1    5    5    0    0  0.17002386603E+02  0.11807228643E+02  0.11212570861E+04  0.11214481463E+04  0.00000000000E+00 0. -1.
        -12    1    5    5    0    0  0.39644674454E+02 -0.55724030998E+01  0.22412490346E+03  0.22767240553E+03  0.00000000000E+00 0.  1.
          5    1    4    4  501    0  0.49569432469E+01  0.29527654319E+02  0.45150257932E+02  0.54336652890E+02  0.41800000000E+01 0. -1.
         -5    1    4    4    0  501 -0.92554769922E+02  0.28271747916E+02  0.85851276082E+03  0.86396024796E+03  0.41800000000E+01 0. -1.
</event>
<event>
11    1  0.6763327E-009  0.1316954E+03  0.7561462E-02  0.1117203E+00
         22   -1    0    0    0    0  0.00000000000E+00  0.00000000000E+00  0.18049432300E+03  0.18049432300E+03  0.00000000000E+00 0. -1.
         22   -1    0    0    0    0 -0.00000000000E+00 -0.00000000000E+00 -0.20893467031E+04  0.20893467031E+04  0.00000000000E+00 0.  1.
         24    2    1    2    0    0  0.36447664451E+02  0.39729647634E+02 -0.16905176276E+04  0.16930032201E+04  0.74183400464E+02 0.  0.
         25    2    1    2    0    0 -0.43045847052E+01 -0.65616556797E+02 -0.37150592482E+03  0.39747624490E+03  0.12508657443E+03 0.  0.
        -24    2    1    2    0    0 -0.32143079746E+02  0.25886909163E+02  0.15317117237E+03  0.17936156105E+03  0.83700967110E+02 0.  0.
        -11    1    3    3    0    0 -0.15835323637E+02  0.10075298287E+02 -0.90301558121E+03  0.90321061167E+03  0.00000000000E+00 0.  1.
         12    1    3    3    0    0  0.52282988088E+02  0.29654349346E+02 -0.78750204641E+03  0.78979260846E+03  0.00000000000E+00 0. -1.
         11    1    5    5    0    0 -0.42229671577E+02  0.78354399820E+01  0.15275566096E+03  0.15867901952E+03  0.00000000000E+00 0. -1.
        -12    1    5    5    0    0  0.10086591832E+02  0.18051469181E+02  0.41551141244E+00  0.20682541529E+02  0.00000000000E+00 0.  1.
          5    1    4    4  501    0 -0.15881657396E+02 -0.75519669841E+02 -0.10434754144E+03  0.12985118167E+03  0.41800000000E+01 0.  1.
         -5    1    4    4    0  501  0.11577072691E+02  0.99031130440E+01 -0.26715838338E+03  0.26762506323E+03  0.41800000000E+01 0.  1.
</event>
<event>
11    1  0.6763327E-009  0.1359678E+03  0.7561462E-02  0.1112146E+00
         22   -1    0    0    0    0  0.00000000000E+00  0.00000000000E+00  0.82623304850E+02  0.82623304850E+02  0.00000000000E+00 0.  1.
         22   -1    0    0    0    0 -0.00000000000E+00 -0.00000000000E+00 -0.13612859673E+04  0.13612859673E+04  0.00000000000E+00 0.  1.
         24    2    1    2    0    0 -0.68709050901E+01 -0.62073444964E+01 -0.11324527854E+04  0.11352680920E+04  0.79363651291E+02 0.  0.
         25    2    1    2    0    0  0.51509546036E+02 -0.22021515313E+02 -0.16128333608E+03  0.21165567272E+03  0.12509048256E+03 0.  0.
        -24    2    1    2    0    0 -0.44638640946E+02  0.28228859809E+02  0.15073458980E+02  0.96985507455E+02  0.79934364945E+02 0.  0.
        -13    1    3    3    0    0 -0.26516166129E+02  0.21320625813E+02 -0.86731822901E+03  0.86798536077E+03  0.00000000000E+00 0.  1.
         14    1    3    3    0    0  0.19645261038E+02 -0.27527970310E+02 -0.26513455638E+03  0.26728273124E+03  0.00000000000E+00 0. -1.
         13    1    5    5    0    0 -0.81322665006E+01  0.44797901168E+02 -0.13804932694E+02  0.47576904840E+02  0.00000000000E+00 0. -1.
        -14    1    5    5    0    0 -0.36506374446E+02 -0.16569041359E+02  0.28878391674E+02  0.49408602615E+02  0.00000000000E+00 0.  1.
          5    1    4    4  501    0  0.17216911349E+02 -0.70827144637E+02 -0.11422310231E+03  0.13556288561E+03  0.41800000000E+01 0.  1.
         -5    1    4    4    0  501  0.34292634688E+02  0.48805629324E+02 -0.47060233770E+02  0.76092787109E+02  0.41800000000E+01 0.  1.
</event>
<event>
11    1  0.6763327E-009  0.2048888E+03  0.7561462E-02  0.1051119E+00
         22   -1    0    0    0    0  0.00000000000E+00  0.00000000000E+00  0.15884031493E+04  0.15884031493E+04  0.00000000000E+00 0. -1.
         22   -1    0    0    0    0 -0.00000000000E+00 -0.00000000000E+00 -0.12975495461E+03  0.12975495461E+03  0.00000000000E+00 0.  1.
        -24    2    1    2    0    0  0.12399883688E+03 -0.10026378765E+03 -0.14640559470E+02  0.17968259078E+03  0.81504286929E+02 0.  0.
         25    2    1    2    0    0 -0.13177411162E+03  0.11518958852E+03  0.34089854116E+03  0.40310410592E+03  0.12509215421E+03 0.  0.
         24    2    1    2    0    0  0.77752747381E+01 -0.14925800867E+02  0.11323902130E+04  0.11353714072E+04  0.80482317238E+02 0.  0.
        -11    1    5    5    0    0 -0.33174607475E+02 -0.32249710605E+01  0.72393035682E+03  0.72469725854E+03  0.00000000000E+00 0.  1.
         12    1    5    5    0    0  0.40949882214E+02 -0.11700829806E+02  0.40845985614E+03  0.41067414862E+03  0.00000000000E+00 0. -1.
         11    1    3    3    0    0  0.21039957043E+02 -0.29733856986E-01  0.22970270608E+02  0.31149863696E+02  0.00000000000E+00 0. -1.
        -12    1    3    3    0    0  0.10295887983E+03 -0.10023405380E+03 -0.37610830078E+02  0.14853272709E+03  0.00000000000E+00 0.  1.
          5    1    4    4  501    0 -0.61397882432E+02  0.12370998795E+03  0.26689483339E+03  0.30053982361E+03  0.41800000000E+01 0. -1.
         -5    1    4    4    0  501 -0.70376229184E+02 -0.85203994329E+01  0.74003707769E+02  0.10256428230E+03  0.41800000000E+01 0. -1.
</event>
<event>
11    1  0.6763327E-009  0.1693350E+03  0.7561462E-02  0.1078612E+00
         22   -1    0    0    0    0  0.00000000000E+00  0.00000000000E+00  0.19142209864E+03  0.19142209864E+03  0.00000000000E+00 0.  1.
         22   -1    0    0    0    0 -0.00000000000E+00 -0.00000000000E+00 -0.25131992279E+04  0.25131992279E+04  0.00000000000E+00 0. -1.
        -24    2    1    2    0    0  0.47058489210E+02  0.72484996756E+02 -0.21821262209E+04  0.21851066852E+04  0.74483592340E+02 0.  0.
         25    2    1    2    0    0 -0.93242957000E+02  0.36569879316E+02 -0.27752926716E+03  0.32047126596E+03  0.12509089923E+03 0.  0.
         24    2    1    2    0    0  0.46184467790E+02 -0.10905487607E+03  0.13787835886E+03  0.19904337534E+03  0.81128616194E+02 0.  0.
        -11    1    5    5    0    0  0.21356479533E+02 -0.11459471260E+03  0.12349254519E+03  0.16981889203E+03  0.00000000000E+00 0.  1.
         12    1    5    5    0    0  0.24827988256E+02  0.55398365319E+01  0.14385813678E+02  0.29224483312E+02  0.00000000000E+00 0. -1.
         11    1    3    3    0    0  0.30715810612E+02  0.86784555723E+02 -0.16981539114E+04  0.17006474435E+04  0.00000000000E+00 0. -1.
        -12    1    3    3    0    0  0.16342678598E+02 -0.14299558967E+02 -0.48397230951E+03  0.48445924174E+03  0.00000000000E+00 0.  1.
          5    1    4    4  501    0 -0.10964701138E+03  0.29131548625E+01 -0.25226288843E+03  0.27510905266E+03  0.41800000000E+01 0. -1.
         -5    1    4    4    0  501  0.16404054380E+02  0.33656724454E+02 -0.25266378728E+02  0.45362213296E+02  0.41800000000E+01 0. -1.
</event>
<event>
11    1  0.6763327E-009  0.1451000E+03  0.7561462E-02  0.1101993E+00
         22   -1    0    0    0    0  0.00000000000E+00  0.00000000000E+00  0.83236456760E+02  0.83236456760E+02  0.00000000000E+00 0.  1.
         22   -1    0    0    0    0 -0.00000000000E+00 -0.00000000000E+00 -0.15372250580E+04  0.15372250580E+04  0.00000000000E+00 0.  1.
         24    2    1    2    0    0  0.32557126425E+02  0.17094171118E+02 -0.12488040256E+04  0.12519609965E+04  0.80886742578E+02 0.  0.
         25    2    1    2    0    0 -0.46499087561E+02 -0.84632132248E+02 -0.20610599159E+03  0.25971145640E+03  0.12508236432E+03 0.  0.
        -24    2    1    2    0    0  0.13941961136E+02  0.67537961130E+02  0.92141595891E+00  0.10878906189E+03  0.84133563494E+02 0.  0.
        -13    1    3    3    0    0  0.79866441521E+01  0.47763901465E+02 -0.78663365005E+03  0.78812288138E+03  0.00000000000E+00 0.  1.
         14    1    3    3    0    0  0.24570482273E+02 -0.30669730347E+02 -0.46217037558E+03  0.46383811510E+03  0.00000000000E+00 0. -1.
         13    1    5    5    0    0  0.24699249757E+02 -0.51723450734E+01 -0.20187455126E+02  0.32316241066E+02  0.00000000000E+00 0. -1.
        -14    1    5    5    0    0 -0.10757288622E+02  0.72710306204E+02  0.21108871085E+02  0.76472820827E+02  0.00000000000E+00 0.  1.
          5    1    4    4  501    0 -0.29489202042E+02 -0.11712990804E+03 -0.16383490370E+03  0.20358874346E+03  0.41800000000E+01 0.  1.
         -5    1    4    4    0  501 -0.17009885518E+02  0.32497775788E+02 -0.42271087886E+02  0.56122712939E+02  0.41800000000E+01 0.  1.
</event>
<event>
11    1  0.6763327E-009  0.1383444E+03  0.7561462E-02  0.1109421E+00
         22   -1    0    0    0    0  0.00000000000E+00  0.00000000000E+00  0.10321368945E+04  0.10321368945E+04  0.00000000000E+00 0. -1.
         22   -1    0    0    0    0 -0.00000000000E+00 -0.00000000000E+00 -0.22550880581E+04  0.22550880581E+04  0.00000000000E+00 0.  1.
         24    2    1    2    0    0 -0.10135800924E+02  0.58180323642E+02 -0.22393644308E+04  0.22417106792E+04  0.83821421557E+02 0.  0.
         25    2    1    2    0    0 -0.26077909106E+02 -0.81296967604E+02  0.53795670985E+03  0.55886848932E+03  0.12508921778E+03 0.  0.
        -24    2    1    2    0    0  0.36213710030E+02  0.23116643962E+02  0.47845655734E+03  0.48664578408E+03  0.77830777210E+02 0.  0.
        -11    1    3    3    0    0 -0.12726143843E+02  0.51468113051E+02 -0.22251277589E+04  0.22257593008E+04  0.00000000000E+00 0.  1.
         12    1    3    3    0    0  0.25903429181E+01  0.67122105913E+01 -0.14236671892E+02  0.15951378436E+02  0.00000000000E+00 0. -1.
         11    1    5    5    0    0  0.43777516338E+02  0.35923943296E+02  0.45724696699E+03  0.46074047951E+03  0.00000000000E+00 0. -1.
        -12    1    5    5    0    0 -0.75638063076E+01 -0.12807299334E+02  0.21209590347E+02  0.25905304568E+02  0.00000000000E+00 0.  1.
          5    1    4    4  501    0 -0.72476918464E+02 -0.57741283745E+02  0.25998684411E+03  0.27603911148E+03  0.41800000000E+01 0. -1.
         -5    1    4    4    0  501  0.46399009358E+02 -0.23555683859E+02  0.27796986574E+03  0.28282937784E+03  0.41800000000E+01 0. -1.
</event>
<event>
11    1  0.6763327E-009  0.1429307E+03  0.7561462E-02  0.1104329E+00
         22   -1    0    0    0    0  0.00000000000E+00  0.00000000000E+00  0.69413359300E+03  0.69413359300E+03  0.00000000000E+00 0. -1.
         22   -1    0    0    0    0 -0.00000000000E+00 -0.00000000000E+00 -0.14461552109E+04  0.14461552109E+04  0.00000000000E+00 0. -1.
         24    2    1    2    0    0  0.16511194230E+01  0.55258786973E+02 -0.13348734717E+04  0.13384168593E+04  0.80101461617E+02 0.  0.
         25    2    1    2    0    0  0.44658987546E+02 -0.10439464949E+03 -0.37104477905E+02  0.17297113522E+03  0.12509837460E+03 0.  0.
        -24    2    1    2    0    0 -0.46310106969E+02  0.49135862520E+02  0.61995633164E+03  0.62890080943E+03  0.81310614095E+02 0.  0.
        -11    1    3    3    0    0  0.28977540924E+02  0.32409601981E+02 -0.32252842803E+03  0.32544533653E+03  0.00000000000E+00 0.  1.
         12    1    3    3    0    0 -0.27326421501E+02  0.22849184991E+02 -0.10123450436E+04  0.10129715228E+04  0.00000000000E+00 0. -1.
         13    1    5    5    0    0  0.14542291669E+02  0.31389321830E+02  0.34511763542E+03  0.34684715661E+03  0.00000000000E+00 0. -1.
        -14    1    5    5    0    0 -0.60852398638E+02  0.17746540690E+02  0.27483869622E+03  0.28205365281E+03  0.00000000000E+00 0.  1.
          5    1    4    4  501    0  0.43204773600E+02  0.15311725244E+02  0.43017864814E+01  0.46228553501E+02  0.41800000000E+01 0.  1.
         -5    1    4    4    0  501  0.14542139455E+01 -0.11970637474E+03 -0.41406264386E+02  0.12674258172E+03  0.41800000000E+01 0.  1.
</event>
<event>
11    1  0.6763327E-009  0.1283893E+03  0.7561462E-02  0.1121264E+00
         22   -1    0    0    0    0  0.00000000000E+00  0.00000000000E+00  0.42462484937E+03  0.42462484937E+03  0.00000000000E+00 0.  1.
         22   -1    0    0    0    0 -0.00000000000E+00 -0.00000000000E+00 -0.10620726633E+03  0.10620726633E+03  0.00000000000E+00 0.  1.
        -24    2    1    2    0    0 -0.28587931400E+02 -0.10191858030E+02 -0.47692081182E+02  0.98417347490E+02  0.80562372654E+02 0.  0.
         25    2    1    2    0    0  0.25055372123E+02 -0.13315115156E+02  0.13219376222E+03  0.18419079558E+03  0.12508394958E+03 0.  0.
         24    2    1    2    0    0  0.35325592770E+01  0.23506973187E+02  0.23391590201E+03  0.24822397263E+03  0.79582878886E+02 0.  0.
        -13    1    5    5    0    0  0.23329098598E+02  0.14659380280E+02  0.22156076174E+03  0.22326736307E+03  0.00000000000E+00 0.  1.
         14    1    5    5    0    0 -0.19796539321E+02  0.88475929070E+01  0.12355140267E+02  0.24956609552E+02  0.00000000000E+00 0. -1.
         13    1    3    3    0    0 -0.14442037611E+02 -0.10724541381E+02  0.21362072668E+02  0.27927162170E+02  0.00000000000E+00 0. -1.
        -14    1    3    3    0    0 -0.14145893789E+02  0.53268335028E+00 -0.69054153849E+02  0.70490185320E+02  0.00000000000E+00 0.  1.
          5    1    4    4  501    0 -0.34529643234E+02  0.36529591260E+02  0.50224607950E+02  0.71180692208E+02  0.41800000000E+01 0. -1.
         -5    1    4    4    0  501  0.59585015357E+02 -0.49844706416E+02  0.81969154265E+02  0.11301010337E+03  0.41800000000E+01 0. -1.
</event>
<event>
11    1  0.6763327E-009  0.7978588E+03  0.7561462E-02  0.8899347E-01
         22   -1    0    0    0    0  0.00000000000E+00  0.00000000000E+00  0.55475520658E+03  0.55475520658E+03  0.00000000000E+00 0.  1.
         22   -1    0    0    0    0 -0.00000000000E+00 -0.00000000000E+00 -0.11156508829E+04  0.11156508829E+04  0.00000000000E+00 0.  1.
        -24    2    1    2    0    0  0.21441506290E+03 -0.20135377379E+03 -0.22957108125E+03  0.38183662083E+03  0.81112035121E+02 0.  0.
         25    2    1    2    0    0 -0.97048930201E+01 -0.47526268168E+03 -0.30267395146E+03  0.57725846740E+03  0.12508803199E+03 0.  0.
         24    2    1    2    0    0 -0.20471016988E+03  0.67661645547E+03 -0.28650643646E+02  0.71131100129E+03  0.73664100560E+02 0.  0.
        -11    1    5    5    0    0 -0.17785324835E+03  0.53269575957E+03  0.25998072739E+01  0.56160778948E+03  0.00000000000E+00 0.  1.
         12    1    5    5    0    0 -0.26856921532E+02  0.14392069591E+03 -0.31250450920E+02  0.14970321181E+03  0.00000000000E+00 0. -1.
         11    1    3    3    0    0  0.63564444396E+02 -0.44362649935E+02 -0.10655442918E+03  0.13176619323E+03  0.00000000000E+00 0. -1.
        -12    1    3    3    0    0  0.15085061851E+03 -0.15699112386E+03 -0.12301665207E+03  0.25007042760E+03  0.00000000000E+00 0.  1.
          5    1    4    4  501    0 -0.22920084896E+02 -0.30681124102E+02 -0.57938017845E+02  0.69576921314E+02  0.41800000000E+01 0.  1.
         -5    1    4    4    0  501  0.13215191876E+02 -0.44458155758E+03 -0.24473593361E+03  0.50768154608E+03  0.41800000000E+01 0.  1.
</event>
<event>
11    1  0.6763327E-009  0.1391272E+03  0.7561462E-02  0.1108537E+00
         22   -1    0    0    0    0  0.00000000000E+00  0.00000000000E+00  0.78727008737E+03  0.78727008737E+03  0.00000000000E+00 0. -1.
         22   -1    0    0    0    0 -0.00000000000E+00 -0.00000000000E+00 -0.32775505345E+03  0.32775505345E+03  0.00000000000E+00 0.  1.
         24    2    1    2    0    0 -0.60669147639E+02 -0.18870209138E+02 -0.26135550653E+03  0.28056498052E+03  0.79832181672E+02 0.  0.
         25    2    1    2    0    0  0.33139110581E+02  0.23387059540E+02  0.27730018705E+02  0.13439029143E+03  0.12508653520E+03 0.  0.
        -24    2    1    2    0    0  0.27530037058E+02 -0.45168504015E+01  0.69314052175E+03  0.70006986888E+03  0.94211111575E+02 0.  0.
        -11    1    3    3    0    0 -0.67497848871E+02 -0.29692274233E+02 -0.25648208065E+03  0.26687197014E+03  0.00000000000E+00 0.  1.
         12    1    3    3    0    0  0.68287012318E+01  0.10822065094E+02 -0.48734258819E+01  0.13693010379E+02  0.00000000000E+00 0. -1.
         11    1    5    5    0    0 -0.10099543841E+02  0.13629651446E+02  0.56574694535E+03  0.56600121409E+03  0.00000000000E+00 0. -1.
        -12    1    5    5    0    0  0.37629580899E+02 -0.18146501847E+02  0.12739357640E+03  0.13406865479E+03  0.00000000000E+00 0.  1.
          5    1    4    4  501    0  0.12213726193E+01 -0.49048634196E+02 -0.31010793375E+01  0.49339126063E+02  0.41800000000E+01 0.  1.
         -5    1    4    4    0  501  0.31917737962E+02  0.72435693736E+02  0.30831098042E+02  0.85051165366E+02  0.41800000000E+01 0.  1.
</event>
<event>
11    1  0.6763327E-009  0.1699431E+03  0.7561462E-02  0.1078081E+00
         22   -1    0    0    0    0  0.00000000000E+00  0.00000000000E+00  0.88724545336E+03  0.88724545336E+03  0.00000000000E+00 0. -1.
         22   -1    0    0    0    0 -0.00000000000E+00 -0.00000000000E+00 -0.50219615020E+03  0.50219615020E+03  0.00000000000E+00 0.  1.
         24    2    1    2    0    0  0.71876552127E+02  0.91701640616E+02 -0.46967383712E+03  0.49097785585E+03  0.83007903330E+02 0.  0.
         25    2    1    2    0    0 -0.70572576248E+02 -0.35391588453E+02  0.29503972650E+03  0.33004520805E+03  0.12509334952E+03 0.  0.
        -24    2    1    2    0    0 -0.13039758796E+01 -0.56310052163E+02  0.55968341378E+03  0.56841853966E+03  0.81740994881E+02 0.  0.
        -13    1    3    3    0    0  0.85205313095E+02  0.65873530555E+02 -0.41840150731E+03  0.43204061004E+03  0.00000000000E+00 0.  1.
         14    1    3    3    0    0 -0.13328760968E+02  0.25828110061E+02 -0.51272329815E+02  0.58937245804E+02  0.00000000000E+00 0. -1.
         13    1    5    5    0    0 -0.19603168072E+02 -0.58342201044E+01  0.38793026604E+03  0.38846906394E+03  0.00000000000E+00 0. -1.
        -14    1    5    5    0    0  0.18299192192E+02 -0.50475832059E+02  0.17175314773E+03  0.17994947572E+03  0.00000000000E+00 0.  1.
          5    1    4    4  501    0  0.12812297214E+02 -0.59169364915E+02  0.10917560392E+03  0.12490778036E+03  0.41800000000E+01 0. -1.
         -5    1    4    4    0  501 -0.83384873461E+02  0.23777776462E+02  0.18586412258E+03  0.20513742769E+03  0.41800000000E+01 0. -1.
</event>
<event>
11    1  0.6763327E-009  0.1612166E+03  0.7561462E-02  0.1085939E+00
         22   -1    0    0    0    0  0.00000000000E+00  0.00000000000E+00  0.11052403691E+04  0.11052403691E+04  0.00000000000E+00 0.  1.
         22   -1    0    0    0    0 -0.00000000000E+00 -0.00000000000E+00 -0.14056540541E+03  0.14056540541E+03  0.00000000000E+00 0.  1.
        -24    2    1    2    0    0 -0.24476624523E+02  0.46684177485E+02 -0.95139422318E+02  0.13610571026E+03  0.81821373196E+02 0.  0.
         25    2    1    2    0    0 -0.10088320359E+02 -0.13319905868E+03  0.42048342210E+03  0.45858189694E+03  0.12508910625E+03 0.  0.
         24    2    1    2    0    0  0.34564944882E+02  0.86514881194E+02  0.63933096394E+03  0.65111816734E+03  0.80816002775E+02 0.  0.
        -13    1    5    5    0    0  0.24223899463E+02  0.92615244539E+02  0.62558410564E+03  0.63286637931E+03  0.00000000000E+00 0.  1.
         14    1    5    5    0    0  0.10341045419E+02 -0.61003633455E+01  0.13746858299E+02  0.18251788033E+02  0.00000000000E+00 0. -1.
         13    1    3    3    0    0  0.10780483197E+02 -0.59410277765E+01  0.82758112885E+01  0.14832521076E+02  0.00000000000E+00 0. -1.
        -14    1    3    3    0    0 -0.35257107720E+02  0.52625205261E+02 -0.10341523361E+03  0.12127318919E+03  0.00000000000E+00 0.  1.
          5    1    4    4  501    0 -0.66496882728E+02 -0.87461849146E+02  0.26607796632E+03  0.28789992537E+03  0.41800000000E+01 0.  1.
         -5    1    4    4    0  501  0.56408562369E+02 -0.45737209532E+02  0.15440545578E+03  0.17068197157E+03  0.41800000000E+01 0.  1.
</event>
<event>
11    1  0.6763327E-009  0.1725847E+03  0.7561462E-02  0.1075804E+00
         22   -1    0    0    0    0  0.00000000000E+00  0.00000000000E+00  0.73687864019E+03  0.73687864019E+03  0.00000000000E+00 0.  1.
         22   -1    0    0    0    0 -0.00000000000E+00 -0.00000000000E+00 -0.24828406547E+03  0.24828406547E+03  0.00000000000E+00 0. -1.
        -24    2    1    2    0    0  0.22715275743E+02  0.11756698641E+03 -0.11083996669E+03  0.18300266362E+03  0.82864326643E+02 0.  0.
         25    2    1    2    0    0 -0.70616394291E+02 -0.10222826700E+03 -0.18139390345E+02  0.17723961743E+03  0.12509017063E+03 0.  0.
         24    2    1    2    0    0  0.47901118548E+02 -0.15338719408E+02  0.61757393175E+03  0.62492042461E+03  0.81229197047E+02 0.  0.
        -13    1    5    5    0    0  0.70703916367E+02 -0.12714411994E+02  0.43199118170E+03  0.43792360193E+03  0.00000000000E+00 0.  1.
         14    1    5    5    0    0 -0.22802797819E+02 -0.26243074140E+01  0.18558275004E+03  0.18699682268E+03  0.00000000000E+00 0. -1.
         13    1    3    3    0    0  0.44382847516E+02  0.25891316566E+02 -0.40997063949E+02  0.65733984206E+02  0.00000000000E+00 0. -1.
        -14    1    3    3    0    0 -0.21667571773E+02  0.91675669843E+02 -0.69842902738E+02  0.11726867941E+03  0.00000000000E+00 0.  1.
          5    1    4    4  501    0 -0.34230432501E+02 -0.12662635984E+03 -0.50851010662E+01  0.13133654544E+03  0.41800000000E+01 0.  1.
         -5    1    4    4    0  501 -0.36385961791E+02  0.24398092841E+02 -0.13054289279E+02  0.45903071992E+02  0.41800000000E+01 0.  1.
</event>
<event>
11    1  0.6763327E-009  0.1686672E+03  0.7561462E-02  0.1079197E+00
         22   -1    0    0    0    0  0.00000000000E+00  0.00000000000E+00  0.20966916068E+03  0.20966916068E+03  0.00000000000E+00 0. -1.
         22   -1    0    0    0    0 -0.00000000000E+00 -0.00000000000E+00 -0.59286568577E+03  0.59286568577E+03  0.00000000000E+00 0.  1.
         24    2    1    2    0    0 -0.22250769944E+02  0.25387612719E+02 -0.34093664609E+03  0.35195308931E+03  0.80582583619E+02 0.  0.
         25    2    1    2    0    0  0.87970011364E+02  0.67773280178E+02 -0.18608486603E+03  0.25020464924E+03  0.12507137455E+03 0.  0.
        -24    2    1    2    0    0 -0.65719241420E+02 -0.93160892897E+02  0.14382498703E+03  0.20037710790E+03  0.80420070990E+02 0.  0.
        -13    1    3    3    0    0 -0.37085181880E+02 -0.15994697217E+02 -0.11790835633E+03  0.12463354904E+03  0.00000000000E+00 0.  1.
         14    1    3    3    0    0  0.14834411937E+02  0.41382309937E+02 -0.22302828976E+03  0.22731954027E+03  0.00000000000E+00 0. -1.
         13    1    5    5    0    0 -0.83773673367E+02 -0.74308708247E+02  0.10443045102E+03  0.15311933768E+03  0.00000000000E+00 0. -1.
        -14    1    5    5    0    0  0.18054431947E+02 -0.18852184651E+02  0.39394536002E+02  0.47257770217E+02  0.00000000000E+00 0.  1.
          5    1    4    4  501    0  0.90457180234E+02  0.74038923530E+02 -0.75244451583E+02  0.13908078065E+03  0.41800000000E+01 0. -1.
         -5    1    4    4    0  501 -0.24871688705E+01 -0.62656433523E+01 -0.11084041444E+03  0.11112386858E+03  0.41800000000E+01 0. -1.
</event>
<event>
11    1  0.6763327E-009  0.1401023E+03  0.7561462E-02  0.1107444E+00
         22   -1    0    0    0    0  0.00000000000E+00  0.00000000000E+00  0.26436766462E+03  0.26436766462E+03  0.00000000000E+00 0.  1.
         22   -1    0    0    0    0 -0.00000000000E+00 -0.00000000000E+00 -0.34888282098E+03  0.34888282098E+03  0.00000000000E+00 0.  1.
         24    2    1    2    0    0  0.21665915920E+02 -0.17806883675E+02 -0.17330864987E+03  0.19316471210E+03  0.80561907015E+02 0.  0.
         25    2    1    2    0    0 -0.42585157240E+02 -0.42425466234E+02 -0.12260866089E+03  0.18518449293E+03  0.12508795663E+03 0.  0.
        -24    2    1    2    0    0  0.20919241320E+02  0.60232349909E+02  0.21140215440E+03  0.23490128057E+03  0.80138568087E+02 0.  0.
        -11    1    3    3    0    0  0.42867262256E+02  0.10774849380E+02 -0.12883193507E+03  0.13620340321E+03  0.00000000000E+00 0.  1.
         12    1    3    3    0    0 -0.21201346335E+02 -0.28581733055E+02 -0.44476714801E+02  0.56961308889E+02  0.00000000000E+00 0. -1.
         13    1    5    5    0    0  0.93746069552E+00 -0.18087975197E+02  0.19201547916E+02  0.26396081558E+02  0.00000000000E+00 0. -1.
        -14    1    5    5    0    0  0.19981780624E+02  0.78320325105E+02  0.19220060649E+03  0.20850519901E+03  0.00000000000E+00 0.  1.
          5    1    4    4  501    0 -0.60016808346E+02 -0.21603631084E+02 -0.13913864925E+03  0.15312011714E+03  0.41800000000E+01 0.  1.
         -5    1    4    4    0  501  0.17431651106E+02 -0.20821835150E+02  0.16529988360E+02  0.32064375785E+02  0.41800000000E+01 0.  1.
</event>
<event>
11    1  0.6763327E-009  0.1472219E+03  0.7561462E-02  0.1099752E+00
         22   -1    0    0    0    0  0.00000000000E+00  0.00000000000E+00  0.10482177229E+03  0.10482177229E+03  0.00000000000E+00 0.  1.
         22   -1    0    0    0    0 -0.00000000000E+00 -0.00000000000E+00 -0.24738593643E+04  0.24738593643E+04  0.00000000000E+00 0.  1.
         24    2    1    2    0    0  0.15835470234E+02 -0.85884404070E-01 -0.21949512585E+04  0.21964068188E+04  0.78365280748E+02 0.  0.
         25    2    1    2    0    0  0.64075581962E+02  0.90055421349E+00 -0.21730073204E+03  0.25879303929E+03  0.12509091828E+03 0.  0.
        -24    2    1    2    0    0 -0.79911052196E+02 -0.81466980942E+00  0.43214398450E+02  0.12348127852E+03  0.83628356208E+02 0.  0.
        -11    1    3    3    0    0 -0.94845341038E+00  0.34873184059E+01 -0.20943075659E+04  0.20943106841E+04  0.00000000000E+00 0.  1.
         12    1    3    3    0    0  0.16783923644E+02 -0.35732028099E+01 -0.10064369251E+03  0.10209613467E+03  0.00000000000E+00 0. -1.
         13    1    5    5    0    0 -0.53391900750E+02  0.10167646970E+02 -0.16856287540E+02  0.56905276911E+02  0.00000000000E+00 0. -1.
        -14    1    5    5    0    0 -0.26519151446E+02 -0.10982316779E+02  0.60070685990E+02  0.66576001611E+02  0.00000000000E+00 0.  1.
          5    1    4    4  501    0  0.59354372091E+01 -0.22160509070E+02 -0.18827384477E+03  0.18971249459E+03  0.41800000000E+01 0. -1.
         -5    1    4    4    0  501  0.58140144753E+02  0.23061063283E+02 -0.29026887268E+02  0.69080544701E+02  0.41800000000E+01 0. -1.
</event>
<event>
11    1  0.6763327E-009  0.1322627E+03  0.7561462E-02  0.1116520E+00
         22   -1    0    0    0    0  0.00000000000E+00  0.00000000000E+00  0.12192401186E+03  0.12192401186E+03  0.00000000000E+00 0. -1.
         22   -1    0    0    0    0 -0.00000000000E+00 -0.00000000000E+00 -0.12823462580E+04  0.12823462580E+04  0.00000000000E+00 0. -1.
        -24    2    1    2    0    0 -0.10326027561E+02  0.18642021736E+02 -0.94573837247E+03  0.94942514255E+03  0.80826235377E+02 0.  0.
         25    2    1    2    0    0  0.52237842044E+02 -0.11329388623E+02 -0.30071819464E+03  0.33005466791E+03  0.12508998375E+03 0.  0.
         24    2    1    2    0    0 -0.41911814483E+02 -0.73126331131E+01  0.86034320980E+02  0.12479045939E+03  0.79753868697E+02 0.  0.
        -11    1    5    5    0    0 -0.79537450307E+01 -0.36990706201E+02  0.64581642954E+02  0.74848934608E+02  0.00000000000E+00 0.  1.
         12    1    5    5    0    0 -0.33958069452E+02  0.29678073088E+02  0.21452678026E+02  0.49941524783E+02  0.00000000000E+00 0. -1.
         13    1    3    3    0    0  0.73159478339E+01  0.43978403445E+02 -0.74435692844E+03  0.74569086087E+03  0.00000000000E+00 0. -1.
        -14    1    3    3    0    0 -0.17641975395E+02 -0.25336381709E+02 -0.20138144402E+03  0.20373428168E+03  0.00000000000E+00 0.  1.
          5    1    4    4  501    0  0.42742715537E+02 -0.65811717447E+02 -0.20322957574E+03  0.21789413654E+03  0.41800000000E+01 0. -1.
         -5    1    4    4    0  501  0.94951265064E+01  0.54482328824E+02 -0.97488618906E+02  0.11216053137E+03  0.41800000000E+01 0. -1.
</event>
<event>
11    1  0.6763327E-009  0.1292745E+03  0.7561462E-02  0.1120164E+00
         22   -1    0    0    0    0  0.00000000000E+00  0.00000000000E+00  0.21407400423E+03  0.21407400423E+03  0.00000000000E+00 0.  1.
         22   -1    0    0    0    0 -0.00000000000E+00 -0.00000000000E+00 -0.22304136726E+03  0.22304136726E+03  0.00000000000E+00 0. -1.
         24    2    1    2    0    0  0.21702895857E+02  0.11012253432E+00 -0.93930509717E+02  0.12559995692E+03  0.80507022720E+02 0.  0.
         25    2    1    2    0    0 -0.46259587144E+02 -0.18603502428E+02 -0.56336646901E+02  0.14596855114E+03  0.12508781089E+03 0.  0.
        -24    2    1    2    0    0  0.24556691287E+02  0.18493379893E+02  0.14129979359E+03  0.16554686342E+03  0.80592159263E+02 0.  0.
        -13    1    3    3    0    0  0.19719211012E+02  0.18940721965E+02  0.23801480602E+01  0.27445643302E+02  0.00000000000E+00 0.  1.
         14    1    3    3    0    0  0.19836848449E+01 -0.18830599431E+02 -0.96310657777E+02  0.98154313618E+02  0.00000000000E+00 0. -1.
         11    1    5    5    0    0 -0.29811414577E+01  0.96241181964E+01 -0.83750477771E+01  0.13101613669E+02  0.00000000000E+00 0. -1.
        -12    1    5    5    0    0  0.27537832744E+02  0.88692616969E+01  0.14967484136E+03  0.15244524975E+03  0.00000000000E+00 0.  1.
          5    1    4    4  501    0 -0.44022357639E+02  0.95929936948E+01  0.30484971916E+02  0.54560053270E+02  0.41800000000E+01 0. -1.
         -5    1    4    4    0  501 -0.22372295046E+01 -0.28196496122E+02 -0.86821618817E+02  0.91408497873E+02  0.41800000000E+01 0. -1.
</event>
<event>
11    1  0.6763327E-009  0.1349255E+03  0.7561462E-02  0.1113361E+00
         22   -1    0    0    0    0  0.00000000000E+00  0.00000000000E+00  0.18150094256E+04  0.18150094256E+04  0.00000000000E+00 0. -1.
         22   -1    0    0    0    0 -0.00000000000E+00 -0.00000000000E+00 -0.33837299489E+03  0.33837299489E+03  0.00000000000E+00 0. -1.
         24    2    1    2    0    0 -0.21442343676E+02 -0.43040784599E+02 -0.30885838607E+03  0.32271050317E+03  0.80226448084E+02 0.  0.
         25    2    1    2    0    0  0.62885624095E+02  0.13392393062E+02  0.21230906022E+03  0.25466986580E+03  0.12509054955E+03 0.  0.
        -24    2    1    2    0    0 -0.41443280419E+02  0.29648391537E+02  0.15731857565E+04  0.15760020515E+04  0.79198921331E+02 0.  0.
        -13    1    3    3    0    0 -0.10442379383E+02 -0.20903243040E+02 -0.14896133747E+02  0.27710713765E+02  0.00000000000E+00 0.  1.
         14    1    3    3    0    0 -0.10999964293E+02 -0.22137541559E+02 -0.29396225232E+03  0.29499978941E+03  0.00000000000E+00 0. -1.
         11    1    5    5    0    0 -0.11388819764E+02 -0.23895172595E+02  0.25113586983E+03  0.25252704727E+03  0.00000000000E+00 0. -1.
        -12    1    5    5    0    0 -0.30054460655E+02  0.53543564132E+02  0.13220498867E+04  0.13234750042E+04  0.00000000000E+00 0.  1.
          5    1    4    4  501    0  0.29710189316E+01 -0.48567327732E+02  0.44952337335E+02  0.66376180279E+02  0.41800000000E+01 0.  1.
         -5    1    4    4    0  501  0.59914605164E+02  0.61959720794E+02  0.16735672288E+03  0.18829368552E+03  0.41800000000E+01 0.  1.
</event>
<event>
11    1  0.6763327E-009  0.2028906E+03  0.7561462E-02  0.1052498E+00
         22   -1    0    0    0    0  0.00000000000E+00  0.00000000000E+00  0.27830099669E+04  0.27830099669E+04  0.00000000000E+00 0. -1.
         22   -1    0    0    0    0 -0.00000000000E+00 -0.00000000000E+00 -0.14974656909E+03  0.14974656909E+03  0.00000000000E+00 0.  1.
         24    2    1    2    0    0 -0.21926936427E+02 -0.18313981277E+02 -0.39027742373E+02  0.94254391178E+02  0.80898288798E+02 0.  0.
         25    2    1    2    0    0  0.11656071244E+03 -0.11045343152E+03  0.49180772318E+02  0.20940968453E+03  0.12508919773E+03 0.  0.
        -24    2    1    2    0    0 -0.94633776012E+02  0.12876741280E+03  0.26231103679E+04  0.26290924603E+04  0.76697878530E+02 0.  0.
        -11    1    3    3    0    0 -0.14139599937E+02 -0.34849649641E+02 -0.57215593538E+02  0.68469339930E+02  0.00000000000E+00 0.  1.
         12    1    3    3    0    0 -0.77873364899E+01  0.16535668365E+02  0.18187851165E+02  0.25785051248E+02  0.00000000000E+00 0. -1.
         11    1    5    5    0    0 -0.81169699420E+02  0.96955489642E+02  0.23995202912E+04  0.24028496655E+04  0.00000000000E+00 0. -1.
        -12    1    5    5    0    0 -0.13464076592E+02  0.31811923155E+02  0.22359007673E+03  0.22624279486E+03  0.00000000000E+00 0.  1.
          5    1    4    4  501    0  0.53106713585E+02  0.18640310296E+02  0.30909518409E+02  0.64347920899E+02  0.41800000000E+01 0.  1.
         -5    1    4    4    0  501  0.63453998854E+02 -0.12909374182E+03  0.18271253908E+02  0.14506176363E+03  0.41800000000E+01 0.  1.
</event>
<event>
11    1  0.6763327E-009  0.1494342E+03  0.7561462E-02  0.1097458E+00
         22   -1    0    0    0    0  0.00000000000E+00  0.00000000000E+00  0.21343319746E+04  0.21343319746E+04  0.00000000000E+00 0. -1.
         22   -1    0    0    0    0 -0.00000000000E+00 -0.00000000000E+00 -0.46501711758E+02  0.46501711758E+02  0.00000000000E+00 0. -1.
         24    2    1    2    0    0  0.52448193113E+02 -0.36526144654E+01  0.67704528111E+02  0.11758080282E+03  0.80480976086E+02 0.  0.
         25    2    1    2    0    0  0.22370980059E+02  0.45039827254E+02  0.21079840082E+03  0.25022403431E+03  0.12508818797E+03 0.  0.
        -24    2    1    2    0    0 -0.74819173172E+02 -0.41387212789E+02  0.18093273339E+04  0.18130288492E+04  0.78085829977E+02 0.  0.
        -11    1    3    3    0    0  0.40508875221E+02  0.33782598400E+02  0.55191335516E+02  0.76343411257E+02  0.00000000000E+00 0.  1.
         12    1    3    3    0    0  0.11939317892E+02 -0.37435212865E+02  0.12513192595E+02  0.41237391563E+02  0.00000000000E+00 0. -1.
         11    1    5    5    0    0 -0.77244293366E+02 -0.33968704901E+01  0.11387843087E+04  0.11414061158E+04  0.00000000000E+00 0. -1.
        -12    1    5    5    0    0  0.24251201944E+01 -0.37990342299E+02  0.67054302519E+03  0.67162273335E+03  0.00000000000E+00 0.  1.
          5    1    4    4  501    0 -0.43673769603E+02 -0.94626465000E+01  0.44913898901E+02  0.63495437195E+02  0.41800000000E+01 0.  1.
         -5    1    4    4    0  501  0.66044749662E+02  0.54502473754E+02  0.16588450192E+03  0.18672859711E+03  0.41800000000E+01 0.  1.
</event>
<event>
11    1  0.6763327E-009  0.1437878E+03  0.7561462E-02  0.1103401E+00
         22   -1    0    0    0    0  0.00000000000E+00  0.00000000000E+00  0.25844736320E+03  0.25844736320E+03  0.00000000000E+00 0.  1.
         22   -1    0    0    0    0 -0.00000000000E+00 -0.00000000000E+00 -0.12475397855E+04  0.12475397855E+04  0.00000000000E+00 0. -1.
         24    2    1    2    0    0  0.66598261538E+02 -0.14791862490E+02 -0.99613096132E+03  0.10016574847E+04  0.79916813094E+02 0.  0.
         25    2    1    2    0    0 -0.85932696958E+02  0.58641424499E+02 -0.21312605247E+03  0.26813066111E+03  0.12509233435E+03 0.  0.
        -24    2    1    2    0    0  0.19334435421E+02 -0.43849562009E+02  0.22016459149E+03  0.23619900283E+03  0.70858430071E+02 0.  0.
        -11    1    3    3    0    0  0.13782940545E+02  0.31709131652E+02 -0.35213321914E+03  0.35382657122E+03  0.00000000000E+00 0.  1.
         12    1    3    3    0    0  0.52815320992E+02 -0.46500994142E+02 -0.64399774218E+03  0.64783091353E+03  0.00000000000E+00 0. -1.
         11    1    5    5    0    0 -0.10855980585E+01  0.19217809182E+02  0.48686021936E+02  0.52352950679E+02  0.00000000000E+00 0. -1.
        -12    1    5    5    0    0  0.20420033479E+02 -0.63067371192E+02  0.17147856955E+03  0.18384605215E+03  0.00000000000E+00 0.  1.
          5    1    4    4  501    0  0.77122820884E+01 -0.79772883758E+01 -0.11881305924E+03  0.11940323224E+03  0.41800000000E+01 0.  1.
         -5    1    4    4    0  501 -0.93644979047E+02  0.66618712875E+02 -0.94312993231E+02  0.14872742887E+03  0.41800000000E+01 0.  1.
</event>
<event>
11    1  0.6763327E-009  0.1570044E+03  0.7561462E-02  0.1089929E+00
         22   -1    0    0    0    0  0.00000000000E+00  0.00000000000E+00  0.76558956750E+03  0.76558956750E+03  0.00000000000E+00 0. -1.
         22   -1    0    0    0    0 -0.00000000000E+00 -0.00000000000E+00 -0.98995361625E+03  0.98995361625E+03  0.00000000000E+00 0. -1.
         24    2    1    2    0    0  0.29635796187E+02  0.89079547636E+02 -0.90820104133E+03  0.91661778039E+03  0.80904744234E+02 0.  0.
         25    2    1    2    0    0 -0.98548448573E+02 -0.96427399454E+02  0.45339426899E+02  0.19160369312E+03  0.12508505708E+03 0.  0.
        -24    2    1    2    0    0  0.68912652386E+02  0.73478518187E+01  0.63849756568E+03  0.64732171023E+03  0.80890732300E+02 0.  0.
        -13    1    3    3    0    0  0.14637890340E+02  0.64044727268E+02 -0.27476489126E+03  0.28250971735E+03  0.00000000000E+00 0.  1.
         14    1    3    3    0    0  0.14997905847E+02  0.25034820368E+02 -0.63343615007E+03  0.63410806305E+03  0.00000000000E+00 0. -1.
         11    1    5    5    0    0  0.35338440657E+02  0.35759379764E+02  0.48643748460E+03  0.48902859329E+03  0.00000000000E+00 0. -1.
        -12    1    5    5    0    0  0.33574211730E+02 -0.28411527946E+02  0.15206008107E+03  0.15829311694E+03  0.00000000000E+00 0.  1.
          5    1    4    4  501    0 -0.51902962327E+02 -0.12115598031E+03  0.21856423971E+02  0.13367073251E+03  0.41800000000E+01 0. -1.
         -5    1    4    4    0  501 -0.46645486247E+02  0.24728580852E+02  0.23483002929E+02  0.57932960607E+02  0.41800000000E+01 0. -1.
</event>
<event>
11    1  0.6763327E-009  0.2090325E+03  0.7561462E-02  0.1048314E+00
         22   -1    0    0    0    0  0.00000000000E+00  0.00000000000E+00  0.71540961897E+03  0.71540961897E+03  0.00000000000E+00 0.  1.
         22   -1    0    0    0    0 -0.00000000000E+00 -0.00000000000E+00 -0.65854532189E+03  0.65854532189E+03  0.00000000000E+00 0. -1.
         24    2    1    2    0    0  0.15339439570E+03 -0.38433491930E+02 -0.47942744659E+03  0.51092003611E+03  0.78623360520E+02 0.  0.
         25    2    1    2    0    0 -0.21700319481E+03  0.13588061993E+03 -0.22656855331E+02  0.28585713778E+03  0.12508813172E+03 0.  0.
        -24    2    1    2    0    0  0.63608799112E+02 -0.97447128004E+02  0.55894859901E+03  0.57717776697E+03  0.84667681369E+02 0.  0.
        -11    1    3    3    0    0  0.65237994223E+02 -0.39043884663E+02 -0.13053823607E+03  0.15106505849E+03  0.00000000000E+00 0.  1.
         12    1    3    3    0    0  0.88156401474E+02  0.61039273259E+00 -0.34888921053E+03  0.35985497763E+03  0.00000000000E+00 0. -1.
         11    1    5    5    0    0  0.99748028646E+01 -0.77218281684E+02  0.21896793758E+03  0.23239861748E+03  0.00000000000E+00 0. -1.
        -12    1    5    5    0    0  0.53633996248E+02 -0.20228846319E+02  0.33998066142E+03  0.34477914948E+03  0.00000000000E+00 0.  1.
          5    1    4    4  501    0 -0.18068127091E+03  0.56751268558E+02  0.16802249125E+02  0.19017417311E+03  0.41800000000E+01 0. -1.
         -5    1    4    4    0  501 -0.36321923898E+02  0.79129351376E+02 -0.39459104456E+02  0.95682964676E+02  0.41800000000E+01 0. -1.
</event>
<event>
11    1  0.6763327E-009  0.1443255E+03  0.7561462E-02  0.1102822E+00
         22   -1    0    0    0    0  0.00000000000E+00  0.00000000000E+00  0.76469987800E+02  0.76469987800E+02  0.00000000000E+00 0. -1.
         22   -1    0    0    0    0 -0.00000000000E+00 -0.00000000000E+00 -0.26573215175E+04  0.26573215175E+04  0.00000000000E+00 0. -1.
         24    2    1    2    0    0 -0.55593293922E+02  0.67265855721E+02 -0.14958817943E+04  0.15009936360E+04  0.87773816726E+02 0.  0.
         25    2    1    2    0    0 -0.31148966954E+02 -0.67571948203E+02 -0.11030155244E+04  0.11125764992E+04  0.12508794246E+03 0.  0.
        -24    2    1    2    0    0  0.86742260876E+02  0.30609248244E+00  0.18045788997E+02  0.12022137010E+03  0.81260161291E+02 0.  0.
        -11    1    3    3    0    0  0.16189335055E+02  0.96672070451E+01 -0.82887913247E+02  0.85005621132E+02  0.00000000000E+00 0.  1.
         12    1    3    3    0    0 -0.71782628977E+02  0.57598648676E+02 -0.14129938811E+04  0.14159880148E+04  0.00000000000E+00 0. -1.
         11    1    5    5    0    0  0.90128799982E+02  0.24755078067E+02  0.19564321144E+02  0.95492288369E+02  0.00000000000E+00 0. -1.
        -12    1    5    5    0    0 -0.33865391060E+01 -0.24448985584E+02 -0.15185321470E+01  0.24729081728E+02  0.00000000000E+00 0.  1.
          5    1    4    4  501    0 -0.11583257846E+02  0.25337687898E+02 -0.60002194173E+03  0.60068292239E+03  0.41800000000E+01 0. -1.
         -5    1    4    4    0  501 -0.19565709107E+02 -0.92909636101E+02 -0.50299358263E+03  0.51189357685E+03  0.41800000000E+01 0. -1.
</event>
<event>
11    1  0.6763327E-009  0.4333611E+03  0.7561462E-02  0.9556149E-01
         22   -1    0    0    0    0  0.00000000000E+00  0.00000000000E+00  0.13737190421E+04  0.13737190421E+04  0.00000000000E+00 0. -1.
         22   -1    0    0    0    0 -0.00000000000E+00 -0.00000000000E+00 -0.83884797862E+03  0.83884797862E+03  0.00000000000E+00 0. -1.
         24    2    1    2    0    0  0.69514616742E+01 -0.19923905488E+02 -0.65760564430E+03  0.66304557249E+03  0.82091186839E+02 0.  0.
         25    2    1    2    0    0 -0.40880312080E+03  0.11148124925E+03  0.22709018577E+03  0.49675502740E+03  0.12509014453E+03 0.  0.
        -24    2    1    2    0    0  0.40185165913E+03 -0.91557343759E+02  0.96538652200E+03  0.10527664208E+04  0.80489109810E+02 0.  0.
        -13    1    3    3    0    0 -0.58874252842E+00 -0.26531671973E+02 -0.63076152445E+02  0.68431551514E+02  0.00000000000E+00 0.  1.
         14    1    3    3    0    0  0.75402042027E+01  0.66077664849E+01 -0.59452949185E+03  0.59461402098E+03  0.00000000000E+00 0. -1.
         11    1    5    5    0    0  0.35724671371E+03 -0.96193524123E+02  0.90371441511E+03  0.97651326290E+03  0.00000000000E+00 0. -1.
        -12    1    5    5    0    0  0.44604945416E+02  0.46361803636E+01  0.61672106888E+02  0.76253157914E+02  0.00000000000E+00 0.  1.
          5    1    4    4  501    0 -0.29523605521E+03  0.13500020953E+03  0.18241802679E+03  0.37240192502E+03  0.41800000000E+01 0. -1.
         -5    1    4    4    0  501 -0.11356706560E+03 -0.23518960279E+02  0.44672158983E+02  0.12435310237E+03  0.41800000000E+01 0. -1.
</event>
<event>
11    1  0.6763327E-009  0.1334380E+03  0.7561462E-02  0.1115116E+00
         22   -1    0    0    0    0  0.00000000000E+00  0.00000000000E+00  0.10122730824E+04  0.10122730824E+04  0.00000000000E+00 0. -1.
         22   -1    0    0    0    0 -0.00000000000E+00 -0.00000000000E+00 -0.37902909889E+03  0.37902909889E+03  0.00000000000E+00 0.  1.
         24    2    1    2    0    0 -0.23769369940E+02 -0.38229685266E+02 -0.30069421090E+03  0.31412037669E+03  0.78918380638E+02 0.  0.
         25    2    1    2    0    0  0.60689174280E+02  0.34436898786E+02  0.42798909282E+01  0.14329984161E+03  0.12508977283E+03 0.  0.
        -24    2    1    2    0    0 -0.36919804340E+02  0.37927864808E+01  0.92965830343E+03  0.93388196294E+03  0.80582270894E+02 0.  0.
        -11    1    3    3    0    0 -0.15394978391E+02 -0.44789943415E+02 -0.29971871759E+03  0.30343772683E+03  0.00000000000E+00 0.  1.
         12    1    3    3    0    0 -0.83743915486E+01  0.65602581486E+01 -0.97549330488E+00  0.10682649857E+02  0.00000000000E+00 0. -1.
         13    1    5    5    0    0 -0.30580926512E+02  0.12586934587E+02  0.91526842874E+03  0.91586566735E+03  0.00000000000E+00 0. -1.
        -14    1    5    5    0    0 -0.63388778280E+01 -0.87941481061E+01  0.14389874696E+02  0.18016295590E+02  0.00000000000E+00 0.  1.
          5    1    4    4  501    0  0.87817812600E+02  0.53284642925E+02  0.22652928372E+02  0.10527036119E+03  0.41800000000E+01 0.  1.
         -5    1    4    4    0  501 -0.27128638320E+02 -0.18847744140E+02 -0.18373037444E+02  0.38029480422E+02  0.41800000000E+01 0.  1.
</event>
<event>
11    1  0.6763327E-009  0.1323841E+03  0.7561462E-02  0.1116374E+00
         22   -1    0    0    0    0  0.00000000000E+00  0.00000000000E+00  0.97239986700E+03  0.97239986700E+03  0.00000000000E+00 0. -1.
         22   -1    0    0    0    0 -0.00000000000E+00 -0.00000000000E+00 -0.21625474293E+03  0.21625474293E+03  0.00000000000E+00 0. -1.
         24    2    1    2    0    0 -0.43260721026E+02 -0.87077656361E+00 -0.12904346274E+03  0.15812187093E+03  0.80486412240E+02 0.  0.
         25    2    1    2    0    0  0.41079053340E+02 -0.39730904955E+02 -0.32232909932E+01  0.13756286009E+03  0.12508843848E+03 0.  0.
        -24    2    1    2    0    0  0.21816676857E+01  0.40601681519E+02  0.88841187780E+03  0.89296987891E+03  0.80413206657E+02 0.  0.
        -13    1    3    3    0    0 -0.38554764661E+01  0.14218133417E+02  0.65445558572E+01  0.16119901613E+02  0.00000000000E+00 0.  1.
         14    1    3    3    0    0 -0.39405244560E+02 -0.15088909980E+02 -0.13558801859E+03  0.14200196932E+03  0.00000000000E+00 0. -1.
         13    1    5    5    0    0 -0.62153146015E+01 -0.48574096369E+01  0.65376660397E+03  0.65381419152E+03  0.00000000000E+00 0. -1.
        -14    1    5    5    0    0  0.83969822872E+01  0.45459091155E+02  0.23464527383E+03  0.23915568739E+03  0.00000000000E+00 0.  1.
          5    1    4    4  501    0  0.58262835946E+02 -0.55790032886E+02  0.38503236420E+02  0.89482162673E+02  0.41800000000E+01 0.  1.
         -5    1    4    4    0  501 -0.17183782605E+02  0.16059127931E+02 -0.41726527414E+02  0.48080697421E+02  0.41800000000E+01 0.  1.
</event>
<event>
11    1  0.6763327E-009  0.1610063E+03  0.7561462E-02  0.1086135E+00
         22   -1    0    0    0    0  0.00000000000E+00  0.00000000000E+00  0.27387499623E+03  0.27387499623E+03  0.00000000000E+00 0. -1.
         22   -1    0    0    0    0 -0.00000000000E+00 -0.00000000000E+00 -0.12705341306E+04  0.12705341306E+04  0.00000000000E+00 0.  1.
        -24    2    1    2    0    0 -0.13878342386E+02  0.59955221176E+01 -0.11385966416E+04  0.11413843804E+04  0.78277945342E+02 0.  0.
         25    2    1    2    0    0  0.11319431174E+03 -0.83074794033E+01 -0.47860651420E+02  0.17555661718E+03  0.12509003740E+03 0.  0.
         24    2    1    2    0    0 -0.99315969354E+02  0.23119572856E+01  0.18979815866E+03  0.22746812931E+03  0.76481382735E+02 0.  0.
        -11    1    5    5    0    0 -0.11222818677E+02 -0.27097773947E+02  0.26108017086E+02  0.39266647019E+02  0.00000000000E+00 0.  1.
         12    1    5    5    0    0 -0.88093150678E+02  0.29409731233E+02  0.16369014157E+03  0.18820148229E+03  0.00000000000E+00 0. -1.
         13    1    3    3    0    0 -0.26229558454E+02  0.26810822978E+02 -0.28658499298E+03  0.28902900922E+03  0.00000000000E+00 0. -1.
        -14    1    3    3    0    0  0.12351216068E+02 -0.20815300860E+02 -0.85201164866E+03  0.85235537115E+03  0.00000000000E+00 0.  1.
          5    1    4    4  501    0  0.10554444684E+02  0.47853626751E+02 -0.27980061104E+00  0.49182482493E+02  0.41800000000E+01 0. -1.
         -5    1    4    4    0  501  0.10263986706E+03 -0.56161106154E+02 -0.47580850809E+02  0.12637413469E+03  0.41800000000E+01 0. -1.
</event>
<event>
11    1  0.6821334E-009  0.1599012E+03  0.7561462E-02  0.1087170E+00
         22   -1    0    0    0    0  0.00000000000E+00  0.00000000000E+00  0.78413974205E+03  0.78413974205E+03  0.00000000000E+00 0.  1.
         22   -1    0    0    0    0 -0.00000000000E+00 -0.00000000000E+00 -0.25543035589E+03  0.25543035589E+03  0.00000000000E+00 0. -1.
        -24    2    1    2    0    0  0.20599596073E+02 -0.78988448217E+02 -0.20392260260E+03  0.23385233353E+03  0.80243178753E+02 0.  0.
         25    2    1    2    0    0  0.40402879154E+02 -0.20873483954E+02  0.12797678728E+03  0.18464357652E+03  0.12508835794E+03 0.  0.
         24    2    1    2    0    0 -0.61002475227E+02  0.99861932171E+02  0.60465520148E+03  0.62107418788E+03  0.80196799766E+02 0.  0.
        -11    1    5    5    0    0 -0.60362872690E+02  0.92219243142E+02  0.60330072913E+03  0.61328609554E+03  0.00000000000E+00 0.  1.
         12    1    5    5    0    0 -0.63960253735E+00  0.76426890295E+01  0.13544723461E+01  0.77880923430E+01  0.00000000000E+00 0. -1.
         13    1    3    3    0    0  0.19477404367E+02 -0.49722485911E+02 -0.19651658765E+03  0.20364298198E+03  0.00000000000E+00 0. -1.
        -14    1    3    3    0    0  0.11221917054E+01 -0.29265962307E+02 -0.74060149501E+01  0.30209351556E+02  0.00000000000E+00 0.  1.
          5    1    4    4  501    0 -0.25546261016E+00  0.21065026283E+02 -0.17575703576E+02  0.27752087302E+02  0.41800000000E+01 0.  1.
         -5    1    4    4    0  501  0.40658341764E+02 -0.41938510236E+02  0.14555249085E+03  0.15689148922E+03  0.41800000000E+01 0.  1.
</event>
<event>
11    1  0.6763327E-009  0.1573010E+03  0.7561462E-02  0.1089644E+00
         22   -1    0    0    0    0  0.00000000000E+00  0.00000000000E+00  0.17734645142E+03  0.17734645142E+03  0.00000000000E+00 0. -1.
         22   -1    0    0    0    0 -0.00000000000E+00 -0.00000000000E+00 -0.65906168905E+03  0.65906168905E+03  0.00000000000E+00 0. -1.
         24    2    1    2    0    0 -0.11957670044E+03  0.26897752923E+02 -0.39081834254E+03  0.41821281612E+03  0.84503883352E+02 0.  0.
         25    2    1    2    0    0  0.57015415426E+02  0.30656931707E+01 -0.21506789595E+03  0.25526923949E+03  0.12509208085E+03 0.  0.
        -24    2    1    2    0    0  0.62561285017E+02 -0.29963446093E+02  0.12417100086E+03  0.16292608485E+03  0.79465396136E+02 0.  0.
        -13    1    3    3    0    0 -0.18291582773E+02  0.37517067180E+02 -0.68763941739E+02  0.80439990139E+02  0.00000000000E+00 0.  1.
         14    1    3    3    0    0 -0.10128511767E+03 -0.10619314257E+02 -0.32205440080E+03  0.33777282599E+03  0.00000000000E+00 0. -1.
         13    1    5    5    0    0  0.18098875005E+02 -0.30365828275E+02  0.11108808189E+03  0.11657707640E+03  0.00000000000E+00 0. -1.
        -14    1    5    5    0    0  0.44462410011E+02  0.40238218134E+00  0.13082918976E+02  0.46349008451E+02  0.00000000000E+00 0.  1.
          5    1    4    4  501    0  0.13994372553E+02  0.62340921092E+02 -0.94988045759E+02  0.11455319351E+03  0.41800000000E+01 0.  1.
         -5    1    4    4    0  501  0.43021042873E+02 -0.59275227921E+02 -0.12007985019E+03  0.14071604598E+03  0.41800000000E+01 0.  1.
</event>
<event>
11    1  0.6763327E-009  0.2529282E+03  0.7561462E-02  0.1022351E+00
         22   -1    0    0    0    0  0.00000000000E+00  0.00000000000E+00  0.10062966141E+04  0.10062966141E+04  0.00000000000E+00 0. -1.
         22   -1    0    0    0    0 -0.00000000000E+00 -0.00000000000E+00 -0.26495479796E+03  0.26495479796E+03  0.00000000000E+00 0.  1.
        -24    2    1    2    0    0 -0.15674895099E+02 -0.25456520029E+02 -0.11606225523E+03  0.14382704275E+03  0.79511221783E+02 0.  0.
         25    2    1    2    0    0  0.10835069282E+03 -0.17602371766E+03  0.35741760462E+01  0.24162881373E+03  0.12508991598E+03 0.  0.
         24    2    1    2    0    0 -0.92675797717E+02  0.20148023769E+03  0.85382989535E+03  0.88579555561E+03  0.80157260886E+02 0.  0.
        -13    1    5    5    0    0 -0.40482483093E+02  0.14706048679E+03  0.45458624859E+03  0.47949377016E+03  0.00000000000E+00 0.  1.
         14    1    5    5    0    0 -0.52193314624E+02  0.54419750901E+02  0.39924364677E+03  0.40630178545E+03  0.00000000000E+00 0. -1.
         11    1    3    3    0    0  0.19226541910E+02 -0.41587922046E+02 -0.72067415545E+02  0.85398639083E+02  0.00000000000E+00 0. -1.
        -12    1    3    3    0    0 -0.34901437009E+02  0.16131402017E+02 -0.43994839682E+02  0.58428403666E+02  0.00000000000E+00 0.  1.
          5    1    4    4  501    0  0.80835270358E+02 -0.76865943180E+02 -0.53607054425E+02  0.12383013704E+03  0.41800000000E+01 0.  1.
         -5    1    4    4    0  501  0.27515422457E+02 -0.99157774479E+02  0.57181230471E+02  0.11779867669E+03  0.41800000000E+01 0.  1.
</event>
<event>
11    1  0.6763327E-009  0.1487074E+03  0.7561462E-02  0.1098207E+00
         22   -1    0    0    0    0  0.00000000000E+00  0.00000000000E+00  0.15878555932E+04  0.15878555932E+04  0.00000000000E+00 0. -1.
         22   -1    0    0    0    0 -0.00000000000E+00 -0.00000000000E+00 -0.23034705078E+03  0.23034705078E+03  0.00000000000E+00 0. -1.
        -24    2    1    2    0    0  0.17703369563E+01 -0.59669477335E+01 -0.21060341796E+03  0.22603654382E+03  0.81853411214E+02 0.  0.
         25    2    1    2    0    0  0.66136837506E+02  0.48119687299E+02  0.64244252090E+03  0.65959769077E+03  0.12508851039E+03 0.  0.
         24    2    1    2    0    0 -0.67907174462E+02 -0.42152739565E+02  0.92566943950E+03  0.93256840941E+03  0.80197812962E+02 0.  0.
        -13    1    5    5    0    0 -0.49271444459E+02 -0.60526120572E+02  0.82003451961E+03  0.82374006814E+03  0.00000000000E+00 0.  1.
         14    1    5    5    0    0 -0.18635730003E+02  0.18373381007E+02  0.10563491989E+03  0.10882834126E+03  0.00000000000E+00 0. -1.
         11    1    3    3    0    0 -0.22506097000E+02 -0.24838307641E+02 -0.17835940569E+03  0.18148152393E+03  0.00000000000E+00 0. -1.
        -12    1    3    3    0    0  0.24276433957E+02  0.18871359907E+02 -0.32244012271E+02  0.44555019893E+02  0.00000000000E+00 0.  1.
          5    1    4    4  501    0 -0.81819436145E+00  0.41667889197E+02  0.50280984210E+03  0.50455137711E+03  0.41800000000E+01 0.  1.
         -5    1    4    4    0  501  0.66955031867E+02  0.64517981015E+01  0.13963267880E+03  0.15504631366E+03  0.41800000000E+01 0.  1.
</event>
<event>
11    1  0.6763327E-009  0.1445585E+03  0.7561462E-02  0.1102572E+00
         22   -1    0    0    0    0  0.00000000000E+00  0.00000000000E+00  0.10708304456E+03  0.10708304456E+03  0.00000000000E+00 0.  1.
         22   -1    0    0    0    0 -0.00000000000E+00 -0.00000000000E+00 -0.15292229213E+04  0.15292229213E+04  0.00000000000E+00 0.  1.
        -24    2    1    2    0    0  0.60080969754E+01 -0.63977340092E+02 -0.68141555903E+03  0.68889213615E+03  0.78204947979E+02 0.  0.
         25    2    1    2    0    0 -0.58388561106E+01  0.87809217087E+02 -0.81815933964E+03  0.83233230758E+03  0.12509122416E+03 0.  0.
         24    2    1    2    0    0 -0.16924086479E+00 -0.23831876995E+02  0.77435021909E+02  0.11508152215E+03  0.81728741075E+02 0.  0.
        -11    1    5    5    0    0  0.14499820179E+02 -0.30697945733E+02  0.88950117015E+02  0.95208886006E+02  0.00000000000E+00 0.  1.
         12    1    5    5    0    0 -0.14669061044E+02  0.68660687382E+01 -0.11515095106E+02  0.19872636140E+02  0.00000000000E+00 0. -1.
         13    1    3    3    0    0 -0.18211182869E+02  0.21967240431E+01 -0.45114188342E+02  0.48700747097E+02  0.00000000000E+00 0. -1.
        -14    1    3    3    0    0  0.24219279844E+02 -0.66174064135E+02 -0.63630137068E+03  0.64019138905E+03  0.00000000000E+00 0.  1.
          5    1    4    4  501    0 -0.28195841823E+02  0.11434382915E+03 -0.61487516535E+03  0.62606585766E+03  0.41800000000E+01 0. -1.
         -5    1    4    4    0  501  0.22356985712E+02 -0.26534612067E+02 -0.20328417428E+03  0.20626644992E+03  0.41800000000E+01 0. -1.
</event>
<event>
11    1  0.6763327E-009  0.1401943E+03  0.7561462E-02  0.1107342E+00
         22   -1    0    0    0    0  0.00000000000E+00  0.00000000000E+00  0.30315845065E+03  0.30315845065E+03  0.00000000000E+00 0. -1.
         22   -1    0    0    0    0 -0.00000000000E+00 -0.00000000000E+00 -0.79447983035E+03  0.79447983035E+03  0.00000000000E+00 0. -1.
         24    2    1    2    0    0  0.13714257683E+02 -0.10235974778E+02 -0.68653354426E+03  0.69144413311E+03  0.80460088142E+02 0.  0.
         25    2    1    2    0    0 -0.49447865603E+02 -0.42079175702E+02 -0.42700041622E+02  0.14726119832E+03  0.12508724370E+03 0.  0.
        -24    2    1    2    0    0  0.35733607919E+02  0.52315150480E+02  0.23791220618E+03  0.25893294957E+03  0.80189081677E+02 0.  0.
        -13    1    3    3    0    0  0.30399006347E+02  0.25389235563E+02 -0.24719808431E+03  0.25035096516E+03  0.00000000000E+00 0.  1.
         14    1    3    3    0    0 -0.16684748664E+02 -0.35625210341E+02 -0.43933545994E+03  0.44109316795E+03  0.00000000000E+00 0. -1.
         13    1    5    5    0    0  0.19856477840E+02  0.72680538307E+02  0.15998811583E+03  0.17684156063E+03  0.00000000000E+00 0. -1.
        -14    1    5    5    0    0  0.15877130080E+02 -0.20365387827E+02  0.77924090349E+02  0.82091388937E+02  0.00000000000E+00 0.  1.
          5    1    4    4  501    0  0.25409336847E+02  0.18041513024E+02 -0.40319446749E+02  0.51129842336E+02  0.41800000000E+01 0.  1.
         -5    1    4    4    0  501 -0.74857202449E+02 -0.60120688726E+02 -0.23805948724E+01  0.96131355984E+02  0.41800000000E+01 0.  1.
</event>
<event>
11    1  0.6763327E-009  0.3583301E+03  0.7561462E-02  0.9781398E-01
         22   -1    0    0    0    0  0.00000000000E+00  0.00000000000E+00  0.45010659630E+03  0.45010659630E+03  0.00000000000E+00 0.  1.
         22   -1    0    0    0    0 -0.00000000000E+00 -0.00000000000E+00 -0.33435081527E+03  0.33435081527E+03  0.00000000000E+00 0. -1.
         24    2    1    2    0    0 -0.18613109461E+03  0.16192819508E+03 -0.18330009686E+03  0.31772953522E+03  0.80545684565E+02 0.  0.
         25    2    1    2    0    0  0.42204535856E+02 -0.25304299182E+02  0.63144621591E+02  0.14851794181E+03  0.12509518536E+03 0.  0.
        -24    2    1    2    0    0  0.14392655875E+03 -0.13662389590E+03  0.23591125630E+03  0.31820993454E+03  0.78882814015E+02 0.  0.
        -11    1    3    3    0    0 -0.14159930840E+03  0.11053693892E+03 -0.86357095784E+02  0.19931464321E+03  0.00000000000E+00 0.  1.
         12    1    3    3    0    0 -0.44531786203E+02  0.51391256162E+02 -0.96943001080E+02  0.11841489201E+03  0.00000000000E+00 0. -1.
         11    1    5    5    0    0 -0.32676968302E+01 -0.24598052792E+02  0.11385663309E+02  0.27301563558E+02  0.00000000000E+00 0. -1.
        -12    1    5    5    0    0  0.14719425558E+03 -0.11202584311E+03  0.22452559299E+03  0.29090837098E+03  0.00000000000E+00 0.  1.
          5    1    4    4  501    0  0.23007333529E+02  0.26629872834E+02  0.82439976559E+02  0.89734662524E+02  0.41800000000E+01 0.  1.
         -5    1    4    4    0  501  0.19197202328E+02 -0.51934172016E+02 -0.19295354968E+02  0.58783279286E+02  0.41800000000E+01 0.  1.
</event>
<event>
11    1  0.6763327E-009  0.1570830E+03  0.7561462E-02  0.1089853E+00
         22   -1    0    0    0    0  0.00000000000E+00  0.00000000000E+00  0.18129004484E+04  0.18129004484E+04  0.00000000000E+00 0.  1.
         22   -1    0    0    0    0 -0.00000000000E+00 -0.00000000000E+00 -0.78813613039E+03  0.78813613039E+03  0.00000000000E+00 0. -1.
         24    2    1    2    0    0 -0.10599199303E+02  0.95742709328E+02 -0.75063978072E+03  0.76100195930E+03  0.79905520657E+02 0.  0.
         25    2    1    2    0    0  0.16971741089E+02 -0.54821467728E+02  0.12129378506E+03  0.18344769378E+03  0.12508973075E+03 0.  0.
        -24    2    1    2    0    0 -0.63725417852E+01 -0.40921241600E+02  0.16541103137E+04  0.16565869257E+04  0.80524253101E+02 0.  0.
        -13    1    3    3    0    0 -0.22513971728E+02  0.47865549582E+02 -0.16463453916E+03  0.17292345487E+03  0.00000000000E+00 0.  1.
         14    1    3    3    0    0  0.11914772424E+02  0.47877159746E+02 -0.58600524157E+03  0.58807850443E+03  0.00000000000E+00 0. -1.
         13    1    5    5    0    0  0.36254013914E+02 -0.15186979727E+02  0.87952250440E+03  0.88040038257E+03  0.00000000000E+00 0. -1.
        -14    1    5    5    0    0 -0.42626555700E+02 -0.25734261872E+02  0.77458780931E+03  0.77618654318E+03  0.00000000000E+00 0.  1.
          5    1    4    4  501    0 -0.30491658959E+02 -0.60647477245E+02  0.19256574260E+02  0.70683419658E+02  0.41800000000E+01 0. -1.
         -5    1    4    4    0  501  0.47463400048E+02  0.58260095169E+01  0.10203721080E+03  0.11276427412E+03  0.41800000000E+01 0. -1.
</event>
<event>
11    1  0.6763327E-009  0.2661917E+03  0.7561462E-02  0.1015611E+00
         22   -1    0    0    0    0  0.00000000000E+00  0.00000000000E+00  0.15549447520E+04  0.15549447520E+04  0.00000000000E+00 0. -1.
         22   -1    0    0    0    0 -0.00000000000E+00 -0.00000000000E+00 -0.11335067342E+04  0.11335067342E+04  0.00000000000E+00 0.  1.
        -24    2    1    2    0    0 -0.53410140514E+02  0.70363019017E+02 -0.85685819324E+03  0.86527999394E+03  0.81852959909E+02 0.  0.
         25    2    1    2    0    0  0.28632916932E+03 -0.68435315163E+02 -0.16434227109E+03  0.35961495407E+03  0.12508695999E+03 0.  0.
         24    2    1    2    0    0 -0.23291902881E+03 -0.19277038538E+01  0.14426384821E+04  0.14635565383E+04  0.80851472355E+02 0.  0.
        -11    1    5    5    0    0 -0.74326916287E+02  0.31425722837E+01  0.71263513030E+03  0.71650763791E+03  0.00000000000E+00 0.  1.
         12    1    5    5    0    0 -0.15859211252E+03 -0.50702761375E+01  0.73000335183E+03  0.74704890037E+03  0.00000000000E+00 0. -1.
         13    1    3    3    0    0  0.17374635911E+02 -0.21348330144E+01 -0.18471408705E+03  0.18554171886E+03  0.00000000000E+00 0. -1.
        -14    1    3    3    0    0 -0.70784776426E+02  0.72497852031E+02 -0.67214410619E+03  0.67973827508E+03  0.00000000000E+00 0.  1.
          5    1    4    4  501    0  0.14282954701E+02 -0.25875111630E+02  0.12473362725E+02  0.32350909948E+02  0.41800000000E+01 0.  1.
         -5    1    4    4    0  501  0.27204621462E+03 -0.42560203534E+02 -0.17681563382E+03  0.32726404412E+03  0.41800000000E+01 0.  1.
</event>
<event>
11    1  0.6763327E-009  0.1583259E+03  0.7561462E-02  0.1088663E+00
         22   -1    0    0    0    0  0.00000000000E+00  0.00000000000E+00  0.19545339851E+04  0.19545339851E+04  0.00000000000E+00 0. -1.
         22   -1    0    0    0    0 -0.00000000000E+00 -0.00000000000E+00 -0.25497523088E+03  0.25497523088E+03  0.00000000000E+00 0. -1.
         24    2    1    2    0    0  0.11943104012E+02 -0.18264457781E+02 -0.23171821965E+03  0.24506699244E+03  0.76735059233E+02 0.  0.
         25    2    1    2    0    0 -0.10705128959E+03  0.16414650012E+02  0.47906442333E+03  0.50683221464E+03  0.12508698077E+03 0.  0.
        -24    2    1    2    0    0  0.95108185582E+02  0.18498077681E+01  0.14522125506E+04  0.14576100089E+04  0.81588340817E+02 0.  0.
        -13    1    3    3    0    0  0.18576964262E+01  0.23759633012E+02 -0.27789246743E+02  0.36608925570E+02  0.00000000000E+00 0.  1.
         14    1    3    3    0    0  0.10085407586E+02 -0.42024090792E+02 -0.20392897291E+03  0.20845806687E+03  0.00000000000E+00 0. -1.
         13    1    5    5    0    0  0.91704086245E+02  0.77109605687E+01  0.14441400714E+04  0.14470693294E+04  0.00000000000E+00 0. -1.
        -14    1    5    5    0    0  0.34040993366E+01 -0.58611528006E+01  0.80724791590E+01  0.10540679495E+02  0.00000000000E+00 0.  1.
          5    1    4    4  501    0 -0.12369660595E+03  0.39096517177E+02  0.43837942520E+03  0.45719074883E+03  0.41800000000E+01 0.  1.
         -5    1    4    4    0  501  0.16645316357E+02 -0.22681867165E+02  0.40684998131E+02  0.49641465808E+02  0.41800000000E+01 0.  1.
</event>
<event>
11    1  0.6763327E-009  0.2092427E+03  0.7561462E-02  0.1048173E+00
         22   -1    0    0    0    0  0.00000000000E+00  0.00000000000E+00  0.31530781875E+03  0.31530781875E+03  0.00000000000E+00 0. -1.
         22   -1    0    0    0    0 -0.00000000000E+00 -0.00000000000E+00 -0.53900542593E+03  0.53900542593E+03  0.00000000000E+00 0.  1.
         24    2    1    2    0    0 -0.67188004053E+02  0.38242860277E+02 -0.36126328020E+03  0.37767093636E+03  0.78405575679E+02 0.  0.
         25    2    1    2    0    0 -0.10209379770E+03  0.39140724436E+02 -0.75533365091E+02  0.18250513911E+03  0.12509075393E+03 0.  0.
        -24    2    1    2    0    0  0.16928180175E+03 -0.77383584713E+02  0.21309903811E+03  0.29413716922E+03  0.80379889802E+02 0.  0.
        -11    1    3    3    0    0 -0.23592159702E+02 -0.13487431079E+02 -0.21270991076E+03  0.21443881862E+03  0.00000000000E+00 0.  1.
         12    1    3    3    0    0 -0.43595844351E+02  0.51730291356E+02 -0.14855336944E+03  0.16323211774E+03  0.00000000000E+00 0. -1.
         13    1    5    5    0    0  0.13071990180E+03 -0.56040956337E+02  0.20471616829E+03  0.24927292487E+03  0.00000000000E+00 0. -1.
        -14    1    5    5    0    0  0.38561899957E+02 -0.21342628376E+02  0.83828698117E+01  0.44864244344E+02  0.00000000000E+00 0.  1.
          5    1    4    4  501    0 -0.17329549802E+02  0.21818673144E+02 -0.90340019898E+02  0.94631703933E+02  0.41800000000E+01 0.  1.
         -5    1    4    4    0  501 -0.84764247898E+02  0.17322051292E+02  0.14806654806E+02  0.87873435173E+02  0.41800000000E+01 0.  1.
</event>
<event>
11    1  0.6763327E-009  0.1418074E+03  0.7561462E-02  0.1105557E+00
         22   -1    0    0    0    0  0.00000000000E+00  0.00000000000E+00  0.65094346312E+03  0.65094346312E+03  0.00000000000E+00 0. -1.
         22   -1    0    0    0    0 -0.00000000000E+00 -0.00000000000E+00 -0.15520448715E+04  0.15520448715E+04  0.00000000000E+00 0. -1.
        -24    2    1    2    0    0  0.10099726694E+02  0.39735962110E+02 -0.14486787893E+04  0.14514317366E+04  0.79390807703E+02 0.  0.
         25    2    1    2    0    0  0.28619594654E+01  0.27595494008E+02 -0.55513507129E+02  0.13963882096E+03  0.12509016246E+03 0.  0.
         24    2    1    2    0    0 -0.12961686159E+02 -0.67331456118E+02  0.60309088807E+03  0.61191777702E+03  0.77609382570E+02 0.  0.
        -13    1    5    5    0    0 -0.39293541445E+02 -0.38215573871E+02  0.46919049395E+03  0.47238134181E+03  0.00000000000E+00 0.  1.
         14    1    5    5    0    0  0.26331855286E+02 -0.29115882247E+02  0.13390039412E+03  0.13953643520E+03  0.00000000000E+00 0. -1.
         13    1    3    3    0    0  0.33681693758E+02  0.28109079004E+02 -0.12768123551E+04  0.12775657975E+04  0.00000000000E+00 0. -1.
        -14    1    3    3    0    0 -0.23581967064E+02  0.11626883106E+02 -0.17186643420E+03  0.17386593912E+03  0.00000000000E+00 0.  1.
          5    1    4    4  501    0 -0.41111918204E+02  0.50612860046E+02 -0.38489807461E+00  0.65341196553E+02  0.41800000000E+01 0.  1.
         -5    1    4    4    0  501  0.43973877669E+02 -0.23017366038E+02 -0.55128609055E+02  0.74297624410E+02  0.41800000000E+01 0.  1.
</event>
<event>
11    1  0.6763327E-009  0.1490246E+03  0.7561462E-02  0.1097880E+00
         22   -1    0    0    0    0  0.00000000000E+00  0.00000000000E+00  0.12570964830E+04  0.12570964830E+04  0.00000000000E+00 0.  1.
         22   -1    0    0    0    0 -0.00000000000E+00 -0.00000000000E+00 -0.39147939799E+02  0.39147939799E+02  0.00000000000E+00 0.  1.
        -24    2    1    2    0    0 -0.83698823702E+02 -0.33756808125E+01  0.17301015397E+03  0.20839145594E+03  0.80483521428E+02 0.  0.
         25    2    1    2    0    0  0.66350883963E+02 -0.72559001783E+02  0.35830462918E+03  0.39205009258E+03  0.12511522393E+03 0.  0.
         24    2    1    2    0    0  0.17347939739E+02  0.75934682596E+02  0.68663376004E+03  0.69580287427E+03  0.81293864351E+02 0.  0.
        -11    1    5    5    0    0 -0.59459587904E+00  0.13716338088E+02  0.45720673962E+03  0.45741282692E+03  0.00000000000E+00 0.  1.
         12    1    5    5    0    0  0.17942535618E+02  0.62218344508E+02  0.22942702042E+03  0.23839004735E+03  0.00000000000E+00 0. -1.
         13    1    3    3    0    0 -0.15198260778E+02 -0.23183968742E+02  0.10932697756E+03  0.11278684125E+03  0.00000000000E+00 0. -1.
        -14    1    3    3    0    0 -0.68500562924E+02  0.19808287929E+02  0.63683176410E+02  0.95604614686E+02  0.00000000000E+00 0.  1.
          5    1    4    4  501    0  0.29048575910E+02 -0.57777321684E+02  0.51964575385E+02  0.83065204258E+02  0.41800000000E+01 0. -1.
         -5    1    4    4    0  501  0.37302308053E+02 -0.14781680099E+02  0.30634005380E+03  0.30898488833E+03  0.41800000000E+01 0. -1.
</event>
<event>
11    1  0.6763327E-009  0.1375216E+03  0.7561462E-02  0.1110358E+00
         22   -1    0    0    0    0  0.00000000000E+00  0.00000000000E+00  0.50254869622E+03  0.50254869622E+03  0.00000000000E+00 0. -1.
         22   -1    0    0    0    0 -0.00000000000E+00 -0.00000000000E+00 -0.34651433021E+03  0.34651433021E+03  0.00000000000E+00 0. -1.
         24    2    1    2    0    0 -0.32107671658E+02 -0.40786926102E+01 -0.25550715348E+03  0.27309702860E+03  0.90832501008E+02 0.  0.
         25    2    1    2    0    0  0.76816348287E+02 -0.28831286420E+02 -0.35445844555E+01  0.14963963684E+03  0.12508981731E+03 0.  0.
        -24    2    1    2    0    0 -0.44708676629E+02  0.32909979030E+02  0.41508610394E+03  0.42632636098E+03  0.79848355605E+02 0.  0.
        -11    1    3    3    0    0  0.12633023274E+02 -0.33588519886E+02 -0.55962695316E+02  0.66480111403E+02  0.00000000000E+00 0.  1.
         12    1    3    3    0    0 -0.44740694933E+02  0.29509827276E+02 -0.19954445817E+03  0.20661691720E+03  0.00000000000E+00 0. -1.
         11    1    5    5    0    0  0.39944611411E+01 -0.21672944462E+02  0.63641016147E+02  0.67348728107E+02  0.00000000000E+00 0. -1.
        -12    1    5    5    0    0 -0.48703137770E+02  0.54582923492E+02  0.35144508780E+03  0.35897763287E+03  0.00000000000E+00 0.  1.
          5    1    4    4  501    0  0.88420712174E+02  0.12724039910E+02 -0.35050024212E+02  0.96052590440E+02  0.41800000000E+01 0. -1.
         -5    1    4    4    0  501 -0.11604363886E+02 -0.41555326330E+02  0.31505439757E+02  0.53587046400E+02  0.41800000000E+01 0. -1.
</event>
<event>
11    1  0.6763327E-009  0.1928634E+03  0.7561462E-02  0.1059688E+00
         22   -1    0    0    0    0  0.00000000000E+00  0.00000000000E+00  0.12698657370E+03  0.12698657370E+03  0.00000000000E+00 0. -1.
         22   -1    0    0    0    0 -0.00000000000E+00 -0.00000000000E+00 -0.10797259130E+04  0.10797259130E+04  0.00000000000E+00 0.  1.
         24    2    1    2    0    0 -0.16099315656E+01 -0.38824120702E+01 -0.68758605408E+03  0.69221702866E+03  0.79825860388E+02 0.  0.
         25    2    1    2    0    0  0.61173173497E+02  0.13715974624E+03 -0.28363779628E+03  0.34445886170E+03  0.12508618943E+03 0.  0.
        -24    2    1    2    0    0 -0.59563241931E+02 -0.13327733417E+03  0.18484511030E+02  0.17003659637E+03  0.85206451433E+02 0.  0.
        -13    1    3    3    0    0  0.15009472803E+01 -0.34645035712E+02 -0.55463207243E+03  0.55571509527E+03  0.00000000000E+00 0.  1.
         14    1    3    3    0    0 -0.31108788460E+01  0.30762623642E+02 -0.13295398166E+03  0.13650193339E+03  0.00000000000E+00 0. -1.
         13    1    5    5    0    0 -0.41339764776E+02 -0.13783103424E+03  0.31345805763E+02  0.14727161875E+03  0.00000000000E+00 0. -1.
        -14    1    5    5    0    0 -0.18223477156E+02  0.45537000685E+01 -0.12861294733E+02  0.22764977623E+02  0.00000000000E+00 0.  1.
          5    1    4    4  501    0  0.67208950240E+02  0.51257001106E+02 -0.22447050916E+03  0.23989332012E+03  0.41800000000E+01 0. -1.
         -5    1    4    4    0  501 -0.60357767435E+01  0.85902745132E+02 -0.59167287116E+02  0.10456554158E+03  0.41800000000E+01 0. -1.
</event>
<event>
11    1  0.6763327E-009  0.1842933E+03  0.7561462E-02  0.1066222E+00
         22   -1    0    0    0    0  0.00000000000E+00  0.00000000000E+00  0.14388716460E+04  0.14388716460E+04  0.00000000000E+00 0. -1.
         22   -1    0    0    0    0 -0.00000000000E+00 -0.00000000000E+00 -0.48581474070E+03  0.48581474070E+03  0.00000000000E+00 0.  1.
        -24    2    1    2    0    0  0.12786918313E+03  0.60065258259E+02 -0.42385598563E+03  0.45396968689E+03  0.80474945251E+02 0.  0.
         25    2    1    2    0    0 -0.81911248529E+02 -0.25299848536E+02  0.82771542785E+02  0.17276781493E+03  0.12509218444E+03 0.  0.
         24    2    1    2    0    0 -0.45957934601E+02 -0.34765409722E+02  0.12941413481E+04  0.12979488849E+04  0.80924120906E+02 0.  0.
        -11    1    5    5    0    0 -0.28352321205E+02  0.10795168478E+02  0.16592356997E+03  0.16867430406E+03  0.00000000000E+00 0.  1.
         12    1    5    5    0    0 -0.17605613395E+02 -0.45560578201E+02  0.11282177782E+04  0.11292745808E+04  0.00000000000E+00 0. -1.
         13    1    3    3    0    0  0.26007840488E+01 -0.29400691447E+01  0.28267368619E+01  0.48372022421E+01  0.00000000000E+00 0. -1.
        -14    1    3    3    0    0  0.12526839908E+03  0.63005327403E+02 -0.42668272249E+03  0.44913248464E+03  0.00000000000E+00 0.  1.
          5    1    4    4  501    0 -0.37832920488E+02 -0.26765109511E+02 -0.27416582589E+02  0.54007799072E+02  0.41800000000E+01 0. -1.
         -5    1    4    4    0  501 -0.44078328041E+02  0.14652609748E+01  0.11018812537E+03  0.11876001586E+03  0.41800000000E+01 0. -1.
</event>
<event>
11    1  0.6763327E-009  0.1705648E+03  0.7561462E-02  0.1077541E+00
         22   -1    0    0    0    0  0.00000000000E+00  0.00000000000E+00  0.30833661196E+03  0.30833661196E+03  0.00000000000E+00 0.  1.
         22   -1    0    0    0    0 -0.00000000000E+00 -0.00000000000E+00 -0.75929891782E+03  0.75929891782E+03  0.00000000000E+00 0.  1.
        -24    2    1    2    0    0  0.79393139115E+01  0.11967942286E+03 -0.64271171885E+03  0.65858779225E+03  0.79204353402E+02 0.  0.
         25    2    1    2    0    0  0.15729507414E+02 -0.87408780556E+02 -0.41523378290E+02  0.15893444585E+03  0.12509298466E+03 0.  0.
         24    2    1    2    0    0 -0.23668821326E+02 -0.32270642304E+02  0.23327279128E+03  0.25011329168E+03  0.80863193510E+02 0.  0.
        -13    1    5    5    0    0  0.82165893924E+00 -0.21905921681E+02  0.21868612766E+03  0.21978208971E+03  0.00000000000E+00 0.  1.
         14    1    5    5    0    0 -0.24490480265E+02 -0.10364720623E+02  0.14586663627E+02  0.30331201970E+02  0.00000000000E+00 0. -1.
         11    1    3    3    0    0 -0.24003515243E+02  0.27051504613E+02 -0.85612664343E+02  0.92938048946E+02  0.00000000000E+00 0. -1.
        -12    1    3    3    0    0  0.31942829154E+02  0.92627918247E+02 -0.55709905451E+03  0.56564974331E+03  0.00000000000E+00 0.  1.
          5    1    4    4  501    0 -0.40653913922E+00  0.32272309969E+02 -0.74545674576E+01  0.33387276630E+02  0.41800000000E+01 0.  1.
         -5    1    4    4    0  501  0.16136046553E+02 -0.11968109052E+03 -0.34068810832E+02  0.12554716922E+03  0.41800000000E+01 0.  1.
</event>
<event>
11    1  0.6763327E-009  0.1613576E+03  0.7561462E-02  0.1085807E+00
         22   -1    0    0    0    0  0.00000000000E+00  0.00000000000E+00  0.27267363943E+03  0.27267363943E+03  0.00000000000E+00 0.  1.
         22   -1    0    0    0    0 -0.00000000000E+00 -0.00000000000E+00 -0.17232415526E+04  0.17232415526E+04  0.00000000000E+00 0.  1.
        -24    2    1    2    0    0  0.44048170129E+02  0.59887305686E+02 -0.15849168430E+04  0.15890260432E+04  0.86692768917E+02 0.  0.
         25    2    1    2    0    0  0.22815115701E+02 -0.13333289444E+03 -0.44368726649E+02  0.18951145759E+03  0.12509124033E+03 0.  0.
         24    2    1    2    0    0 -0.66863285830E+02  0.73445588756E+02  0.17871765644E+03  0.21737769125E+03  0.73811289327E+02 0.  0.
        -13    1    5    5    0    0 -0.76159446476E+02  0.74360366524E+02  0.17874422619E+03  0.20803659244E+03  0.00000000000E+00 0.  1.
         14    1    5    5    0    0  0.92961606464E+01 -0.91477776813E+00 -0.26569750790E-01  0.93410988154E+01  0.00000000000E+00 0. -1.
         13    1    3    3    0    0  0.16097957738E+02  0.46872267983E+02 -0.32726013444E+03  0.33099146416E+03  0.00000000000E+00 0. -1.
        -14    1    3    3    0    0  0.27950212391E+02  0.13015037703E+02 -0.12576567086E+04  0.12580345791E+04  0.00000000000E+00 0.  1.
          5    1    4    4  501    0 -0.69075906144E+01 -0.64909437717E+01  0.35272012061E+02  0.36761860589E+02  0.41800000000E+01 0. -1.
         -5    1    4    4    0  501  0.29722706315E+02 -0.12684195067E+03 -0.79640738710E+02  0.15274959700E+03  0.41800000000E+01 0. -1.
</event>
<event>
11    1  0.6763327E-009  0.1919760E+03  0.7561462E-02  0.1060347E+00
         22   -1    0    0    0    0  0.00000000000E+00  0.00000000000E+00  0.33392451246E+03  0.33392451246E+03  0.00000000000E+00 0.  1.
         22   -1    0    0    0    0 -0.00000000000E+00 -0.00000000000E+00 -0.38132395311E+03  0.38132395311E+03  0.00000000000E+00 0. -1.
        -24    2    1    2    0    0  0.13087686476E+03  0.67331168847E+02 -0.25615464244E+03  0.30623867380E+03  0.80651624027E+02 0.  0.
         25    2    1    2    0    0 -0.92367157255E+02 -0.11837169044E+03  0.23109370710E+02  0.19678502242E+03  0.12508698252E+03 0.  0.
         24    2    1    2    0    0 -0.38509707506E+02  0.51040521597E+02  0.18564583108E+03  0.21222476935E+03  0.80540956735E+02 0.  0.
        -13    1    5    5    0    0 -0.51638503968E+02  0.55047537950E+02  0.18338925055E+03  0.19831385162E+03  0.00000000000E+00 0.  1.
         14    1    5    5    0    0  0.13128796462E+02 -0.40070163534E+01  0.22565805356E+01  0.13910917738E+02  0.00000000000E+00 0. -1.
         11    1    3    3    0    0  0.15296166661E+02  0.46333493287E+02 -0.57122525678E+02  0.75124884389E+02  0.00000000000E+00 0. -1.
        -12    1    3    3    0    0  0.11558069810E+03  0.20997675560E+02 -0.19903211676E+03  0.23111378941E+03  0.00000000000E+00 0.  1.
          5    1    4    4  501    0 -0.72987722388E+02 -0.78066901355E+02  0.73123986961E+02  0.12956171725E+03  0.41800000000E+01 0. -1.
         -5    1    4    4    0  501 -0.19379434867E+02 -0.40304789089E+02 -0.50014616251E+02  0.67223305171E+02  0.41800000000E+01 0. -1.
</event>
<event>
11    1  0.6763327E-009  0.2816894E+03  0.7561462E-02  0.1008253E+00
         22   -1    0    0    0    0  0.00000000000E+00  0.00000000000E+00  0.37881945311E+03  0.37881945311E+03  0.00000000000E+00 0.  1.
         22   -1    0    0    0    0 -0.00000000000E+00 -0.00000000000E+00 -0.85162193657E+03  0.85162193657E+03  0.00000000000E+00 0.  1.
        -24    2    1    2    0    0  0.82635011827E+01  0.18729625215E+02 -0.53061396329E+03  0.53748974356E+03  0.83216357022E+02 0.  0.
         25    2    1    2    0    0  0.25558469793E+02  0.23505370100E+03 -0.18966998611E+03  0.32791136453E+03  0.12509069359E+03 0.  0.
         24    2    1    2    0    0 -0.33821970975E+02 -0.25378332622E+03  0.24748146595E+03  0.36504028160E+03  0.80358128488E+02 0.  0.
        -13    1    5    5    0    0 -0.90674894702E+01 -0.92315085964E+02  0.14522070799E+03  0.17231758033E+03  0.00000000000E+00 0.  1.
         14    1    5    5    0    0 -0.24754481505E+02 -0.16146824025E+03  0.10226075795E+03  0.19272270126E+03  0.00000000000E+00 0. -1.
         11    1    3    3    0    0  0.35618572977E+00 -0.26728923828E+02 -0.76464653467E+02  0.81002502844E+02  0.00000000000E+00 0. -1.
        -12    1    3    3    0    0  0.79073154529E+01  0.45458549042E+02 -0.45414930983E+03  0.45648724071E+03  0.00000000000E+00 0.  1.
          5    1    4    4  501    0  0.12657737339E+02  0.61596886379E+02  0.91833595826E+01  0.63688313052E+02  0.41800000000E+01 0. -1.
         -5    1    4    4    0  501  0.12900732453E+02  0.17345681462E+03 -0.19885334570E+03  0.26422305148E+03  0.41800000000E+01 0. -1.
</event>
<event>
11    1  0.6763327E-009  0.1723751E+03  0.7561462E-02  0.1075983E+00
         22   -1    0    0    0    0  0.00000000000E+00  0.00000000000E+00  0.39068423666E+03  0.39068423666E+03  0.00000000000E+00 0. -1.
         22   -1    0    0    0    0 -0.00000000000E+00 -0.00000000000E+00 -0.15463199517E+04  0.15463199517E+04  0.00000000000E+00 0. -1.
         24    2    1    2    0    0  0.36331686283E+02  0.11232476878E+03 -0.14653709324E+04  0.14724260176E+04  0.82398802947E+02 0.  0.
         25    2    1    2    0    0 -0.58921536108E+02 -0.12555610447E+03  0.52458207579E+02  0.19399826675E+03  0.12508949265E+03 0.  0.
        -24    2    1    2    0    0  0.22589849825E+02  0.13231335695E+02  0.25727700983E+03  0.27057990395E+03  0.79603109694E+02 0.  0.
        -13    1    3    3    0    0 -0.22407009142E+01  0.20436195798E+02 -0.58085033394E+02  0.61615987728E+02  0.00000000000E+00 0.  1.
         14    1    3    3    0    0  0.38572387197E+02  0.91888572982E+02 -0.14072858990E+04  0.14108100299E+04  0.00000000000E+00 0. -1.
         13    1    5    5    0    0  0.73819023541E+01  0.46218118719E+02  0.16153710000E+03  0.16818097888E+03  0.00000000000E+00 0. -1.
        -14    1    5    5    0    0  0.15207947471E+02 -0.32986783024E+02  0.95739909828E+02  0.10239892506E+03  0.00000000000E+00 0.  1.
          5    1    4    4  501    0  0.14168335946E+02  0.19283166496E+02  0.98181234971E+01  0.26200194706E+02  0.41800000000E+01 0. -1.
         -5    1    4    4    0  501 -0.73089872054E+02 -0.14483927097E+03  0.42640084082E+02  0.16779807205E+03  0.41800000000E+01 0. -1.
</event>
<event>
11    1  0.6763327E-009  0.1880895E+03  0.7561462E-02  0.1063281E+00
         22   -1    0    0    0    0  0.00000000000E+00  0.00000000000E+00  0.25266125757E+03  0.25266125757E+03  0.00000000000E+00 0. -1.
         22   -1    0    0    0    0 -0.00000000000E+00 -0.00000000000E+00 -0.31219312626E+04  0.31219312626E+04  0.00000000000E+00 0. -1.
        -24    2    1    2    0    0 -0.40707085829E+02  0.13706582180E+03 -0.29058789607E+04  0.29104945724E+04  0.80012593612E+02 0.  0.
         25    2    1    2    0    0  0.10490626819E+03 -0.68496451351E+02 -0.15589573124E+03  0.23589841396E+03  0.12508994259E+03 0.  0.
         24    2    1    2    0    0 -0.64199182366E+02 -0.68569370446E+02  0.19250468687E+03  0.22819953390E+03  0.78699931541E+02 0.  0.
        -11    1    5    5    0    0 -0.29972456955E+02 -0.40830012294E+02  0.27951673179E+02  0.57850964671E+02  0.00000000000E+00 0.  1.
         12    1    5    5    0    0 -0.34226725410E+02 -0.27739358153E+02  0.16455301369E+03  0.17034856923E+03  0.00000000000E+00 0. -1.
         11    1    3    3    0    0 -0.63777607438E+01  0.85969146206E+02 -0.22716855311E+04  0.22733205938E+04  0.00000000000E+00 0. -1.
        -12    1    3    3    0    0 -0.34329325085E+02  0.51096675591E+02 -0.63419342964E+03  0.63717397860E+03  0.00000000000E+00 0.  1.
          5    1    4    4  501    0  0.13013756260E+03 -0.70608719236E+02 -0.14714970362E+03  0.20878669523E+03  0.41800000000E+01 0.  1.
         -5    1    4    4    0  501 -0.25231294408E+02  0.21122678852E+01 -0.87460276196E+01  0.27111718725E+02  0.41800000000E+01 0.  1.
</event>
<event>
11    1  0.6763327E-009  0.1434904E+03  0.7561462E-02  0.1103722E+00
         22   -1    0    0    0    0  0.00000000000E+00  0.00000000000E+00  0.62490684377E+03  0.62490684377E+03  0.00000000000E+00 0.  1.
         22   -1    0    0    0    0 -0.00000000000E+00 -0.00000000000E+00 -0.95296567024E+03  0.95296567024E+03  0.00000000000E+00 0. -1.
         24    2    1    2    0    0  0.62656024011E+01  0.33572987008E+02 -0.81027098329E+03  0.81489410536E+03  0.79667643177E+02 0.  0.
         25    2    1    2    0    0 -0.75464789178E+02 -0.43505505107E+02 -0.92531191160E+02  0.17831527027E+03  0.12508657360E+03 0.  0.
        -24    2    1    2    0    0  0.69199186776E+02  0.99325180991E+01  0.57474334798E+03  0.58466313838E+03  0.81325807495E+02 0.  0.
        -13    1    3    3    0    0  0.27191888130E+02 -0.89643428907E+01 -0.13719445699E+03  0.14015019534E+03  0.00000000000E+00 0.  1.
         14    1    3    3    0    0 -0.20926285729E+02  0.42537329899E+02 -0.67307652629E+03  0.67474391003E+03  0.00000000000E+00 0. -1.
         13    1    5    5    0    0  0.27176165042E+02 -0.61047091146E+01  0.44384149930E+02  0.52400039931E+02  0.00000000000E+00 0. -1.
        -14    1    5    5    0    0  0.42023021735E+02  0.16037227214E+02  0.53035919805E+03  0.53226309845E+03  0.00000000000E+00 0.  1.
          5    1    4    4  501    0 -0.76313235875E+02 -0.34971282816E+02  0.12421685209E+01  0.84057813284E+02  0.41800000000E+01 0.  1.
         -5    1    4    4    0  501  0.84844669760E+00 -0.85342222915E+01 -0.93773359681E+02  0.94257456988E+02  0.41800000000E+01 0.  1.
</event>
<event>
11    1  0.6763327E-009  0.1350373E+03  0.7561462E-02  0.1113230E+00
         22   -1    0    0    0    0  0.00000000000E+00  0.00000000000E+00  0.26770744071E+03  0.26770744071E+03  0.00000000000E+00 0. -1.
         22   -1    0    0    0    0 -0.00000000000E+00 -0.00000000000E+00 -0.21980273063E+04  0.21980273063E+04  0.00000000000E+00 0. -1.
         24    2    1    2    0    0  0.28415935172E+02 -0.92904862644E+01 -0.84448745671E+03  0.84882147560E+03  0.80281096093E+02 0.  0.
         25    2    1    2    0    0 -0.30078912651E+02 -0.41603243618E+02 -0.13394325566E+04  0.13462401819E+04  0.12508989876E+03 0.  0.
        -24    2    1    2    0    0  0.16629774788E+01  0.50893729883E+02  0.25360014775E+03  0.27067308950E+03  0.79736749408E+02 0.  0.
        -11    1    3    3    0    0 -0.27458158019E+02 -0.28933047009E+00 -0.20426458013E+03  0.20610204475E+03  0.00000000000E+00 0.  1.
         12    1    3    3    0    0  0.55874093191E+02 -0.90011557943E+01 -0.64022287658E+03  0.64271943085E+03  0.00000000000E+00 0. -1.
         11    1    5    5    0    0 -0.15283589628E+02  0.25936126517E+02  0.23106561618E+03  0.23301843221E+03  0.00000000000E+00 0. -1.
        -12    1    5    5    0    0  0.16946567107E+02  0.24957603366E+02  0.22534531573E+02  0.37654657291E+02  0.00000000000E+00 0.  1.
          5    1    4    4  501    0 -0.41692894840E+02  0.35429089179E+02 -0.67958164444E+03  0.68179337171E+03  0.41800000000E+01 0.  1.
         -5    1    4    4    0  501  0.11613982190E+02 -0.77032332798E+02 -0.65985091218E+03  0.66444681020E+03  0.41800000000E+01 0.  1.
</event>
<event>
11    1  0.6763327E-009  0.1668404E+03  0.7561462E-02  0.1080814E+00
         22   -1    0    0    0    0  0.00000000000E+00  0.00000000000E+00  0.10515817225E+04  0.10515817225E+04  0.00000000000E+00 0.  1.
         22   -1    0    0    0    0 -0.00000000000E+00 -0.00000000000E+00 -0.85233313217E+03  0.85233313217E+03  0.00000000000E+00 0. -1.
        -24    2    1    2    0    0  0.11394141784E+03  0.49147329640E+01 -0.76955057452E+03  0.78218224167E+03  0.81204502036E+02 0.  0.
         25    2    1    2    0    0 -0.63802092647E+02  0.67206126531E+02  0.10464004759E+02  0.15602300949E+03  0.12508522545E+03 0.  0.
         24    2    1    2    0    0 -0.50139325195E+02 -0.72120859495E+02  0.95833516007E+03  0.96570960349E+03  0.80457373455E+02 0.  0.
        -13    1    5    5    0    0  0.26925277813E+01 -0.65835526353E+02  0.53933284321E+03  0.54334287702E+03  0.00000000000E+00 0.  1.
         14    1    5    5    0    0 -0.52831852976E+02 -0.62853331420E+01  0.41900231686E+03  0.42236672648E+03  0.00000000000E+00 0. -1.
         13    1    3    3    0    0  0.21902924519E+02  0.11812687833E+02 -0.41727589855E+03  0.41801728817E+03  0.00000000000E+00 0. -1.
        -14    1    3    3    0    0  0.92038493323E+02 -0.68979548695E+01 -0.35227467596E+03  0.36416495350E+03  0.00000000000E+00 0.  1.
          5    1    4    4  501    0 -0.86500515977E+02  0.27070694752E+01 -0.51109961763E+00  0.86645260184E+02  0.41800000000E+01 0.  1.
         -5    1    4    4    0  501  0.22698423331E+02  0.64499057056E+02  0.10975104377E+02  0.69377749307E+02  0.41800000000E+01 0.  1.
</event>
<event>
11    1  0.6763327E-009  0.1339554E+03  0.7561462E-02  0.1114502E+00
         22   -1    0    0    0    0  0.00000000000E+00  0.00000000000E+00  0.73414984120E+03  0.73414984120E+03  0.00000000000E+00 0. -1.
         22   -1    0    0    0    0 -0.00000000000E+00 -0.00000000000E+00 -0.36981413169E+03  0.36981413169E+03  0.00000000000E+00 0.  1.
         24    2    1    2    0    0  0.25758346704E+02 -0.13522420035E+02 -0.16882438638E+03  0.18974911460E+03  0.81588631492E+02 0.  0.
         25    2    1    2    0    0 -0.97575627020E+00 -0.27980103403E+02 -0.16539469619E+03  0.20925282698E+03  0.12508997476E+03 0.  0.
        -24    2    1    2    0    0 -0.24782590434E+02  0.41502523438E+02  0.69855479207E+03  0.70496203130E+03  0.81584507219E+02 0.  0.
        -13    1    3    3    0    0  0.14844578909E+02  0.24112582603E+02 -0.13514334037E+03  0.13807787878E+03  0.00000000000E+00 0.  1.
         14    1    3    3    0    0  0.10913767796E+02 -0.37635002638E+02 -0.33681046004E+02  0.51671235818E+02  0.00000000000E+00 0. -1.
         13    1    5    5    0    0 -0.23864738558E+02  0.65079729938E+02  0.57605894234E+03  0.58021444488E+03  0.00000000000E+00 0. -1.
        -14    1    5    5    0    0 -0.91785187674E+00 -0.23577206500E+02  0.12249584972E+03  0.12474758642E+03  0.00000000000E+00 0.  1.
          5    1    4    4  501    0  0.25570360425E+01 -0.50752503615E+02 -0.17622204926E+03  0.18345036959E+03  0.41800000000E+01 0.  1.
         -5    1    4    4    0  501 -0.35327923127E+01  0.22772400212E+02  0.10827353074E+02  0.25802457393E+02  0.41800000000E+01 0.  1.
</event>
<event>
11    1  0.6763327E-009  0.1361360E+03  0.7561462E-02  0.1111952E+00
         22   -1    0    0    0    0  0.00000000000E+00  0.00000000000E+00  0.13697171123E+03  0.13697171123E+03  0.00000000000E+00 0. -1.
         22   -1    0    0    0    0 -0.00000000000E+00 -0.00000000000E+00 -0.10627689570E+04  0.10627689570E+04  0.00000000000E+00 0. -1.
        -24    2    1    2    0    0  0.15962951903E+02 -0.17055554555E+02 -0.87495180499E+03  0.87907799871E+03  0.81803172216E+02 0.  0.
         25    2    1    2    0    0  0.25061300138E+02  0.51817681204E+02 -0.13124524958E+03  0.19022847822E+03  0.12509363509E+03 0.  0.
         24    2    1    2    0    0 -0.41024252041E+02 -0.34762126649E+02  0.80399808845E+02  0.13043419126E+03  0.87507452722E+02 0.  0.
        -11    1    5    5    0    0  0.26513275458E+02 -0.72327022304E+01  0.10518224165E+02  0.29426158374E+02  0.00000000000E+00 0.  1.
         12    1    5    5    0    0 -0.67537527499E+02 -0.27529424419E+02  0.69881584680E+02  0.10100803288E+03  0.00000000000E+00 0. -1.
         11    1    3    3    0    0  0.29410575618E+02 -0.14696745818E+01 -0.81783272744E+03  0.81836270197E+03  0.00000000000E+00 0. -1.
        -12    1    3    3    0    0 -0.13447623715E+02 -0.15585879973E+02 -0.57119077549E+02  0.60715296740E+02  0.00000000000E+00 0.  1.
          5    1    4    4  501    0 -0.47171715553E+02  0.29912463737E+02 -0.29010151180E+02  0.63079216121E+02  0.41800000000E+01 0.  1.
         -5    1    4    4    0  501  0.72233015690E+02  0.21905217467E+02 -0.10223509840E+03  0.12714926210E+03  0.41800000000E+01 0.  1.
</event>
<event>
11    1  0.6763327E-009  0.1905637E+03  0.7561462E-02  0.1061405E+00
         22   -1    0    0    0    0  0.00000000000E+00  0.00000000000E+00  0.93473614455E+03  0.93473614455E+03  0.00000000000E+00 0.  1.
         22   -1    0    0    0    0 -0.00000000000E+00 -0.00000000000E+00 -0.34035093556E+03  0.34035093556E+03  0.00000000000E+00 0.  1.
         24    2    1    2    0    0 -0.27007383877E+02  0.30519395050E+02 -0.21029482897E+03  0.22869975430E+03  0.80117602730E+02 0.  0.
         25    2    1    2    0    0 -0.26874285146E+02  0.10553441791E+03 -0.51755991966E+02  0.17373540391E+03  0.12508224216E+03 0.  0.
        -24    2    1    2    0    0  0.53881669023E+02 -0.13605381296E+03  0.85643602993E+03  0.87265192190E+03  0.81393053506E+02 0.  0.
        -13    1    3    3    0    0  0.18924073515E+02  0.22832734049E+02 -0.14788726989E+03  0.15083135913E+03  0.00000000000E+00 0.  1.
         14    1    3    3    0    0 -0.45931457392E+02  0.76866610009E+01 -0.62407559082E+02  0.77868395169E+02  0.00000000000E+00 0. -1.
         13    1    5    5    0    0  0.36938614765E+02 -0.21621043821E+02  0.12499990462E+03  0.13212458875E+03  0.00000000000E+00 0. -1.
        -14    1    5    5    0    0  0.16943054258E+02 -0.11443276913E+03  0.73143612531E+03  0.74052733315E+03  0.00000000000E+00 0.  1.
          5    1    4    4  501    0 -0.24644278963E+02  0.13424937515E+03 -0.45770824907E+02  0.14402317879E+03  0.41800000000E+01 0.  1.
         -5    1    4    4    0  501 -0.22300061831E+01 -0.28714957249E+02 -0.59851670593E+01  0.29712225129E+02  0.41800000000E+01 0.  1.
</event>
<event>
11    1  0.6763327E-009  0.2265625E+03  0.7561462E-02  0.1037183E+00
         22   -1    0    0    0    0  0.00000000000E+00  0.00000000000E+00  0.41810898171E+03  0.41810898171E+03  0.00000000000E+00 0. -1.
         22   -1    0    0    0    0 -0.00000000000E+00 -0.00000000000E+00 -0.89477298458E+03  0.89477298458E+03  0.00000000000E+00 0. -1.
         24    2    1    2    0    0 -0.61739892287E+02  0.32823869716E+02 -0.65699461072E+03  0.66550557965E+03  0.79790584147E+02 0.  0.
         25    2    1    2    0    0 -0.36667735372E+02  0.13731598811E+03 -0.15903169720E+03  0.24726656126E+03  0.12509783449E+03 0.  0.
        -24    2    1    2    0    0  0.98407627659E+02 -0.17013985783E+03  0.33936230504E+03  0.40010982538E+03  0.79306152828E+02 0.  0.
        -13    1    3    3    0    0 -0.10138398028E+02  0.63571542247E+01 -0.91332921474E+01  0.15053821769E+02  0.00000000000E+00 0.  1.
         14    1    3    3    0    0 -0.51601494259E+02  0.26466715491E+02 -0.64786131857E+03  0.65045175789E+03  0.00000000000E+00 0. -1.
         11    1    5    5    0    0  0.17415816724E+02 -0.10921767995E+03  0.17631048892E+03  0.20812784722E+03  0.00000000000E+00 0. -1.
        -12    1    5    5    0    0  0.80991810935E+02 -0.60922177881E+02  0.16305181612E+03  0.19198197816E+03  0.00000000000E+00 0.  1.
          5    1    4    4  501    0 -0.19072262089E+02  0.72867728940E+02 -0.78213421647E+00  0.75442304020E+02  0.41800000000E+01 0.  1.
         -5    1    4    4    0  501 -0.17595473283E+02  0.64448259174E+02 -0.15824956298E+03  0.17182425724E+03  0.41800000000E+01 0.  1.
</event>
<event>
11    1  0.6763327E-009  0.1539526E+03  0.7561462E-02  0.1092907E+00
         22   -1    0    0    0    0  0.00000000000E+00  0.00000000000E+00  0.26137238022E+03  0.26137238022E+03  0.00000000000E+00 0. -1.
         22   -1    0    0    0    0 -0.00000000000E+00 -0.00000000000E+00 -0.29953795513E+03  0.29953795513E+03  0.00000000000E+00 0. -1.
        -24    2    1    2    0    0  0.42182275382E+02 -0.71627380531E+02 -0.18118267488E+03  0.21641827888E+03  0.84260807974E+02 0.  0.
         25    2    1    2    0    0 -0.29930170239E+02 -0.35486080629E+02 -0.17975584265E+02  0.13462126350E+03  0.12507871900E+03 0.  0.
         24    2    1    2    0    0 -0.12252105143E+02  0.10711346116E+03  0.16099268423E+03  0.20987079297E+03  0.80645506536E+02 0.  0.
        -11    1    5    5    0    0 -0.37049326843E+01  0.22720170173E+02 -0.49122002548E+01  0.23538529483E+02  0.00000000000E+00 0.  1.
         12    1    5    5    0    0 -0.85471724583E+01  0.84393290987E+02  0.16590488448E+03  0.18633226349E+03  0.00000000000E+00 0. -1.
         13    1    3    3    0    0  0.11395731048E+02 -0.16392417842E+01 -0.11416689176E+03  0.11474593228E+03  0.00000000000E+00 0. -1.
        -14    1    3    3    0    0  0.30786544334E+02 -0.69988138747E+02 -0.67015783114E+02  0.10167234660E+03  0.00000000000E+00 0.  1.
          5    1    4    4  501    0  0.16527272684E+02 -0.28076530767E+01  0.45899055439E+02  0.49043137627E+02  0.41800000000E+01 0. -1.
         -5    1    4    4    0  501 -0.46457442923E+02 -0.32678427552E+02 -0.63874639704E+02  0.85578125871E+02  0.41800000000E+01 0. -1.
</event>
<event>
11    1  0.6763327E-009  0.1439712E+03  0.7561462E-02  0.1103203E+00
         22   -1    0    0    0    0  0.00000000000E+00  0.00000000000E+00  0.13758160065E+03  0.13758160065E+03  0.00000000000E+00 0.  1.
         22   -1    0    0    0    0 -0.00000000000E+00 -0.00000000000E+00 -0.36680022598E+03  0.36680022598E+03  0.00000000000E+00 0. -1.
         24    2    1    2    0    0 -0.10557090721E+03 -0.58876862232E+02 -0.28119539130E+02  0.14918965468E+03  0.82795792328E+02 0.  0.
         25    2    1    2    0    0 -0.18206927444E+02  0.61733872235E+02 -0.13165825934E+03  0.19268226231E+03  0.12509993513E+03 0.  0.
        -24    2    1    2    0    0  0.12377783465E+03 -0.28570100033E+01 -0.69440826863E+02  0.16250990964E+03  0.79109591318E+02 0.  0.
        -11    1    3    3    0    0 -0.78039415683E+02  0.30727111633E+01 -0.81847829505E+01  0.78527591495E+02  0.00000000000E+00 0.  1.
         12    1    3    3    0    0 -0.27531491526E+02 -0.61949573395E+02 -0.19934756179E+02  0.70662063184E+02  0.00000000000E+00 0. -1.
         11    1    5    5    0    0  0.10376869096E+03 -0.25434589129E+02 -0.26580884010E+02  0.11009724312E+03  0.00000000000E+00 0. -1.
        -12    1    5    5    0    0  0.20009143694E+02  0.22577579126E+02 -0.42859942853E+02  0.52412666522E+02  0.00000000000E+00 0.  1.
          5    1    4    4  501    0 -0.19456415976E+02  0.50886164600E+02  0.56014881101E+01  0.54925430716E+02  0.41800000000E+01 0. -1.
         -5    1    4    4    0  501  0.12494885314E+01  0.10847707635E+02 -0.13725974745E+03  0.13775683160E+03  0.41800000000E+01 0. -1.
</event>
<event>
11    1  0.6763327E-009  0.1298625E+03  0.7561462E-02  0.1119438E+00
         22   -1    0    0    0    0  0.00000000000E+00  0.00000000000E+00  0.10363868559E+04  0.10363868559E+04  0.00000000000E+00 0. -1.
         22   -1    0    0    0    0 -0.00000000000E+00 -0.00000000000E+00 -0.33041716329E+03  0.33041716329E+03  0.00000000000E+00 0.  1.
         24    2    1    2    0    0 -0.24391275112E+02 -0.29563777246E+02 -0.30191188760E+03  0.31252677642E+03  0.71086193297E+02 0.  0.
         25    2    1    2    0    0 -0.59934522040E+01  0.53150475577E+01  0.16882049862E+03  0.21026637936E+03  0.12508964120E+03 0.  0.
        -24    2    1    2    0    0  0.30384727316E+02  0.24248729688E+02  0.83906108156E+03  0.84401086339E+03  0.82580908085E+02 0.  0.
        -11    1    3    3    0    0  0.25185396258E+02 -0.82509594726E+01 -0.11233834356E+03  0.11542220736E+03  0.00000000000E+00 0.  1.
         12    1    3    3    0    0 -0.49576671371E+02 -0.21312817773E+02 -0.18957354403E+03  0.19710456906E+03  0.00000000000E+00 0. -1.
         13    1    5    5    0    0  0.43457247382E+02  0.30548082832E+02  0.80781457650E+03  0.80955920582E+03  0.00000000000E+00 0. -1.
        -14    1    5    5    0    0 -0.13072520066E+02 -0.62993531441E+01  0.31246505059E+02  0.34451657570E+02  0.00000000000E+00 0.  1.
          5    1    4    4  501    0 -0.40156824706E+02 -0.43103127782E+02  0.11854773020E+03  0.13244427859E+03  0.41800000000E+01 0.  1.
         -5    1    4    4    0  501  0.34163372502E+02  0.48418175339E+02  0.50272768417E+02  0.77822100770E+02  0.41800000000E+01 0.  1.
</event>
<event>
11    1  0.6763327E-009  0.1737600E+03  0.7561462E-02  0.1074805E+00
         22   -1    0    0    0    0  0.00000000000E+00  0.00000000000E+00  0.63814804650E+03  0.63814804650E+03  0.00000000000E+00 0.  1.
         22   -1    0    0    0    0 -0.00000000000E+00 -0.00000000000E+00 -0.40712558592E+03  0.40712558592E+03  0.00000000000E+00 0.  1.
         24    2    1    2    0    0 -0.92710789978E+02  0.37165165710E+01 -0.23919122459E+03  0.26900053492E+03  0.80868676216E+02 0.  0.
         25    2    1    2    0    0  0.35799384568E+01 -0.90605968235E+02 -0.10199192122E+03  0.18512911918E+03  0.12509269098E+03 0.  0.
        -24    2    1    2    0    0  0.89130851522E+02  0.86889451664E+02  0.57220560639E+03  0.59114397832E+03  0.80857044311E+02 0.  0.
        -13    1    3    3    0    0 -0.82282747124E+02  0.33528614182E+02 -0.19859819514E+03  0.21756806189E+03  0.00000000000E+00 0.  1.
         14    1    3    3    0    0 -0.10428042855E+02 -0.29812097611E+02 -0.40593029449E+02  0.51432473026E+02  0.00000000000E+00 0. -1.
         13    1    5    5    0    0  0.32833952836E+02  0.21337832207E+02  0.59641782781E+02  0.71347836655E+02  0.00000000000E+00 0. -1.
        -14    1    5    5    0    0  0.56296898685E+02  0.65551619458E+02  0.51256382361E+03  0.51979614166E+03  0.00000000000E+00 0.  1.
          5    1    4    4  501    0  0.19955655400E+02 -0.23876244127E+02 -0.11132028230E+03  0.11566322176E+03  0.41800000000E+01 0.  1.
         -5    1    4    4    0  501 -0.16375716944E+02 -0.66729724108E+02  0.93283610770E+01  0.69465897427E+02  0.41800000000E+01 0.  1.
</event>
<event>
11    1  0.6763327E-009  0.1810221E+03  0.7561462E-02  0.1068819E+00
         22   -1    0    0    0    0  0.00000000000E+00  0.00000000000E+00  0.11140141112E+04  0.11140141112E+04  0.00000000000E+00 0.  1.
         22   -1    0    0    0    0 -0.00000000000E+00 -0.00000000000E+00 -0.33351051605E+03  0.33351051605E+03  0.00000000000E+00 0.  1.
         24    2    1    2    0    0  0.98884978940E+02 -0.85172858899E+02 -0.28400982539E+03  0.32292945734E+03  0.81173878486E+02 0.  0.
         25    2    1    2    0    0 -0.73291094515E+02  0.12370786624E+03  0.30620610842E+03  0.36067211849E+03  0.12508787120E+03 0.  0.
        -24    2    1    2    0    0 -0.25593884426E+02 -0.38535007342E+02  0.75830731211E+03  0.76392305140E+03  0.80052827287E+02 0.  0.
        -13    1    3    3    0    0  0.10792724865E+03 -0.70603187201E+02 -0.27458029355E+03  0.30336024567E+03  0.00000000000E+00 0.  1.
         14    1    3    3    0    0 -0.90422697109E+01 -0.14569671698E+02 -0.94295318388E+01  0.19569211676E+02  0.00000000000E+00 0. -1.
         13    1    5    5    0    0  0.22772471544E+02  0.74077649211E+01  0.14067578635E+03  0.14269946498E+03  0.00000000000E+00 0. -1.
        -14    1    5    5    0    0 -0.48366355970E+02 -0.45942772263E+02  0.61763152576E+03  0.62122358642E+03  0.00000000000E+00 0.  1.
          5    1    4    4  501    0 -0.78604886908E+02  0.71126520460E+02  0.28404800213E+03  0.30321353873E+03  0.41800000000E+01 0. -1.
         -5    1    4    4    0  501  0.53137923933E+01  0.52581345780E+02  0.22158106290E+02  0.57458579760E+02  0.41800000000E+01 0. -1.
</event>
<event>
11    1  0.6763327E-009  0.1324970E+03  0.7561462E-02  0.1116238E+00
         22   -1    0    0    0    0  0.00000000000E+00  0.00000000000E+00  0.46718616271E+03  0.46718616271E+03  0.00000000000E+00 0.  1.
         22   -1    0    0    0    0 -0.00000000000E+00 -0.00000000000E+00 -0.36025817561E+03  0.36025817561E+03  0.00000000000E+00 0. -1.
        -24    2    1    2    0    0 -0.43135127407E+02  0.33870154295E+01 -0.32166575013E+03  0.33459751426E+03  0.81329764833E+02 0.  0.
         25    2    1    2    0    0  0.54970680324E+02 -0.34972231182E+01  0.15105274012E+03  0.20371098656E+03  0.12508888633E+03 0.  0.
         24    2    1    2    0    0 -0.11835552917E+02  0.11020768869E+00  0.27754099711E+03  0.28913583751E+03  0.80189993122E+02 0.  0.
        -11    1    5    5    0    0 -0.39988077682E+02 -0.21510810367E+02  0.16457851309E+03  0.17072740931E+03  0.00000000000E+00 0.  1.
         12    1    5    5    0    0  0.28152524764E+02  0.21621018055E+02  0.11296248402E+03  0.11840842820E+03  0.00000000000E+00 0. -1.
         11    1    3    3    0    0 -0.56634087223E+02  0.28470879715E+02 -0.23299406171E+03  0.24146271683E+03  0.00000000000E+00 0. -1.
        -12    1    3    3    0    0  0.13498959817E+02 -0.25083864285E+02 -0.88671688426E+02  0.93134797427E+02  0.00000000000E+00 0.  1.
          5    1    4    4  501    0  0.34428252828E+02 -0.52732195062E+01 -0.13670799839E+02  0.37649363939E+02  0.41800000000E+01 0.  1.
         -5    1    4    4    0  501  0.20542427495E+02  0.17759963880E+01  0.16472353996E+03  0.16606162262E+03  0.41800000000E+01 0.  1.
</event>
<event>
11    1  0.6763327E-009  0.1682105E+03  0.7561462E-02  0.1079599E+00
         22   -1    0    0    0    0  0.00000000000E+00  0.00000000000E+00  0.40484533384E+03  0.40484533384E+03  0.00000000000E+00 0.  1.
         22   -1    0    0    0    0 -0.00000000000E+00 -0.00000000000E+00 -0.20678614007E+04  0.20678614007E+04  0.00000000000E+00 0. -1.
         24    2    1    2    0    0 -0.26190551619E+02  0.10838393326E+03 -0.19481304056E+04  0.19529821381E+04  0.80586182378E+02 0.  0.
         25    2    1    2    0    0  0.44509101597E+02 -0.13870093343E+03 -0.28134212706E+02  0.19405496337E+03  0.12508711294E+03 0.  0.
        -24    2    1    2    0    0 -0.18318549979E+02  0.30317000170E+02  0.31324855148E+03  0.32566963298E+03  0.81739617513E+02 0.  0.
        -11    1    3    3    0    0  0.12755317837E+02  0.51654463665E+02 -0.42789918160E+03  0.43119437771E+03  0.00000000000E+00 0.  1.
         12    1    3    3    0    0 -0.38945869456E+02  0.56729469595E+02 -0.15202312240E+04  0.15217877604E+04  0.00000000000E+00 0. -1.
         11    1    5    5    0    0 -0.28621058402E+01  0.20639902598E+02  0.12356762660E+02  0.24225746893E+02  0.00000000000E+00 0. -1.
        -12    1    5    5    0    0 -0.15456444138E+02  0.96770975726E+01  0.30089178882E+03  0.30144388609E+03  0.00000000000E+00 0.  1.
          5    1    4    4  501    0  0.27051261692E+01 -0.74086793380E+02  0.45809871305E+02  0.87247850231E+02  0.41800000000E+01 0. -1.
         -5    1    4    4    0  501  0.41803975428E+02 -0.64614140050E+02 -0.73944084012E+02  0.10680711314E+03  0.41800000000E+01 0. -1.
</event>
<event>
11    1  0.6763327E-009  0.1317272E+03  0.7561462E-02  0.1117165E+00
         22   -1    0    0    0    0  0.00000000000E+00  0.00000000000E+00  0.48383515942E+03  0.48383515942E+03  0.00000000000E+00 0. -1.
         22   -1    0    0    0    0 -0.00000000000E+00 -0.00000000000E+00 -0.63664305226E+03  0.63664305226E+03  0.00000000000E+00 0. -1.
         24    2    1    2    0    0 -0.25421321120E+02  0.39260521532E+01 -0.57584039789E+03  0.58224699942E+03  0.82205517109E+02 0.  0.
         25    2    1    2    0    0  0.26228031193E+02  0.37724378938E+02  0.34439255934E+02  0.13760959426E+03  0.12505718570E+03 0.  0.
        -24    2    1    2    0    0 -0.80671007334E+00 -0.41650431091E+02  0.38859324912E+03  0.40062161800E+03  0.88077002442E+02 0.  0.
        -13    1    3    3    0    0  0.12041997259E+02  0.35233802415E+02 -0.26151536184E+03  0.26415282510E+03  0.00000000000E+00 0.  1.
         14    1    3    3    0    0 -0.37463318378E+02 -0.31307750261E+02 -0.31432503605E+03  0.31809417433E+03  0.00000000000E+00 0. -1.
         11    1    5    5    0    0  0.12723349842E+02 -0.63831264085E+02  0.20197068343E+03  0.21219913024E+03  0.00000000000E+00 0. -1.
        -12    1    5    5    0    0 -0.13530059915E+02  0.22180832994E+02  0.18662256569E+03  0.18842248777E+03  0.00000000000E+00 0.  1.
          5    1    4    4  501    0 -0.72242600682E+01 -0.20476903902E+02  0.61313701493E+02  0.65179259874E+02  0.41800000000E+01 0. -1.
         -5    1    4    4    0  501  0.33452291261E+02  0.58201282840E+02 -0.26874445559E+02  0.72430334384E+02  0.41800000000E+01 0. -1.
</event>
<event>
11    1  0.6763327E-009  0.1517908E+03  0.7561462E-02  0.1095063E+00
         22   -1    0    0    0    0  0.00000000000E+00  0.00000000000E+00  0.27719682800E+03  0.27719682800E+03  0.00000000000E+00 0. -1.
         22   -1    0    0    0    0 -0.00000000000E+00 -0.00000000000E+00 -0.23053038602E+03  0.23053038602E+03  0.00000000000E+00 0. -1.
         24    2    1    2    0    0  0.55126424507E+02 -0.10147429215E+01 -0.14035076610E+03  0.17113620552E+03  0.80927812976E+02 0.  0.
         25    2    1    2    0    0 -0.49726792128E+01 -0.79423881339E+02  0.62531754897E+02  0.16090461046E+03  0.12508873983E+03 0.  0.
        -24    2    1    2    0    0 -0.50153745294E+02  0.80438624261E+02  0.12448545318E+03  0.17568639805E+03  0.79895631704E+02 0.  0.
        -13    1    3    3    0    0  0.72347260729E+02 -0.74214964536E+01 -0.80306797315E+02  0.10834383434E+03  0.00000000000E+00 0.  1.
         14    1    3    3    0    0 -0.17220836222E+02  0.64067535320E+01 -0.60043968781E+02  0.62792371177E+02  0.00000000000E+00 0. -1.
         13    1    5    5    0    0 -0.70370795335E+02  0.47946777372E+02  0.93339226797E+02  0.12634537410E+03  0.00000000000E+00 0. -1.
        -14    1    5    5    0    0  0.20217050041E+02  0.32491846889E+02  0.31146226381E+02  0.49341023949E+02  0.00000000000E+00 0.  1.
          5    1    4    4  501    0  0.50964074525E+02 -0.75546067700E+02  0.30470330622E+02  0.96179304870E+02  0.41800000000E+01 0. -1.
         -5    1    4    4    0  501 -0.55936753738E+02 -0.38778136397E+01  0.32061424274E+02  0.64725305591E+02  0.41800000000E+01 0. -1.
</event>
<event>
11    1  0.6763327E-009  0.1705683E+03  0.7561462E-02  0.1077538E+00
         22   -1    0    0    0    0  0.00000000000E+00  0.00000000000E+00  0.11179093120E+04  0.11179093120E+04  0.00000000000E+00 0. -1.
         22   -1    0    0    0    0 -0.00000000000E+00 -0.00000000000E+00 -0.15606943641E+04  0.15606943641E+04  0.00000000000E+00 0.  1.
         24    2    1    2    0    0  0.71977326385E+02  0.78326463409E+02 -0.15206336546E+04  0.15275952679E+04  0.99522965377E+02 0.  0.
         25    2    1    2    0    0 -0.17260703918E+02  0.43082111793E+02  0.11662520391E+03  0.17721040858E+03  0.12509232776E+03 0.  0.
        -24    2    1    2    0    0 -0.54716622467E+02 -0.12140857520E+03  0.96122339854E+03  0.97379799968E+03  0.81229128791E+02 0.  0.
        -11    1    3    3    0    0  0.16971099317E+02  0.77089205653E+02 -0.11711547985E+04  0.11738118784E+04  0.00000000000E+00 0.  1.
         12    1    3    3    0    0  0.55006227068E+02  0.12372577560E+01 -0.34947885609E+03  0.35378338949E+03  0.00000000000E+00 0. -1.
         11    1    5    5    0    0 -0.63692790723E+02 -0.10903872127E+03  0.93465785096E+03  0.94314978274E+03  0.00000000000E+00 0. -1.
        -12    1    5    5    0    0  0.89761682566E+01 -0.12369853936E+02  0.26565547581E+02  0.30648216934E+02  0.00000000000E+00 0.  1.
          5    1    4    4  501    0  0.37879647749E+02 -0.15591200887E+02  0.80201124173E+01  0.41949348766E+02  0.41800000000E+01 0. -1.
         -5    1    4    4    0  501 -0.55140351667E+02  0.58673312680E+02  0.10860509150E+03  0.13526105981E+03  0.41800000000E+01 0. -1.
</event>
<event>
11    1  0.6763327E-009  0.3026828E+03  0.7561462E-02  0.9990622E-01
         22   -1    0    0    0    0  0.00000000000E+00  0.00000000000E+00  0.14527314921E+04  0.14527314921E+04  0.00000000000E+00 0.  1.
         22   -1    0    0    0    0 -0.00000000000E+00 -0.00000000000E+00 -0.42202516023E+03  0.42202516023E+03  0.00000000000E+00 0. -1.
        -24    2    1    2    0    0  0.73623949913E+02  0.13155174276E+02 -0.25060820189E+03  0.27334784880E+03  0.79504911633E+02 0.  0.
         25    2    1    2    0    0  0.14012494471E+03 -0.19461357917E+03 -0.16698729604E+02  0.27098923284E+03  0.12508745508E+03 0.  0.
         24    2    1    2    0    0 -0.21374889462E+03  0.18145840490E+03  0.12980132634E+04  0.13304195707E+04  0.81006539988E+02 0.  0.
        -13    1    5    5    0    0 -0.15740754964E+03  0.15274561951E+03  0.11257079245E+04  0.11468769298E+04  0.00000000000E+00 0.  1.
         14    1    5    5    0    0 -0.56341344984E+02  0.28712785389E+02  0.17230533892E+03  0.18354264088E+03  0.00000000000E+00 0. -1.
         13    1    3    3    0    0  0.47904984062E+02 -0.83785914665E+01 -0.22743943160E+03  0.23258070285E+03  0.00000000000E+00 0. -1.
        -14    1    3    3    0    0  0.25718965851E+02  0.21533765743E+02 -0.23168770297E+02  0.40767145946E+02  0.00000000000E+00 0.  1.
          5    1    4    4  501    0  0.11711299713E+03 -0.55964528985E+02 -0.84216411959E+01  0.13013792315E+03  0.41800000000E+01 0.  1.
         -5    1    4    4    0  501  0.23011947580E+02 -0.13864905019E+03 -0.82770884079E+01  0.14085130969E+03  0.41800000000E+01 0.  1.
</event>
<event>
11    1  0.6763327E-009  0.1301557E+03  0.7561462E-02  0.1119078E+00
         22   -1    0    0    0    0  0.00000000000E+00  0.00000000000E+00  0.87443698897E+03  0.87443698897E+03  0.00000000000E+00 0.  1.
         22   -1    0    0    0    0 -0.00000000000E+00 -0.00000000000E+00 -0.14701529371E+04  0.14701529371E+04  0.00000000000E+00 0.  1.
        -24    2    1    2    0    0 -0.24522903347E+02 -0.17477726163E+02 -0.14127772348E+04  0.14152950090E+04  0.78826415367E+02 0.  0.
         25    2    1    2    0    0  0.58710195708E+02  0.98844264017E+01  0.36128567659E+02  0.14316653716E+03  0.12508714960E+03 0.  0.
         24    2    1    2    0    0 -0.34187292361E+02  0.75932997609E+01  0.78093271901E+03  0.78612837987E+03  0.83159418379E+02 0.  0.
        -13    1    5    5    0    0 -0.90887649117E+01  0.31982664188E+02  0.64183538204E+03  0.64269600442E+03  0.00000000000E+00 0.  1.
         14    1    5    5    0    0 -0.25098527449E+02 -0.24389364427E+02  0.13909733697E+03  0.14343237545E+03  0.00000000000E+00 0. -1.
         13    1    3    3    0    0  0.13988998983E+02  0.47757437347E+01 -0.60256215099E+02  0.62042818108E+02  0.00000000000E+00 0. -1.
        -14    1    3    3    0    0 -0.38511902329E+02 -0.22253469897E+02 -0.13525210197E+04  0.13532521909E+04  0.00000000000E+00 0.  1.
          5    1    4    4  501    0 -0.21098108120E+02  0.21262910874E+01  0.56361286719E+02  0.60363219933E+02  0.41800000000E+01 0. -1.
         -5    1    4    4    0  501  0.79808303827E+02  0.77581353143E+01 -0.20232719061E+02  0.82803317228E+02  0.41800000000E+01 0. -1.
</event>
<event>
11    1  0.6763327E-009  0.1472196E+03  0.7561462E-02  0.1099754E+00
         22   -1    0    0    0    0  0.00000000000E+00  0.00000000000E+00  0.88741670734E+03  0.88741670734E+03  0.00000000000E+00 0.  1.
         22   -1    0    0    0    0 -0.00000000000E+00 -0.00000000000E+00 -0.21453538720E+04  0.21453538720E+04  0.00000000000E+00 0.  1.
         24    2    1    2    0    0  0.40605748334E+02 -0.38080011115E+02 -0.19048610646E+04  0.19076318951E+04  0.86399407793E+02 0.  0.
         25    2    1    2    0    0 -0.85314032171E+02  0.10053841063E+03 -0.20049402134E+03  0.27061545691E+03  0.12509363225E+03 0.  0.
        -24    2    1    2    0    0  0.44708283837E+02 -0.62458399512E+02  0.84741792128E+03  0.85452322735E+03  0.78695174343E+02 0.  0.
        -13    1    3    3    0    0  0.12881920246E+02 -0.27483494494E+02 -0.17302592128E+04  0.17305254201E+04  0.00000000000E+00 0.  1.
         14    1    3    3    0    0  0.27723828089E+02 -0.10596516620E+02 -0.17460185187E+03  0.17710647499E+03  0.00000000000E+00 0. -1.
         13    1    5    5    0    0  0.68180876126E+01 -0.40986742833E+02  0.14718613169E+03  0.15293840842E+03  0.00000000000E+00 0. -1.
        -14    1    5    5    0    0  0.37890196224E+02 -0.21471656679E+02  0.70023178959E+03  0.70158481893E+03  0.00000000000E+00 0.  1.
          5    1    4    4  501    0 -0.59073078791E+02 -0.78274446616E+01 -0.11662388569E+03  0.13103244118E+03  0.41800000000E+01 0.  1.
         -5    1    4    4    0  501 -0.26240953380E+02  0.10836585529E+03 -0.83870135648E+02  0.13958301573E+03  0.41800000000E+01 0.  1.
</event>
<event>
11    1  0.6763327E-009  0.1719440E+03  0.7561462E-02  0.1076352E+00
         22   -1    0    0    0    0  0.00000000000E+00  0.00000000000E+00  0.60638047493E+03  0.60638047493E+03  0.00000000000E+00 0. -1.
         22   -1    0    0    0    0 -0.00000000000E+00 -0.00000000000E+00 -0.32233667691E+03  0.32233667691E+03  0.00000000000E+00 0.  1.
        -24    2    1    2    0    0  0.23937581836E+02  0.13428621549E+02 -0.17081057413E+03  0.19132824944E+03  0.81712368077E+02 0.  0.
         25    2    1    2    0    0 -0.47642668351E+02  0.10270292620E+03 -0.77721498166E+02  0.18575531822E+03  0.12508673820E+03 0.  0.
         24    2    1    2    0    0  0.23705086515E+02 -0.11613154774E+03  0.53257587031E+03  0.55163358418E+03  0.81327031480E+02 0.  0.
        -11    1    5    5    0    0  0.93177228964E+01 -0.12104153069E+03  0.39537606540E+03  0.41359413101E+03  0.00000000000E+00 0.  1.
         12    1    5    5    0    0  0.14387363618E+02  0.49099829502E+01  0.13719980491E+03  0.13803945317E+03  0.00000000000E+00 0. -1.
         11    1    3    3    0    0  0.87607706353E+01  0.44798173935E+02 -0.61444611432E+02  0.76544547579E+02  0.00000000000E+00 0. -1.
        -12    1    3    3    0    0  0.15176811201E+02 -0.31369552386E+02 -0.10936596270E+03  0.11478370186E+03  0.00000000000E+00 0.  1.
          5    1    4    4  501    0 -0.29546758094E+02  0.11496928087E+03 -0.15639536224E+02  0.11980406483E+03  0.41800000000E+01 0. -1.
         -5    1    4    4    0  501 -0.18095910256E+02 -0.12266354674E+02 -0.62081961941E+02  0.65951253388E+02  0.41800000000E+01 0. -1.
</event>
<event>
11    1  0.6763327E-009  0.1382294E+03  0.7561462E-02  0.1109552E+00
         22   -1    0    0    0    0  0.00000000000E+00  0.00000000000E+00  0.25689506050E+04  0.25689506050E+04  0.00000000000E+00 0. -1.
         22   -1    0    0    0    0 -0.00000000000E+00 -0.00000000000E+00 -0.63731242818E+03  0.63731242818E+03  0.00000000000E+00 0. -1.
        -24    2    1    2    0    0  0.40716743479E+02  0.41034372632E+02 -0.59964401752E+03  0.60784573659E+03  0.81005054180E+02 0.  0.
         25    2    1    2    0    0 -0.83833261275E+02 -0.75877397739E+02  0.18496728297E+03  0.25029002839E+03  0.12508719902E+03 0.  0.
         24    2    1    2    0    0  0.43116517795E+02  0.34843025107E+02  0.23463149113E+04  0.23481272682E+04  0.73722003659E+02 0.  0.
        -11    1    5    5    0    0  0.35551330936E+02 -0.15436902850E+02  0.74759961568E+03  0.74860362039E+03  0.00000000000E+00 0.  1.
         12    1    5    5    0    0  0.75651868593E+01  0.50279927957E+02  0.15987152957E+04  0.15995236478E+04  0.00000000000E+00 0. -1.
         13    1    3    3    0    0  0.11718095452E+02  0.42945146438E+02 -0.53640237379E+03  0.53824632462E+03  0.00000000000E+00 0. -1.
        -14    1    3    3    0    0  0.28998648028E+02 -0.19107738067E+01 -0.63241643734E+02  0.69599411967E+02  0.00000000000E+00 0.  1.
          5    1    4    4  501    0 -0.88482264793E+02 -0.11127953557E+02  0.54748571931E+02  0.10472736539E+03  0.41800000000E+01 0. -1.
         -5    1    4    4    0  501  0.46490035185E+01 -0.64749444182E+02  0.13021871103E+03  0.14556266300E+03  0.41800000000E+01 0. -1.
</event>
<event>
11    1  0.6763327E-009  0.1401706E+03  0.7561462E-02  0.1107368E+00
         22   -1    0    0    0    0  0.00000000000E+00  0.00000000000E+00  0.82725395549E+03  0.82725395549E+03  0.00000000000E+00 0.  1.
         22   -1    0    0    0    0 -0.00000000000E+00 -0.00000000000E+00 -0.44568984984E+03  0.44568984984E+03  0.00000000000E+00 0.  1.
         24    2    1    2    0    0  0.22114810265E+02  0.58586400633E+02 -0.28025034289E+03  0.29833892806E+03  0.80897652225E+02 0.  0.
         25    2    1    2    0    0 -0.35667358514E+02 -0.56220383313E+02 -0.12189656719E+03  0.18691963919E+03  0.12508911407E+03 0.  0.
        -24    2    1    2    0    0  0.13552548249E+02 -0.23660173200E+01  0.78371101573E+03  0.78768523807E+03  0.77819075358E+02 0.  0.
        -13    1    3    3    0    0 -0.60970095550E+01  0.44665846297E+02 -0.25217794006E+03  0.25617557417E+03  0.00000000000E+00 0.  1.
         14    1    3    3    0    0  0.28211819820E+02  0.13920554335E+02 -0.28072402835E+02  0.42163353893E+02  0.00000000000E+00 0. -1.
         11    1    5    5    0    0  0.21035679546E+02 -0.28136684322E+01  0.55254808474E+02  0.59190458720E+02  0.00000000000E+00 0. -1.
        -12    1    5    5    0    0 -0.74831312964E+01  0.44765111213E+00  0.72845620726E+03  0.72849477935E+03  0.00000000000E+00 0.  1.
          5    1    4    4  501    0 -0.67608599738E+02 -0.76281531860E+02 -0.10118562146E+03  0.14368645466E+03  0.41800000000E+01 0. -1.
         -5    1    4    4    0  501  0.31941241224E+02  0.20061148548E+02 -0.20710945733E+02  0.43233184536E+02  0.41800000000E+01 0. -1.
</event>
<event>
11    1  0.6763327E-009  0.1845621E+03  0.7561462E-02  0.1066011E+00
         22   -1    0    0    0    0  0.00000000000E+00  0.00000000000E+00  0.32285967853E+03  0.32285967853E+03  0.00000000000E+00 0.  1.
         22   -1    0    0    0    0 -0.00000000000E+00 -0.00000000000E+00 -0.97121272033E+03  0.97121272033E+03  0.00000000000E+00 0.  1.
        -24    2    1    2    0    0 -0.10434395214E+03 -0.92996188228E+02 -0.79237256761E+03  0.80847876189E+03  0.79042211191E+02 0.  0.
         25    2    1    2    0    0  0.12129306232E+03  0.28299211575E+02 -0.11057248625E+03  0.20827653140E+03  0.12505993153E+03 0.  0.
         24    2    1    2    0    0 -0.16949110179E+02  0.64696976653E+02  0.25459201206E+03  0.27731710557E+03  0.87262324703E+02 0.  0.
        -13    1    5    5    0    0 -0.21853171419E+01  0.44479028664E+02  0.24724942857E+03  0.25122786377E+03  0.00000000000E+00 0.  1.
         14    1    5    5    0    0 -0.14763793037E+02  0.20217947989E+02  0.73425834887E+01  0.26089241806E+02  0.00000000000E+00 0. -1.
         11    1    3    3    0    0  0.11498360342E+02 -0.20624356612E+02 -0.13752598421E+03  0.13953842736E+03  0.00000000000E+00 0. -1.
        -12    1    3    3    0    0 -0.11584231248E+03 -0.72371831617E+02 -0.65484658340E+03  0.66894033453E+03  0.00000000000E+00 0.  1.
          5    1    4    4  501    0 -0.99875303117E+01  0.59872248724E+01  0.18841533035E+02  0.22540483369E+02  0.41800000000E+01 0.  1.
         -5    1    4    4    0  501  0.13128059263E+03  0.22311986703E+02 -0.12941401928E+03  0.18573604803E+03  0.41800000000E+01 0.  1.
</event>
<event>
11    1  0.6763327E-009  0.1801070E+03  0.7561462E-02  0.1069556E+00
         22   -1    0    0    0    0  0.00000000000E+00  0.00000000000E+00  0.11754666510E+04  0.11754666510E+04  0.00000000000E+00 0.  1.
         22   -1    0    0    0    0 -0.00000000000E+00 -0.00000000000E+00 -0.14697462883E+03  0.14697462883E+03  0.00000000000E+00 0. -1.
        -24    2    1    2    0    0  0.57610986420E+02 -0.80215725252E+02 -0.64537934384E+02  0.14353791549E+03  0.81758179251E+02 0.  0.
         25    2    1    2    0    0 -0.44496189063E+02 -0.64574455547E+02  0.12184824802E+03  0.19142397845E+03  0.12508546212E+03 0.  0.
         24    2    1    2    0    0 -0.13114797358E+02  0.14479018080E+03  0.97118170855E+03  0.98747938590E+03  0.10385293546E+03 0.  0.
        -11    1    5    5    0    0 -0.28392361327E+02  0.13920447611E+03  0.95102283951E+03  0.96157602591E+03  0.00000000000E+00 0.  1.
         12    1    5    5    0    0  0.15277563969E+02  0.55857046927E+01  0.20158869038E+02  0.25903359987E+02  0.00000000000E+00 0. -1.
         13    1    3    3    0    0  0.65877706934E+02 -0.45707541315E+02 -0.71437443859E+02  0.10738882618E+03  0.00000000000E+00 0. -1.
        -14    1    3    3    0    0 -0.82667205133E+01 -0.34508183936E+02  0.68995094753E+01  0.36149089306E+02  0.00000000000E+00 0.  1.
          5    1    4    4  501    0 -0.87916093916E+02 -0.51220888496E+02  0.79704362332E+02  0.12931773568E+03  0.41800000000E+01 0.  1.
         -5    1    4    4    0  501  0.43419904854E+02 -0.13353567051E+02  0.42143885684E+02  0.62106242770E+02  0.41800000000E+01 0.  1.
</event>
<event>
11    1  0.6763327E-009  0.1570937E+03  0.7561462E-02  0.1089843E+00
         22   -1    0    0    0    0  0.00000000000E+00  0.00000000000E+00  0.63210892488E+03  0.63210892488E+03  0.00000000000E+00 0. -1.
         22   -1    0    0    0    0 -0.00000000000E+00 -0.00000000000E+00 -0.16612187386E+03  0.16612187386E+03  0.00000000000E+00 0.  1.
         24    2    1    2    0    0 -0.30257784300E+02 -0.87068539091E+02 -0.93825762715E+02  0.15413231161E+03  0.80355657686E+02 0.  0.
         25    2    1    2    0    0  0.84232116981E+02  0.91134411931E+02  0.17901079086E+03  0.25118603502E+03  0.12509608458E+03 0.  0.
        -24    2    1    2    0    0 -0.53974332681E+02 -0.40658728390E+01  0.38080202287E+03  0.39291245211E+03  0.80251196182E+02 0.  0.
        -13    1    3    3    0    0 -0.55681845600E+02 -0.63611280429E+02 -0.81451483008E+02  0.11739338572E+03  0.00000000000E+00 0.  1.
         14    1    3    3    0    0  0.25424061300E+02 -0.23457258662E+02 -0.12374279707E+02  0.36738925885E+02  0.00000000000E+00 0. -1.
         13    1    5    5    0    0 -0.34980694008E+02 -0.32605227167E+02  0.31603147226E+03  0.31962891178E+03  0.00000000000E+00 0. -1.
        -14    1    5    5    0    0 -0.18993638673E+02  0.28539354328E+02  0.64770550617E+02  0.73283540326E+02  0.00000000000E+00 0.  1.
          5    1    4    4  501    0  0.10552287871E+02  0.38697665297E+02  0.15119146225E+03  0.15647744481E+03  0.41800000000E+01 0.  1.
         -5    1    4    4    0  501  0.73679829110E+02  0.52436746633E+02  0.27819328616E+02  0.94708590212E+02  0.41800000000E+01 0.  1.
</event>
<event>
11    1  0.6763327E-009  0.1461859E+03  0.7561462E-02  0.1100841E+00
         22   -1    0    0    0    0  0.00000000000E+00  0.00000000000E+00  0.15585513135E+04  0.15585513135E+04  0.00000000000E+00 0. -1.
         22   -1    0    0    0    0 -0.00000000000E+00 -0.00000000000E+00 -0.14585179263E+03  0.14585179263E+03  0.00000000000E+00 0. -1.
        -24    2    1    2    0    0  0.17697363908E+02 -0.81119201787E-01 -0.10038328786E+03  0.13102465572E+03  0.82325285630E+02 0.  0.
         25    2    1    2    0    0 -0.24865616978E+02 -0.75094054523E+02  0.16844452978E+03  0.22422931610E+03  0.12509120933E+03 0.  0.
         24    2    1    2    0    0  0.71682530698E+01  0.75175173725E+02  0.13446382790E+04  0.13491491343E+04  0.80303143081E+02 0.  0.
        -11    1    5    5    0    0 -0.66840784879E+01 -0.70463250591E+01  0.56161962199E+03  0.56170359390E+03  0.00000000000E+00 0.  1.
         12    1    5    5    0    0  0.13852331558E+02  0.82221498784E+02  0.78301865697E+03  0.78744554042E+03  0.00000000000E+00 0. -1.
         13    1    3    3    0    0  0.46193774331E+02 -0.77067251070E+00 -0.89104380982E+02  0.10036956428E+03  0.00000000000E+00 0. -1.
        -14    1    3    3    0    0 -0.28496410423E+02  0.68955330891E+00 -0.11278906882E+02  0.30655091441E+02  0.00000000000E+00 0.  1.
          5    1    4    4  501    0 -0.13210091486E+02 -0.11897230401E+02  0.15792484962E+03  0.15897729755E+03  0.41800000000E+01 0.  1.
         -5    1    4    4    0  501 -0.11655525492E+02 -0.63196824122E+02  0.10519680161E+02  0.65252018546E+02  0.41800000000E+01 0.  1.
</event>
<event>
11    1  0.6763327E-009  0.5980924E+03  0.7561462E-02  0.9197626E-01
         22   -1    0    0    0    0  0.00000000000E+00  0.00000000000E+00  0.11372355492E+04  0.11372355492E+04  0.00000000000E+00 0. -1.
         22   -1    0    0    0    0 -0.00000000000E+00 -0.00000000000E+00 -0.17417788990E+04  0.17417788990E+04  0.00000000000E+00 0.  1.
         24    2    1    2    0    0  0.52944375628E+02 -0.16354705089E+02 -0.13869456219E+04  0.13903687529E+04  0.80227973138E+02 0.  0.
         25    2    1    2    0    0 -0.12066496865E+03 -0.57028233015E+03  0.64212261608E+03  0.87621390270E+03  0.12508948177E+03 0.  0.
        -24    2    1    2    0    0  0.67720593024E+02  0.58663703524E+03  0.14027965603E+03  0.61243179260E+03  0.81640852813E+02 0.  0.
        -11    1    3    3    0    0  0.47417163533E+02 -0.33810506448E+02 -0.13092581952E+04  0.13105527687E+04  0.00000000000E+00 0.  1.
         12    1    3    3    0    0  0.55272120945E+01  0.17455801359E+02 -0.77687426690E+02  0.79815984241E+02  0.00000000000E+00 0. -1.
         11    1    5    5    0    0  0.21703352832E+02  0.47103667536E+03  0.11725759368E+03  0.48589703470E+03  0.00000000000E+00 0. -1.
        -12    1    5    5    0    0  0.46017240192E+02  0.11560035989E+03  0.23022062349E+02  0.12653475790E+03  0.00000000000E+00 0.  1.
          5    1    4    4  501    0 -0.13240000485E+02 -0.11943220164E+03  0.67241105217E+02  0.13776134085E+03  0.41800000000E+01 0.  1.
         -5    1    4    4    0  501 -0.10742496817E+03 -0.45085012852E+03  0.57488151087E+03  0.73845256185E+03  0.41800000000E+01 0.  1.
</event>
<event>
11    1  0.6763327E-009  0.1284243E+03  0.7561462E-02  0.1121220E+00
         22   -1    0    0    0    0  0.00000000000E+00  0.00000000000E+00  0.13551869661E+03  0.13551869661E+03  0.00000000000E+00 0. -1.
         22   -1    0    0    0    0 -0.00000000000E+00 -0.00000000000E+00 -0.80821160518E+03  0.80821160518E+03  0.00000000000E+00 0.  1.
        -24    2    1    2    0    0  0.70365713504E+01 -0.27928316892E+02 -0.55667429164E+03  0.56331158998E+03  0.81266082786E+02 0.  0.
         25    2    1    2    0    0 -0.29386352280E+01 -0.27398601097E+01 -0.21519824434E+03  0.24894493057E+03  0.12508857534E+03 0.  0.
         24    2    1    2    0    0 -0.40979361224E+01  0.30668177001E+02  0.99179627404E+02  0.13147378124E+03  0.80569389348E+02 0.  0.
        -13    1    5    5    0    0  0.66116389296E+01  0.14184813192E+02 -0.11271887344E+02  0.19286734791E+02  0.00000000000E+00 0.  1.
         14    1    5    5    0    0 -0.10709575052E+02  0.16483363810E+02  0.11045151475E+03  0.11218704645E+03  0.00000000000E+00 0. -1.
         13    1    3    3    0    0  0.13490088507E+02 -0.77075716445E+01 -0.16292100987E+02  0.22512700930E+02  0.00000000000E+00 0. -1.
        -14    1    3    3    0    0 -0.64535171569E+01 -0.20220745247E+02 -0.54038219065E+03  0.54079888905E+03  0.00000000000E+00 0.  1.
          5    1    4    4  501    0 -0.10953032027E+02 -0.26065522917E+02 -0.22134700104E+03  0.22318455964E+03  0.41800000000E+01 0.  1.
         -5    1    4    4    0  501  0.80143967988E+01  0.23325662807E+02  0.61487566974E+01  0.25760370928E+02  0.41800000000E+01 0.  1.
</event>
<event>
11    1  0.6763327E-009  0.1404104E+03  0.7561462E-02  0.1107101E+00
         22   -1    0    0    0    0  0.00000000000E+00  0.00000000000E+00  0.26495562658E+04  0.26495562658E+04  0.00000000000E+00 0.  1.
         22   -1    0    0    0    0 -0.00000000000E+00 -0.00000000000E+00 -0.82363928283E+03  0.82363928283E+03  0.00000000000E+00 0.  1.
         24    2    1    2    0    0  0.24685103646E+02 -0.58879498854E+02 -0.81476805481E+03  0.81963531678E+03  0.62280973413E+02 0.  0.
         25    2    1    2    0    0 -0.38640729878E+02  0.36248726360E+02  0.83992909317E+03  0.85084225786E+03  0.12507833558E+03 0.  0.
        -24    2    1    2    0    0  0.13955626232E+02  0.22630772494E+02  0.18007559447E+04  0.18027179740E+04  0.79769733476E+02 0.  0.
        -11    1    3    3    0    0  0.43389042277E+02 -0.24018059183E+02 -0.44161052283E+03  0.44438646472E+03  0.00000000000E+00 0.  1.
         12    1    3    3    0    0 -0.18703938631E+02 -0.34861439671E+02 -0.37315753198E+03  0.37524885206E+03  0.00000000000E+00 0. -1.
         13    1    5    5    0    0  0.34011367546E+02 -0.65705310615E+01  0.39507678261E+03  0.39659249761E+03  0.00000000000E+00 0. -1.
        -14    1    5    5    0    0 -0.20055741314E+02  0.29201303555E+02  0.14056791620E+04  0.14061254764E+04  0.00000000000E+00 0.  1.
          5    1    4    4  501    0 -0.52852350020E+02  0.55951605868E+02  0.28129926680E+03  0.29166882419E+03  0.41800000000E+01 0.  1.
         -5    1    4    4    0  501  0.14211620142E+02 -0.19702879507E+02  0.55862982637E+03  0.55917343367E+03  0.41800000000E+01 0.  1.
</event>
<event>
11    1  0.6763327E-009  0.2298187E+03  0.7561462E-02  0.1035235E+00
         22   -1    0    0    0    0  0.00000000000E+00  0.00000000000E+00  0.39126126781E+03  0.39126126781E+03  0.00000000000E+00 0.  1.
         22   -1    0    0    0    0 -0.00000000000E+00 -0.00000000000E+00 -0.79159728730E+03  0.79159728730E+03  0.00000000000E+00 0. -1.
        -24    2    1    2    0    0  0.18707517108E+03 -0.43708061097E+02 -0.58059992510E+03  0.61666088911E+03  0.79163532591E+02 0.  0.
         25    2    1    2    0    0 -0.17491965037E+03  0.10347027856E+03 -0.10660440593E+03  0.26137330434E+03  0.12509405352E+03 0.  0.
         24    2    1    2    0    0 -0.12155520706E+02 -0.59762217466E+02  0.28686831154E+03  0.30482436167E+03  0.83097436686E+02 0.  0.
        -11    1    5    5    0    0  0.13543301458E+01 -0.78890945449E+02  0.23558626243E+03  0.24844818883E+03  0.00000000000E+00 0.  1.
         12    1    5    5    0    0 -0.13509850852E+02  0.19128727983E+02  0.51282049104E+02  0.56376172844E+02  0.00000000000E+00 0. -1.
         11    1    3    3    0    0  0.16657886843E+03 -0.52219384750E+02 -0.55925769009E+03  0.58587076004E+03  0.00000000000E+00 0. -1.
        -12    1    3    3    0    0  0.20496302648E+02  0.85113236522E+01 -0.21342235008E+02  0.30790129062E+02  0.00000000000E+00 0.  1.
          5    1    4    4  501    0 -0.75589206678E+02  0.10798935741E+03 -0.91966279721E+02  0.16078152408E+03  0.41800000000E+01 0.  1.
         -5    1    4    4    0  501 -0.99330443692E+02 -0.45190788419E+01 -0.14638126208E+02  0.10059178026E+03  0.41800000000E+01 0.  1.
</event>
<event>
11    1  0.6763327E-009  0.2250142E+03  0.7561462E-02  0.1038121E+00
         22   -1    0    0    0    0  0.00000000000E+00  0.00000000000E+00  0.32230957172E+03  0.32230957172E+03  0.00000000000E+00 0. -1.
         22   -1    0    0    0    0 -0.00000000000E+00 -0.00000000000E+00 -0.76514182250E+03  0.76514182250E+03  0.00000000000E+00 0.  1.
        -24    2    1    2    0    0  0.92184919951E+02  0.28503902675E+01 -0.22052123922E+03  0.25308755376E+03  0.83171562024E+02 0.  0.
         25    2    1    2    0    0 -0.25681671305E+03 -0.77963313524E+02 -0.44599265629E+03  0.53534141574E+03  0.12509148485E+03 0.  0.
         24    2    1    2    0    0  0.16463179310E+03  0.75112923256E+02  0.22368164474E+03  0.29902242471E+03  0.81457680713E+02 0.  0.
        -11    1    5    5    0    0  0.22833548042E+02  0.45618186911E+02  0.38404214070E+02  0.63853532021E+02  0.00000000000E+00 0.  1.
         12    1    5    5    0    0  0.14179824505E+03  0.29494736345E+02  0.18527743067E+03  0.23516889269E+03  0.00000000000E+00 0. -1.
         11    1    3    3    0    0  0.21809055548E+02 -0.34783042497E+02 -0.10443755336E+03  0.11221718897E+03  0.00000000000E+00 0. -1.
        -12    1    3    3    0    0  0.70375864403E+02  0.37633432765E+02 -0.11608368587E+03  0.14087036479E+03  0.00000000000E+00 0.  1.
          5    1    4    4  501    0 -0.78110890214E+02  0.12801295686E+02 -0.56685248449E+02  0.97446775899E+02  0.41800000000E+01 0. -1.
         -5    1    4    4    0  501 -0.17870582283E+03 -0.90764609210E+02 -0.38930740785E+03  0.43789463984E+03  0.41800000000E+01 0. -1.
</event>
<event>
11    1  0.6763327E-009  0.1558821E+03  0.7561462E-02  0.1091016E+00
         22   -1    0    0    0    0  0.00000000000E+00  0.00000000000E+00  0.13503188746E+03  0.13503188746E+03  0.00000000000E+00 0. -1.
         22   -1    0    0    0    0 -0.00000000000E+00 -0.00000000000E+00 -0.27433873319E+03  0.27433873319E+03  0.00000000000E+00 0.  1.
         24    2    1    2    0    0 -0.98732847912E+01 -0.64658420021E+01 -0.26061664157E+02  0.83815337011E+02  0.78781416046E+02 0.  0.
         25    2    1    2    0    0 -0.30354739772E+02  0.88904070123E+02 -0.12931818348E+03  0.20296930579E+03  0.12509197657E+03 0.  0.
        -24    2    1    2    0    0  0.40228024563E+02 -0.82438228120E+02  0.16073001904E+02  0.12258597785E+03  0.79715902800E+02 0.  0.
        -13    1    3    3    0    0  0.33880196267E+02  0.53443518726E+01 -0.98813025472E+01  0.35694116267E+02  0.00000000000E+00 0.  1.
         14    1    3    3    0    0 -0.43753481058E+02 -0.11810193875E+02 -0.16180361609E+02  0.48121220744E+02  0.00000000000E+00 0. -1.
         13    1    5    5    0    0  0.48215550024E+02 -0.14872484180E+02 -0.65646648983E+01  0.50882461370E+02  0.00000000000E+00 0. -1.
        -14    1    5    5    0    0 -0.79875254611E+01 -0.67565743941E+02  0.22637666802E+02  0.71703516479E+02  0.00000000000E+00 0.  1.
          5    1    4    4  501    0 -0.67496105146E+02  0.91302066120E+01 -0.52768434170E+02  0.86261607494E+02  0.41800000000E+01 0. -1.
         -5    1    4    4    0  501  0.37141365374E+02  0.79773863511E+02 -0.76549749313E+02  0.11670769829E+03  0.41800000000E+01 0. -1.
</event>
<event>
11    1  0.6763327E-009  0.1408680E+03  0.7561462E-02  0.1106593E+00
         22   -1    0    0    0    0  0.00000000000E+00  0.00000000000E+00  0.58665616620E+03  0.58665616620E+03  0.00000000000E+00 0.  1.
         22   -1    0    0    0    0 -0.00000000000E+00 -0.00000000000E+00 -0.11430710736E+04  0.11430710736E+04  0.00000000000E+00 0. -1.
        -24    2    1    2    0    0  0.63800903313E+02 -0.20048388853E-01 -0.10695882349E+04  0.10744776892E+04  0.80079689865E+02 0.  0.
         25    2    1    2    0    0 -0.10497193275E+03  0.12588037996E+02  0.33066948173E+02  0.16708649319E+03  0.12508760042E+03 0.  0.
         24    2    1    2    0    0  0.41171029439E+02 -0.12567989607E+02  0.48010637926E+03  0.48816305746E+03  0.77123454551E+02 0.  0.
        -11    1    5    5    0    0 -0.97005743137E+01  0.60953199265E+01  0.29665738332E+03  0.29687852254E+03  0.00000000000E+00 0.  1.
         12    1    5    5    0    0  0.50871603753E+02 -0.18663309533E+02  0.18344899594E+03  0.19128453493E+03  0.00000000000E+00 0. -1.
         13    1    3    3    0    0  0.40671131518E+02 -0.30135552930E+02 -0.85922014596E+03  0.86070991148E+03  0.00000000000E+00 0. -1.
        -14    1    3    3    0    0  0.23129771795E+02  0.30115504541E+02 -0.21036808890E+03  0.21376777770E+03  0.00000000000E+00 0.  1.
          5    1    4    4  501    0 -0.93858196486E+02  0.27782510603E+02  0.73374853755E+02  0.12240331085E+03  0.41800000000E+01 0.  1.
         -5    1    4    4    0  501 -0.11113736266E+02 -0.15194472607E+02 -0.40307905582E+02  0.44683182340E+02  0.41800000000E+01 0.  1.
</event>
<event>
11    1  0.6763327E-009  0.4232614E+03  0.7561462E-02  0.9583512E-01
         22   -1    0    0    0    0  0.00000000000E+00  0.00000000000E+00  0.25589425346E+03  0.25589425346E+03  0.00000000000E+00 0. -1.
         22   -1    0    0    0    0 -0.00000000000E+00 -0.00000000000E+00 -0.44238823828E+03  0.44238823828E+03  0.00000000000E+00 0.  1.
         24    2    1    2    0    0  0.11915849672E+03  0.94660887521E+02  0.28742663376E+02  0.17463029847E+03  0.80685621274E+02 0.  0.
         25    2    1    2    0    0  0.60471540793E+01 -0.15541855944E+02 -0.30694719302E+03  0.33187538253E+03  0.12508626172E+03 0.  0.
        -24    2    1    2    0    0 -0.12520565080E+03 -0.79119031577E+02  0.91710544822E+02  0.19177681074E+03  0.80195043217E+02 0.  0.
        -11    1    3    3    0    0 -0.10993230196E+02  0.16803938868E+02 -0.89409807408E+00  0.20100320470E+02  0.00000000000E+00 0.  1.
         12    1    3    3    0    0  0.13015172691E+03  0.77856948653E+02  0.29636761450E+02  0.15452997800E+03  0.00000000000E+00 0. -1.
         11    1    5    5    0    0 -0.57197440932E+01 -0.32871575228E+02  0.43636414477E+02  0.54930798273E+02  0.00000000000E+00 0. -1.
        -12    1    5    5    0    0 -0.11948590670E+03 -0.46247456349E+02  0.48074130345E+02  0.13684601247E+03  0.00000000000E+00 0.  1.
          5    1    4    4  501    0 -0.57401265355E+02 -0.30548236030E+01 -0.10488674715E+03  0.11967848319E+03  0.41800000000E+01 0. -1.
         -5    1    4    4    0  501  0.63448419434E+02 -0.12487032341E+02 -0.20206044587E+03  0.21219689935E+03  0.41800000000E+01 0. -1.
</event>
<event>
11    1  0.6763327E-009  0.1309374E+03  0.7561462E-02  0.1118123E+00
         22   -1    0    0    0    0  0.00000000000E+00  0.00000000000E+00  0.16540869490E+03  0.16540869490E+03  0.00000000000E+00 0. -1.
         22   -1    0    0    0    0 -0.00000000000E+00 -0.00000000000E+00 -0.29117067807E+04  0.29117067807E+04  0.00000000000E+00 0. -1.
        -24    2    1    2    0    0 -0.11849292536E+02 -0.37208181732E+02 -0.28350904312E+04  0.28365788167E+04  0.83167156375E+02 0.  0.
         25    2    1    2    0    0 -0.26925722244E+02 -0.32941173773E+00  0.62423002255E+02  0.14236884704E+03  0.12508858608E+03 0.  0.
         24    2    1    2    0    0  0.38775014780E+02  0.37537593470E+02  0.26369343108E+02  0.98167811867E+02  0.77646663394E+02 0.  0.
        -11    1    5    5    0    0  0.40559176474E+02  0.33236872939E+02 -0.16556965191E+02  0.54989722815E+02  0.00000000000E+00 0.  1.
         12    1    5    5    0    0 -0.17841616932E+01  0.43007205315E+01  0.42926308299E+02  0.43178089052E+02  0.00000000000E+00 0. -1.
         13    1    3    3    0    0 -0.23435673810E+02  0.18377112663E+02 -0.57063305901E+03  0.57140969287E+03  0.00000000000E+00 0. -1.
        -14    1    3    3    0    0  0.11586381273E+02 -0.55585294396E+02 -0.22644573722E+04  0.22651691238E+04  0.00000000000E+00 0.  1.
          5    1    4    4  501    0 -0.38386431570E+02 -0.41594497710E+02 -0.10479673347E+02  0.57714091190E+02  0.41800000000E+01 0. -1.
         -5    1    4    4    0  501  0.11460709326E+02  0.41265085972E+02  0.72902675602E+02  0.84654755852E+02  0.41800000000E+01 0. -1.
</event>
<event>
11    1  0.6763327E-009  0.1579106E+03  0.7561462E-02  0.1089059E+00
         22   -1    0    0    0    0  0.00000000000E+00  0.00000000000E+00  0.32417695568E+04  0.32417695568E+04  0.00000000000E+00 0. -1.
         22   -1    0    0    0    0 -0.00000000000E+00 -0.00000000000E+00 -0.69821577659E+02  0.69821577659E+02  0.00000000000E+00 0. -1.
         24    2    1    2    0    0  0.74105315624E+02  0.69825963400E+02  0.57619622026E+01  0.13039604309E+03  0.81256783580E+02 0.  0.
         25    2    1    2    0    0 -0.49098028997E+02 -0.40115322938E+01  0.71186576194E+03  0.72444992015E+03  0.12509242558E+03 0.  0.
        -24    2    1    2    0    0 -0.25007286627E+02 -0.65814431107E+02  0.24543202550E+04  0.24567451712E+04  0.83378765127E+02 0.  0.
        -13    1    3    3    0    0  0.35883532159E+02 -0.13534217961E+02  0.50991296466E+01  0.38688552043E+02  0.00000000000E+00 0.  1.
         14    1    3    3    0    0  0.38221783465E+02  0.83360181362E+02  0.66283255599E+00  0.91707491051E+02  0.00000000000E+00 0. -1.
         13    1    5    5    0    0 -0.14826036396E+02 -0.84226058262E+02  0.21489209203E+04  0.21506219942E+04  0.00000000000E+00 0. -1.
        -14    1    5    5    0    0 -0.10181250231E+02  0.18411627156E+02  0.30539933469E+03  0.30612317700E+03  0.00000000000E+00 0.  1.
          5    1    4    4  501    0  0.59308410838E+01  0.69660157846E+01  0.59145503633E+03  0.59154055876E+03  0.41800000000E+01 0.  1.
         -5    1    4    4    0  501 -0.55028870081E+02 -0.10977548078E+02  0.12041072561E+03  0.13290936140E+03  0.41800000000E+01 0.  1.
</event>
<event>
11    1  0.6763327E-009  0.1603601E+03  0.7561462E-02  0.1086739E+00
         22   -1    0    0    0    0  0.00000000000E+00  0.00000000000E+00  0.21002873843E+04  0.21002873843E+04  0.00000000000E+00 0. -1.
         22   -1    0    0    0    0 -0.00000000000E+00 -0.00000000000E+00 -0.26724907421E+03  0.26724907421E+03  0.00000000000E+00 0.  1.
         24    2    1    2    0    0  0.57082810759E+02  0.82372563811E+02 -0.22504354995E+03  0.25879752888E+03  0.79296122416E+02 0.  0.
         25    2    1    2    0    0 -0.80244854403E+02 -0.68518083219E+02  0.25102083821E+03  0.29965610180E+03  0.12509338010E+03 0.  0.
        -24    2    1    2    0    0  0.23162043644E+02 -0.13854480592E+02  0.18070610218E+04  0.18090828278E+04  0.81133928761E+02 0.  0.
        -13    1    3    3    0    0  0.39173679746E+02  0.11978089949E+02 -0.14515247058E+03  0.15082205257E+03  0.00000000000E+00 0.  1.
         14    1    3    3    0    0  0.17909131012E+02  0.70394473863E+02 -0.79891079363E+02  0.10797547632E+03  0.00000000000E+00 0. -1.
         11    1    5    5    0    0  0.38239914008E+02  0.21774733611E+02  0.72823956688E+03  0.72956788362E+03  0.00000000000E+00 0. -1.
        -12    1    5    5    0    0 -0.15077870364E+02 -0.35629214203E+02  0.10788214549E+04  0.10795149442E+04  0.00000000000E+00 0.  1.
          5    1    4    4  501    0  0.97645363378E+01 -0.42029622439E+02  0.15397153087E+02  0.46004130852E+02  0.41800000000E+01 0. -1.
         -5    1    4    4    0  501 -0.90009390740E+02 -0.26488460780E+02  0.23562368512E+03  0.25365197095E+03  0.41800000000E+01 0. -1.
</event>
<event>
11    1  0.6763327E-009  0.2822851E+03  0.7561462E-02  0.1007980E+00
         22   -1    0    0    0    0  0.00000000000E+00  0.00000000000E+00  0.30231644675E+04  0.30231644675E+04  0.00000000000E+00 0.  1.
         22   -1    0    0    0    0 -0.00000000000E+00 -0.00000000000E+00 -0.70280941264E+03  0.70280941264E+03  0.00000000000E+00 0. -1.
        -24    2    1    2    0    0 -0.23540558779E+03 -0.92300296538E+02 -0.66330344147E+03  0.71442341995E+03  0.80586798004E+02 0.  0.
         25    2    1    2    0    0  0.22995670650E+03  0.15289763717E+03  0.21298660617E+04  0.21513332446E+04  0.12509002560E+03 0.  0.
         24    2    1    2    0    0  0.54488812896E+01 -0.60597340628E+02  0.85379243469E+03  0.86021721558E+03  0.85500926590E+02 0.  0.
        -13    1    5    5    0    0  0.15777762384E+02 -0.15487097741E+02  0.68028780356E+03  0.68064695963E+03  0.00000000000E+00 0.  1.
         14    1    5    5    0    0 -0.10328881095E+02 -0.45110242887E+02  0.17350463113E+03  0.17957025594E+03  0.00000000000E+00 0. -1.
         13    1    3    3    0    0 -0.23465338295E+03 -0.94231065939E+02 -0.66518353203E+03  0.71162548802E+03  0.00000000000E+00 0. -1.
        -14    1    3    3    0    0 -0.75220483441E+00  0.19307694012E+01  0.18800905594E+01  0.27979319336E+01  0.00000000000E+00 0.  1.
          5    1    4    4  501    0 -0.10834231650E+02 -0.39542617933E+01  0.17789359442E+03  0.17831606797E+03  0.41800000000E+01 0.  1.
         -5    1    4    4    0  501  0.24079093815E+03  0.15685189896E+03  0.19519724673E+04  0.19730171767E+04  0.41800000000E+01 0.  1.
</event>
<event>
11    1  0.6763327E-009  0.1455511E+03  0.7561462E-02  0.1101513E+00
         22   -1    0    0    0    0  0.00000000000E+00  0.00000000000E+00  0.27493699094E+03  0.27493699094E+03  0.00000000000E+00 0.  1.
         22   -1    0    0    0    0 -0.00000000000E+00 -0.00000000000E+00 -0.19333117933E+04  0.19333117933E+04  0.00000000000E+00 0.  1.
        -24    2    1    2    0    0  0.48993457653E+02 -0.45288013319E+01 -0.12076843763E+04  0.12114403535E+04  0.81641340626E+02 0.  0.
         25    2    1    2    0    0  0.46348037810E+01  0.56823736163E+02 -0.70590191411E+03  0.71916327254E+03  0.12509149384E+03 0.  0.
         24    2    1    2    0    0 -0.53628261434E+02 -0.52294934831E+02  0.25521148800E+03  0.27764515821E+03  0.79644080993E+02 0.  0.
        -11    1    5    5    0    0 -0.47433079545E+02 -0.72364280554E+02  0.22292787226E+03  0.23913034597E+03  0.00000000000E+00 0.  1.
         12    1    5    5    0    0 -0.61951818889E+01  0.20069345722E+02  0.32283615737E+02  0.38514812234E+02  0.00000000000E+00 0. -1.
         11    1    3    3    0    0 -0.91806386033E+01  0.68958354741E+01 -0.27939925484E+02  0.30207219470E+02  0.00000000000E+00 0. -1.
        -12    1    3    3    0    0  0.58174096257E+02 -0.11424636806E+02 -0.11797444508E+04  0.11812331340E+04  0.00000000000E+00 0.  1.
          5    1    4    4  501    0  0.37146329445E+02  0.79395258262E+02 -0.34151841102E+03  0.35261275401E+03  0.41800000000E+01 0. -1.
         -5    1    4    4    0  501 -0.32511525664E+02 -0.22571522099E+02 -0.36438350309E+03  0.36655051853E+03  0.41800000000E+01 0. -1.
</event>
<event>
11    1  0.6763327E-009  0.1484148E+03  0.7561462E-02  0.1098510E+00
         22   -1    0    0    0    0  0.00000000000E+00  0.00000000000E+00  0.13674189864E+04  0.13674189864E+04  0.00000000000E+00 0. -1.
         22   -1    0    0    0    0 -0.00000000000E+00 -0.00000000000E+00 -0.29695819949E+03  0.29695819949E+03  0.00000000000E+00 0.  1.
         24    2    1    2    0    0  0.44083447198E+02 -0.38795162301E+02 -0.25865818504E+03  0.27702711359E+03  0.79947170338E+02 0.  0.
         25    2    1    2    0    0 -0.10989949564E+03  0.73216522852E+02  0.28858954472E+03  0.34113411818E+03  0.12509997165E+03 0.  0.
        -24    2    1    2    0    0  0.65816048444E+02 -0.34421360551E+02  0.10405294272E+04  0.10462159541E+04  0.79685327406E+02 0.  0.
        -11    1    3    3    0    0  0.56534274211E+02 -0.16275508995E+02 -0.23437557914E+03  0.24164628789E+03  0.00000000000E+00 0.  1.
         12    1    3    3    0    0 -0.12450827013E+02 -0.22519653306E+02 -0.24282605894E+02  0.35380825702E+02  0.00000000000E+00 0. -1.
         13    1    5    5    0    0  0.61912683342E+02 -0.82219835615E+00  0.39712682289E+03  0.40192483107E+03  0.00000000000E+00 0. -1.
        -14    1    5    5    0    0  0.39033651017E+01 -0.33599162195E+02  0.64340260434E+03  0.64429112304E+03  0.00000000000E+00 0.  1.
          5    1    4    4  501    0 -0.13502345628E+03  0.57752837723E+02  0.26550406498E+03  0.30344127097E+03  0.41800000000E+01 0. -1.
         -5    1    4    4    0  501  0.25123960638E+02  0.15463685129E+02  0.23085479744E+02  0.37692847211E+02  0.41800000000E+01 0. -1.
</event>
<event>
11    1  0.6763327E-009  0.2392481E+03  0.7561462E-02  0.1029788E+00
         22   -1    0    0    0    0  0.00000000000E+00  0.00000000000E+00  0.13939299243E+03  0.13939299243E+03  0.00000000000E+00 0.  1.
         22   -1    0    0    0    0 -0.00000000000E+00 -0.00000000000E+00 -0.25979131890E+04  0.25979131890E+04  0.00000000000E+00 0. -1.
         24    2    1    2    0    0  0.12046590751E+02 -0.69093738578E+02 -0.21432628242E+04  0.21462551749E+04  0.88975713016E+02 0.  0.
         25    2    1    2    0    0  0.19048797761E+03  0.91312078276E+00 -0.26575419347E+03  0.35008689715E+03  0.12509612626E+03 0.  0.
        -24    2    1    2    0    0 -0.20253456836E+03  0.68180617795E+02 -0.49503178973E+02  0.24096410937E+03  0.99721057231E+02 0.  0.
        -11    1    3    3    0    0 -0.35839530554E+01  0.17706545952E+02 -0.74178209747E+03  0.74200205297E+03  0.00000000000E+00 0.  1.
         12    1    3    3    0    0  0.15630543806E+02 -0.86800284530E+02 -0.14014807267E+04  0.14042531220E+04  0.00000000000E+00 0. -1.
         13    1    5    5    0    0 -0.33504354832E+02  0.45798610438E+02 -0.41443348363E+02  0.70268098268E+02  0.00000000000E+00 0. -1.
        -14    1    5    5    0    0 -0.16903021353E+03  0.22382007358E+02 -0.80598306098E+01  0.17069601111E+03  0.00000000000E+00 0.  1.
          5    1    4    4  501    0  0.42894656931E+02 -0.22198282471E+02 -0.39631359004E+01  0.48640458304E+02  0.41800000000E+01 0. -1.
         -5    1    4    4    0  501  0.14759332068E+03  0.23111403254E+02 -0.26179105757E+03  0.30144643884E+03  0.41800000000E+01 0. -1.
</event>
<event>
11    1  0.6763327E-009  0.1354649E+03  0.7561462E-02  0.1112731E+00
         22   -1    0    0    0    0  0.00000000000E+00  0.00000000000E+00  0.94269576270E+03  0.94269576270E+03  0.00000000000E+00 0. -1.
         22   -1    0    0    0    0 -0.00000000000E+00 -0.00000000000E+00 -0.12492042008E+03  0.12492042008E+03  0.00000000000E+00 0.  1.
         24    2    1    2    0    0  0.59743701750E+02  0.40647586813E+02 -0.75699400444E+01  0.10856400985E+03  0.80667862434E+02 0.  0.
         25    2    1    2    0    0 -0.35544144041E+02  0.16118477839E+02  0.36373146996E+01  0.13108288739E+03  0.12508517820E+03 0.  0.
        -24    2    1    2    0    0 -0.24199557709E+02 -0.56766064652E+02  0.82170796797E+03  0.82796928555E+03  0.80753628465E+02 0.  0.
        -13    1    3    3    0    0  0.36420105733E+02  0.36974901618E+02 -0.42034968125E+02  0.66787019671E+02  0.00000000000E+00 0.  1.
         14    1    3    3    0    0  0.23323596018E+02  0.36726851949E+01  0.34465028081E+02  0.41776990178E+02  0.00000000000E+00 0. -1.
         13    1    5    5    0    0 -0.26232096224E+01 -0.13316081816E+02  0.63235578528E+03  0.63250141378E+03  0.00000000000E+00 0. -1.
        -14    1    5    5    0    0 -0.21576348087E+02 -0.43449982836E+02  0.18935218269E+03  0.19546787177E+03  0.00000000000E+00 0.  1.
          5    1    4    4  501    0 -0.21729235020E+02  0.62891116122E+02 -0.28521719526E+02  0.72514915888E+02  0.41800000000E+01 0. -1.
         -5    1    4    4    0  501 -0.13814909021E+02 -0.46772638283E+02  0.32159034226E+02  0.58567971499E+02  0.41800000000E+01 0. -1.
</event>
<event>
11    1  0.6763327E-009  0.1567006E+03  0.7561462E-02  0.1090222E+00
         22   -1    0    0    0    0  0.00000000000E+00  0.00000000000E+00  0.12354280690E+04  0.12354280690E+04  0.00000000000E+00 0. -1.
         22   -1    0    0    0    0 -0.00000000000E+00 -0.00000000000E+00 -0.19378917618E+03  0.19378917618E+03  0.00000000000E+00 0. -1.
        -24    2    1    2    0    0  0.43537673651E+02  0.79388834723E+02 -0.10363414698E+03  0.15995033213E+03  0.81522734385E+02 0.  0.
         25    2    1    2    0    0  0.49985290792E+01 -0.12663924817E+03  0.73676558746E+02  0.19270763670E+03  0.12508202694E+03 0.  0.
         24    2    1    2    0    0 -0.48536202730E+02  0.47250413445E+02  0.10715964811E+04  0.10765592764E+04  0.77926200645E+02 0.  0.
        -11    1    5    5    0    0 -0.38038057101E+02 -0.79693845037E+01  0.65989836064E+03  0.66104179236E+03  0.00000000000E+00 0.  1.
         12    1    5    5    0    0 -0.10498145629E+02  0.55219797949E+02  0.41169812045E+03  0.41551748402E+03  0.00000000000E+00 0. -1.
         13    1    3    3    0    0  0.51116217335E+02  0.66409902752E+02 -0.36941260941E+02  0.91584931174E+02  0.00000000000E+00 0. -1.
        -14    1    3    3    0    0 -0.75785436840E+01  0.12978931971E+02 -0.66692886036E+02  0.68365400951E+02  0.00000000000E+00 0.  1.
          5    1    4    4  501    0 -0.51835346453E+02 -0.43731293982E+02  0.60992533576E+02  0.91306575706E+02  0.41800000000E+01 0. -1.
         -5    1    4    4    0  501  0.56833875532E+02 -0.82907954187E+02  0.12684025170E+02  0.10140106099E+03  0.41800000000E+01 0. -1.
</event>
<event>
11    1  0.6763327E-009  0.1296261E+03  0.7561462E-02  0.1119729E+00
         22   -1    0    0    0    0  0.00000000000E+00  0.00000000000E+00  0.82872565601E+03  0.82872565601E+03  0.00000000000E+00 0.  1.
         22   -1    0    0    0    0 -0.00000000000E+00 -0.00000000000E+00 -0.48718979692E+02  0.48718979692E+02  0.00000000000E+00 0. -1.
         24    2    1    2    0    0 -0.32219749315E+02  0.83715899213E+02  0.13522427443E+03  0.17869917997E+03  0.74842023604E+02 0.  0.
         25    2    1    2    0    0  0.10969209575E+02  0.77830610325E+01  0.46033880551E+03  0.47722174285E+03  0.12509147211E+03 0.  0.
        -24    2    1    2    0    0  0.21250539740E+02 -0.91498960245E+02  0.18444359637E+03  0.22152371288E+03  0.78928258321E+02 0.  0.
        -11    1    3    3    0    0 -0.49184833545E+02  0.53185940433E+02  0.12091418878E+03  0.14095436552E+03  0.00000000000E+00 0.  1.
         12    1    3    3    0    0  0.16965084230E+02  0.30529958780E+02  0.14310085651E+02  0.37744814444E+02  0.00000000000E+00 0. -1.
         11    1    5    5    0    0 -0.40957405633E+01 -0.32887646030E+02  0.83041430469E+01  0.34166228119E+02  0.00000000000E+00 0. -1.
        -12    1    5    5    0    0  0.25346280303E+02 -0.58611314215E+02  0.17613945333E+03  0.18735748476E+03  0.00000000000E+00 0.  1.
          5    1    4    4  501    0 -0.23272352003E+02 -0.51799379657E+02  0.21301663932E+03  0.22049566692E+03  0.41800000000E+01 0.  1.
         -5    1    4    4    0  501  0.34241561578E+02  0.59582440689E+02  0.24732216619E+03  0.25672607593E+03  0.41800000000E+01 0.  1.
</event>
<event>
11    1  0.6763327E-009  0.1469078E+03  0.7561462E-02  0.1100081E+00
         22   -1    0    0    0    0  0.00000000000E+00  0.00000000000E+00  0.15174389359E+04  0.15174389359E+04  0.00000000000E+00 0.  1.
         22   -1    0    0    0    0 -0.00000000000E+00 -0.00000000000E+00 -0.11562258585E+04  0.11562258585E+04  0.00000000000E+00 0. -1.
         24    2    1    2    0    0  0.61289012124E+02  0.29569737392E+02 -0.10084204833E+04  0.10138698838E+04  0.79934709351E+02 0.  0.
         25    2    1    2    0    0 -0.12052943902E+03 -0.77357529817E+02 -0.79875386639E+02  0.20625034133E+03  0.12509033863E+03 0.  0.
        -24    2    1    2    0    0  0.59240426895E+02  0.47787792426E+02  0.14495089473E+04  0.14535445693E+04  0.76957945747E+02 0.  0.
        -11    1    3    3    0    0  0.15434041198E+00  0.29528556507E+01  0.27808503436E+00  0.29699341310E+01  0.00000000000E+00 0.  1.
         12    1    3    3    0    0  0.61134671712E+02  0.26616881741E+02 -0.10086985683E+04  0.10108999497E+04  0.00000000000E+00 0. -1.
         11    1    5    5    0    0  0.29045781949E+00 -0.19057451675E+02  0.27323227968E+03  0.27389623855E+03  0.00000000000E+00 0. -1.
        -12    1    5    5    0    0  0.58949969075E+02  0.66845244100E+02  0.11762766676E+04  0.11796483307E+04  0.00000000000E+00 0.  1.
          5    1    4    4  501    0 -0.11349165469E+03 -0.71697812439E+01 -0.73126446226E+02  0.13526533549E+03  0.41800000000E+01 0.  1.
         -5    1    4    4    0  501 -0.70377843330E+01 -0.70187748573E+02 -0.67489404129E+01  0.70985005845E+02  0.41800000000E+01 0.  1.
</event>
<event>
11    1  0.6763327E-009  0.1397789E+03  0.7561462E-02  0.1107806E+00
         22   -1    0    0    0    0  0.00000000000E+00  0.00000000000E+00  0.25598580538E+04  0.25598580538E+04  0.00000000000E+00 0. -1.
         22   -1    0    0    0    0 -0.00000000000E+00 -0.00000000000E+00 -0.28784245522E+02  0.28784245522E+02  0.00000000000E+00 0. -1.
        -24    2    1    2    0    0  0.26236695659E+02  0.35265887654E+02  0.51260172791E+02  0.96283569513E+02  0.68635802702E+02 0.  0.
         25    2    1    2    0    0 -0.52014354577E+02 -0.66696987434E+02  0.17955656444E+04  0.18019035909E+04  0.12508631661E+03 0.  0.
         24    2    1    2    0    0  0.25777658918E+02  0.31431099780E+02  0.68424799116E+03  0.69045513891E+03  0.82949283920E+02 0.  0.
        -13    1    5    5    0    0 -0.27677949946E+02 -0.43882050244E+01  0.20479906199E+03  0.20670747700E+03  0.00000000000E+00 0.  1.
         14    1    5    5    0    0  0.53455608863E+02  0.35819304804E+02  0.47944892918E+03  0.48374766191E+03  0.00000000000E+00 0. -1.
         11    1    3    3    0    0  0.66535185335E+01 -0.15086814628E+02 -0.60112573537E+01  0.17550398841E+02  0.00000000000E+00 0. -1.
        -12    1    3    3    0    0  0.19583177126E+02  0.50352702282E+02  0.57271430144E+02  0.78733170673E+02  0.00000000000E+00 0.  1.
          5    1    4    4  501    0  0.20942729906E+02 -0.64148106908E+02  0.54090188025E+03  0.54511090066E+03  0.41800000000E+01 0.  1.
         -5    1    4    4    0  501 -0.72957084483E+02 -0.25488805258E+01  0.12546637641E+04  0.12567926903E+04  0.41800000000E+01 0.  1.
</event>
<event>
11    1  0.6763327E-009  0.1315091E+03  0.7561462E-02  0.1117429E+00
         22   -1    0    0    0    0  0.00000000000E+00  0.00000000000E+00  0.32503143747E+03  0.32503143747E+03  0.00000000000E+00 0.  1.
         22   -1    0    0    0    0 -0.00000000000E+00 -0.00000000000E+00 -0.36683094749E+03  0.36683094749E+03  0.00000000000E+00 0.  1.
         24    2    1    2    0    0  0.40468053509E+02  0.39721347431E+01 -0.26254602320E+03  0.27827129502E+03  0.82771118898E+02 0.  0.
         25    2    1    2    0    0 -0.41176395030E+02  0.30874715452E+02 -0.38090994002E+02  0.14052957000E+03  0.12509553413E+03 0.  0.
        -24    2    1    2    0    0  0.70834152155E+00 -0.34846850195E+02  0.25883750718E+03  0.27306151995E+03  0.79692746444E+02 0.  0.
        -13    1    3    3    0    0  0.60570514863E+02  0.17994952295E+01 -0.24189579154E+03  0.24937040606E+03  0.00000000000E+00 0.  1.
         14    1    3    3    0    0 -0.20102461354E+02  0.21726395136E+01 -0.20650231660E+02  0.28900888958E+02  0.00000000000E+00 0. -1.
         13    1    5    5    0    0  0.17484895490E+02  0.11054443410E+02  0.18330009157E+02  0.27638949421E+02  0.00000000000E+00 0. -1.
        -14    1    5    5    0    0 -0.16776553969E+02 -0.45901293605E+02  0.24050749803E+03  0.24542257053E+03  0.00000000000E+00 0.  1.
          5    1    4    4  501    0 -0.13143441848E+02  0.26386410720E+01  0.45629321796E+02  0.47741176126E+02  0.41800000000E+01 0. -1.
         -5    1    4    4    0  501 -0.28032953182E+02  0.28236074380E+02 -0.83720315799E+02  0.92788393875E+02  0.41800000000E+01 0. -1.
</event>
<event>
11    1  0.6763327E-009  0.1645213E+03  0.7561462E-02  0.1082900E+00
         22   -1    0    0    0    0  0.00000000000E+00  0.00000000000E+00  0.14870505832E+04  0.14870505832E+04  0.00000000000E+00 0.  1.
         22   -1    0    0    0    0 -0.00000000000E+00 -0.00000000000E+00 -0.22194892173E+04  0.22194892173E+04  0.00000000000E+00 0. -1.
         24    2    1    2    0    0  0.63121512077E+02  0.88864448594E+02 -0.21534185662E+04  0.21576000315E+04  0.78391065538E+02 0.  0.
         25    2    1    2    0    0 -0.14196396636E+02 -0.34653202456E+02  0.68372405559E+01  0.13075498821E+03  0.12509091480E+03 0.  0.
        -24    2    1    2    0    0 -0.48925115441E+02 -0.54211246138E+02  0.14141426916E+04  0.14181847807E+04  0.78204819995E+02 0.  0.
        -13    1    3    3    0    0  0.71456894827E+02  0.45926099626E+02 -0.16863163616E+04  0.16884543719E+04  0.00000000000E+00 0.  1.
         14    1    3    3    0    0 -0.83353827504E+01  0.42938348968E+02 -0.46710220464E+03  0.46914565968E+03  0.00000000000E+00 0. -1.
         11    1    5    5    0    0  0.79312986228E+01  0.94100198077E+01  0.54712486306E+02  0.56079498290E+02  0.00000000000E+00 0. -1.
        -12    1    5    5    0    0 -0.56856414064E+02 -0.63621265946E+02  0.13594302053E+04  0.13621052824E+04  0.00000000000E+00 0.  1.
          5    1    4    4  501    0  0.29705116748E+01 -0.61069508441E+02  0.48641796655E+02  0.78241968167E+02  0.41800000000E+01 0.  1.
         -5    1    4    4    0  501 -0.17166908311E+02  0.26416305985E+02 -0.41804556099E+02  0.52513020038E+02  0.41800000000E+01 0.  1.
</event>
<event>
11    1  0.6763327E-009  0.1469525E+03  0.7561462E-02  0.1100034E+00
         22   -1    0    0    0    0  0.00000000000E+00  0.00000000000E+00  0.45276843061E+03  0.45276843061E+03  0.00000000000E+00 0.  1.
         22   -1    0    0    0    0 -0.00000000000E+00 -0.00000000000E+00 -0.81005603045E+03  0.81005603045E+03  0.00000000000E+00 0. -1.
         24    2    1    2    0    0 -0.49760965062E+02 -0.65995955018E+02 -0.57343366635E+03  0.58453670661E+03  0.77623269331E+02 0.  0.
         25    2    1    2    0    0  0.13421974276E+02  0.58867128639E+02 -0.20525801224E+03  0.24783802395E+03  0.12508935326E+03 0.  0.
        -24    2    1    2    0    0  0.36338990786E+02  0.71288263790E+01  0.42140407876E+03  0.43044973051E+03  0.79587879000E+02 0.  0.
        -13    1    3    3    0    0 -0.42418912397E+02 -0.10148277592E+02 -0.12121136934E+03  0.12881982660E+03  0.00000000000E+00 0.  1.
         14    1    3    3    0    0 -0.73420526648E+01 -0.55847677427E+02 -0.45222229701E+03  0.45571688001E+03  0.00000000000E+00 0. -1.
         11    1    5    5    0    0 -0.48858759755E+01 -0.31146057062E+02  0.15039537559E+03  0.15366430182E+03  0.00000000000E+00 0. -1.
        -12    1    5    5    0    0  0.41224866761E+02  0.38274883441E+02  0.27100870317E+03  0.27678542869E+03  0.00000000000E+00 0.  1.
          5    1    4    4  501    0 -0.29214709447E+02  0.57392475148E+02 -0.37393054108E+02  0.74586247708E+02  0.41800000000E+01 0. -1.
         -5    1    4    4    0  501  0.42636683724E+02  0.14746534913E+01 -0.16786495814E+03  0.17325177624E+03  0.41800000000E+01 0. -1.
</event>
<event>
11    1  0.6763327E-009  0.2864891E+03  0.7561462E-02  0.1006077E+00
         22   -1    0    0    0    0  0.00000000000E+00  0.00000000000E+00  0.65838576939E+03  0.65838576939E+03  0.00000000000E+00 0. -1.
         22   -1    0    0    0    0 -0.00000000000E+00 -0.00000000000E+00 -0.23554255903E+03  0.23554255903E+03  0.00000000000E+00 0. -1.
         24    2    1    2    0    0 -0.24995917723E+03  0.10875401426E+03 -0.18549319436E+02  0.28365797683E+03  0.76228240625E+02 0.  0.
         25    2    1    2    0    0  0.20693494083E+03 -0.10653434235E+03  0.14858876883E+03  0.30314753331E+03  0.12509264125E+03 0.  0.
        -24    2    1    2    0    0  0.43024236401E+02 -0.22196719091E+01  0.29280376096E+03  0.30712281827E+03  0.82063214731E+02 0.  0.
        -11    1    3    3    0    0 -0.92261504422E+01  0.26826788617E+02 -0.63645279956E+01  0.29074140677E+02  0.00000000000E+00 0.  1.
         12    1    3    3    0    0 -0.24073302679E+03  0.81927225640E+02 -0.12184791440E+02  0.25458383616E+03  0.00000000000E+00 0. -1.
         11    1    5    5    0    0 -0.32324055011E+01 -0.35533381533E+02  0.11277273957E+03  0.11828254494E+03  0.00000000000E+00 0. -1.
        -12    1    5    5    0    0  0.46256641902E+02  0.33313709624E+02  0.18003102139E+03  0.18884027333E+03  0.00000000000E+00 0.  1.
          5    1    4    4  501    0  0.49890825040E+01 -0.35178253018E+02 -0.93740254710E+01  0.36983039128E+02  0.41800000000E+01 0. -1.
         -5    1    4    4    0  501  0.20194585833E+03 -0.71356089330E+02  0.15796279430E+03  0.26616449418E+03  0.41800000000E+01 0. -1.
</event>
<event>
11    1  0.6763327E-009  0.2300789E+03  0.7561462E-02  0.1035081E+00
         22   -1    0    0    0    0  0.00000000000E+00  0.00000000000E+00  0.11615938149E+04  0.11615938149E+04  0.00000000000E+00 0.  1.
         22   -1    0    0    0    0 -0.00000000000E+00 -0.00000000000E+00 -0.16825595126E+04  0.16825595126E+04  0.00000000000E+00 0.  1.
        -24    2    1    2    0    0 -0.10510580196E+02  0.18939824698E+03 -0.15309467749E+04  0.15447970819E+04  0.81350035615E+02 0.  0.
         25    2    1    2    0    0 -0.52297417413E+02 -0.28259736618E+03  0.35920309872E+02  0.31548999638E+03  0.12508947962E+03 0.  0.
         24    2    1    2    0    0  0.62807997609E+02  0.93199119197E+02  0.97406076734E+03  0.98386624928E+03  0.81040098891E+02 0.  0.
        -13    1    5    5    0    0  0.81336985803E+02  0.79039724680E+02  0.85998070004E+03  0.86742710805E+03  0.00000000000E+00 0.  1.
         14    1    5    5    0    0 -0.18528988194E+02  0.14159394516E+02  0.11408006730E+03  0.11643914124E+03  0.00000000000E+00 0. -1.
         11    1    3    3    0    0  0.16240055962E+02  0.58480829487E+02 -0.26724669867E+03  0.27405208408E+03  0.00000000000E+00 0. -1.
        -12    1    3    3    0    0 -0.26750636158E+02  0.13091741750E+03 -0.12637000763E+04  0.12707449978E+04  0.00000000000E+00 0.  1.
          5    1    4    4  501    0 -0.76762813143E+02 -0.27637287672E+03  0.25984624245E+02  0.28804022213E+03  0.41800000000E+01 0. -1.
         -5    1    4    4    0  501  0.24465395730E+02 -0.62244894604E+01  0.99356856268E+01  0.27449774246E+02  0.41800000000E+01 0. -1.
</event>
<event>
11    1  0.6763327E-009  0.1735480E+03  0.7561462E-02  0.1074985E+00
         22   -1    0    0    0    0  0.00000000000E+00  0.00000000000E+00  0.13515034215E+04  0.13515034215E+04  0.00000000000E+00 0. -1.
         22   -1    0    0    0    0 -0.00000000000E+00 -0.00000000000E+00 -0.16740352658E+04  0.16740352658E+04  0.00000000000E+00 0. -1.
        -24    2    1    2    0    0  0.10893881614E+03 -0.40779366186E+02 -0.11106158474E+04  0.11196363263E+04  0.81162309169E+02 0.  0.
         25    2    1    2    0    0 -0.13613484270E+03  0.15155942214E+02 -0.54202321715E+03  0.57288827220E+03  0.12509758795E+03 0.  0.
         24    2    1    2    0    0  0.27196026557E+02  0.25623423972E+02  0.13301072202E+04  0.13330140888E+04  0.79656512122E+02 0.  0.
        -11    1    5    5    0    0  0.31683502556E+01  0.26165835801E+02  0.12893153543E+03  0.13159798720E+03  0.00000000000E+00 0.  1.
         12    1    5    5    0    0  0.24027676302E+02 -0.54241182979E+00  0.12011756848E+04  0.12014161016E+04  0.00000000000E+00 0. -1.
         13    1    3    3    0    0  0.43599790913E+02  0.40595815635E+01 -0.70460479237E+03  0.70596411765E+03  0.00000000000E+00 0. -1.
        -14    1    3    3    0    0  0.65339025229E+02 -0.44838947749E+02 -0.40601105498E+03  0.41367220866E+03  0.00000000000E+00 0.  1.
          5    1    4    4  501    0  0.10125128663E+02 -0.14702106153E+02 -0.18479577267E+03  0.18570304293E+03  0.41800000000E+01 0.  1.
         -5    1    4    4    0  501 -0.14625997136E+03  0.29858048367E+02 -0.35722744448E+03  0.38718522927E+03  0.41800000000E+01 0.  1.
</event>
<event>
11    1  0.6763327E-009  0.1379574E+03  0.7561462E-02  0.1109861E+00
         22   -1    0    0    0    0  0.00000000000E+00  0.00000000000E+00  0.14738226225E+03  0.14738226225E+03  0.00000000000E+00 0.  1.
         22   -1    0    0    0    0 -0.00000000000E+00 -0.00000000000E+00 -0.32402605297E+04  0.32402605297E+04  0.00000000000E+00 0.  1.
         24    2    1    2    0    0  0.10836520512E+02  0.32982763095E+02 -0.24083381805E+04  0.24098772098E+04  0.78804072754E+02 0.  0.
         25    2    1    2    0    0 -0.67098705970E+02 -0.18029192021E+02 -0.80339441702E+03  0.81603079772E+03  0.12504553342E+03 0.  0.
        -24    2    1    2    0    0  0.56262185458E+02 -0.14953571074E+02  0.11885433009E+03  0.16173478439E+03  0.92966369714E+02 0.  0.
        -11    1    3    3    0    0  0.44244403557E+02  0.21329709221E+02 -0.11634773811E+04  0.11645136926E+04  0.00000000000E+00 0.  1.
         12    1    3    3    0    0 -0.33407883045E+02  0.11653053874E+02 -0.12448607994E+04  0.12453635172E+04  0.00000000000E+00 0. -1.
         11    1    5    5    0    0  0.37663464660E+02 -0.69469942833E+01 -0.28054609910E+01  0.38401405067E+02  0.00000000000E+00 0. -1.
        -12    1    5    5    0    0  0.18598720798E+02 -0.80065767912E+01  0.12165979109E+03  0.12333337932E+03  0.00000000000E+00 0.  1.
          5    1    4    4  501    0 -0.70816696929E+02  0.33399914120E+02 -0.30343448183E+03  0.31340152519E+03  0.41800000000E+01 0. -1.
         -5    1    4    4    0  501  0.37179909589E+01 -0.51429106140E+02 -0.49995993519E+03  0.50262927253E+03  0.41800000000E+01 0. -1.
</event>
<event>
11    1  0.6763327E-009  0.1343726E+03  0.7561462E-02  0.1114010E+00
         22   -1    0    0    0    0  0.00000000000E+00  0.00000000000E+00  0.74267543621E+03  0.74267543621E+03  0.00000000000E+00 0. -1.
         22   -1    0    0    0    0 -0.00000000000E+00 -0.00000000000E+00 -0.67974446264E+02  0.67974446264E+02  0.00000000000E+00 0. -1.
         24    2    1    2    0    0  0.25114543980E+00 -0.12497750178E+02 -0.57604423709E+01  0.81906547465E+02  0.80741829232E+02 0.  0.
         25    2    1    2    0    0 -0.17934397380E+01 -0.39051540555E+02  0.20339549323E+03  0.24196484255E+03  0.12509603959E+03 0.  0.
        -24    2    1    2    0    0  0.15422942982E+01  0.51549290733E+02  0.47706593908E+03  0.48677849245E+03  0.81863804169E+02 0.  0.
        -11    1    3    3    0    0 -0.14730277027E+02  0.20266671939E+02  0.24361815730E+02  0.34945917050E+02  0.00000000000E+00 0.  1.
         12    1    3    3    0    0  0.14981422467E+02 -0.32764422117E+02 -0.30122258101E+02  0.46960630415E+02  0.00000000000E+00 0. -1.
         11    1    5    5    0    0  0.18218468556E+02  0.31959583078E+02  0.44069931248E+03  0.44223207885E+03  0.00000000000E+00 0. -1.
        -12    1    5    5    0    0 -0.16676174258E+02  0.19589707655E+02  0.36366626603E+02  0.44546413597E+02  0.00000000000E+00 0.  1.
          5    1    4    4  501    0  0.55798176052E+02  0.78361511433E+01  0.94106678059E+02  0.10976511728E+03  0.41800000000E+01 0.  1.
         -5    1    4    4    0  501 -0.57591615790E+02 -0.46887691698E+02  0.10928881517E+03  0.13219972528E+03  0.41800000000E+01 0.  1.
</event>
<event>
11    1  0.6763327E-009  0.1849433E+03  0.7561462E-02  0.1065713E+00
         22   -1    0    0    0    0  0.00000000000E+00  0.00000000000E+00  0.36818545839E+03  0.36818545839E+03  0.00000000000E+00 0.  1.
         22   -1    0    0    0    0 -0.00000000000E+00 -0.00000000000E+00 -0.25299210557E+03  0.25299210557E+03  0.00000000000E+00 0. -1.
         24    2    1    2    0    0 -0.48528247502E+02  0.11542903388E+03 -0.12619242278E+03  0.19530781544E+03  0.80881163055E+02 0.  0.
         25    2    1    2    0    0  0.89849053006E+02 -0.17596846232E+03  0.11987220814E+03  0.26278284855E+03  0.12509087556E+03 0.  0.
        -24    2    1    2    0    0 -0.41320805504E+02  0.60539428440E+02  0.12151356746E+03  0.16308689996E+03  0.80370134379E+02 0.  0.
        -13    1    3    3    0    0  0.53797892213E+01 -0.10399629034E+02 -0.60826787629E+01  0.13194445689E+02  0.00000000000E+00 0.  1.
         14    1    3    3    0    0 -0.53908036723E+02  0.12582866292E+03 -0.12010974402E+03  0.18211336975E+03  0.00000000000E+00 0. -1.
         13    1    5    5    0    0  0.54314023544E+01 -0.79878834542E+01  0.57494893970E+02  0.58300679638E+02  0.00000000000E+00 0. -1.
        -14    1    5    5    0    0 -0.46752207858E+02  0.68527311894E+02  0.64018673490E+02  0.10478622033E+03  0.00000000000E+00 0.  1.
          5    1    4    4  501    0  0.55119165974E+02 -0.21917604173E+02 -0.73957304785E+01  0.59922225089E+02  0.41800000000E+01 0. -1.
         -5    1    4    4    0  501  0.34729887032E+02 -0.15405085815E+03  0.12726793862E+03  0.20286062346E+03  0.41800000000E+01 0. -1.
</event>
<event>
11    1  0.6763327E-009  0.1360428E+03  0.7561462E-02  0.1112059E+00
         22   -1    0    0    0    0  0.00000000000E+00  0.00000000000E+00  0.13975961009E+03  0.13975961009E+03  0.00000000000E+00 0.  1.
         22   -1    0    0    0    0 -0.00000000000E+00 -0.00000000000E+00 -0.78881012252E+03  0.78881012252E+03  0.00000000000E+00 0.  1.
        -24    2    1    2    0    0  0.51462625076E+02  0.48558015029E+01 -0.67844613049E+03  0.68523611085E+03  0.81162768920E+02 0.  0.
         25    2    1    2    0    0 -0.31738179056E+01 -0.46319012095E+02 -0.11268494373E+02  0.13390724210E+03  0.12509455032E+03 0.  0.
         24    2    1    2    0    0 -0.48288807170E+02  0.41463210592E+02  0.40664112431E+02  0.10942637965E+03  0.79180526608E+02 0.  0.
        -11    1    5    5    0    0 -0.31773317160E+02  0.64749784561E+02  0.22352434490E+02  0.75509665684E+02  0.00000000000E+00 0.  1.
         12    1    5    5    0    0 -0.16515490011E+02 -0.23286573969E+02  0.18311677941E+02  0.33916713970E+02  0.00000000000E+00 0. -1.
         13    1    3    3    0    0  0.59422004344E+02  0.92021553663E+00 -0.26039030697E+03  0.26708600368E+03  0.00000000000E+00 0. -1.
        -14    1    3    3    0    0 -0.79593792686E+01  0.39355859662E+01 -0.41805582351E+03  0.41815010717E+03  0.00000000000E+00 0.  1.
          5    1    4    4  501    0 -0.27469407894E+02 -0.82923396632E+02 -0.17934396648E+02  0.89274705613E+02  0.41800000000E+01 0.  1.
         -5    1    4    4    0  501  0.24295589989E+02  0.36604384537E+02  0.66659022744E+01  0.44632536489E+02  0.41800000000E+01 0.  1.
</event>
<event>
11    1  0.6763327E-009  0.1350422E+03  0.7561462E-02  0.1113224E+00
         22   -1    0    0    0    0  0.00000000000E+00  0.00000000000E+00  0.46062551718E+03  0.46062551718E+03  0.00000000000E+00 0. -1.
         22   -1    0    0    0    0 -0.00000000000E+00 -0.00000000000E+00 -0.55873924200E+03  0.55873924200E+03  0.00000000000E+00 0.  1.
        -24    2    1    2    0    0  0.39503004370E+02 -0.30712652702E+02 -0.48832876123E+03  0.49752610386E+03  0.81015372546E+02 0.  0.
         25    2    1    2    0    0 -0.36395484562E+02  0.64338678249E+02  0.26556476977E+02  0.14767480896E+03  0.12505401199E+03 0.  0.
         24    2    1    2    0    0 -0.31075198083E+01 -0.33626025547E+02  0.36365855943E+03  0.37416384636E+03  0.81306025608E+02 0.  0.
        -11    1    5    5    0    0  0.27993829546E+02 -0.34641216552E+02  0.11109161514E+03  0.11968715608E+03  0.00000000000E+00 0.  1.
         12    1    5    5    0    0 -0.31101349354E+02  0.10151910049E+01  0.25256694430E+03  0.25447669028E+03  0.00000000000E+00 0. -1.
         11    1    3    3    0    0  0.87225874932E+01  0.25272555771E+02 -0.83183989271E+02  0.87374834357E+02  0.00000000000E+00 0. -1.
        -12    1    3    3    0    0  0.30780416877E+02 -0.55985208472E+02 -0.40514477196E+03  0.41015126951E+03  0.00000000000E+00 0.  1.
          5    1    4    4  501    0 -0.53568689860E+02  0.88849524445E+02 -0.50382210127E+01  0.10395527210E+03  0.41800000000E+01 0. -1.
         -5    1    4    4    0  501  0.17173205298E+02 -0.24510846196E+02  0.31594697990E+02  0.43719536852E+02  0.41800000000E+01 0. -1.
</event>
<event>
11    1  0.6763327E-009  0.1272674E+03  0.7561462E-02  0.1122673E+00
         22   -1    0    0    0    0  0.00000000000E+00  0.00000000000E+00  0.13152790736E+04  0.13152790736E+04  0.00000000000E+00 0. -1.
         22   -1    0    0    0    0 -0.00000000000E+00 -0.00000000000E+00 -0.29804408439E+03  0.29804408439E+03  0.00000000000E+00 0.  1.
         24    2    1    2    0    0 -0.86455504121E+01 -0.13787949568E+02 -0.27112969879E+03  0.28276571032E+03  0.78614758631E+02 0.  0.
         25    2    1    2    0    0  0.12948992611E+02  0.35663698309E+02  0.19956242190E+03  0.23856208193E+03  0.12508849233E+03 0.  0.
        -24    2    1    2    0    0 -0.43034421993E+01 -0.21875748741E+02  0.10888022661E+04  0.10919953657E+04  0.80414153748E+02 0.  0.
        -13    1    3    3    0    0 -0.13712648013E+02  0.17785614473E+02 -0.22784950922E+03  0.22895362773E+03  0.00000000000E+00 0.  1.
         14    1    3    3    0    0  0.50670976012E+01 -0.31573564041E+02 -0.43280189571E+02  0.53812082599E+02  0.00000000000E+00 0. -1.
         11    1    5    5    0    0 -0.12232517257E+02 -0.16751336718E+02  0.10754095006E+04  0.10756095183E+04  0.00000000000E+00 0. -1.
        -12    1    5    5    0    0  0.79290750575E+01 -0.51244120232E+01  0.13392765445E+02  0.16385847434E+02  0.00000000000E+00 0.  1.
          5    1    4    4  501    0 -0.27299173299E+02  0.67852712887E+02  0.15002488713E+03  0.16695560688E+03  0.41800000000E+01 0.  1.
         -5    1    4    4    0  501  0.40248165911E+02 -0.32189014578E+02  0.49537534766E+02  0.71606475052E+02  0.41800000000E+01 0.  1.
</event>
<event>
11    1  0.6763327E-009  0.1953219E+03  0.7561462E-02  0.1057882E+00
         22   -1    0    0    0    0  0.00000000000E+00  0.00000000000E+00  0.22611466718E+04  0.22611466718E+04  0.00000000000E+00 0.  1.
         22   -1    0    0    0    0 -0.00000000000E+00 -0.00000000000E+00 -0.61548664161E+03  0.61548664161E+03  0.00000000000E+00 0.  1.
        -24    2    1    2    0    0  0.44284742265E+02 -0.14555597507E+03 -0.59009945949E+03  0.61481921290E+03  0.81471542120E+02 0.  0.
         25    2    1    2    0    0 -0.22897990314E+02  0.66599180976E+02  0.45069337527E+03  0.47300227520E+03  0.12508742929E+03 0.  0.
         24    2    1    2    0    0 -0.21386751951E+02  0.78956794095E+02  0.17850661144E+04  0.17888118253E+04  0.81823866120E+02 0.  0.
        -13    1    5    5    0    0 -0.98955286419E+01  0.61113226891E+02  0.17003827180E+04  0.17015093698E+04  0.00000000000E+00 0.  1.
         14    1    5    5    0    0 -0.11491223309E+02  0.17843567205E+02  0.84683396469E+02  0.87302455528E+02  0.00000000000E+00 0. -1.
         13    1    3    3    0    0 -0.15670336595E+02 -0.44824750852E+02 -0.97290139740E+02  0.10825982186E+03  0.00000000000E+00 0. -1.
        -14    1    3    3    0    0  0.59955078860E+02 -0.10073122422E+03 -0.49280931976E+03  0.50655939104E+03  0.00000000000E+00 0.  1.
          5    1    4    4  501    0  0.11715484994E+02  0.84522735956E+02  0.39944639478E+03  0.40848040368E+03  0.41800000000E+01 0.  1.
         -5    1    4    4    0  501 -0.34613475308E+02 -0.17923554980E+02  0.51246980488E+02  0.64521871526E+02  0.41800000000E+01 0.  1.
</event>
<event>
11    1  0.6763327E-009  0.1505418E+03  0.7561462E-02  0.1096326E+00
         22   -1    0    0    0    0  0.00000000000E+00  0.00000000000E+00  0.15942260059E+04  0.15942260059E+04  0.00000000000E+00 0. -1.
         22   -1    0    0    0    0 -0.00000000000E+00 -0.00000000000E+00 -0.13181017480E+03  0.13181017480E+03  0.00000000000E+00 0.  1.
        -24    2    1    2    0    0  0.77772195166E+02 -0.32410995542E+02 -0.85540447023E+02  0.14440011709E+03  0.80219939948E+02 0.  0.
         25    2    1    2    0    0 -0.85957424927E+02 -0.77951537048E+01  0.36781805313E+03  0.39798239153E+03  0.12510164043E+03 0.  0.
         24    2    1    2    0    0  0.81852297606E+01  0.40206149247E+02  0.11801382250E+04  0.11836536721E+04  0.81401799240E+02 0.  0.
        -11    1    5    5    0    0 -0.13074601846E+02  0.31233920785E+02  0.17472310270E+03  0.17797377795E+03  0.00000000000E+00 0.  1.
         12    1    5    5    0    0  0.21259831607E+02  0.89722284623E+01  0.10054151223E+04  0.10056798941E+04  0.00000000000E+00 0. -1.
         11    1    3    3    0    0 -0.90364357929E+01 -0.19295181952E+02 -0.40416688968E+02  0.45688838522E+02  0.00000000000E+00 0. -1.
        -12    1    3    3    0    0  0.86808630959E+02 -0.13115813591E+02 -0.45123758055E+02  0.98711278566E+02  0.00000000000E+00 0.  1.
          5    1    4    4  501    0  0.26489354671E+02  0.22285563926E+02  0.10099503076E+03  0.10684475143E+03  0.41800000000E+01 0.  1.
         -5    1    4    4    0  501 -0.11244677960E+03 -0.30080717631E+02  0.26682302237E+03  0.29113764009E+03  0.41800000000E+01 0.  1.
</event>
<event>
11    1  0.6763327E-009  0.1659314E+03  0.7561462E-02  0.1081628E+00
         22   -1    0    0    0    0  0.00000000000E+00  0.00000000000E+00  0.11435929812E+04  0.11435929812E+04  0.00000000000E+00 0.  1.
         22   -1    0    0    0    0 -0.00000000000E+00 -0.00000000000E+00 -0.10011547262E+03  0.10011547262E+03  0.00000000000E+00 0.  1.
         24    2    1    2    0    0 -0.84943768460E+02 -0.75780496366E+02 -0.23498575229E+02  0.14162521671E+03  0.80915953569E+02 0.  0.
         25    2    1    2    0    0  0.71649695138E+02  0.35541505705E+02  0.37381891401E+03  0.40222538248E+03  0.12509116834E+03 0.  0.
        -24    2    1    2    0    0  0.13294073323E+02  0.40238990661E+02  0.69315716980E+03  0.69985785463E+03  0.86823072344E+02 0.  0.
        -11    1    3    3    0    0 -0.10079979672E+03 -0.60614131871E+02 -0.17843771051E+02  0.11896668511E+03  0.00000000000E+00 0.  1.
         12    1    3    3    0    0  0.15856028259E+02 -0.15166364495E+02 -0.56548041789E+01  0.22658531604E+02  0.00000000000E+00 0. -1.
         11    1    5    5    0    0  0.30190870961E+02 -0.16412131852E+02  0.17522293283E+03  0.17856069822E+03  0.00000000000E+00 0. -1.
        -12    1    5    5    0    0 -0.16896797638E+02  0.56651122513E+02  0.51793423697E+03  0.52129715640E+03  0.00000000000E+00 0.  1.
          5    1    4    4  501    0  0.92293336116E+02  0.63541528892E+02  0.26034567743E+03  0.28346592377E+03  0.41800000000E+01 0.  1.
         -5    1    4    4    0  501 -0.20643640978E+02 -0.28000023187E+02  0.11347323658E+03  0.11875945870E+03  0.41800000000E+01 0.  1.
</event>
<event>
11    1  0.6763327E-009  0.1612877E+03  0.7561462E-02  0.1085872E+00
         22   -1    0    0    0    0  0.00000000000E+00  0.00000000000E+00  0.49588315942E+03  0.49588315942E+03  0.00000000000E+00 0.  1.
         22   -1    0    0    0    0 -0.00000000000E+00 -0.00000000000E+00 -0.28968562036E+03  0.28968562036E+03  0.00000000000E+00 0.  1.
        -24    2    1    2    0    0 -0.79344062399E+02  0.63475387819E+02 -0.20227642686E+03  0.24031273160E+03  0.80683647721E+02 0.  0.
         25    2    1    2    0    0  0.82266527880E+02 -0.61951816439E+02  0.39877698004E+02  0.16686191380E+03  0.12508740269E+03 0.  0.
         24    2    1    2    0    0 -0.29224654814E+01 -0.15235713803E+01  0.36859626791E+03  0.37839413438E+03  0.85487134357E+02 0.  0.
        -13    1    5    5    0    0  0.23911228076E+01  0.40221258546E+02  0.23165379246E+03  0.23513176448E+03  0.00000000000E+00 0.  1.
         14    1    5    5    0    0 -0.53135882889E+01 -0.41744829926E+02  0.13694247546E+03  0.14326236990E+03  0.00000000000E+00 0. -1.
         11    1    3    3    0    0 -0.10641832709E+02  0.10521068752E+02  0.48706981242E+01  0.15737381971E+02  0.00000000000E+00 0. -1.
        -12    1    3    3    0    0 -0.68702229690E+02  0.52954319067E+02 -0.20714712498E+03  0.22457534963E+03  0.00000000000E+00 0.  1.
          5    1    4    4  501    0  0.79514418282E+01  0.92125828287E+01 -0.36466838180E+02  0.38670399485E+02  0.41800000000E+01 0.  1.
         -5    1    4    4    0  501  0.74315086052E+02 -0.71164399268E+02  0.76344536184E+02  0.12819151432E+03  0.41800000000E+01 0.  1.
</event>
<event>
11    1  0.6763327E-009  0.1331212E+03  0.7561462E-02  0.1115492E+00
         22   -1    0    0    0    0  0.00000000000E+00  0.00000000000E+00  0.12227580158E+04  0.12227580158E+04  0.00000000000E+00 0.  1.
         22   -1    0    0    0    0 -0.00000000000E+00 -0.00000000000E+00 -0.94377595413E+03  0.94377595413E+03  0.00000000000E+00 0.  1.
         24    2    1    2    0    0  0.15788726766E+01  0.34529236963E+02 -0.89565801287E+03  0.89981785519E+03  0.79209440389E+02 0.  0.
         25    2    1    2    0    0  0.42444085310E+02 -0.21210088140E+02  0.57289610650E+02  0.14553781755E+03  0.12509112132E+03 0.  0.
        -24    2    1    2    0    0 -0.44022957987E+02 -0.13319148824E+02  0.11173504639E+04  0.11211782972E+04  0.80332399272E+02 0.  0.
        -13    1    3    3    0    0  0.18838244570E+02  0.43970145941E+02 -0.82739442028E+03  0.82877607344E+03  0.00000000000E+00 0.  1.
         14    1    3    3    0    0 -0.17259371893E+02 -0.94409089774E+01 -0.68263592591E+02  0.71041781748E+02  0.00000000000E+00 0. -1.
         13    1    5    5    0    0  0.22541968776E+02  0.56667508147E+01  0.25840226301E+03  0.25944552791E+03  0.00000000000E+00 0. -1.
        -14    1    5    5    0    0 -0.66564926762E+02 -0.18985899638E+02  0.85894820086E+03  0.86173276926E+03  0.00000000000E+00 0.  1.
          5    1    4    4  501    0  0.51969080923E+02 -0.67400037915E+02  0.27237489113E+02  0.89458949781E+02  0.41800000000E+01 0. -1.
         -5    1    4    4    0  501 -0.95249956124E+01  0.46189949775E+02  0.30052121537E+02  0.56078867771E+02  0.41800000000E+01 0. -1.
</event>
<event>
11    1  0.6763327E-009  0.1417453E+03  0.7561462E-02  0.1105625E+00
         22   -1    0    0    0    0  0.00000000000E+00  0.00000000000E+00  0.27025839500E+03  0.27025839500E+03  0.00000000000E+00 0.  1.
         22   -1    0    0    0    0 -0.00000000000E+00 -0.00000000000E+00 -0.10271646174E+04  0.10271646174E+04  0.00000000000E+00 0.  1.
        -24    2    1    2    0    0  0.11735648864E+02  0.34543002497E+02 -0.33904571664E+03  0.34976589356E+03  0.77802556844E+02 0.  0.
         25    2    1    2    0    0 -0.68166882371E+02 -0.69143173835E+02 -0.66264354111E+03  0.68130390641E+03  0.12510414852E+03 0.  0.
         24    2    1    2    0    0  0.56431233506E+02  0.34600171338E+02  0.24478303530E+03  0.26635321248E+03  0.81508548359E+02 0.  0.
        -13    1    5    5    0    0  0.25108946707E+02 -0.21684849400E+02  0.13547261890E+03  0.13947588455E+03  0.00000000000E+00 0.  1.
         14    1    5    5    0    0  0.31322286799E+02  0.56285020738E+02  0.10931041640E+03  0.12687732793E+03  0.00000000000E+00 0. -1.
         13    1    3    3    0    0  0.37035803761E+02 -0.22948828380E+01 -0.10189569237E+03  0.10844191704E+03  0.00000000000E+00 0. -1.
        -14    1    3    3    0    0 -0.25300154897E+02  0.36837885335E+02 -0.23715002427E+03  0.24132397652E+03  0.00000000000E+00 0.  1.
          5    1    4    4  501    0  0.36923044702E+02 -0.15984643229E+02 -0.17811712139E+03  0.18265267965E+03  0.41800000000E+01 0. -1.
         -5    1    4    4    0  501 -0.10508992707E+03 -0.53158530606E+02 -0.48452641972E+03  0.49865122676E+03  0.41800000000E+01 0. -1.
</event>
<event>
11    1  0.6763327E-009  0.1465330E+03  0.7561462E-02  0.1100475E+00
         22   -1    0    0    0    0  0.00000000000E+00  0.00000000000E+00  0.35644093412E+03  0.35644093412E+03  0.00000000000E+00 0. -1.
         22   -1    0    0    0    0 -0.00000000000E+00 -0.00000000000E+00 -0.15318039895E+04  0.15318039895E+04  0.00000000000E+00 0. -1.
        -24    2    1    2    0    0  0.57509418671E+02 -0.49922315640E+02 -0.14551770367E+04  0.14593445818E+04  0.79666991823E+02 0.  0.
         25    2    1    2    0    0 -0.50884752237E+02  0.62295656364E+02  0.12468988959E+02  0.14928434821E+03  0.12514125668E+03 0.  0.
         24    2    1    2    0    0 -0.66246664341E+01 -0.12373340723E+02  0.26734499236E+03  0.27961599357E+03  0.80714144676E+02 0.  0.
        -13    1    5    5    0    0  0.32877126173E+00 -0.46284048282E+02  0.13066476958E+03  0.13862035646E+03  0.00000000000E+00 0.  1.
         14    1    5    5    0    0 -0.69534376959E+01  0.33910707559E+02  0.13668022279E+03  0.14099563711E+03  0.00000000000E+00 0. -1.
         13    1    3    3    0    0  0.34897775716E+02 -0.70788517108E+02 -0.11076379684E+04  0.11104461886E+04  0.00000000000E+00 0. -1.
        -14    1    3    3    0    0  0.22611642955E+02  0.20866201468E+02 -0.34753906831E+03  0.34889839318E+03  0.00000000000E+00 0.  1.
          5    1    4    4  501    0  0.25710366739E+02 -0.19972869568E+02 -0.10535309381E+02  0.34473230490E+02  0.41800000000E+01 0. -1.
         -5    1    4    4    0  501 -0.76595118977E+02  0.82268525931E+02  0.23004298340E+02  0.11481111772E+03  0.41800000000E+01 0. -1.
</event>
<event>
11    1  0.6763327E-009  0.1369191E+03  0.7561462E-02  0.1111048E+00
         22   -1    0    0    0    0  0.00000000000E+00  0.00000000000E+00  0.10196293887E+04  0.10196293887E+04  0.00000000000E+00 0.  1.
         22   -1    0    0    0    0 -0.00000000000E+00 -0.00000000000E+00 -0.48757937211E+03  0.48757937211E+03  0.00000000000E+00 0. -1.
        -24    2    1    2    0    0  0.54839834912E+02 -0.59086832648E+01 -0.45258873914E+03  0.46352161913E+03  0.83506913321E+02 0.  0.
         25    2    1    2    0    0 -0.75086239380E+02 -0.12423736425E+02  0.16888907344E+03  0.22352956800E+03  0.12509858542E+03 0.  0.
         24    2    1    2    0    0  0.20246404468E+02  0.18332419690E+02  0.81574968225E+03  0.82015757364E+03  0.80404645388E+02 0.  0.
        -13    1    5    5    0    0  0.27184108487E+02  0.16976908500E+02  0.81101845027E+03  0.81165147561E+03  0.00000000000E+00 0.  1.
         14    1    5    5    0    0 -0.69377040192E+01  0.13555111897E+01  0.47312319759E+01  0.85060980275E+01  0.00000000000E+00 0. -1.
         13    1    3    3    0    0  0.29256992140E+02 -0.28406962571E+01 -0.42406829629E+03  0.42508582788E+03  0.00000000000E+00 0. -1.
        -14    1    3    3    0    0  0.25582842773E+02 -0.30679870077E+01 -0.28520442844E+02  0.38435791245E+02  0.00000000000E+00 0.  1.
          5    1    4    4  501    0 -0.76084907430E+02 -0.38244466561E+02  0.44030764060E+02  0.95956932761E+02  0.41800000000E+01 0. -1.
         -5    1    4    4    0  501  0.99866804992E+00  0.25820730136E+02  0.12485830938E+03  0.12757263524E+03  0.41800000000E+01 0. -1.
</event>
<event>
11    1  0.6763327E-009  0.1345278E+03  0.7561462E-02  0.1113828E+00
         22   -1    0    0    0    0  0.00000000000E+00  0.00000000000E+00  0.34858604785E+03  0.34858604785E+03  0.00000000000E+00 0.  1.
         22   -1    0    0    0    0 -0.00000000000E+00 -0.00000000000E+00 -0.50310049922E+03  0.50310049922E+03  0.00000000000E+00 0. -1.
         24    2    1    2    0    0  0.17057437198E+02  0.48922321371E+02 -0.41283455451E+03  0.42377755627E+03  0.80440649615E+02 0.  0.
         25    2    1    2    0    0 -0.33196438810E+02 -0.15772010215E+02 -0.23580632370E+02  0.13249427606E+03  0.12509167482E+03 0.  0.
        -24    2    1    2    0    0  0.16139001612E+02 -0.33150311156E+02  0.28190073551E+03  0.29541471474E+03  0.80264677813E+02 0.  0.
        -13    1    3    3    0    0 -0.30609137824E+02  0.53161491417E+01 -0.13103518962E+03  0.13466774551E+03  0.00000000000E+00 0.  1.
         14    1    3    3    0    0  0.47666575022E+02  0.43606172229E+02 -0.28179936489E+03  0.28910981077E+03  0.00000000000E+00 0. -1.
         13    1    5    5    0    0 -0.20873766501E+02 -0.44707214768E+02  0.14759711420E+03  0.15562569614E+03  0.00000000000E+00 0. -1.
        -14    1    5    5    0    0  0.37012768114E+02  0.11556903612E+02  0.13430362131E+03  0.13978901860E+03  0.00000000000E+00 0.  1.
          5    1    4    4  501    0  0.42410468617E+02  0.17189804987E+02  0.21230908723E+01  0.46001273446E+02  0.41800000000E+01 0. -1.
         -5    1    4    4    0  501 -0.75606907427E+02 -0.32961815202E+02 -0.25703723242E+02  0.86493002611E+02  0.41800000000E+01 0. -1.
</event>
<event>
11    1  0.6763327E-009  0.1383472E+03  0.7561462E-02  0.1109418E+00
         22   -1    0    0    0    0  0.00000000000E+00  0.00000000000E+00  0.32258195435E+03  0.32258195435E+03  0.00000000000E+00 0.  1.
         22   -1    0    0    0    0 -0.00000000000E+00 -0.00000000000E+00 -0.23819112267E+04  0.23819112267E+04  0.00000000000E+00 0. -1.
         24    2    1    2    0    0 -0.14654492019E+02 -0.21547989074E+02 -0.19259946384E+04  0.19278234382E+04  0.79804710774E+02 0.  0.
         25    2    1    2    0    0  0.53114201353E+02  0.65815931838E+02 -0.43426854140E+03  0.45977138661E+03  0.12509079353E+03 0.  0.
        -24    2    1    2    0    0 -0.38459709334E+02 -0.44267942764E+02  0.30093390742E+03  0.31689835624E+03  0.80153300313E+02 0.  0.
        -13    1    3    3    0    0  0.15294394384E+02 -0.12601791881E+02 -0.12529255948E+03  0.12685010492E+03  0.00000000000E+00 0.  1.
         14    1    3    3    0    0 -0.29948886403E+02 -0.89461971931E+01 -0.18007020789E+04  0.18009733333E+04  0.00000000000E+00 0. -1.
         13    1    5    5    0    0 -0.72101741738E+01 -0.44669193664E+02  0.66763075804E+02  0.80651297355E+02  0.00000000000E+00 0. -1.
        -14    1    5    5    0    0 -0.31249535160E+02  0.40125089973E+00  0.23417083162E+03  0.23624705888E+03  0.00000000000E+00 0.  1.
          5    1    4    4  501    0  0.22254945806E+02  0.64610610298E+02 -0.85129847196E+02  0.10924457359E+03  0.41800000000E+01 0.  1.
         -5    1    4    4    0  501  0.30859255546E+02  0.12053215398E+01 -0.34913869420E+03  0.35052681301E+03  0.41800000000E+01 0.  1.
</event>
<event>
11    1  0.6763327E-009  0.1366759E+03  0.7561462E-02  0.1111328E+00
         22   -1    0    0    0    0  0.00000000000E+00  0.00000000000E+00  0.40506203925E+02  0.40506203925E+02  0.00000000000E+00 0. -1.
         22   -1    0    0    0    0 -0.00000000000E+00 -0.00000000000E+00 -0.21580650464E+04  0.21580650464E+04  0.00000000000E+00 0. -1.
         24    2    1    2    0    0 -0.44630108431E+02 -0.39975893046E+02 -0.12741859976E+04  0.12781634888E+04  0.81006351679E+02 0.  0.
         25    2    1    2    0    0  0.52363060757E+02 -0.10163373614E+01 -0.81103009113E+03  0.82228941710E+03  0.12508858333E+03 0.  0.
        -24    2    1    2    0    0 -0.77329523253E+01  0.40992230407E+02 -0.32342753696E+02  0.98118344381E+02  0.82710303360E+02 0.  0.
        -11    1    3    3    0    0  0.64687643519E+01  0.48166909003E+01 -0.14077123935E+02  0.16223773968E+02  0.00000000000E+00 0.  1.
         12    1    3    3    0    0 -0.51098872783E+02 -0.44792583946E+02 -0.12601088737E+04  0.12619397149E+04  0.00000000000E+00 0. -1.
         11    1    5    5    0    0 -0.41286712873E+02  0.36754910015E+02 -0.67111311959E+01  0.55682630613E+02  0.00000000000E+00 0. -1.
        -12    1    5    5    0    0  0.33553760548E+02  0.42373203923E+01 -0.25631622500E+02  0.42435713768E+02  0.00000000000E+00 0.  1.
          5    1    4    4  501    0  0.30294814142E+02 -0.16657689980E+02 -0.50935072919E+02  0.61701770255E+02  0.41800000000E+01 0.  1.
         -5    1    4    4    0  501  0.22068246615E+02  0.15641352619E+02 -0.76009501821E+03  0.76058764684E+03  0.41800000000E+01 0.  1.
</event>
<event>
11    1  0.6763327E-009  0.1461524E+03  0.7561462E-02  0.1100876E+00
         22   -1    0    0    0    0  0.00000000000E+00  0.00000000000E+00  0.25167376631E+04  0.25167376631E+04  0.00000000000E+00 0.  1.
         22   -1    0    0    0    0 -0.00000000000E+00 -0.00000000000E+00 -0.15191647919E+03  0.15191647919E+03  0.00000000000E+00 0.  1.
        -24    2    1    2    0    0  0.53698658896E+02  0.52947047126E+02 -0.11615672982E+03  0.16047186838E+03  0.81067249198E+02 0.  0.
         25    2    1    2    0    0 -0.37835662632E+02 -0.73224243095E+02  0.42727928868E+03  0.45278219559E+03  0.12510315332E+03 0.  0.
         24    2    1    2    0    0 -0.15862996264E+02  0.20277195969E+02  0.20536986251E+04  0.20554000783E+04  0.79552749882E+02 0.  0.
        -13    1    5    5    0    0  0.36174403118E+01  0.36362527563E+02  0.18150881179E+04  0.18154559193E+04  0.00000000000E+00 0.  1.
         14    1    5    5    0    0 -0.19480436575E+02 -0.16085331594E+02  0.23861050718E+03  0.23994415900E+03  0.00000000000E+00 0. -1.
         13    1    3    3    0    0  0.20330591937E+02  0.57276959097E+02 -0.29595487306E+02  0.67600857101E+02  0.00000000000E+00 0. -1.
        -14    1    3    3    0    0  0.33368066959E+02 -0.43299119714E+01 -0.86561242519E+02  0.92871011283E+02  0.00000000000E+00 0.  1.
          5    1    4    4  501    0 -0.73392606913E+01  0.29639473152E+02  0.18810205519E+03  0.19061012219E+03  0.41800000000E+01 0.  1.
         -5    1    4    4    0  501 -0.30496401941E+02 -0.10286371625E+03  0.23917723349E+03  0.26217207340E+03  0.41800000000E+01 0.  1.
</event>
<event>
11    1  0.6763327E-009  0.1844558E+03  0.7561462E-02  0.1066095E+00
         22   -1    0    0    0    0  0.00000000000E+00  0.00000000000E+00  0.22147641542E+04  0.22147641542E+04  0.00000000000E+00 0. -1.
         22   -1    0    0    0    0 -0.00000000000E+00 -0.00000000000E+00 -0.11943837065E+04  0.11943837065E+04  0.00000000000E+00 0.  1.
        -24    2    1    2    0    0  0.25647920524E+02  0.81634792798E+02 -0.10721137487E+04  0.10783968237E+04  0.78675053311E+02 0.  0.
         25    2    1    2    0    0 -0.15334459013E+03 -0.35929061791E+02 -0.29151273189E+02  0.20322844105E+03  0.12508613719E+03 0.  0.
         24    2    1    2    0    0  0.12769666961E+03 -0.45705731007E+02  0.21216454696E+04  0.21275225960E+04  0.81101445068E+02 0.  0.
        -13    1    5    5    0    0  0.29208143771E+01  0.10596816345E+02  0.43284514917E+02  0.44658402399E+02  0.00000000000E+00 0.  1.
         14    1    5    5    0    0  0.12477585523E+03 -0.56302547352E+02  0.20783609547E+04  0.20828641936E+04  0.00000000000E+00 0. -1.
         13    1    3    3    0    0 -0.21215819201E+02  0.12203654059E+02 -0.11238008485E+03  0.11501444965E+03  0.00000000000E+00 0. -1.
        -14    1    3    3    0    0  0.46863739725E+02  0.69431138739E+02 -0.95973366386E+03  0.96338237407E+03  0.00000000000E+00 0.  1.
          5    1    4    4  501    0 -0.91311502948E+02 -0.61841144731E+01 -0.76709539021E+02  0.11948999799E+03  0.41800000000E+01 0.  1.
         -5    1    4    4    0  501 -0.62033087187E+02 -0.29744947318E+02  0.47558265832E+02  0.83738443058E+02  0.41800000000E+01 0.  1.
</event>
<event>
11    1  0.6763327E-009  0.2491741E+03  0.7561462E-02  0.1024340E+00
         22   -1    0    0    0    0  0.00000000000E+00  0.00000000000E+00  0.76508040287E+03  0.76508040287E+03  0.00000000000E+00 0. -1.
         22   -1    0    0    0    0 -0.00000000000E+00 -0.00000000000E+00 -0.15295502483E+04  0.15295502483E+04  0.00000000000E+00 0. -1.
        -24    2    1    2    0    0 -0.21238666120E+03 -0.38321791590E+02 -0.14851050527E+04  0.15025810855E+04  0.75074945887E+02 0.  0.
         25    2    1    2    0    0  0.19292204933E+03  0.48373450992E+02  0.44142088097E+03  0.50005883383E+03  0.12509010856E+03 0.  0.
         24    2    1    2    0    0  0.19464611865E+02 -0.10051659401E+02  0.27921432626E+03  0.29199073183E+03  0.82571426752E+02 0.  0.
        -11    1    5    5    0    0 -0.15322107188E+02  0.14923040879E+02  0.20064670699E+02  0.29326696507E+02  0.00000000000E+00 0.  1.
         12    1    5    5    0    0  0.34786719053E+02 -0.24974700280E+02  0.25914965556E+03  0.26266403533E+03  0.00000000000E+00 0. -1.
         11    1    3    3    0    0 -0.20381382182E+03 -0.19805551102E+02 -0.12575627085E+04  0.12741257001E+04  0.00000000000E+00 0. -1.
        -12    1    3    3    0    0 -0.85728393760E+01 -0.18516240488E+02 -0.22754234418E+03  0.22845538543E+03  0.00000000000E+00 0.  1.
          5    1    4    4  501    0 -0.19212485344E+01  0.35051905392E+02  0.10788216391E+03  0.11352691733E+03  0.41800000000E+01 0.  1.
         -5    1    4    4    0  501  0.19484329787E+03  0.13321545600E+02  0.33353871706E+03  0.38653191650E+03  0.41800000000E+01 0.  1.
</event>
<event>
11    1  0.6763327E-009  0.2041164E+03  0.7561462E-02  0.1051650E+00
         22   -1    0    0    0    0  0.00000000000E+00  0.00000000000E+00  0.43814666700E+03  0.43814666700E+03  0.00000000000E+00 0.  1.
         22   -1    0    0    0    0 -0.00000000000E+00 -0.00000000000E+00 -0.13612564613E+04  0.13612564613E+04  0.00000000000E+00 0. -1.
         24    2    1    2    0    0  0.13278629862E+03  0.84833265830E+02 -0.11788638177E+04  0.11920081221E+04  0.79590065727E+02 0.  0.
         25    2    1    2    0    0 -0.13896118713E+03 -0.21741942384E+03 -0.24644123547E+02  0.28781137670E+03  0.12508652341E+03 0.  0.
        -24    2    1    2    0    0  0.61748885075E+01  0.13258615801E+03  0.28039814690E+03  0.31958362948E+03  0.76768202412E+02 0.  0.
        -11    1    3    3    0    0  0.75840822781E+02  0.10548148531E+02 -0.37681595351E+03  0.38451704339E+03  0.00000000000E+00 0.  1.
         12    1    3    3    0    0  0.56945475842E+02  0.74285117299E+02 -0.80204786415E+03  0.80749107875E+03  0.00000000000E+00 0. -1.
         11    1    5    5    0    0 -0.12070637681E+02  0.74948541446E+02  0.80091522773E+02  0.11035232747E+03  0.00000000000E+00 0. -1.
        -12    1    5    5    0    0  0.18245526189E+02  0.57637616564E+02  0.20030662413E+03  0.20923130200E+03  0.00000000000E+00 0.  1.
          5    1    4    4  501    0 -0.47811887976E+02 -0.15585769210E+03  0.28551531141E+02  0.16556043957E+03  0.41800000000E+01 0.  1.
         -5    1    4    4    0  501 -0.91149299155E+02 -0.61561731739E+02 -0.53195654688E+02  0.12225093713E+03  0.41800000000E+01 0.  1.
</event>
<event>
11    1  0.6763327E-009  0.1409433E+03  0.7561462E-02  0.1106510E+00
         22   -1    0    0    0    0  0.00000000000E+00  0.00000000000E+00  0.63948129392E+03  0.63948129392E+03  0.00000000000E+00 0. -1.
         22   -1    0    0    0    0 -0.00000000000E+00 -0.00000000000E+00 -0.21034354316E+03  0.21034354316E+03  0.00000000000E+00 0.  1.
         24    2    1    2    0    0  0.11161856363E+00 -0.59853012349E+02 -0.12765690913E+03  0.16280775996E+03  0.81410593326E+02 0.  0.
         25    2    1    2    0    0 -0.16496391442E+02  0.93828958226E+02  0.40094421021E+02  0.16227318445E+03  0.12509604095E+03 0.  0.
        -24    2    1    2    0    0  0.16384772879E+02 -0.33975945877E+02  0.51670023888E+03  0.52474389268E+03  0.83391788357E+02 0.  0.
        -13    1    3    3    0    0  0.22337589226E+02 -0.69754673442E+02 -0.11216925975E+03  0.13396501480E+03  0.00000000000E+00 0.  1.
         14    1    3    3    0    0 -0.22225970662E+02  0.99016610930E+01 -0.15487649390E+02  0.28842745152E+02  0.00000000000E+00 0. -1.
         13    1    5    5    0    0  0.14294807580E+02 -0.37626439954E+02  0.51857776139E+03  0.52013746752E+03  0.00000000000E+00 0. -1.
        -14    1    5    5    0    0  0.20899652988E+01  0.36504940769E+01 -0.18775225132E+01  0.46064251588E+01  0.00000000000E+00 0.  1.
          5    1    4    4  501    0 -0.40192479273E+02  0.11522666573E+03  0.18494522584E+02  0.12349955324E+03  0.41800000000E+01 0.  1.
         -5    1    4    4    0  501  0.23696087831E+02 -0.21397707500E+02  0.21599898437E+02  0.38773631210E+02  0.41800000000E+01 0.  1.
</event>
<event>
11    1  0.6763327E-009  0.1393979E+03  0.7561462E-02  0.1108233E+00
         22   -1    0    0    0    0  0.00000000000E+00  0.00000000000E+00  0.43885869204E+03  0.43885869204E+03  0.00000000000E+00 0. -1.
         22   -1    0    0    0    0 -0.00000000000E+00 -0.00000000000E+00 -0.91210975687E+03  0.91210975687E+03  0.00000000000E+00 0.  1.
         24    2    1    2    0    0 -0.23390249406E+02 -0.58758365777E+02 -0.80569875972E+03  0.81206661697E+03  0.79385450020E+02 0.  0.
         25    2    1    2    0    0 -0.16985853673E+02  0.45614579784E+02 -0.52284659920E+02  0.14404935630E+03  0.12508925723E+03 0.  0.
        -24    2    1    2    0    0  0.40376103080E+02  0.13143785993E+02  0.38473235481E+03  0.39485247563E+03  0.78016048756E+02 0.  0.
        -13    1    3    3    0    0  0.21168081427E+02 -0.25506877708E+02 -0.51710046810E+03  0.51816173400E+03  0.00000000000E+00 0.  1.
         14    1    3    3    0    0 -0.44558330833E+02 -0.33251488069E+02 -0.28859829162E+03  0.29390488297E+03  0.00000000000E+00 0. -1.
         11    1    5    5    0    0 -0.12346209290E+02 -0.15338585796E+02  0.19230686742E+03  0.19331226644E+03  0.00000000000E+00 0. -1.
        -12    1    5    5    0    0  0.52722312370E+02  0.28482371789E+02  0.19242548738E+03  0.20154020919E+03  0.00000000000E+00 0.  1.
          5    1    4    4  501    0  0.37267000763E+01 -0.32626390085E+02  0.17191800445E+02  0.37301474850E+02  0.41800000000E+01 0.  1.
         -5    1    4    4    0  501 -0.20712553750E+02  0.78240969869E+02 -0.69476460365E+02  0.10674788145E+03  0.41800000000E+01 0.  1.
</event>
<event>
11    1  0.6763327E-009  0.2064955E+03  0.7561462E-02  0.1050023E+00
         22   -1    0    0    0    0  0.00000000000E+00  0.00000000000E+00  0.32320000044E+04  0.32320000044E+04  0.00000000000E+00 0. -1.
         22   -1    0    0    0    0 -0.00000000000E+00 -0.00000000000E+00 -0.79406852439E+02  0.79406852439E+02  0.00000000000E+00 0. -1.
         24    2    1    2    0    0  0.14027259329E+03 -0.57120906393E+02  0.88859339066E+02  0.19793515350E+03  0.91340814956E+02 0.  0.
         25    2    1    2    0    0 -0.20752641347E+03  0.98738762919E+02  0.70510267372E+03  0.75208626605E+03  0.12508962989E+03 0.  0.
        -24    2    1    2    0    0  0.67253820178E+02 -0.41617856526E+02  0.23586311392E+04  0.23613854373E+04  0.82129230086E+02 0.  0.
        -13    1    3    3    0    0  0.98422657917E+02 -0.36719020290E+01  0.84736848305E+02  0.12992627108E+03  0.00000000000E+00 0.  1.
         14    1    3    3    0    0  0.41849935375E+02 -0.53449004364E+02  0.41224907615E+01  0.68008882423E+02  0.00000000000E+00 0. -1.
         11    1    5    5    0    0  0.79139523396E+02 -0.47114328412E+02  0.22616023702E+04  0.22634769946E+04  0.00000000000E+00 0. -1.
        -12    1    5    5    0    0 -0.11885703218E+02  0.54964718861E+01  0.97028768956E+02  0.97908442686E+02  0.00000000000E+00 0.  1.
          5    1    4    4  501    0 -0.14980674452E+03  0.10115208303E+03  0.63952043635E+03  0.66458834290E+03  0.41800000000E+01 0. -1.
         -5    1    4    4    0  501 -0.57719668949E+02 -0.24133201160E+01  0.65582237367E+02  0.87497923151E+02  0.41800000000E+01 0. -1.
</event>
<event>
11    1  0.6763327E-009  0.1302250E+03  0.7561462E-02  0.1118993E+00
         22   -1    0    0    0    0  0.00000000000E+00  0.00000000000E+00  0.18621646409E+03  0.18621646409E+03  0.00000000000E+00 0. -1.
         22   -1    0    0    0    0 -0.00000000000E+00 -0.00000000000E+00 -0.47557055584E+03  0.47557055584E+03  0.00000000000E+00 0.  1.
        -24    2    1    2    0    0  0.33961024623E+02  0.13615906296E+01 -0.36012157845E+03  0.37062952608E+03  0.80768120038E+02 0.  0.
         25    2    1    2    0    0 -0.56547929549E+02 -0.14979799940E+01 -0.48827055042E+02  0.14571313958E+03  0.12509326705E+03 0.  0.
         24    2    1    2    0    0  0.22586904926E+02  0.13638936440E+00  0.11959454174E+03  0.14544435427E+03  0.79630514869E+02 0.  0.
        -11    1    5    5    0    0  0.13077124820E+02 -0.69537535515E+01 -0.83153570141E+01  0.16985612862E+02  0.00000000000E+00 0.  1.
         12    1    5    5    0    0  0.95097801057E+01  0.70901429159E+01  0.12790989876E+03  0.12845874141E+03  0.00000000000E+00 0. -1.
         13    1    3    3    0    0  0.97343169066E+01 -0.25754298394E+02 -0.40657397109E+02  0.49102594138E+02  0.00000000000E+00 0. -1.
        -14    1    3    3    0    0  0.24226707716E+02  0.27115889023E+02 -0.31946418134E+03  0.32152693194E+03  0.00000000000E+00 0.  1.
          5    1    4    4  501    0 -0.20409695858E+02  0.60335837723E+02 -0.34488172821E+02  0.72552570342E+02  0.41800000000E+01 0.  1.
         -5    1    4    4    0  501 -0.36138233691E+02 -0.61833817717E+02 -0.14338882220E+02  0.73160569237E+02  0.41800000000E+01 0.  1.
</event>
<event>
11    1  0.6763327E-009  0.1608443E+03  0.7561462E-02  0.1086286E+00
         22   -1    0    0    0    0  0.00000000000E+00  0.00000000000E+00  0.11827731218E+04  0.11827731218E+04  0.00000000000E+00 0. -1.
         22   -1    0    0    0    0 -0.00000000000E+00 -0.00000000000E+00 -0.52680474096E+03  0.52680474096E+03  0.00000000000E+00 0. -1.
         24    2    1    2    0    0 -0.88376921213E+02  0.19023818128E+02 -0.24915881379E+03  0.27644258198E+03  0.78536620625E+02 0.  0.
         25    2    1    2    0    0  0.13184689346E+03  0.38713715306E+02 -0.22849395976E+03  0.29451542675E+03  0.12508993519E+03 0.  0.
        -24    2    1    2    0    0 -0.43469972243E+02 -0.57737533435E+02  0.11336211544E+04  0.11386198541E+04  0.78326170936E+02 0.  0.
        -11    1    3    3    0    0  0.64505038090E+01  0.21145771427E+02 -0.27095129588E+02  0.34969968487E+02  0.00000000000E+00 0.  1.
         12    1    3    3    0    0 -0.94827425022E+02 -0.21219532983E+01 -0.22206368420E+03  0.24147261349E+03  0.00000000000E+00 0. -1.
         11    1    5    5    0    0 -0.62231700696E+02 -0.22971383213E+02  0.64399204717E+03  0.64739958745E+03  0.00000000000E+00 0. -1.
        -12    1    5    5    0    0  0.18761728453E+02 -0.34766150222E+02  0.48962910727E+03  0.49122026663E+03  0.00000000000E+00 0.  1.
          5    1    4    4  501    0  0.32980323463E+02 -0.44612369084E+02 -0.56429758467E+02  0.79244906787E+02  0.41800000000E+01 0. -1.
         -5    1    4    4    0  501  0.98866569993E+02  0.83326084390E+02 -0.17206420129E+03  0.21527051997E+03  0.41800000000E+01 0. -1.
</event>
<event>
11    1  0.6763327E-009  0.1491079E+03  0.7561462E-02  0.1097794E+00
         22   -1    0    0    0    0  0.00000000000E+00  0.00000000000E+00  0.21510880089E+03  0.21510880089E+03  0.00000000000E+00 0.  1.
         22   -1    0    0    0    0 -0.00000000000E+00 -0.00000000000E+00 -0.25112569040E+03  0.25112569040E+03  0.00000000000E+00 0.  1.
        -24    2    1    2    0    0  0.79465302873E+02 -0.37657469940E+02 -0.14842537084E+03  0.19002128208E+03  0.79656622635E+02 0.  0.
         25    2    1    2    0    0 -0.42742819894E+02  0.43060110519E+02  0.49476931452E+01  0.13911582248E+03  0.12509040981E+03 0.  0.
         24    2    1    2    0    0 -0.36722482979E+02 -0.54026405790E+01  0.10746078818E+03  0.13709738674E+03  0.76616859586E+02 0.  0.
        -11    1    5    5    0    0 -0.30275232268E+02 -0.21744211293E+01  0.11937378072E+03  0.12317230744E+03  0.00000000000E+00 0.  1.
         12    1    5    5    0    0 -0.64472507108E+01 -0.32282194496E+01 -0.11912992534E+02  0.13925079305E+02  0.00000000000E+00 0. -1.
         13    1    3    3    0    0  0.40619277530E+02 -0.26261185497E+02 -0.15078981579E+02  0.50665089127E+02  0.00000000000E+00 0. -1.
        -14    1    3    3    0    0  0.38846025342E+02 -0.11396284442E+02 -0.13334638926E+03  0.13935619295E+03  0.00000000000E+00 0.  1.
          5    1    4    4  501    0 -0.37381467000E+02  0.81494146360E+02 -0.21085856050E+02  0.92199542793E+02  0.41800000000E+01 0.  1.
         -5    1    4    4    0  501 -0.53613528938E+01 -0.38434035841E+02  0.26033549195E+02  0.46916279686E+02  0.41800000000E+01 0.  1.
</event>
<event>
11    1  0.6763327E-009  0.3730044E+03  0.7561462E-02  0.9732949E-01
         22   -1    0    0    0    0  0.00000000000E+00  0.00000000000E+00  0.56620388173E+03  0.56620388173E+03  0.00000000000E+00 0.  1.
         22   -1    0    0    0    0 -0.00000000000E+00 -0.00000000000E+00 -0.10007917223E+04  0.10007917223E+04  0.00000000000E+00 0.  1.
         24    2    1    2    0    0 -0.60545621052E+02  0.24616971657E+03 -0.59995028874E+03  0.65634788622E+03  0.81159701821E+02 0.  0.
         25    2    1    2    0    0 -0.27406613515E+03 -0.44362796211E+02 -0.20425255421E+03  0.36667088318E+03  0.12509247198E+03 0.  0.
        -24    2    1    2    0    0  0.33461175620E+03 -0.20180692036E+03  0.36961500239E+03  0.54397683462E+03  0.81267989482E+02 0.  0.
        -13    1    3    3    0    0 -0.67564703730E+02  0.16820129833E+03 -0.48027368623E+03  0.51334148442E+03  0.00000000000E+00 0.  1.
         14    1    3    3    0    0  0.70190826780E+01  0.77968418245E+02 -0.11967660251E+03  0.14300640180E+03  0.00000000000E+00 0. -1.
         11    1    5    5    0    0  0.31107841630E+02 -0.44987598540E+02  0.30528062750E+02  0.62638202788E+02  0.00000000000E+00 0. -1.
        -12    1    5    5    0    0  0.30350391457E+03 -0.15681932182E+03  0.33908693964E+03  0.48133863183E+03  0.00000000000E+00 0.  1.
          5    1    4    4  501    0 -0.57511515501E+02  0.41910537702E+02 -0.51500033965E+02  0.87941989311E+02  0.41800000000E+01 0.  1.
         -5    1    4    4    0  501 -0.21655461965E+03 -0.86273333913E+02 -0.15275252024E+03  0.27872889387E+03  0.41800000000E+01 0.  1.
</event>
<event>
11    1  0.6763327E-009  0.1548399E+03  0.7561462E-02  0.1092034E+00
         22   -1    0    0    0    0  0.00000000000E+00  0.00000000000E+00  0.11373000713E+03  0.11373000713E+03  0.00000000000E+00 0.  1.
         22   -1    0    0    0    0 -0.00000000000E+00 -0.00000000000E+00 -0.79594313937E+03  0.79594313937E+03  0.00000000000E+00 0.  1.
        -24    2    1    2    0    0 -0.43175620042E+02  0.81735636291E+01 -0.44292214068E+03  0.45244260599E+03  0.81199431647E+02 0.  0.
         25    2    1    2    0    0  0.44444231472E+02  0.83847947782E+02 -0.28609370963E+03  0.32634556470E+03  0.12508416707E+03 0.  0.
         24    2    1    2    0    0 -0.12686114300E+01 -0.92021511411E+02  0.46802718077E+02  0.13088497581E+03  0.80441373292E+02 0.  0.
        -13    1    5    5    0    0 -0.58082872040E+01  0.52264481163E+01  0.31354072028E+02  0.32312997275E+02  0.00000000000E+00 0.  1.
         14    1    5    5    0    0  0.45396757740E+01 -0.97247959527E+02  0.15448646049E+02  0.98571978539E+02  0.00000000000E+00 0. -1.
         11    1    3    3    0    0  0.12284594514E+02 -0.13161136695E+02 -0.24828265790E+03  0.24893453958E+03  0.00000000000E+00 0. -1.
        -12    1    3    3    0    0 -0.55460214556E+02  0.21334700324E+02 -0.19463948278E+03  0.20350806641E+03  0.00000000000E+00 0.  1.
          5    1    4    4  501    0  0.72353139979E+02  0.64885381236E+02 -0.10932561325E+03  0.14633745821E+03  0.41800000000E+01 0.  1.
         -5    1    4    4    0  501 -0.27908908507E+02  0.18962566545E+02 -0.17676809638E+03  0.18000810649E+03  0.41800000000E+01 0.  1.
</event>
<event>
11    1  0.6763327E-009  0.3093633E+03  0.7561462E-02  0.9963045E-01
         22   -1    0    0    0    0  0.00000000000E+00  0.00000000000E+00  0.17635392904E+03  0.17635392904E+03  0.00000000000E+00 0. -1.
         22   -1    0    0    0    0 -0.00000000000E+00 -0.00000000000E+00 -0.19980279983E+04  0.19980279983E+04  0.00000000000E+00 0.  1.
         24    2    1    2    0    0 -0.26750908106E+02 -0.93383973928E+01 -0.68825543466E+03  0.69362120770E+03  0.81314326466E+02 0.  0.
         25    2    1    2    0    0  0.29598087948E+03 -0.69176900135E+02 -0.11427797408E+04  0.11891112093E+04  0.12509919028E+03 0.  0.
        -24    2    1    2    0    0 -0.26922997137E+03  0.78515297528E+02  0.93611061990E+01  0.29164951040E+03  0.79513377346E+02 0.  0.
        -11    1    3    3    0    0 -0.91163091579E+01  0.20861361538E+02 -0.56612141323E+03  0.56657899539E+03  0.00000000000E+00 0.  1.
         12    1    3    3    0    0 -0.17634598948E+02 -0.30199758931E+02 -0.12213402143E+03  0.12704221231E+03  0.00000000000E+00 0. -1.
         11    1    5    5    0    0 -0.19310386768E+03  0.25889899762E+02 -0.16583952828E+02  0.19553623223E+03  0.00000000000E+00 0. -1.
        -12    1    5    5    0    0 -0.76126103697E+02  0.52625397765E+02  0.25945059027E+02  0.96113278177E+02  0.00000000000E+00 0.  1.
          5    1    4    4  501    0  0.77039955748E+02 -0.17612093227E+02 -0.53904299771E+03  0.54482122425E+03  0.41800000000E+01 0.  1.
         -5    1    4    4    0  501  0.21894092373E+03 -0.51564806908E+02 -0.60373674312E+03  0.64428998501E+03  0.41800000000E+01 0.  1.
</event>
<event>
11    1  0.6763327E-009  0.1395745E+03  0.7561462E-02  0.1108035E+00
         22   -1    0    0    0    0  0.00000000000E+00  0.00000000000E+00  0.14696529441E+04  0.14696529441E+04  0.00000000000E+00 0.  1.
         22   -1    0    0    0    0 -0.00000000000E+00 -0.00000000000E+00 -0.11556216131E+03  0.11556216131E+03  0.00000000000E+00 0. -1.
        -24    2    1    2    0    0  0.58186377316E+02  0.73652816467E+01 -0.52404518563E+02  0.11237423679E+03  0.80261034441E+02 0.  0.
         25    2    1    2    0    0 -0.75473792579E+02 -0.46585002195E+02  0.15495472218E+03  0.21800136039E+03  0.12508865420E+03 0.  0.
         24    2    1    2    0    0  0.17287415263E+02  0.39219720548E+02  0.12515405792E+04  0.12548395082E+04  0.80195566643E+02 0.  0.
        -13    1    5    5    0    0  0.22046038866E+02  0.41423937021E+02  0.12470577901E+04  0.12479403441E+04  0.00000000000E+00 0.  1.
         14    1    5    5    0    0 -0.47586236028E+01 -0.22042164734E+01  0.44827890441E+01  0.68991641862E+01  0.00000000000E+00 0. -1.
         11    1    3    3    0    0  0.45981039238E+01 -0.42421957878E+00 -0.57773077275E+02  0.57957320329E+02  0.00000000000E+00 0. -1.
        -12    1    3    3    0    0  0.53588273392E+02  0.77895012255E+01  0.53685587114E+01  0.54416916461E+02  0.00000000000E+00 0.  1.
          5    1    4    4  501    0 -0.10690107872E+03 -0.54915085924E+02  0.12725332168E+03  0.17508394436E+03  0.41800000000E+01 0.  1.
         -5    1    4    4    0  501  0.31427286139E+02  0.83300837289E+01  0.27701400500E+02  0.42917416030E+02  0.41800000000E+01 0.  1.
</event>
<event>
11    1  0.6763327E-009  0.1834162E+03  0.7561462E-02  0.1066913E+00
         22   -1    0    0    0    0  0.00000000000E+00  0.00000000000E+00  0.12134793700E+04  0.12134793700E+04  0.00000000000E+00 0. -1.
         22   -1    0    0    0    0 -0.00000000000E+00 -0.00000000000E+00 -0.25188103927E+03  0.25188103927E+03  0.00000000000E+00 0.  1.
        -24    2    1    2    0    0 -0.86356718722E+02  0.26233606483E+02 -0.20443410359E+03  0.23768082215E+03  0.80951748172E+02 0.  0.
         25    2    1    2    0    0  0.17783152079E+03  0.50991900392E+02  0.52654493380E+03  0.57194619019E+03  0.12509457810E+03 0.  0.
         24    2    1    2    0    0 -0.91474802068E+02 -0.77225506875E+02  0.63948750048E+03  0.65573339689E+03  0.81918289829E+02 0.  0.
        -13    1    5    5    0    0 -0.31469260174E+02 -0.13778705353E+02  0.55639164407E+02  0.65390241420E+02  0.00000000000E+00 0.  1.
         14    1    5    5    0    0 -0.60005541894E+02 -0.63446801522E+02  0.58384833607E+03  0.59034315547E+03  0.00000000000E+00 0. -1.
         11    1    3    3    0    0 -0.14526542934E+02 -0.21171872962E+02 -0.15307042302E+02  0.29892711459E+02  0.00000000000E+00 0. -1.
        -12    1    3    3    0    0 -0.71830175788E+02  0.47405479445E+02 -0.18912706129E+03  0.20778811069E+03  0.00000000000E+00 0.  1.
          5    1    4    4  501    0  0.22243057206E+02  0.58873446276E+02  0.10465482964E+03  0.12219223395E+03  0.41800000000E+01 0.  1.
         -5    1    4    4    0  501  0.15558846358E+03 -0.78815458845E+01  0.42189010415E+03  0.44975395624E+03  0.41800000000E+01 0.  1.
</event>
<event>
11    1  0.6763327E-009  0.1661403E+03  0.7561462E-02  0.1081440E+00
         22   -1    0    0    0    0  0.00000000000E+00  0.00000000000E+00  0.39702702630E+03  0.39702702630E+03  0.00000000000E+00 0.  1.
         22   -1    0    0    0    0 -0.00000000000E+00 -0.00000000000E+00 -0.10430819722E+04  0.10430819722E+04  0.00000000000E+00 0. -1.
         24    2    1    2    0    0 -0.33206772154E+02  0.97607338212E+02 -0.74114897606E+03  0.75263738101E+03  0.80816708619E+02 0.  0.
         25    2    1    2    0    0  0.50675673782E+02 -0.13358195927E+03 -0.26102225753E+03  0.32279238235E+03  0.12510051726E+03 0.  0.
        -24    2    1    2    0    0 -0.17468901628E+02  0.35974621061E+02  0.35611628769E+03  0.36467923513E+03  0.67622468850E+02 0.  0.
        -13    1    3    3    0    0  0.20124936542E+02  0.92753267671E+01 -0.65307982376E+02  0.68965044185E+02  0.00000000000E+00 0.  1.
         14    1    3    3    0    0 -0.53331708696E+02  0.88332011445E+02 -0.67584099368E+03  0.68367233682E+03  0.00000000000E+00 0. -1.
         11    1    5    5    0    0 -0.37680903450E+01 -0.19308546248E+02  0.60241578461E+02  0.63372440687E+02  0.00000000000E+00 0. -1.
        -12    1    5    5    0    0 -0.13700811283E+02  0.55283167308E+02  0.29587470923E+03  0.30130679444E+03  0.00000000000E+00 0.  1.
          5    1    4    4  501    0  0.72708126033E+02 -0.10155615792E+03 -0.25398784700E+03  0.28306787812E+03  0.41800000000E+01 0. -1.
         -5    1    4    4    0  501 -0.22032452251E+02 -0.32025801355E+02 -0.70344105350E+01  0.39724504228E+02  0.41800000000E+01 0. -1.
</event>
<event>
11    1  0.6763327E-009  0.3385044E+03  0.7561462E-02  0.9850954E-01
         22   -1    0    0    0    0  0.00000000000E+00  0.00000000000E+00  0.21241201067E+04  0.21241201067E+04  0.00000000000E+00 0. -1.
         22   -1    0    0    0    0 -0.00000000000E+00 -0.00000000000E+00 -0.15272296822E+03  0.15272296822E+03  0.00000000000E+00 0.  1.
        -24    2    1    2    0    0  0.20046200571E+03  0.26982814752E+03  0.14214863083E+03  0.37370506600E+03  0.80355448985E+02 0.  0.
         25    2    1    2    0    0 -0.14333726412E+03 -0.22100692855E+03  0.58073068774E+03  0.64983479699E+03  0.12508995940E+03 0.  0.
         24    2    1    2    0    0 -0.57124741593E+02 -0.48821218965E+02  0.12485178199E+04  0.12533032119E+04  0.79532678142E+02 0.  0.
        -11    1    5    5    0    0 -0.30292872810E+02  0.15746256076E+02  0.24710688437E+03  0.24945423434E+03  0.00000000000E+00 0.  1.
         12    1    5    5    0    0 -0.26831868783E+02 -0.64567475041E+02  0.10014109355E+04  0.10038489776E+04  0.00000000000E+00 0. -1.
         13    1    3    3    0    0  0.11356813991E+03  0.12058548285E+03  0.31533704633E+02  0.16862074488E+03  0.00000000000E+00 0. -1.
        -14    1    3    3    0    0  0.86893865802E+02  0.14924266467E+03  0.11061492620E+03  0.20508432112E+03  0.00000000000E+00 0.  1.
          5    1    4    4  501    0 -0.82084727228E+02 -0.19404644588E+03  0.51266760817E+03  0.55429006348E+03  0.41800000000E+01 0. -1.
         -5    1    4    4    0  501 -0.61252536894E+02 -0.26960482671E+02  0.68063079576E+02  0.95544733518E+02  0.41800000000E+01 0. -1.
</event>
<event>
11    1  0.6763327E-009  0.1479415E+03  0.7561462E-02  0.1099001E+00
         22   -1    0    0    0    0  0.00000000000E+00  0.00000000000E+00  0.22803880302E+04  0.22803880302E+04  0.00000000000E+00 0.  1.
         22   -1    0    0    0    0 -0.00000000000E+00 -0.00000000000E+00 -0.11197877504E+03  0.11197877504E+03  0.00000000000E+00 0. -1.
         24    2    1    2    0    0 -0.24315232355E+02  0.31645375411E+02 -0.78229397524E+02  0.12120235471E+03  0.83531502090E+02 0.  0.
         25    2    1    2    0    0 -0.49570503712E+02 -0.63098765858E+02  0.52172908490E+03  0.54248224460E+03  0.12508820321E+03 0.  0.
        -24    2    1    2    0    0  0.73885736067E+02  0.31453390447E+02  0.17249095678E+04  0.17286822059E+04  0.81121725365E+02 0.  0.
        -11    1    3    3    0    0  0.23625627398E+01 -0.25126430061E+02 -0.67950708014E+01  0.26136032168E+02  0.00000000000E+00 0.  1.
         12    1    3    3    0    0 -0.26677795095E+02  0.56771805472E+02 -0.71434326722E+02  0.95066322543E+02  0.00000000000E+00 0. -1.
         11    1    5    5    0    0  0.29079209023E+01  0.26420520237E+02  0.16302591239E+03  0.16517853372E+03  0.00000000000E+00 0. -1.
        -12    1    5    5    0    0  0.70977815165E+02  0.50328702105E+01  0.15618836554E+04  0.15635036722E+04  0.00000000000E+00 0.  1.
          5    1    4    4  501    0  0.20540525694E+02  0.23194391910E+01  0.12992250865E+02  0.24770223585E+02  0.41800000000E+01 0. -1.
         -5    1    4    4    0  501 -0.70111029405E+02 -0.65418205049E+02  0.50873683404E+03  0.51771202101E+03  0.41800000000E+01 0. -1.
</event>
<event>
11    1  0.6763327E-009  0.1476433E+03  0.7561462E-02  0.1099311E+00
         22   -1    0    0    0    0  0.00000000000E+00  0.00000000000E+00  0.12602384401E+04  0.12602384401E+04  0.00000000000E+00 0.  1.
         22   -1    0    0    0    0 -0.00000000000E+00 -0.00000000000E+00 -0.77242886613E+03  0.77242886613E+03  0.00000000000E+00 0. -1.
         24    2    1    2    0    0  0.54108189713E+02 -0.56400453474E+02 -0.73682797107E+03  0.74596912498E+03  0.86288870261E+02 0.  0.
         25    2    1    2    0    0 -0.80997286842E+02  0.48088113355E+02  0.18559491569E+03  0.24283078675E+03  0.12509312988E+03 0.  0.
        -24    2    1    2    0    0  0.26889097129E+02  0.83123401184E+01  0.10390426294E+04  0.10438673945E+04  0.96215555688E+02 0.  0.
        -13    1    3    3    0    0  0.42316919711E+02 -0.68411502406E+02 -0.36494170722E+03  0.37370216085E+03  0.00000000000E+00 0.  1.
         14    1    3    3    0    0  0.11791270002E+02  0.12011048932E+02 -0.37188626384E+03  0.37226696413E+03  0.00000000000E+00 0. -1.
         13    1    5    5    0    0  0.31550746468E+02 -0.15998639840E+02  0.13726509835E+03  0.14175017921E+03  0.00000000000E+00 0. -1.
        -14    1    5    5    0    0 -0.46616493392E+01  0.24310979958E+02  0.90177753101E+03  0.90211721531E+03  0.00000000000E+00 0.  1.
          5    1    4    4  501    0  0.14981142461E+02 -0.11568319691E+02 -0.60524514500E+01  0.20306777648E+02  0.41800000000E+01 0. -1.
         -5    1    4    4    0  501 -0.95978429303E+02  0.59656433046E+02  0.19164736714E+03  0.22252400910E+03  0.41800000000E+01 0. -1.
</event>
<event>
11    1  0.6763327E-009  0.1257791E+03  0.7561462E-02  0.1124567E+00
         22   -1    0    0    0    0  0.00000000000E+00  0.00000000000E+00  0.37873350158E+03  0.37873350158E+03  0.00000000000E+00 0. -1.
         22   -1    0    0    0    0 -0.00000000000E+00 -0.00000000000E+00 -0.51408477434E+03  0.51408477434E+03  0.00000000000E+00 0. -1.
        -24    2    1    2    0    0 -0.32147010671E+02 -0.37192360292E+01 -0.42071987231E+03  0.42804553088E+03  0.71906206561E+02 0.  0.
         25    2    1    2    0    0  0.21936046565E+02 -0.65156179477E+01 -0.36980410305E+02  0.13243905201E+03  0.12509559678E+03 0.  0.
         24    2    1    2    0    0  0.10210964107E+02  0.10234853977E+02  0.32234900985E+03  0.33233369303E+03  0.79547365421E+02 0.  0.
        -13    1    5    5    0    0 -0.10640695570E+02  0.41670381270E+02  0.16264454531E+03  0.16823463733E+03  0.00000000000E+00 0.  1.
         14    1    5    5    0    0  0.20851659677E+02 -0.31435527293E+02  0.15970446454E+03  0.16409905570E+03  0.00000000000E+00 0. -1.
         13    1    3    3    0    0 -0.14551844010E+02 -0.33952277622E+02 -0.30285356761E+03  0.30509801169E+03  0.00000000000E+00 0. -1.
        -14    1    3    3    0    0 -0.17595166661E+02  0.30233041593E+02 -0.11786630470E+03  0.12294751920E+03  0.00000000000E+00 0.  1.
          5    1    4    4  501    0  0.19189971497E+02  0.10376521468E+02  0.44147365864E+02  0.49420537396E+02  0.41800000000E+01 0.  1.
         -5    1    4    4    0  501  0.27460750674E+01 -0.16892139416E+02 -0.81127776168E+02  0.83018514612E+02  0.41800000000E+01 0.  1.
</event>
<event>
11    1  0.6763327E-009  0.1264194E+03  0.7561462E-02  0.1123748E+00
         22   -1    0    0    0    0  0.00000000000E+00  0.00000000000E+00  0.11309266733E+03  0.11309266733E+03  0.00000000000E+00 0.  1.
         22   -1    0    0    0    0 -0.00000000000E+00 -0.00000000000E+00 -0.62378158917E+03  0.62378158917E+03  0.00000000000E+00 0. -1.
        -24    2    1    2    0    0  0.24444733779E+02 -0.40640976423E+01 -0.33375392521E+03  0.34484797142E+03  0.83152744404E+02 0.  0.
         25    2    1    2    0    0  0.36561505266E+01  0.15224424713E+02 -0.24955405732E+03  0.27958857247E+03  0.12508953506E+03 0.  0.
         24    2    1    2    0    0 -0.28100884306E+02 -0.11160327070E+02  0.72619060691E+02  0.11243771262E+03  0.80339894471E+02 0.  0.
        -11    1    5    5    0    0 -0.32194521212E+02  0.10928366272E+01  0.87198295662E+02  0.92958185516E+02  0.00000000000E+00 0.  1.
         12    1    5    5    0    0  0.40936369063E+01 -0.12253163697E+02 -0.14579234971E+02  0.19479527101E+02  0.00000000000E+00 0. -1.
         13    1    3    3    0    0 -0.22217312621E+02 -0.25464688568E+02 -0.16642101740E+03  0.16981759148E+03  0.00000000000E+00 0. -1.
        -14    1    3    3    0    0  0.46662046401E+02  0.21400590926E+02 -0.16733290781E+03  0.17503037994E+03  0.00000000000E+00 0.  1.
          5    1    4    4  501    0 -0.18785128864E+01 -0.11219488667E+01  0.14340802766E+02  0.15096973335E+02  0.41800000000E+01 0.  1.
         -5    1    4    4    0  501  0.55346634130E+01  0.16346373579E+02 -0.26389486009E+03  0.26449159913E+03  0.41800000000E+01 0.  1.
</event>
<event>
11    1  0.6763327E-009  0.1352595E+03  0.7561462E-02  0.1112971E+00
         22   -1    0    0    0    0  0.00000000000E+00  0.00000000000E+00  0.18313286047E+03  0.18313286047E+03  0.00000000000E+00 0. -1.
         22   -1    0    0    0    0 -0.00000000000E+00 -0.00000000000E+00 -0.78319347420E+03  0.78319347420E+03  0.00000000000E+00 0.  1.
        -24    2    1    2    0    0  0.14498820662E+02 -0.13570147084E+02 -0.35624493425E+03  0.36569332853E+03  0.80167279229E+02 0.  0.
         25    2    1    2    0    0 -0.48390642017E+02 -0.25159550458E+02 -0.39661324542E+03  0.41943420354E+03  0.12509327498E+03 0.  0.
         24    2    1    2    0    0  0.33891821354E+02  0.38729697543E+02  0.15279756595E+03  0.18119880260E+03  0.82687755299E+02 0.  0.
        -11    1    5    5    0    0 -0.22662246283E+01 -0.24343521920E+02  0.33070208404E+02  0.41126409002E+02  0.00000000000E+00 0.  1.
         12    1    5    5    0    0  0.36158045983E+02  0.63073219463E+02  0.11972735754E+03  0.14007239359E+03  0.00000000000E+00 0. -1.
         13    1    3    3    0    0  0.42391321019E+01 -0.45124524169E+02 -0.25920219031E+03  0.26313488630E+03  0.00000000000E+00 0. -1.
        -14    1    3    3    0    0  0.10259688560E+02  0.31554377084E+02 -0.97042743936E+02  0.10255844223E+03  0.00000000000E+00 0.  1.
          5    1    4    4  501    0 -0.55797472960E+02 -0.11816685734E+02 -0.61623307204E+02  0.84070782328E+02  0.41800000000E+01 0.  1.
         -5    1    4    4    0  501  0.74068309435E+01 -0.13342864724E+02 -0.33498993822E+03  0.33536342122E+03  0.41800000000E+01 0.  1.
</event>
<event>
11    1  0.6763327E-009  0.2598289E+03  0.7561462E-02  0.1018790E+00
         22   -1    0    0    0    0  0.00000000000E+00  0.00000000000E+00  0.71142887272E+03  0.71142887272E+03  0.00000000000E+00 0.  1.
         22   -1    0    0    0    0 -0.00000000000E+00 -0.00000000000E+00 -0.13730162318E+04  0.13730162318E+04  0.00000000000E+00 0. -1.
         24    2    1    2    0    0 -0.18705144514E+03  0.11740485121E+03 -0.11123063216E+04  0.11375492430E+04  0.89558834668E+02 0.  0.
         25    2    1    2    0    0  0.28468519999E+03 -0.82260858666E+02 -0.13333855666E+03  0.34819405926E+03  0.12508964886E+03 0.  0.
        -24    2    1    2    0    0 -0.97633754848E+02 -0.35143992547E+02  0.58405751919E+03  0.59870180228E+03  0.80951911848E+02 0.  0.
        -13    1    3    3    0    0 -0.54622908539E+02 -0.86696903542E+01 -0.27640530620E+03  0.28188422972E+03  0.00000000000E+00 0.  1.
         14    1    3    3    0    0 -0.13242853661E+03  0.12607454157E+03 -0.83590101543E+03  0.85566501327E+03  0.00000000000E+00 0. -1.
         11    1    5    5    0    0 -0.25516258439E+02  0.11254494123E+01  0.32831529942E+02  0.41596339256E+02  0.00000000000E+00 0. -1.
        -12    1    5    5    0    0 -0.72117496409E+02 -0.36269441960E+02  0.55122598925E+03  0.55710546303E+03  0.00000000000E+00 0.  1.
          5    1    4    4  501    0  0.11075591015E+03 -0.46918989459E+02  0.89330153165E+01  0.12068775567E+03  0.41800000000E+01 0.  1.
         -5    1    4    4    0  501  0.17392928984E+03 -0.35341869207E+02 -0.14227157197E+03  0.22750630360E+03  0.41800000000E+01 0.  1.
</event>
<event>
11    1  0.6763327E-009  0.2337034E+03  0.7561462E-02  0.1032957E+00
         22   -1    0    0    0    0  0.00000000000E+00  0.00000000000E+00  0.65670890143E+03  0.65670890143E+03  0.00000000000E+00 0. -1.
         22   -1    0    0    0    0 -0.00000000000E+00 -0.00000000000E+00 -0.10356486437E+04  0.10356486437E+04  0.00000000000E+00 0. -1.
        -24    2    1    2    0    0  0.73344580451E+02 -0.18111345325E+03 -0.94222551160E+03  0.96611225797E+03  0.86037607182E+02 0.  0.
         25    2    1    2    0    0 -0.80590184442E+02  0.27706962332E+03  0.48762897335E+03  0.58025164225E+03  0.12509036209E+03 0.  0.
         24    2    1    2    0    0  0.72456039910E+01 -0.95956170071E+02  0.75656796034E+02  0.14599364487E+03  0.79561977125E+02 0.  0.
        -13    1    5    5    0    0  0.34298804631E+02 -0.26765729406E+02  0.55734200632E+01  0.43862002702E+02  0.00000000000E+00 0.  1.
         14    1    5    5    0    0 -0.27053200640E+02 -0.69190440664E+02  0.70083375971E+02  0.10213164217E+03  0.00000000000E+00 0. -1.
         13    1    3    3    0    0  0.32300125607E+02 -0.13915570351E+03 -0.49995797718E+03  0.51996690941E+03  0.00000000000E+00 0. -1.
        -14    1    3    3    0    0  0.41044454845E+02 -0.41957749739E+02 -0.44226753442E+03  0.44614534856E+03  0.00000000000E+00 0.  1.
          5    1    4    4  501    0 -0.10909318534E+03  0.23238119040E+03  0.36172868985E+03  0.44358478130E+03  0.41800000000E+01 0.  1.
         -5    1    4    4    0  501  0.28503000894E+02  0.44688432912E+02  0.12590028350E+03  0.13666686095E+03  0.41800000000E+01 0.  1.
</event>
<event>
11    1  0.6763327E-009  0.1851994E+03  0.7561462E-02  0.1065513E+00
         22   -1    0    0    0    0  0.00000000000E+00  0.00000000000E+00  0.14892730267E+03  0.14892730267E+03  0.00000000000E+00 0. -1.
         22   -1    0    0    0    0 -0.00000000000E+00 -0.00000000000E+00 -0.18288085092E+04  0.18288085092E+04  0.00000000000E+00 0.  1.
        -24    2    1    2    0    0 -0.22639286194E+02  0.15056987360E+03 -0.14818292103E+04  0.14918226672E+04  0.80828445236E+02 0.  0.
         25    2    1    2    0    0  0.10430860951E+03 -0.39351155108E+02 -0.26486674642E+03  0.31341577268E+03  0.12508498622E+03 0.  0.
         24    2    1    2    0    0 -0.81669323312E+02 -0.11121871849E+03  0.66814750278E+02  0.17249737197E+03  0.79067381200E+02 0.  0.
        -11    1    5    5    0    0 -0.22568724921E+02 -0.94056256921E+02  0.48996120515E+02  0.10842761012E+03  0.00000000000E+00 0.  1.
         12    1    5    5    0    0 -0.59100598390E+02 -0.17162461567E+02  0.17818629763E+02  0.64069761852E+02  0.00000000000E+00 0. -1.
         11    1    3    3    0    0 -0.15074092780E+02  0.10226255247E+03 -0.61589091801E+03  0.62450498861E+03  0.00000000000E+00 0. -1.
        -12    1    3    3    0    0 -0.75651934145E+01  0.48307321130E+02 -0.86593829234E+03  0.86731767857E+03  0.00000000000E+00 0.  1.
          5    1    4    4  501    0  0.33809036230E+02  0.38519644310E+02 -0.14569001526E+03  0.15449876011E+03  0.41800000000E+01 0. -1.
         -5    1    4    4    0  501  0.70499573276E+02 -0.77870799418E+02 -0.11917673116E+03  0.15891701257E+03  0.41800000000E+01 0. -1.
</event>
<event>
11    1  0.6763327E-009  0.1436162E+03  0.7561462E-02  0.1103586E+00
         22   -1    0    0    0    0  0.00000000000E+00  0.00000000000E+00  0.38089904027E+03  0.38089904027E+03  0.00000000000E+00 0. -1.
         22   -1    0    0    0    0 -0.00000000000E+00 -0.00000000000E+00 -0.38885100374E+03  0.38885100374E+03  0.00000000000E+00 0.  1.
        -24    2    1    2    0    0 -0.42249602824E+02 -0.27127224566E+02 -0.33588213290E+03  0.34929009981E+03  0.81644665322E+02 0.  0.
         25    2    1    2    0    0 -0.51645710416E+02  0.71419666475E+01  0.20319167720E+03  0.24423837719E+03  0.12508892883E+03 0.  0.
         24    2    1    2    0    0  0.93895313240E+02  0.19985257918E+02  0.12473849224E+03  0.17622156701E+03  0.79237673179E+02 0.  0.
        -11    1    5    5    0    0  0.37389862690E+02  0.21381552794E+02  0.44324462432E+01  0.43299182573E+02  0.00000000000E+00 0.  1.
         12    1    5    5    0    0  0.56505450550E+02 -0.13962948753E+01  0.12030604599E+03  0.13292238443E+03  0.00000000000E+00 0. -1.
         11    1    3    3    0    0 -0.54217441924E+02  0.31670277136E+01 -0.13063789121E+03  0.14147727624E+03  0.00000000000E+00 0. -1.
        -12    1    3    3    0    0  0.11967839100E+02 -0.30294252279E+02 -0.20524424169E+03  0.20781282357E+03  0.00000000000E+00 0.  1.
          5    1    4    4  501    0 -0.62841198440E+02  0.48903436900E+02  0.77267902156E+02  0.11103316381E+03  0.41800000000E+01 0. -1.
         -5    1    4    4    0  501  0.11195488024E+02 -0.41761470252E+02  0.12592377504E+03  0.13320521338E+03  0.41800000000E+01 0. -1.
</event>
<event>
11    1  0.6763327E-009  0.2736741E+03  0.7561462E-02  0.1011993E+00
         22   -1    0    0    0    0  0.00000000000E+00  0.00000000000E+00  0.90687072761E+03  0.90687072761E+03  0.00000000000E+00 0. -1.
         22   -1    0    0    0    0 -0.00000000000E+00 -0.00000000000E+00 -0.23698991178E+03  0.23698991178E+03  0.00000000000E+00 0. -1.
        -24    2    1    2    0    0 -0.24175598393E+03 -0.98381747524E+02 -0.90803554471E+02  0.28759425413E+03  0.79625658504E+02 0.  0.
         25    2    1    2    0    0  0.17976164180E+03  0.58448276892E+02  0.26462635169E+03  0.34842822776E+03  0.12507867507E+03 0.  0.
         24    2    1    2    0    0  0.61994342133E+02  0.39933470632E+02  0.49605801861E+03  0.50783815750E+03  0.79925314214E+02 0.  0.
        -13    1    5    5    0    0 -0.29192175026E+00  0.40737595334E+02  0.28109367266E+03  0.28403043799E+03  0.00000000000E+00 0.  1.
         14    1    5    5    0    0  0.62286263883E+02 -0.80412470179E+00  0.21496434594E+03  0.22380771951E+03  0.00000000000E+00 0. -1.
         11    1    3    3    0    0 -0.97740925821E+02 -0.60170548875E+02 -0.33480636764E+01  0.11482592505E+03  0.00000000000E+00 0. -1.
        -12    1    3    3    0    0 -0.14401505811E+03 -0.38211198649E+02 -0.87455490795E+02  0.17276832908E+03  0.00000000000E+00 0.  1.
          5    1    4    4  501    0  0.90565346523E+02  0.90553320200E+02  0.12068425411E+03  0.17602314444E+03  0.41800000000E+01 0. -1.
         -5    1    4    4    0  501  0.89196295273E+02 -0.32105043308E+02  0.14394209758E+03  0.17240508331E+03  0.41800000000E+01 0. -1.
</event>
<event>
11    1  0.6763327E-009  0.1660505E+03  0.7561462E-02  0.1081521E+00
         22   -1    0    0    0    0  0.00000000000E+00  0.00000000000E+00  0.75179997823E+03  0.75179997823E+03  0.00000000000E+00 0.  1.
         22   -1    0    0    0    0 -0.00000000000E+00 -0.00000000000E+00 -0.29933330855E+03  0.29933330855E+03  0.00000000000E+00 0. -1.
        -24    2    1    2    0    0 -0.33465845704E+01  0.12640355331E+02 -0.21766212983E+03  0.23197148058E+03  0.79139034789E+02 0.  0.
         25    2    1    2    0    0 -0.10126702176E+03  0.20948408189E+02  0.30423745052E+02  0.16512837022E+03  0.12509168193E+03 0.  0.
         24    2    1    2    0    0  0.10461360633E+03 -0.33588763519E+02  0.63970505446E+03  0.65403343597E+03  0.80405018481E+02 0.  0.
        -11    1    5    5    0    0  0.94573916114E+02 -0.37258907173E+02  0.63364349613E+03  0.64174491191E+03  0.00000000000E+00 0.  1.
         12    1    5    5    0    0  0.10039690220E+02  0.36701436532E+01  0.60615583298E+01  0.12288524059E+02  0.00000000000E+00 0. -1.
         11    1    3    3    0    0 -0.10697756602E+02 -0.10397092633E+02 -0.20329908885E+03  0.20384567952E+03  0.00000000000E+00 0. -1.
        -12    1    3    3    0    0  0.73511720314E+01  0.23037447964E+02 -0.14363040982E+02  0.28125801058E+02  0.00000000000E+00 0.  1.
          5    1    4    4  501    0 -0.61841964523E+02 -0.25338590825E+02 -0.35132532121E+02  0.75619045050E+02  0.41800000000E+01 0. -1.
         -5    1    4    4    0  501 -0.39425057241E+02  0.46286999014E+02  0.65556277174E+02  0.89509325174E+02  0.41800000000E+01 0. -1.
</event>
<event>
11    1  0.6763327E-009  0.1494308E+03  0.7561462E-02  0.1097462E+00
         22   -1    0    0    0    0  0.00000000000E+00  0.00000000000E+00  0.19078103294E+03  0.19078103294E+03  0.00000000000E+00 0.  1.
         22   -1    0    0    0    0 -0.00000000000E+00 -0.00000000000E+00 -0.53491023827E+03  0.53491023827E+03  0.00000000000E+00 0.  1.
        -24    2    1    2    0    0 -0.62865040033E+02  0.45084063070E+02 -0.22439667808E+03  0.25358574208E+03  0.89259584646E+02 0.  0.
         25    2    1    2    0    0  0.78556697593E+02 -0.40629663555E+02 -0.26442543752E+03  0.30559791937E+03  0.12508937612E+03 0.  0.
         24    2    1    2    0    0 -0.15691657561E+02 -0.44543995152E+01  0.14469291027E+03  0.16650760977E+03  0.80763085841E+02 0.  0.
        -11    1    5    5    0    0  0.16976841925E+02 -0.34137901453E+02  0.71693365003E+02  0.81200665408E+02  0.00000000000E+00 0.  1.
         12    1    5    5    0    0 -0.32668499486E+02  0.29683501938E+02  0.72999545270E+02  0.85306944358E+02  0.00000000000E+00 0. -1.
         13    1    3    3    0    0 -0.20114976326E+02  0.61348109244E+02 -0.84114452999E+02  0.10603510732E+03  0.00000000000E+00 0. -1.
        -14    1    3    3    0    0 -0.42750063706E+02 -0.16264046174E+02 -0.14028222508E+03  0.14755063476E+03  0.00000000000E+00 0.  1.
          5    1    4    4  501    0  0.77886538539E+02 -0.72299718041E+02 -0.24762607496E+03  0.26949899353E+03  0.41800000000E+01 0.  1.
         -5    1    4    4    0  501  0.67015905457E+00  0.31670054486E+02 -0.16799362562E+02  0.36098925840E+02  0.41800000000E+01 0.  1.
</event>
<event>
11    1  0.6763327E-009  0.1472253E+03  0.7561462E-02  0.1099748E+00
         22   -1    0    0    0    0  0.00000000000E+00  0.00000000000E+00  0.13874541796E+04  0.13874541796E+04  0.00000000000E+00 0. -1.
         22   -1    0    0    0    0 -0.00000000000E+00 -0.00000000000E+00 -0.24117108871E+04  0.24117108871E+04  0.00000000000E+00 0.  1.
         24    2    1    2    0    0  0.51997662017E+02  0.31008634033E+02 -0.23236375254E+04  0.23258082327E+04  0.80170403205E+02 0.  0.
         25    2    1    2    0    0 -0.59996246546E+01  0.33362402177E+02 -0.35080082417E+02  0.13426312474E+03  0.12508768567E+03 0.  0.
        -24    2    1    2    0    0 -0.45998037362E+02 -0.64371036210E+02  0.13344609003E+04  0.13390937093E+04  0.78272716135E+02 0.  0.
        -13    1    3    3    0    0  0.49907574722E+02  0.32840312745E+02 -0.23215843691E+04  0.23223529523E+04  0.00000000000E+00 0.  1.
         14    1    3    3    0    0  0.20900872950E+01 -0.18316787125E+01 -0.20531562880E+01  0.34552803866E+01  0.00000000000E+00 0. -1.
         11    1    5    5    0    0 -0.62293734133E+02 -0.56257815237E+02  0.81435826009E+03  0.81867260053E+03  0.00000000000E+00 0. -1.
        -12    1    5    5    0    0  0.16295696771E+02 -0.81132209732E+01  0.52010264018E+03  0.52042110872E+03  0.00000000000E+00 0.  1.
          5    1    4    4  501    0  0.22263778152E+02  0.11528850282E+02 -0.75794638907E+02  0.79943041557E+02  0.41800000000E+01 0.  1.
         -5    1    4    4    0  501 -0.28263402807E+02  0.21833551895E+02  0.40714556490E+02  0.54320083181E+02  0.41800000000E+01 0.  1.
</event>
<event>
11    1  0.1053250E-008  0.1685138E+03  0.7561462E-02  0.1079332E+00
         22   -1    0    0    0    0  0.00000000000E+00  0.00000000000E+00  0.29247831238E+03  0.29247831238E+03  0.00000000000E+00 0. -1.
         22   -1    0    0    0    0 -0.00000000000E+00 -0.00000000000E+00 -0.93997181119E+03  0.93997181119E+03  0.00000000000E+00 0.  1.
        -24    2    1    2    0    0 -0.36119139870E+02 -0.60855543833E+02 -0.77854499253E+03  0.78582562002E+03  0.79884981111E+02 0.  0.
         25    2    1    2    0    0 -0.77401887076E+02  0.22387768514E+02 -0.96468775443E+02  0.17733062946E+03  0.12509061998E+03 0.  0.
         24    2    1    2    0    0  0.11352102695E+03  0.38467775319E+02  0.22752026916E+03  0.26929387408E+03  0.79918235978E+02 0.  0.
        -13    1    5    5    0    0 -0.56406771527E+01  0.14277431618E+02  0.62241912608E+02  0.64107082116E+02  0.00000000000E+00 0.  1.
         14    1    5    5    0    0  0.11916170410E+03  0.24190343702E+02  0.16527835655E+03  0.20518679196E+03  0.00000000000E+00 0. -1.
         13    1    3    3    0    0 -0.19814356114E+02 -0.50292045122E+02 -0.20671194534E+03  0.21366264731E+03  0.00000000000E+00 0. -1.
        -14    1    3    3    0    0 -0.16304783756E+02 -0.10563498711E+02 -0.57183304719E+03  0.57216297271E+03  0.00000000000E+00 0.  1.
          5    1    4    4  501    0 -0.75685833795E+02 -0.36149584422E+02 -0.80858837177E+02  0.11657942289E+03  0.41800000000E+01 0.  1.
         -5    1    4    4    0  501 -0.17160532808E+01  0.58537352936E+02 -0.15609938266E+02  0.60751206574E+02  0.41800000000E+01 0.  1.
</event>
<event>
11    1  0.6763327E-009  0.1527861E+03  0.7561462E-02  0.1094065E+00
         22   -1    0    0    0    0  0.00000000000E+00  0.00000000000E+00  0.23634571219E+03  0.23634571219E+03  0.00000000000E+00 0. -1.
         22   -1    0    0    0    0 -0.00000000000E+00 -0.00000000000E+00 -0.33601051003E+03  0.33601051003E+03  0.00000000000E+00 0. -1.
         24    2    1    2    0    0  0.52830979266E+02  0.12297697347E+02 -0.23235515972E+03  0.25163657260E+03  0.79935590892E+02 0.  0.
         25    2    1    2    0    0 -0.90640932275E+02 -0.78707418049E+02  0.45029830059E+02  0.17912427310E+03  0.12508870196E+03 0.  0.
        -24    2    1    2    0    0  0.37809953009E+02  0.66409720702E+02  0.87660531822E+02  0.14159537653E+03  0.80777708954E+02 0.  0.
        -13    1    3    3    0    0 -0.21362789967E+02  0.77073901042E+00 -0.57349891592E+02  0.61204353598E+02  0.00000000000E+00 0.  1.
         14    1    3    3    0    0  0.74193769233E+02  0.11526958337E+02 -0.17500526813E+03  0.19043221900E+03  0.00000000000E+00 0. -1.
         13    1    5    5    0    0  0.50591985108E+02  0.65606052584E+02  0.95618398547E+02  0.12651711834E+03  0.00000000000E+00 0. -1.
        -14    1    5    5    0    0 -0.12782032100E+02  0.80366811727E+00 -0.79578667244E+01  0.15078258183E+02  0.00000000000E+00 0.  1.
          5    1    4    4  501    0 -0.13990475253E+02 -0.10489306835E+02  0.70962524747E+02  0.73204585062E+02  0.41800000000E+01 0.  1.
         -5    1    4    4    0  501 -0.76650457021E+02 -0.68218111214E+02 -0.25932694688E+02  0.10591968803E+03  0.41800000000E+01 0.  1.
</event>
<event>
11    1  0.6763327E-009  0.1297180E+03  0.7561462E-02  0.1119616E+00
         22   -1    0    0    0    0  0.00000000000E+00  0.00000000000E+00  0.42636384283E+03  0.42636384283E+03  0.00000000000E+00 0.  1.
         22   -1    0    0    0    0 -0.00000000000E+00 -0.00000000000E+00 -0.35458563034E+03  0.35458563034E+03  0.00000000000E+00 0. -1.
        -24    2    1    2    0    0  0.23329617204E+02 -0.26614730188E+02 -0.28567999574E+03  0.30736920422E+03  0.10775041918E+03 0.  0.
         25    2    1    2    0    0 -0.39491090508E+02 -0.20521898270E+01  0.36259522677E+02  0.13610806414E+03  0.12508754705E+03 0.  0.
         24    2    1    2    0    0  0.16161473305E+02  0.28666920015E+02  0.32119868555E+03  0.33747220481E+03  0.98162660381E+02 0.  0.
        -13    1    5    5    0    0 -0.76822833267E+00 -0.22375089965E+02  0.23369435375E+03  0.23476431969E+03  0.00000000000E+00 0.  1.
         14    1    5    5    0    0  0.16929701637E+02  0.51042009980E+02  0.87504331804E+02  0.10270788512E+03  0.00000000000E+00 0. -1.
         13    1    3    3    0    0  0.51609659242E+02  0.18054190428E+02 -0.19379203181E+03  0.20135754843E+03  0.00000000000E+00 0. -1.
        -14    1    3    3    0    0 -0.28280042038E+02 -0.44668920616E+02 -0.91887963936E+02  0.10601165579E+03  0.00000000000E+00 0.  1.
          5    1    4    4  501    0 -0.81534168586E+02 -0.11898242241E+02  0.50352382235E+01  0.82657212870E+02  0.41800000000E+01 0.  1.
         -5    1    4    4    0  501  0.42043078078E+02  0.98460524141E+01  0.31224284453E+02  0.53450851275E+02  0.41800000000E+01 0.  1.
</event>
<event>
11    1  0.6763327E-009  0.1676988E+03  0.7561462E-02  0.1080052E+00
         22   -1    0    0    0    0  0.00000000000E+00  0.00000000000E+00  0.31084801290E+03  0.31084801290E+03  0.00000000000E+00 0.  1.
         22   -1    0    0    0    0 -0.00000000000E+00 -0.00000000000E+00 -0.41879729037E+03  0.41879729037E+03  0.00000000000E+00 0. -1.
        -24    2    1    2    0    0 -0.48374627908E+02 -0.51601913017E+02 -0.32323735126E+03  0.34123579249E+03  0.83406347339E+02 0.  0.
         25    2    1    2    0    0  0.29688942321E+02  0.14625426445E+03  0.10529241147E+03  0.22137531760E+03  0.12509514845E+03 0.  0.
         24    2    1    2    0    0  0.18685685587E+02 -0.94652351430E+02  0.10999566232E+03  0.16703419318E+03  0.80580106011E+02 0.  0.
        -11    1    5    5    0    0  0.43383831157E+02 -0.81522349195E+02  0.10272757871E+03  0.13813401338E+03  0.00000000000E+00 0.  1.
         12    1    5    5    0    0 -0.24698145569E+02 -0.13130002235E+02  0.72680836107E+01  0.28900179803E+02  0.00000000000E+00 0. -1.
         11    1    3    3    0    0 -0.68745025502E+02 -0.49090631344E+02 -0.29105469148E+03  0.30306534287E+03  0.00000000000E+00 0. -1.
        -12    1    3    3    0    0  0.20370397594E+02 -0.25112816723E+01 -0.32182659777E+02  0.38170449619E+02  0.00000000000E+00 0.  1.
          5    1    4    4  501    0  0.21558897438E+02  0.13522885063E+03  0.24315361442E+02  0.13914142915E+03  0.41800000000E+01 0.  1.
         -5    1    4    4    0  501  0.81300448836E+01  0.11025413812E+02  0.80977050030E+02  0.82233888459E+02  0.41800000000E+01 0.  1.
</event>
<event>
11    1  0.6763327E-009  0.1314862E+03  0.7561462E-02  0.1117456E+00
         22   -1    0    0    0    0  0.00000000000E+00  0.00000000000E+00  0.11508053574E+04  0.11508053574E+04  0.00000000000E+00 0. -1.
         22   -1    0    0    0    0 -0.00000000000E+00 -0.00000000000E+00 -0.36891789722E+03  0.36891789722E+03  0.00000000000E+00 0. -1.
         24    2    1    2    0    0  0.14134236783E+02  0.16748485393E+02 -0.35343552527E+03  0.36090660578E+03  0.69689447956E+02 0.  0.
         25    2    1    2    0    0  0.13483454018E+02 -0.44998002103E+02  0.51150867650E+03  0.52867396506E+03  0.12509361082E+03 0.  0.
        -24    2    1    2    0    0 -0.27617690801E+02  0.28249516710E+02  0.62381430892E+03  0.63014268376E+03  0.79841955450E+02 0.  0.
        -11    1    3    3    0    0  0.17717549973E+02 -0.13648670897E+02 -0.38788457856E+02  0.44774348204E+02  0.00000000000E+00 0.  1.
         12    1    3    3    0    0 -0.35833131903E+01  0.30397156290E+02 -0.31464706742E+03  0.31613225757E+03  0.00000000000E+00 0. -1.
         11    1    5    5    0    0 -0.84757466366E+01 -0.66730259525E+01  0.49926113401E+03  0.49937766018E+03  0.00000000000E+00 0. -1.
        -12    1    5    5    0    0 -0.19141944164E+02  0.34922542662E+02  0.12455317491E+03  0.13076502358E+03  0.00000000000E+00 0.  1.
          5    1    4    4  501    0 -0.16686366223E+02 -0.45998075564E+02  0.66732610104E+02  0.82855123104E+02  0.41800000000E+01 0. -1.
         -5    1    4    4    0  501  0.30169820241E+02  0.10000734612E+01  0.44477606640E+03  0.44581884196E+03  0.41800000000E+01 0. -1.
</event>
<event>
11    1  0.6763327E-009  0.1556154E+03  0.7561462E-02  0.1091275E+00
         22   -1    0    0    0    0  0.00000000000E+00  0.00000000000E+00  0.59133595187E+03  0.59133595187E+03  0.00000000000E+00 0. -1.
         22   -1    0    0    0    0 -0.00000000000E+00 -0.00000000000E+00 -0.52061567289E+03  0.52061567289E+03  0.00000000000E+00 0.  1.
        -24    2    1    2    0    0  0.84994559283E+02 -0.28229613311E+02 -0.35844353677E+03  0.37813484483E+03  0.80518355943E+02 0.  0.
         25    2    1    2    0    0 -0.95752825922E+02  0.48756211331E+02 -0.10339260483E+03  0.19463743543E+03  0.12509168127E+03 0.  0.
         24    2    1    2    0    0  0.10758266638E+02 -0.20526598019E+02  0.53255642057E+03  0.53917934450E+03  0.80999647605E+02 0.  0.
        -13    1    5    5    0    0  0.13115273537E+02 -0.76543716422E+01  0.14626020346E+02  0.21083649502E+02  0.00000000000E+00 0.  1.
         14    1    5    5    0    0 -0.23570068985E+01 -0.12872226377E+02  0.51793040023E+03  0.51809569500E+03  0.00000000000E+00 0. -1.
         11    1    3    3    0    0  0.92930286594E+01 -0.41867526163E+02 -0.11036077548E+03  0.11840080613E+03  0.00000000000E+00 0. -1.
        -12    1    3    3    0    0  0.75701530624E+02  0.13637912852E+02 -0.24808276129E+03  0.25973403870E+03  0.00000000000E+00 0.  1.
          5    1    4    4  501    0  0.10777517255E+02  0.55729524209E+00  0.20930326577E+02  0.23916864903E+02  0.41800000000E+01 0.  1.
         -5    1    4    4    0  501 -0.10653034318E+03  0.48198916088E+02 -0.12432293140E+03  0.17072057053E+03  0.41800000000E+01 0.  1.
</event>
<event>
11    1  0.6763327E-009  0.1566051E+03  0.7561462E-02  0.1090314E+00
         22   -1    0    0    0    0  0.00000000000E+00  0.00000000000E+00  0.46482884751E+03  0.46482884751E+03  0.00000000000E+00 0.  1.
         22   -1    0    0    0    0 -0.00000000000E+00 -0.00000000000E+00 -0.17518236572E+04  0.17518236572E+04  0.00000000000E+00 0. -1.
         24    2    1    2    0    0 -0.80334804938E+02 -0.50587779220E+02 -0.17176481838E+04  0.17221886801E+04  0.81275839578E+02 0.  0.
         25    2    1    2    0    0  0.41237226939E+02 -0.97279576733E+01  0.18319362877E+03  0.22583785102E+03  0.12509071623E+03 0.  0.
        -24    2    1    2    0    0  0.39097577999E+02  0.60315736893E+02  0.24745974542E+03  0.26862597357E+03  0.75874760976E+02 0.  0.
        -13    1    3    3    0    0  0.59755936499E+01 -0.19746653785E+02 -0.10923869931E+03  0.11116983171E+03  0.00000000000E+00 0.  1.
         14    1    3    3    0    0 -0.86310398588E+02 -0.30841125435E+02 -0.16084094845E+04  0.16110188484E+04  0.00000000000E+00 0. -1.
         11    1    5    5    0    0  0.15125611067E+02 -0.17113318526E+02  0.43077108129E+02  0.48757430468E+02  0.00000000000E+00 0. -1.
        -12    1    5    5    0    0  0.23971966932E+02  0.77429055419E+02  0.20438263729E+03  0.21986854310E+03  0.00000000000E+00 0.  1.
          5    1    4    4  501    0 -0.13947389115E+02  0.10367955643E+02  0.16242251727E+03  0.16340309264E+03  0.41800000000E+01 0.  1.
         -5    1    4    4    0  501  0.55184616054E+02 -0.20095913317E+02  0.20771111491E+02  0.62434758377E+02  0.41800000000E+01 0.  1.
</event>
<event>
11    1  0.6763327E-009  0.1481312E+03  0.7561462E-02  0.1098804E+00
         22   -1    0    0    0    0  0.00000000000E+00  0.00000000000E+00  0.26526065959E+03  0.26526065959E+03  0.00000000000E+00 0. -1.
         22   -1    0    0    0    0 -0.00000000000E+00 -0.00000000000E+00 -0.90875092510E+03  0.90875092510E+03  0.00000000000E+00 0. -1.
         24    2    1    2    0    0 -0.19313828261E+02 -0.17134024646E+02 -0.66987925678E+03  0.67522955767E+03  0.80809270069E+02 0.  0.
         25    2    1    2    0    0  0.66653212744E+01 -0.62282044082E+02 -0.20138691064E+03  0.24521299606E+03  0.12509694695E+03 0.  0.
        -24    2    1    2    0    0  0.12648506986E+02  0.79416068728E+02  0.22777590191E+03  0.25356903096E+03  0.77126488784E+02 0.  0.
        -11    1    3    3    0    0 -0.44809653787E+01  0.23862519296E+02 -0.76719459521E+02  0.80469710743E+02  0.00000000000E+00 0.  1.
         12    1    3    3    0    0 -0.14832862882E+02 -0.40996543941E+02 -0.59315979725E+03  0.59475984693E+03  0.00000000000E+00 0. -1.
         11    1    5    5    0    0  0.17667658270E+02  0.78532924405E+02  0.11332126321E+03  0.13900098942E+03  0.00000000000E+00 0. -1.
        -12    1    5    5    0    0 -0.50191512841E+01  0.88314432346E+00  0.11445463869E+03  0.11456804154E+03  0.00000000000E+00 0.  1.
          5    1    4    4  501    0 -0.49058994092E+02 -0.66942563495E+02 -0.10778723480E+03  0.13610162414E+03  0.41800000000E+01 0.  1.
         -5    1    4    4    0  501  0.55724315366E+02  0.46605194124E+01 -0.93599675844E+02  0.10911137192E+03  0.41800000000E+01 0.  1.
</event>
<event>
11    1  0.6763327E-009  0.1329547E+03  0.7561462E-02  0.1115691E+00
         22   -1    0    0    0    0  0.00000000000E+00  0.00000000000E+00  0.60870652481E+03  0.60870652481E+03  0.00000000000E+00 0. -1.
         22   -1    0    0    0    0 -0.00000000000E+00 -0.00000000000E+00 -0.23661643812E+03  0.23661643812E+03  0.00000000000E+00 0.  1.
        -24    2    1    2    0    0  0.27436104841E+02 -0.35500928240E+02 -0.17088555010E+03  0.19375080398E+03  0.79526392188E+02 0.  0.
         25    2    1    2    0    0 -0.54216431819E+02  0.15180061600E+02  0.42501628532E+02  0.14360946744E+03  0.12508970766E+03 0.  0.
         24    2    1    2    0    0  0.26780326978E+02  0.20320866639E+02  0.50047400826E+03  0.50796269150E+03  0.80135756566E+02 0.  0.
        -11    1    5    5    0    0  0.28619988558E+01  0.40479949003E+02  0.13038904297E+03  0.13655811889E+03  0.00000000000E+00 0.  1.
         12    1    5    5    0    0  0.23918328123E+02 -0.20159082364E+02  0.37008496529E+03  0.37140457261E+03  0.00000000000E+00 0. -1.
         11    1    3    3    0    0  0.31924723737E+02  0.88510291953E+01 -0.25855546842E+02  0.42024254973E+02  0.00000000000E+00 0. -1.
        -12    1    3    3    0    0 -0.44886188969E+01 -0.44351957435E+02 -0.14503000326E+03  0.15172654901E+03  0.00000000000E+00 0.  1.
          5    1    4    4  501    0  0.31224729295E+02  0.14972025792E+02 -0.17594496567E+02  0.39066404816E+02  0.41800000000E+01 0. -1.
         -5    1    4    4    0  501 -0.85441161114E+02  0.20803580884E+00  0.60096125098E+02  0.10454306263E+03  0.41800000000E+01 0. -1.
</event>
<event>
11    1  0.6763327E-009  0.1412994E+03  0.7561462E-02  0.1106116E+00
         22   -1    0    0    0    0  0.00000000000E+00  0.00000000000E+00  0.24907603317E+03  0.24907603317E+03  0.00000000000E+00 0.  1.
         22   -1    0    0    0    0 -0.00000000000E+00 -0.00000000000E+00 -0.77034437133E+03  0.77034437133E+03  0.00000000000E+00 0. -1.
        -24    2    1    2    0    0  0.63140188082E+01  0.35341334666E+02 -0.36995299931E+03  0.38068503216E+03  0.82261748349E+02 0.  0.
         25    2    1    2    0    0  0.78902089445E+01  0.29933328148E+02 -0.37218117276E+03  0.39385854759E+03  0.12508985021E+03 0.  0.
         24    2    1    2    0    0 -0.14204227753E+02 -0.65274662814E+02  0.22086583391E+03  0.24487682475E+03  0.81978052042E+02 0.  0.
        -13    1    5    5    0    0 -0.18535486967E+02 -0.10489433060E+02  0.16550745436E+03  0.16687213648E+03  0.00000000000E+00 0.  1.
         14    1    5    5    0    0  0.43312592140E+01 -0.54785229755E+02  0.55358379551E+02  0.78004688271E+02  0.00000000000E+00 0. -1.
         11    1    3    3    0    0  0.19334856689E+02 -0.22784634801E+02 -0.10920577059E+03  0.11322047781E+03  0.00000000000E+00 0. -1.
        -12    1    3    3    0    0 -0.13020837881E+02  0.58125969467E+02 -0.26074722873E+03  0.26746455435E+03  0.00000000000E+00 0.  1.
          5    1    4    4  501    0  0.65208621029E+00  0.19418803021E+02 -0.37849514302E+03  0.37901657064E+03  0.41800000000E+01 0.  1.
         -5    1    4    4    0  501  0.72381227342E+01  0.10514525128E+02  0.63139702657E+01  0.14841976954E+02  0.41800000000E+01 0.  1.
</event>
<event>
11    1  0.6763327E-009  0.1526009E+03  0.7561462E-02  0.1094250E+00
         22   -1    0    0    0    0  0.00000000000E+00  0.00000000000E+00  0.57759473438E+02  0.57759473438E+02  0.00000000000E+00 0.  1.
         22   -1    0    0    0    0 -0.00000000000E+00 -0.00000000000E+00 -0.93198985121E+03  0.93198985121E+03  0.00000000000E+00 0.  1.
        -24    2    1    2    0    0 -0.78201491118E+01 -0.17772630835E+02 -0.52500695044E+03  0.53113080785E+03  0.78042398059E+02 0.  0.
         25    2    1    2    0    0  0.19874050740E+02  0.91957815326E+02 -0.99298173769E+02  0.18536909248E+03  0.12510138065E+03 0.  0.
         24    2    1    2    0    0 -0.12053901628E+02 -0.74185184491E+02 -0.24992525356E+03  0.27324942432E+03  0.80956021280E+02 0.  0.
        -13    1    5    5    0    0 -0.13626472615E+02 -0.83000007119E+02 -0.14264929363E+03  0.16560043149E+03  0.00000000000E+00 0.  1.
         14    1    5    5    0    0  0.15725709868E+01  0.88148226278E+01 -0.10727595993E+03  0.10764899283E+03  0.00000000000E+00 0. -1.
         13    1    3    3    0    0  0.29592550497E+01  0.14510299675E+02 -0.19532036392E+02  0.24511353139E+02  0.00000000000E+00 0. -1.
        -14    1    3    3    0    0 -0.10779404162E+02 -0.32282930510E+02 -0.50547491405E+03  0.50661945471E+03  0.00000000000E+00 0.  1.
          5    1    4    4  501    0 -0.40392541511E+01 -0.26931334108E+02  0.15424482421E+01  0.27594634941E+02  0.41800000000E+01 0. -1.
         -5    1    4    4    0  501  0.23913304891E+02  0.11888914943E+03 -0.10084062201E+03  0.15777445754E+03  0.41800000000E+01 0. -1.
</event>
<event>
11    1  0.6763327E-009  0.1348740E+03  0.7561462E-02  0.1113421E+00
         22   -1    0    0    0    0  0.00000000000E+00  0.00000000000E+00  0.10162794795E+04  0.10162794795E+04  0.00000000000E+00 0.  1.
         22   -1    0    0    0    0 -0.00000000000E+00 -0.00000000000E+00 -0.59073503204E+03  0.59073503204E+03  0.00000000000E+00 0.  1.
        -24    2    1    2    0    0 -0.73662120189E+01  0.20073660012E+02 -0.52709412773E+03  0.53367355650E+03  0.80759101758E+02 0.  0.
         25    2    1    2    0    0 -0.43380677491E+02 -0.19163467471E+02  0.19412058889E+02  0.13517473070E+03  0.12508500360E+03 0.  0.
         24    2    1    2    0    0  0.50746889510E+02 -0.91019254086E+00  0.93322651626E+03  0.93816622429E+03  0.81658180867E+02 0.  0.
        -13    1    5    5    0    0  0.57933801864E+02  0.13606648097E+01  0.34080214455E+03  0.34569390873E+03  0.00000000000E+00 0.  1.
         14    1    5    5    0    0 -0.71869123538E+01 -0.22708573506E+01  0.59242437171E+03  0.59247231555E+03  0.00000000000E+00 0. -1.
         13    1    3    3    0    0 -0.63798191007E+01  0.35859731601E+02 -0.10239627422E+03  0.10868127445E+03  0.00000000000E+00 0. -1.
        -14    1    3    3    0    0 -0.98639291822E+00 -0.15786071589E+02 -0.42469785350E+03  0.42499228205E+03  0.00000000000E+00 0.  1.
          5    1    4    4  501    0  0.14625639725E+02  0.34313957818E+02 -0.24463382801E+02  0.44802751440E+02  0.41800000000E+01 0.  1.
         -5    1    4    4    0  501 -0.58006317216E+02 -0.53477425289E+02  0.43875441690E+02  0.90371979264E+02  0.41800000000E+01 0.  1.
</event>
<event>
11    1  0.6763327E-009  0.1714366E+03  0.7561462E-02  0.1076788E+00
         22   -1    0    0    0    0  0.00000000000E+00  0.00000000000E+00  0.51920031257E+03  0.51920031257E+03  0.00000000000E+00 0. -1.
         22   -1    0    0    0    0 -0.00000000000E+00 -0.00000000000E+00 -0.16907764985E+04  0.16907764985E+04  0.00000000000E+00 0. -1.
         24    2    1    2    0    0  0.33935854384E+02 -0.89250269555E+01 -0.15829150207E+04  0.15853482760E+04  0.80485370901E+02 0.  0.
         25    2    1    2    0    0 -0.11065868536E+03  0.93233989309E+02  0.13315508659E+01  0.19127563947E+03  0.12508667323E+03 0.  0.
        -24    2    1    2    0    0  0.76722830978E+02 -0.84308962354E+02  0.41000728389E+03  0.43335289568E+03  0.81819101864E+02 0.  0.
        -13    1    3    3    0    0  0.51089684815E+02  0.16761026766E+02 -0.11933393294E+04  0.11945500589E+04  0.00000000000E+00 0.  1.
         14    1    3    3    0    0 -0.17153830431E+02 -0.25686053721E+02 -0.38957569128E+03  0.39079821710E+03  0.00000000000E+00 0. -1.
         11    1    5    5    0    0  0.30860172674E+02 -0.88199308311E+02  0.25148653987E+03  0.26828519896E+03  0.00000000000E+00 0. -1.
        -12    1    5    5    0    0  0.45862658304E+02  0.38903459574E+01  0.15852074402E+03  0.16506769673E+03  0.00000000000E+00 0.  1.
          5    1    4    4  501    0 -0.96971996101E+02  0.10530073608E+03  0.39676758458E+02  0.14860528459E+03  0.41800000000E+01 0. -1.
         -5    1    4    4    0  501 -0.13686689261E+02 -0.12066746770E+02 -0.38345207592E+02  0.42670354883E+02  0.41800000000E+01 0. -1.
</event>
<event>
11    1  0.6763327E-009  0.1305312E+03  0.7561462E-02  0.1118618E+00
         22   -1    0    0    0    0  0.00000000000E+00  0.00000000000E+00  0.16238586895E+04  0.16238586895E+04  0.00000000000E+00 0.  1.
         22   -1    0    0    0    0 -0.00000000000E+00 -0.00000000000E+00 -0.37007296133E+03  0.37007296133E+03  0.00000000000E+00 0.  1.
         24    2    1    2    0    0 -0.35565552495E+02 -0.12717136662E+02 -0.32304768907E+03  0.33502783958E+03  0.80356765683E+02 0.  0.
         25    2    1    2    0    0  0.26135021854E+02  0.12487481290E+02  0.62079648357E+02  0.14262451438E+03  0.12509553472E+03 0.  0.
        -24    2    1    2    0    0  0.94305306406E+01  0.22965537239E+00  0.15147537689E+04  0.15162792969E+04  0.67341949201E+02 0.  0.
        -13    1    3    3    0    0 -0.41764423331E+02 -0.33912030007E+02 -0.29207837365E+03  0.29699169886E+03  0.00000000000E+00 0.  1.
         14    1    3    3    0    0  0.61988708366E+01  0.21194893345E+02 -0.30969315419E+02  0.38036140723E+02  0.00000000000E+00 0. -1.
         13    1    5    5    0    0  0.54138901742E+01 -0.30542093540E+02  0.44712885408E+03  0.44820346031E+03  0.00000000000E+00 0. -1.
        -14    1    5    5    0    0  0.40166404663E+01  0.30771748912E+02  0.10676249148E+04  0.10680758365E+04  0.00000000000E+00 0.  1.
          5    1    4    4  501    0  0.58393054311E+02 -0.25824082980E+02  0.66362086290E+02  0.92184765283E+02  0.41800000000E+01 0.  1.
         -5    1    4    4    0  501 -0.32258032456E+02  0.38311564270E+02 -0.42824379336E+01  0.50439749102E+02  0.41800000000E+01 0.  1.
</event>
<event>
11    1  0.6763327E-009  0.1298586E+03  0.7561462E-02  0.1119443E+00
         22   -1    0    0    0    0  0.00000000000E+00  0.00000000000E+00  0.27500081248E+03  0.27500081248E+03  0.00000000000E+00 0. -1.
         22   -1    0    0    0    0 -0.00000000000E+00 -0.00000000000E+00 -0.37258281575E+03  0.37258281575E+03  0.00000000000E+00 0.  1.
        -24    2    1    2    0    0 -0.40468450192E+00 -0.37929850016E+02 -0.28114887622E+03  0.29487541881E+03  0.80423782101E+02 0.  0.
         25    2    1    2    0    0  0.20140623431E+02  0.10086381666E+02 -0.21842745924E+02  0.12896504682E+03  0.12508995941E+03 0.  0.
         24    2    1    2    0    0 -0.19735938929E+02  0.27843468351E+02  0.20540961888E+03  0.22374316259E+03  0.81872616070E+02 0.  0.
        -13    1    5    5    0    0  0.73330821201E+01 -0.26612778348E+02  0.72665045648E+02  0.77731736915E+02  0.00000000000E+00 0.  1.
         14    1    5    5    0    0 -0.27069021049E+02  0.54456246699E+02  0.13274457323E+03  0.14601142567E+03  0.00000000000E+00 0. -1.
         13    1    3    3    0    0  0.14731414622E+02 -0.59094435334E+02 -0.16589897846E+03  0.17672475185E+03  0.00000000000E+00 0. -1.
        -14    1    3    3    0    0 -0.15136099124E+02  0.21164585318E+02 -0.11524989776E+03  0.11815066696E+03  0.00000000000E+00 0.  1.
          5    1    4    4  501    0  0.49627423612E+02  0.44669771223E+02  0.17007858783E+02  0.69029046754E+02  0.41800000000E+01 0.  1.
         -5    1    4    4    0  501 -0.29486800181E+02 -0.34583389557E+02 -0.38850604707E+02  0.59936000069E+02  0.41800000000E+01 0.  1.
</event>
<event>
11    1  0.6763327E-009  0.2989171E+03  0.7561462E-02  0.1000651E+00
         22   -1    0    0    0    0  0.00000000000E+00  0.00000000000E+00  0.12586044269E+04  0.12586044269E+04  0.00000000000E+00 0. -1.
         22   -1    0    0    0    0 -0.00000000000E+00 -0.00000000000E+00 -0.43448019370E+03  0.43448019370E+03  0.00000000000E+00 0. -1.
        -24    2    1    2    0    0 -0.19429654009E+03 -0.18953244854E+03 -0.17550155512E+03  0.33274169189E+03  0.79009766059E+02 0.  0.
         25    2    1    2    0    0  0.17953515470E+03  0.20442060924E+03 -0.53350299590E+02  0.30416286754E+03  0.12509251883E+03 0.  0.
         24    2    1    2    0    0  0.14761385386E+02 -0.14888160697E+02  0.10529760879E+04  0.10561800611E+04  0.79486628298E+02 0.  0.
        -11    1    5    5    0    0  0.46208441563E+02 -0.14026096755E+02  0.50566004587E+03  0.50796066132E+03  0.00000000000E+00 0.  1.
         12    1    5    5    0    0 -0.31447056177E+02 -0.86206394128E+00  0.54731604202E+03  0.54821939982E+03  0.00000000000E+00 0. -1.
         11    1    3    3    0    0 -0.15209966607E+03 -0.15622186675E+03 -0.17401002534E+03  0.27896069435E+03  0.00000000000E+00 0. -1.
        -12    1    3    3    0    0 -0.42196874014E+02 -0.33310581787E+02 -0.14915297776E+01  0.53780997542E+02  0.00000000000E+00 0.  1.
          5    1    4    4  501    0  0.12852504933E+03  0.68735981756E+02 -0.62971142013E+02  0.15882745549E+03  0.41800000000E+01 0. -1.
         -5    1    4    4    0  501  0.51010105377E+02  0.13568462748E+03  0.96208424231E+01  0.14533541204E+03  0.41800000000E+01 0. -1.
</event>
<event>
11    1  0.6763327E-009  0.1466280E+03  0.7561462E-02  0.1100375E+00
         22   -1    0    0    0    0  0.00000000000E+00  0.00000000000E+00  0.65604615264E+03  0.65604615264E+03  0.00000000000E+00 0.  1.
         22   -1    0    0    0    0 -0.00000000000E+00 -0.00000000000E+00 -0.32857714027E+03  0.32857714027E+03  0.00000000000E+00 0. -1.
        -24    2    1    2    0    0  0.12213254204E+02  0.27384325635E+02 -0.29421500205E+03  0.30823775657E+03  0.86884879461E+02 0.  0.
         25    2    1    2    0    0 -0.48106690702E+02 -0.83368575897E+02  0.32505534677E+03  0.36135051444E+03  0.12509453501E+03 0.  0.
         24    2    1    2    0    0  0.35893436498E+02  0.55984250262E+02  0.29662866765E+03  0.31503502189E+03  0.82679643703E+02 0.  0.
        -13    1    5    5    0    0  0.28032132529E+02  0.76866153826E+02  0.25498953373E+03  0.26779445172E+03  0.00000000000E+00 0.  1.
         14    1    5    5    0    0  0.78613039685E+01 -0.20881903563E+02  0.41639133918E+02  0.47240570169E+02  0.00000000000E+00 0. -1.
         13    1    3    3    0    0  0.58241831778E+01  0.47256482581E+02 -0.27733525120E+03  0.28139285316E+03  0.00000000000E+00 0. -1.
        -14    1    3    3    0    0  0.63890710264E+01 -0.19872156946E+02 -0.16879750852E+02  0.26844903410E+02  0.00000000000E+00 0.  1.
          5    1    4    4  501    0 -0.47835161496E+02 -0.11334710630E+03  0.28993926091E+03  0.31498891504E+03  0.41800000000E+01 0. -1.
         -5    1    4    4    0  501 -0.27152920612E+00  0.29978530404E+02  0.35116085861E+02  0.46361599406E+02  0.41800000000E+01 0. -1.
</event>
<event>
11    1  0.6763327E-009  0.1531908E+03  0.7561462E-02  0.1093662E+00
         22   -1    0    0    0    0  0.00000000000E+00  0.00000000000E+00  0.33775845748E+03  0.33775845748E+03  0.00000000000E+00 0. -1.
         22   -1    0    0    0    0 -0.00000000000E+00 -0.00000000000E+00 -0.82516364398E+03  0.82516364398E+03  0.00000000000E+00 0.  1.
        -24    2    1    2    0    0  0.86166280610E+02 -0.22253089176E+02 -0.70446576033E+03  0.71715615672E+03  0.10060376607E+03 0.  0.
         25    2    1    2    0    0 -0.74702259025E+02  0.43992628430E+02 -0.54220659284E+02  0.16156443123E+03  0.12508959463E+03 0.  0.
         24    2    1    2    0    0 -0.11464021585E+02 -0.21739539254E+02  0.27128123311E+03  0.28420151351E+03  0.81073802716E+02 0.  0.
        -13    1    5    5    0    0 -0.28789520682E+02  0.21585229946E+02  0.87963072366E+02  0.95038206807E+02  0.00000000000E+00 0.  1.
         14    1    5    5    0    0  0.17325499097E+02 -0.43324769200E+02  0.18331816074E+03  0.18916330670E+03  0.00000000000E+00 0. -1.
         11    1    3    3    0    0  0.18279041337E+02 -0.45596662186E+02 -0.14482029945E+03  0.15292513883E+03  0.00000000000E+00 0. -1.
        -12    1    3    3    0    0  0.67887239273E+02  0.23343573010E+02 -0.55964546088E+03  0.56423101789E+03  0.00000000000E+00 0.  1.
          5    1    4    4  501    0 -0.54493982423E+02 -0.35644903429E+02 -0.43918677043E+02  0.78654153445E+02  0.41800000000E+01 0.  1.
         -5    1    4    4    0  501 -0.20208276602E+02  0.79637531859E+02 -0.10301982240E+02  0.82910277782E+02  0.41800000000E+01 0.  1.
</event>
<event>
11    1  0.6763327E-009  0.1426361E+03  0.7561462E-02  0.1104650E+00
         22   -1    0    0    0    0  0.00000000000E+00  0.00000000000E+00  0.15110334505E+03  0.15110334505E+03  0.00000000000E+00 0.  1.
         22   -1    0    0    0    0 -0.00000000000E+00 -0.00000000000E+00 -0.41351178105E+03  0.41351178105E+03  0.00000000000E+00 0.  1.
         24    2    1    2    0    0 -0.73459847127E+02 -0.70290673991E+01 -0.23178838224E+03  0.25738799775E+03  0.84124730701E+02 0.  0.
         25    2    1    2    0    0 -0.79041663120E+01  0.11142501854E+01 -0.11084230442E+03  0.16732074641E+03  0.12508596377E+03 0.  0.
        -24    2    1    2    0    0  0.81364013439E+02  0.59148172136E+01  0.80222250656E+02  0.13990638195E+03  0.80517690377E+02 0.  0.
        -11    1    3    3    0    0 -0.43001088883E+02 -0.43496010911E+02 -0.16007820610E+03  0.17136519098E+03  0.00000000000E+00 0.  1.
         12    1    3    3    0    0 -0.30458758244E+02  0.36466943512E+02 -0.71710176133E+02  0.86022806766E+02  0.00000000000E+00 0. -1.
         11    1    5    5    0    0  0.35605056615E+02 -0.33983108535E+02  0.55964800800E+02  0.74529394543E+02  0.00000000000E+00 0. -1.
        -12    1    5    5    0    0  0.45758956823E+02  0.39897925748E+02  0.24257449856E+02  0.65376987405E+02  0.00000000000E+00 0.  1.
          5    1    4    4  501    0  0.49798514684E+02  0.31439784699E+02 -0.42241095612E+02  0.72595693296E+02  0.41800000000E+01 0.  1.
         -5    1    4    4    0  501 -0.57702680996E+02 -0.30325534514E+02 -0.68601208807E+02  0.94725053114E+02  0.41800000000E+01 0.  1.
</event>
<event>
11    1  0.6763327E-009  0.1673028E+03  0.7561462E-02  0.1080403E+00
         22   -1    0    0    0    0  0.00000000000E+00  0.00000000000E+00  0.46300934467E+03  0.46300934467E+03  0.00000000000E+00 0.  1.
         22   -1    0    0    0    0 -0.00000000000E+00 -0.00000000000E+00 -0.14747120199E+04  0.14747120199E+04  0.00000000000E+00 0.  1.
        -24    2    1    2    0    0  0.47683601630E+00  0.11130330623E+03 -0.14103428639E+04  0.14169687831E+04  0.79654787383E+02 0.  0.
         25    2    1    2    0    0  0.30489437476E+02 -0.10347401985E+03  0.67199874124E+02  0.17832487220E+03  0.12508980127E+03 0.  0.
         24    2    1    2    0    0 -0.30966273493E+02 -0.78292863814E+01  0.33144031452E+03  0.34242770931E+03  0.79898974952E+02 0.  0.
        -13    1    5    5    0    0  0.73785295440E+01  0.34089806498E+01  0.26337557483E+03  0.26350096255E+03  0.00000000000E+00 0.  1.
         14    1    5    5    0    0 -0.38344803037E+02 -0.11238267031E+02  0.68064739680E+02  0.78926746756E+02  0.00000000000E+00 0. -1.
         13    1    3    3    0    0  0.26463865177E+02  0.38875997792E+02 -0.27260873754E+03  0.27663550594E+03  0.00000000000E+00 0. -1.
        -14    1    3    3    0    0 -0.25987029161E+02  0.72427308439E+02 -0.11377341264E+04  0.11403332771E+04  0.00000000000E+00 0.  1.
          5    1    4    4  501    0 -0.35717387427E+02 -0.55996472185E+02  0.70149006046E+02  0.96693805960E+02  0.41800000000E+01 0.  1.
         -5    1    4    4    0  501  0.66206824904E+02 -0.47477547664E+02 -0.29491319220E+01  0.81631066238E+02  0.41800000000E+01 0.  1.
</event>
<event>
11    1  0.6763327E-009  0.5095178E+03  0.7561462E-02  0.9372501E-01
         22   -1    0    0    0    0  0.00000000000E+00  0.00000000000E+00  0.31134577423E+03  0.31134577423E+03  0.00000000000E+00 0. -1.
         22   -1    0    0    0    0 -0.00000000000E+00 -0.00000000000E+00 -0.20103557818E+04  0.20103557818E+04  0.00000000000E+00 0. -1.
        -24    2    1    2    0    0 -0.58763842321E+02  0.65386290972E+01 -0.75998455803E+03  0.76647989136E+03  0.80118366077E+02 0.  0.
         25    2    1    2    0    0 -0.33159980164E+03 -0.32292495803E+03 -0.92979127888E+03  0.10461348737E+04  0.12508954653E+03 0.  0.
         24    2    1    2    0    0  0.39036364396E+03  0.31638632893E+03 -0.92341706168E+01  0.50908679097E+03  0.81240428157E+02 0.  0.
        -11    1    5    5    0    0  0.35785147341E+02  0.63845268539E+02  0.65403220271E+01  0.73481772551E+02  0.00000000000E+00 0.  1.
         12    1    5    5    0    0  0.35457849662E+03  0.25254106039E+03 -0.15774492644E+02  0.43560501841E+03  0.00000000000E+00 0. -1.
         13    1    3    3    0    0 -0.49401211578E+02 -0.23550026352E+02 -0.64302489720E+03  0.64534959663E+03  0.00000000000E+00 0. -1.
        -14    1    3    3    0    0 -0.93626307428E+01  0.30088655449E+02 -0.11695966082E+03  0.12113029473E+03  0.00000000000E+00 0.  1.
          5    1    4    4  501    0 -0.27615858222E+03 -0.29466446955E+03 -0.87253293881E+03  0.96146862344E+03  0.41800000000E+01 0. -1.
         -5    1    4    4    0  501 -0.55441219417E+02 -0.28260488481E+02 -0.57258340064E+02  0.84666250221E+02  0.41800000000E+01 0. -1.
</event>
<event>
11    1  0.6763327E-009  0.1358260E+03  0.7561462E-02  0.1112311E+00
         22   -1    0    0    0    0  0.00000000000E+00  0.00000000000E+00  0.13637290275E+03  0.13637290275E+03  0.00000000000E+00 0. -1.
         22   -1    0    0    0    0 -0.00000000000E+00 -0.00000000000E+00 -0.86942412869E+03  0.86942412869E+03  0.00000000000E+00 0. -1.
        -24    2    1    2    0    0  0.48617361548E+01 -0.32250970040E+02 -0.67246871262E+03  0.67804825403E+03  0.80445657392E+02 0.  0.
         25    2    1    2    0    0  0.52635599505E+01  0.80626907823E+02 -0.13980906623E+03  0.20426133727E+03  0.12509082929E+03 0.  0.
         24    2    1    2    0    0 -0.10125296105E+02 -0.48375937783E+02  0.79226552915E+02  0.12348744014E+03  0.80805619908E+02 0.  0.
        -13    1    5    5    0    0 -0.98456358188E+01  0.18645111595E+02  0.19185245133E+01  0.21172091710E+02  0.00000000000E+00 0.  1.
         14    1    5    5    0    0 -0.27966028648E+00 -0.67021049378E+02  0.77308028402E+02  0.10231534843E+03  0.00000000000E+00 0. -1.
         13    1    3    3    0    0 -0.20526435879E+02 -0.49974514603E+02 -0.49022835907E+03  0.49319634094E+03  0.00000000000E+00 0. -1.
        -14    1    3    3    0    0  0.25388172034E+02  0.17723544564E+02 -0.18224035354E+03  0.18485191308E+03  0.00000000000E+00 0.  1.
          5    1    4    4  501    0  0.36995226064E+02 -0.20600558990E+02 -0.44863100948E+02  0.61832030606E+02  0.41800000000E+01 0.  1.
         -5    1    4    4    0  501 -0.31731666113E+02  0.10122746681E+03 -0.94945965287E+02  0.14242930666E+03  0.41800000000E+01 0.  1.
</event>
<event>
11    1  0.6763327E-009  0.1300159E+03  0.7561462E-02  0.1119249E+00
         22   -1    0    0    0    0  0.00000000000E+00  0.00000000000E+00  0.13373553503E+04  0.13373553503E+04  0.00000000000E+00 0. -1.
         22   -1    0    0    0    0 -0.00000000000E+00 -0.00000000000E+00 -0.32335145293E+03  0.32335145293E+03  0.00000000000E+00 0. -1.
        -24    2    1    2    0    0 -0.15965512026E+02 -0.84492298304E+01 -0.29220832955E+03  0.30349634861E+03  0.79987740932E+02 0.  0.
         25    2    1    2    0    0 -0.11050931900E+02 -0.16199748011E+02  0.14417776634E+03  0.19188448743E+03  0.12509145966E+03 0.  0.
         24    2    1    2    0    0  0.27016443926E+02  0.24648977842E+02  0.11620344606E+04  0.11653259672E+04  0.79517682708E+02 0.  0.
        -11    1    5    5    0    0  0.15341170706E+02 -0.25812654337E+02  0.24556012599E+03  0.24738920777E+03  0.00000000000E+00 0.  1.
         12    1    5    5    0    0  0.11675273219E+02  0.50461632179E+02  0.91647433459E+03  0.91793675942E+03  0.00000000000E+00 0. -1.
         13    1    3    3    0    0  0.19572399709E+02  0.13754298919E+02 -0.20867578293E+03  0.21004247654E+03  0.00000000000E+00 0. -1.
        -14    1    3    3    0    0 -0.35537911735E+02 -0.22203528749E+02 -0.83532546619E+02  0.93453872066E+02  0.00000000000E+00 0.  1.
          5    1    4    4  501    0 -0.31145365834E+01  0.11553533360E+02  0.15876716498E+03  0.15927231255E+03  0.41800000000E+01 0.  1.
         -5    1    4    4    0  501 -0.79363953163E+01 -0.27753281371E+02 -0.14589398642E+02  0.32612174877E+02  0.41800000000E+01 0.  1.
</event>
<event>
11    1  0.6763327E-009  0.2285366E+03  0.7561462E-02  0.1035998E+00
         22   -1    0    0    0    0  0.00000000000E+00  0.00000000000E+00  0.16756761394E+03  0.16756761394E+03  0.00000000000E+00 0. -1.
         22   -1    0    0    0    0 -0.00000000000E+00 -0.00000000000E+00 -0.12713600752E+04  0.12713600752E+04  0.00000000000E+00 0. -1.
         24    2    1    2    0    0 -0.12691303900E+03 -0.11210806269E+03 -0.56759830917E+03  0.59771848692E+03  0.80152428842E+02 0.  0.
         25    2    1    2    0    0  0.13727488679E+03  0.18777986189E+03 -0.63624555980E+03  0.68888531358E+03  0.12509553081E+03 0.  0.
        -24    2    1    2    0    0 -0.10361847788E+02 -0.75671799204E+02  0.10005140772E+03  0.15232388864E+03  0.85782829160E+02 0.  0.
        -13    1    3    3    0    0 -0.11548695887E+03 -0.12196975341E+03 -0.47334239352E+03  0.50226176434E+03  0.00000000000E+00 0.  1.
         14    1    3    3    0    0 -0.11426080137E+02  0.98616907254E+01 -0.94255915644E+02  0.95456722577E+02  0.00000000000E+00 0. -1.
         11    1    5    5    0    0  0.18285912436E+02 -0.83027296978E+02  0.78633353358E+02  0.11580635085E+03  0.00000000000E+00 0. -1.
        -12    1    5    5    0    0 -0.28647760224E+02  0.73554977738E+01  0.21418054360E+02  0.36517537785E+02  0.00000000000E+00 0.  1.
          5    1    4    4  501    0  0.15747336964E+03  0.13941979181E+03 -0.48135354468E+03  0.52531366618E+03  0.41800000000E+01 0. -1.
         -5    1    4    4    0  501 -0.20198482847E+02  0.48360070081E+02 -0.15489201512E+03  0.16357164741E+03  0.41800000000E+01 0. -1.
</event>
<event>
11    1  0.6763327E-009  0.1567516E+03  0.7561462E-02  0.1090173E+00
         22   -1    0    0    0    0  0.00000000000E+00  0.00000000000E+00  0.53017054976E+03  0.53017054976E+03  0.00000000000E+00 0. -1.
         22   -1    0    0    0    0 -0.00000000000E+00 -0.00000000000E+00 -0.83761341065E+03  0.83761341065E+03  0.00000000000E+00 0.  1.
        -24    2    1    2    0    0 -0.31481292862E+02  0.14965086733E+02 -0.43719801344E+03  0.44214500304E+03  0.55991741675E+02 0.  0.
         25    2    1    2    0    0 -0.13569125827E+02 -0.98029944981E+02 -0.37426504155E+03  0.40683676487E+03  0.12509132918E+03 0.  0.
         24    2    1    2    0    0  0.45050418689E+02  0.83064858248E+02  0.50402019409E+03  0.51880219250E+03  0.78676858039E+02 0.  0.
        -13    1    5    5    0    0 -0.14912997242E+02  0.52892424023E+01  0.23378040738E+02  0.28229529941E+02  0.00000000000E+00 0.  1.
         14    1    5    5    0    0  0.59963415931E+02  0.77775615846E+02  0.48064215336E+03  0.49057266256E+03  0.00000000000E+00 0. -1.
         13    1    3    3    0    0 -0.39800104937E+02  0.14395924935E+02 -0.18380636501E+03  0.18861619980E+03  0.00000000000E+00 0. -1.
        -14    1    3    3    0    0  0.83188120752E+01  0.56916179893E+00 -0.25339164843E+03  0.25352880324E+03  0.00000000000E+00 0.  1.
          5    1    4    4  501    0  0.40295118375E+02 -0.49653152712E+02 -0.73780437367E+02  0.97724907148E+02  0.41800000000E+01 0. -1.
         -5    1    4    4    0  501 -0.53864244202E+02 -0.48376792270E+02 -0.30048460418E+03  0.30911185772E+03  0.41800000000E+01 0. -1.
</event>
<event>
11    1  0.6763327E-009  0.1655079E+03  0.7561462E-02  0.1082008E+00
         22   -1    0    0    0    0  0.00000000000E+00  0.00000000000E+00  0.21389991700E+04  0.21389991700E+04  0.00000000000E+00 0. -1.
         22   -1    0    0    0    0 -0.00000000000E+00 -0.00000000000E+00 -0.35390054650E+03  0.35390054650E+03  0.00000000000E+00 0. -1.
        -24    2    1    2    0    0  0.37457502597E+02  0.46356796743E+02 -0.30600866749E+03  0.32206286817E+03  0.80815650521E+02 0.  0.
         25    2    1    2    0    0 -0.14048543127E+03 -0.17862547069E+02  0.20046929269E+03  0.27549501607E+03  0.12511730327E+03 0.  0.
         24    2    1    2    0    0  0.10302792868E+03 -0.28494249674E+02  0.18906379983E+04  0.18953418322E+04  0.79887071321E+02 0.  0.
        -11    1    5    5    0    0  0.16229975304E+02 -0.14122011567E+01  0.52804118053E+02  0.55260123904E+02  0.00000000000E+00 0.  1.
         12    1    5    5    0    0  0.86797953371E+02 -0.27082048518E+02  0.18378338802E+04  0.18400817083E+04  0.00000000000E+00 0. -1.
         11    1    3    3    0    0  0.45027509002E+02 -0.63722283877E+01 -0.11217499804E+03  0.12104260426E+03  0.00000000000E+00 0. -1.
        -12    1    3    3    0    0 -0.75700064049E+01  0.52729025131E+02 -0.19383366945E+03  0.20102026391E+03  0.00000000000E+00 0.  1.
          5    1    4    4  501    0  0.16570053722E+02 -0.25944409839E+02  0.25422315828E+02  0.40142815351E+02  0.41800000000E+01 0.  1.
         -5    1    4    4    0  501 -0.15705548499E+03  0.80818627706E+01  0.17504697686E+03  0.23535220072E+03  0.41800000000E+01 0.  1.
</event>
<event>
11    1  0.8089909E-009  0.1698548E+03  0.7561462E-02  0.1078158E+00
         22   -1    0    0    0    0  0.00000000000E+00  0.00000000000E+00  0.83855693453E+03  0.83855693453E+03  0.00000000000E+00 0. -1.
         22   -1    0    0    0    0 -0.00000000000E+00 -0.00000000000E+00 -0.48505310622E+03  0.48505310622E+03  0.00000000000E+00 0.  1.
         24    2    1    2    0    0  0.94287589934E+02 -0.56396671607E+02 -0.37458690498E+03  0.39892351049E+03  0.82182015396E+02 0.  0.
         25    2    1    2    0    0 -0.11303139647E+03  0.12994203260E+03  0.26635717211E+02  0.21451705454E+03  0.12508827615E+03 0.  0.
        -24    2    1    2    0    0  0.18743806540E+02 -0.73545360996E+02  0.70145501608E+03  0.71016947571E+03  0.80878268070E+02 0.  0.
        -11    1    3    3    0    0  0.25926121138E+02 -0.13449334368E+02 -0.24153083131E+03  0.24329034265E+03  0.00000000000E+00 0.  1.
         12    1    3    3    0    0  0.68361468796E+02 -0.42947337239E+02 -0.13305607367E+03  0.15563316784E+03  0.00000000000E+00 0. -1.
         13    1    5    5    0    0  0.22313180945E+02 -0.74652722615E+02  0.70207144056E+03  0.70638177687E+03  0.00000000000E+00 0. -1.
        -14    1    5    5    0    0 -0.35693744055E+01  0.11073616189E+01 -0.61642448379E+00  0.37876988457E+01  0.00000000000E+00 0.  1.
          5    1    4    4  501    0 -0.80437638941E+02  0.11339355114E+03  0.71585318528E+02  0.15642966927E+03  0.41800000000E+01 0.  1.
         -5    1    4    4    0  501 -0.32593757533E+02  0.16548481458E+02 -0.44949601317E+02  0.58087385268E+02  0.41800000000E+01 0.  1.
</event>
<event>
11    1  0.6763327E-009  0.1450480E+03  0.7561462E-02  0.1102049E+00
         22   -1    0    0    0    0  0.00000000000E+00  0.00000000000E+00  0.17200411240E+04  0.17200411240E+04  0.00000000000E+00 0. -1.
         22   -1    0    0    0    0 -0.00000000000E+00 -0.00000000000E+00 -0.25354040339E+03  0.25354040339E+03  0.00000000000E+00 0.  1.
         24    2    1    2    0    0  0.58294045869E+02 -0.68023371179E+02 -0.17126800761E+03  0.20924984266E+03  0.80171013527E+02 0.  0.
         25    2    1    2    0    0 -0.15107176234E+02  0.10828814755E+02  0.34912045256E+01  0.12651629635E+03  0.12509474302E+03 0.  0.
        -24    2    1    2    0    0 -0.43186869635E+02  0.57194556424E+02  0.16342775237E+04  0.16378153884E+04  0.80248980935E+02 0.  0.
        -13    1    3    3    0    0  0.36467691714E+02 -0.59240262591E+02 -0.17218294100E+03  0.18570478298E+03  0.00000000000E+00 0.  1.
         14    1    3    3    0    0  0.21826354155E+02 -0.87831085878E+01  0.91493338369E+00  0.23545059678E+02  0.00000000000E+00 0. -1.
         13    1    5    5    0    0 -0.58942450912E+01  0.66073798335E+02  0.12070319402E+04  0.12088534210E+04  0.00000000000E+00 0. -1.
        -14    1    5    5    0    0 -0.37292624544E+02 -0.88792419112E+01  0.42724558350E+03  0.42896196731E+03  0.00000000000E+00 0.  1.
          5    1    4    4  501    0 -0.56810025115E+02  0.44436565260E+02  0.75593236622E+01  0.72640230313E+02  0.41800000000E+01 0. -1.
         -5    1    4    4    0  501  0.41702848881E+02 -0.33607750505E+02 -0.40681191366E+01  0.53876066042E+02  0.41800000000E+01 0. -1.
</event>
<event>
11    1  0.6763327E-009  0.1372129E+03  0.7561462E-02  0.1110711E+00
         22   -1    0    0    0    0  0.00000000000E+00  0.00000000000E+00  0.13112054919E+04  0.13112054919E+04  0.00000000000E+00 0. -1.
         22   -1    0    0    0    0 -0.00000000000E+00 -0.00000000000E+00 -0.33800040766E+03  0.33800040766E+03  0.00000000000E+00 0. -1.
        -24    2    1    2    0    0 -0.54438391606E+02  0.15513518244E+02 -0.32010105933E+03  0.33497016746E+03  0.80846256415E+02 0.  0.
         25    2    1    2    0    0  0.31846416270E+02 -0.29740982221E+02  0.56289107594E+03  0.57826818982E+03  0.12509602607E+03 0.  0.
         24    2    1    2    0    0  0.22591975336E+02  0.14227463977E+02  0.73041506766E+03  0.73596754232E+03  0.86193005533E+02 0.  0.
        -11    1    5    5    0    0 -0.14233169455E+02 -0.37276612895E+01  0.22597320795E+02  0.26965115957E+02  0.00000000000E+00 0.  1.
         12    1    5    5    0    0  0.36825144791E+02  0.17955125267E+02  0.70781774687E+03  0.70900242637E+03  0.00000000000E+00 0. -1.
         13    1    3    3    0    0 -0.18855049319E+02  0.30681181280E+02 -0.26620634003E+03  0.26863109136E+03  0.00000000000E+00 0. -1.
        -14    1    3    3    0    0 -0.35583342288E+02 -0.15167663037E+02 -0.53894719292E+02  0.66339076101E+02  0.00000000000E+00 0.  1.
          5    1    4    4  501    0  0.34277708461E+02 -0.16616940093E+02  0.40745239720E+02  0.55935060161E+02  0.41800000000E+01 0. -1.
         -5    1    4    4    0  501 -0.24312921910E+01 -0.13124042127E+02  0.52214583622E+03  0.52233312966E+03  0.41800000000E+01 0. -1.
</event>
<event>
11    1  0.6763327E-009  0.1555857E+03  0.7561462E-02  0.1091304E+00
         22   -1    0    0    0    0  0.00000000000E+00  0.00000000000E+00  0.79137803366E+03  0.79137803366E+03  0.00000000000E+00 0.  1.
         22   -1    0    0    0    0 -0.00000000000E+00 -0.00000000000E+00 -0.30313088944E+03  0.30313088944E+03  0.00000000000E+00 0.  1.
        -24    2    1    2    0    0 -0.39250663039E+02 -0.51077224377E+00 -0.16611759042E+03  0.18920654080E+03  0.81628339421E+02 0.  0.
         25    2    1    2    0    0  0.70221498502E+02  0.87077429965E+02 -0.61789468103E+02  0.17882720755E+03  0.12509074359E+03 0.  0.
         24    2    1    2    0    0 -0.30970835462E+02 -0.86566657721E+02  0.71615420275E+03  0.72647517475E+03  0.80226919017E+02 0.  0.
        -13    1    5    5    0    0  0.30512117033E+01 -0.82623416637E+02  0.58957659813E+03  0.59534570120E+03  0.00000000000E+00 0.  1.
         14    1    5    5    0    0 -0.34022047166E+02 -0.39432410846E+01  0.12657760462E+03  0.13112947355E+03  0.00000000000E+00 0. -1.
         13    1    3    3    0    0  0.18509580919E+02 -0.22126245126E+02 -0.56091135984E+02  0.63074486483E+02  0.00000000000E+00 0. -1.
        -14    1    3    3    0    0 -0.57760243958E+02  0.21615472882E+02 -0.11002645444E+03  0.12613205432E+03  0.00000000000E+00 0.  1.
          5    1    4    4  501    0 -0.20181815500E+02  0.31861295146E+02  0.21853696027E+02  0.43789316452E+02  0.41800000000E+01 0. -1.
         -5    1    4    4    0  501  0.90403314001E+02  0.55216134819E+02 -0.83643164130E+02  0.13503789110E+03  0.41800000000E+01 0. -1.
</event>
<event>
11    1  0.6763327E-009  0.1458589E+03  0.7561462E-02  0.1101187E+00
         22   -1    0    0    0    0  0.00000000000E+00  0.00000000000E+00  0.11946590419E+03  0.11946590419E+03  0.00000000000E+00 0.  1.
         22   -1    0    0    0    0 -0.00000000000E+00 -0.00000000000E+00 -0.13378621323E+04  0.13378621323E+04  0.00000000000E+00 0.  1.
        -24    2    1    2    0    0  0.67095730686E+02 -0.23439512502E+02 -0.85348212478E+03  0.85930904498E+03  0.70207190795E+02 0.  0.
         25    2    1    2    0    0 -0.13419169549E+03 -0.16414070053E+01 -0.43338923296E+03  0.47061904691E+03  0.12508379076E+03 0.  0.
         24    2    1    2    0    0  0.67095964808E+02  0.25080919507E+02  0.68475129610E+02  0.12739994462E+03  0.80068604937E+02 0.  0.
        -11    1    5    5    0    0  0.23278080535E+02 -0.18296856685E+02  0.57637102287E+02  0.64797218752E+02  0.00000000000E+00 0.  1.
         12    1    5    5    0    0  0.43817884273E+02  0.43377776192E+02  0.10838027323E+02  0.62602725865E+02  0.00000000000E+00 0. -1.
         11    1    3    3    0    0 -0.50650518222E+01  0.16081159593E+02 -0.18962867891E+03  0.19037671682E+03  0.00000000000E+00 0. -1.
        -12    1    3    3    0    0  0.72160782508E+02 -0.39520672095E+02 -0.66385344587E+03  0.66893232815E+03  0.00000000000E+00 0.  1.
          5    1    4    4  501    0 -0.41244231234E+02  0.12878832074E+02 -0.22146873899E+02  0.48733021137E+02  0.41800000000E+01 0. -1.
         -5    1    4    4    0  501 -0.92947464260E+02 -0.14520239079E+02 -0.41124235907E+03  0.42188602578E+03  0.41800000000E+01 0. -1.
</event>
<event>
11    1  0.6763327E-009  0.1816503E+03  0.7561462E-02  0.1068316E+00
         22   -1    0    0    0    0  0.00000000000E+00  0.00000000000E+00  0.74577506605E+03  0.74577506605E+03  0.00000000000E+00 0.  1.
         22   -1    0    0    0    0 -0.00000000000E+00 -0.00000000000E+00 -0.34524163590E+03  0.34524163590E+03  0.00000000000E+00 0.  1.
        -24    2    1    2    0    0  0.11457176127E+02  0.12526992394E+03 -0.24332683751E+03  0.28537164126E+03  0.80032512476E+02 0.  0.
         25    2    1    2    0    0 -0.19637236401E+02 -0.17236767217E+03  0.71079302483E+02  0.22538265189E+03  0.12509531194E+03 0.  0.
         24    2    1    2    0    0  0.81800602746E+01  0.47097748229E+02  0.57278096517E+03  0.58026240881E+03  0.79632391257E+02 0.  0.
        -11    1    5    5    0    0  0.98529428127E+01  0.57425813903E+02  0.56278226165E+03  0.56579031329E+03  0.00000000000E+00 0.  1.
         12    1    5    5    0    0 -0.16728825381E+01 -0.10328065673E+02  0.99987035199E+01  0.14472095516E+02  0.00000000000E+00 0. -1.
         13    1    3    3    0    0  0.73498251665E+01  0.17652877763E+02  0.16909656646E+00  0.19122568262E+02  0.00000000000E+00 0. -1.
        -14    1    3    3    0    0  0.41073509601E+01  0.10761704618E+03 -0.24349593407E+03  0.26624907299E+03  0.00000000000E+00 0.  1.
          5    1    4    4  501    0 -0.71893879752E+02 -0.96181367107E+02  0.52157958013E+02  0.13098667989E+03  0.41800000000E+01 0. -1.
         -5    1    4    4    0  501  0.52256643350E+02 -0.76186305063E+02  0.18921344470E+02  0.94395972001E+02  0.41800000000E+01 0. -1.
</event>
<event>
11    1  0.6763327E-009  0.1586757E+03  0.7561462E-02  0.1088329E+00
         22   -1    0    0    0    0  0.00000000000E+00  0.00000000000E+00  0.18523947573E+03  0.18523947573E+03  0.00000000000E+00 0. -1.
         22   -1    0    0    0    0 -0.00000000000E+00 -0.00000000000E+00 -0.63382141428E+03  0.63382141428E+03  0.00000000000E+00 0. -1.
         24    2    1    2    0    0  0.48637036641E+02  0.30960215839E+02 -0.47632934816E+03  0.48616738725E+03  0.78389949689E+02 0.  0.
         25    2    1    2    0    0  0.57433454424E+02 -0.56694954888E+01 -0.80954837004E+02  0.15978730170E+03  0.12509017261E+03 0.  0.
        -24    2    1    2    0    0 -0.10607049107E+03 -0.25290720351E+02  0.10870224661E+03  0.17310620107E+03  0.79113897766E+02 0.  0.
        -13    1    3    3    0    0  0.38571497150E+02  0.51250357301E+02 -0.22932253254E+03  0.23812430251E+03  0.00000000000E+00 0.  1.
         14    1    3    3    0    0  0.10065539491E+02 -0.20290141461E+02 -0.24700681562E+03  0.24804308474E+03  0.00000000000E+00 0. -1.
         13    1    5    5    0    0 -0.24994640300E+02 -0.33350399610E+02  0.73197126424E+02  0.84230638811E+02  0.00000000000E+00 0. -1.
        -14    1    5    5    0    0 -0.81075850766E+02  0.80596792594E+01  0.35505120185E+02  0.88875562257E+02  0.00000000000E+00 0.  1.
          5    1    4    4  501    0  0.91356655256E+02 -0.29348138859E+02 -0.59716877611E+02  0.11309699194E+03  0.41800000000E+01 0.  1.
         -5    1    4    4    0  501 -0.33923200831E+02  0.23678643371E+02 -0.21237959393E+02  0.46690309762E+02  0.41800000000E+01 0.  1.
</event>
<event>
11    1  0.6763327E-009  0.1317340E+03  0.7561462E-02  0.1117157E+00
         22   -1    0    0    0    0  0.00000000000E+00  0.00000000000E+00  0.25737696771E+04  0.25737696771E+04  0.00000000000E+00 0.  1.
         22   -1    0    0    0    0 -0.00000000000E+00 -0.00000000000E+00 -0.26746553938E+03  0.26746553938E+03  0.00000000000E+00 0.  1.
         24    2    1    2    0    0 -0.16826276267E+02 -0.36555813691E+02 -0.23892794672E+03  0.25543363644E+03  0.80872293257E+02 0.  0.
         25    2    1    2    0    0  0.49332788367E+02  0.62809147099E+02  0.26384291847E+03  0.30272016308E+03  0.12509076120E+03 0.  0.
        -24    2    1    2    0    0 -0.32506512099E+02 -0.26253333409E+02  0.22813891660E+04  0.22830814170E+04  0.77319589975E+02 0.  0.
        -13    1    3    3    0    0 -0.71024242940E+01 -0.62351905255E+02 -0.16760217758E+03  0.17896562366E+03  0.00000000000E+00 0.  1.
         14    1    3    3    0    0 -0.97238519734E+01  0.25796091564E+02 -0.71325769135E+02  0.76468012789E+02  0.00000000000E+00 0. -1.
         13    1    5    5    0    0 -0.20268486233E+02 -0.21577038199E+02  0.26479393497E+03  0.26644363026E+03  0.00000000000E+00 0. -1.
        -14    1    5    5    0    0 -0.12238025866E+02 -0.46762952094E+01  0.20165952310E+04  0.20166377867E+04  0.00000000000E+00 0.  1.
          5    1    4    4  501    0  0.84983249762E+02  0.67902995488E+02  0.16734560181E+03  0.19963715181E+03  0.41800000000E+01 0. -1.
         -5    1    4    4    0  501 -0.35650461395E+02 -0.50938483892E+01  0.96497316663E+02  0.10308301127E+03  0.41800000000E+01 0. -1.
</event>
<event>
11    1  0.1073411E-008  0.1932003E+03  0.7561462E-02  0.1059439E+00
         22   -1    0    0    0    0  0.00000000000E+00  0.00000000000E+00  0.75620589062E+03  0.75620589062E+03  0.00000000000E+00 0.  1.
         22   -1    0    0    0    0 -0.00000000000E+00 -0.00000000000E+00 -0.99608178306E+03  0.99608178306E+03  0.00000000000E+00 0.  1.
        -24    2    1    2    0    0  0.26884687284E+01 -0.15877042794E+02 -0.40264215421E+03  0.41102938861E+03  0.81025586086E+02 0.  0.
         25    2    1    2    0    0  0.75343792917E+02 -0.10930078284E+03 -0.56408840555E+03  0.59284669517E+03  0.12509247153E+03 0.  0.
         24    2    1    2    0    0 -0.78032261645E+02  0.12517782563E+03  0.72685466733E+03  0.74841158991E+03  0.10021815509E+03 0.  0.
        -13    1    5    5    0    0 -0.70220439896E+02  0.14204757790E+03  0.67422542981E+03  0.69259537594E+03  0.00000000000E+00 0.  1.
         14    1    5    5    0    0 -0.78118217487E+01 -0.16869752269E+02  0.52629237512E+02  0.55816213969E+02  0.00000000000E+00 0. -1.
         11    1    3    3    0    0  0.33969869901E+01  0.11150200417E+01  0.32197027102E+01  0.48113694357E+01  0.00000000000E+00 0. -1.
        -12    1    3    3    0    0 -0.70851826178E+00 -0.16992062835E+02 -0.40586185692E+03  0.40621801917E+03  0.00000000000E+00 0.  1.
          5    1    4    4  501    0 -0.17572018980E+02 -0.61810521998E+02 -0.33422806374E+03  0.34037506881E+03  0.41800000000E+01 0. -1.
         -5    1    4    4    0  501  0.92915811897E+02 -0.47490260841E+02 -0.22986034181E+03  0.25247162635E+03  0.41800000000E+01 0. -1.
</event>
<event>
11    1  0.6763327E-009  0.1265392E+03  0.7561462E-02  0.1123596E+00
         22   -1    0    0    0    0  0.00000000000E+00  0.00000000000E+00  0.83841391430E+02  0.83841391430E+02  0.00000000000E+00 0. -1.
         22   -1    0    0    0    0 -0.00000000000E+00 -0.00000000000E+00 -0.62774525610E+03  0.62774525610E+03  0.00000000000E+00 0. -1.
        -24    2    1    2    0    0  0.21912565746E+02 -0.61912511071E+01 -0.37669761687E+03  0.38618736502E+03  0.81982279867E+02 0.  0.
         25    2    1    2    0    0 -0.96175364664E+00  0.12708735158E+02 -0.19992448697E+03  0.23617567393E+03  0.12508681604E+03 0.  0.
         24    2    1    2    0    0 -0.20950812099E+02 -0.65174840506E+01  0.32718239171E+02  0.89223608587E+02  0.80055949365E+02 0.  0.
        -11    1    5    5    0    0  0.91443154710E+01  0.32478298808E+02  0.13940191850E+02  0.36507360186E+02  0.00000000000E+00 0.  1.
         12    1    5    5    0    0 -0.30095127570E+02 -0.38995782859E+02  0.18778047321E+02  0.52716248401E+02  0.00000000000E+00 0. -1.
         13    1    3    3    0    0 -0.15955590925E+02 -0.22737054675E+01 -0.30123153639E+03  0.30166237606E+03  0.00000000000E+00 0. -1.
        -14    1    3    3    0    0  0.37868156670E+02 -0.39175456396E+01 -0.75466080487E+02  0.84524988953E+02  0.00000000000E+00 0.  1.
          5    1    4    4  501    0  0.55181886317E+02 -0.14309372325E+02 -0.13234812759E+03  0.14416413559E+03  0.41800000000E+01 0.  1.
         -5    1    4    4    0  501 -0.56143639964E+02  0.27018107483E+02 -0.67576359373E+02  0.92011538333E+02  0.41800000000E+01 0.  1.
</event>
<event>
11    1  0.6763327E-009  0.3378303E+03  0.7561462E-02  0.9853408E-01
         22   -1    0    0    0    0  0.00000000000E+00  0.00000000000E+00  0.18133111192E+03  0.18133111192E+03  0.00000000000E+00 0. -1.
         22   -1    0    0    0    0 -0.00000000000E+00 -0.00000000000E+00 -0.20527835930E+04  0.20527835930E+04  0.00000000000E+00 0.  1.
         24    2    1    2    0    0  0.57280802801E-01  0.87488805112E+02 -0.14158952243E+04  0.14208731017E+04  0.80416357205E+02 0.  0.
         25    2    1    2    0    0 -0.11406127033E+03 -0.34297005187E+03 -0.26724419337E+03  0.46658867236E+03  0.12508837041E+03 0.  0.
        -24    2    1    2    0    0  0.11400398953E+03  0.25548124675E+03 -0.18831306339E+03  0.34665293090E+03  0.80242554708E+02 0.  0.
        -13    1    3    3    0    0  0.74404966010E+01  0.62005098727E+02 -0.13170282089E+04  0.13185079811E+04  0.00000000000E+00 0.  1.
         14    1    3    3    0    0 -0.73832157982E+01  0.25483706385E+02 -0.98867015454E+02  0.10236512058E+03  0.00000000000E+00 0. -1.
         11    1    5    5    0    0  0.53465719753E+02  0.10314001308E+03 -0.32850097634E+02  0.12072934358E+03  0.00000000000E+00 0. -1.
        -12    1    5    5    0    0  0.60538269775E+02  0.15234123367E+03 -0.15546296576E+03  0.22592358732E+03  0.00000000000E+00 0.  1.
          5    1    4    4  501    0 -0.19544008769E+02 -0.24501287565E+01  0.46716749578E+01  0.20670470643E+02  0.41800000000E+01 0.  1.
         -5    1    4    4    0  501 -0.94517261563E+02 -0.34051992311E+03 -0.27191586833E+03  0.44591820171E+03  0.41800000000E+01 0.  1.
</event>
<event>
11    1  0.6763327E-009  0.1909349E+03  0.7561462E-02  0.1061126E+00
         22   -1    0    0    0    0  0.00000000000E+00  0.00000000000E+00  0.45420872825E+03  0.45420872825E+03  0.00000000000E+00 0.  1.
         22   -1    0    0    0    0 -0.00000000000E+00 -0.00000000000E+00 -0.48468118992E+03  0.48468118992E+03  0.00000000000E+00 0.  1.
         24    2    1    2    0    0 -0.29445088615E+02 -0.14018356037E+03 -0.37224311940E+03  0.40692070894E+03  0.80629272493E+02 0.  0.
         25    2    1    2    0    0  0.28704964493E+02  0.14784892910E+03  0.20966879301E+02  0.19690191133E+03  0.12508985505E+03 0.  0.
        -24    2    1    2    0    0  0.74012412116E+00 -0.76653687289E+01  0.32080377842E+03  0.33506729790E+03  0.96414336120E+02 0.  0.
        -13    1    3    3    0    0 -0.47813109665E+02 -0.12887922474E+03 -0.34957745470E+03  0.37563325846E+03  0.00000000000E+00 0.  1.
         14    1    3    3    0    0  0.18368021051E+02 -0.11304335631E+02 -0.22665664696E+02  0.31287450479E+02  0.00000000000E+00 0. -1.
         11    1    5    5    0    0  0.40090716783E+02  0.82585095489E+01  0.73344683502E+02  0.83993518501E+02  0.00000000000E+00 0. -1.
        -12    1    5    5    0    0 -0.39350592662E+02 -0.15923878278E+02  0.24745909492E+03  0.25107377940E+03  0.00000000000E+00 0.  1.
          5    1    4    4  501    0  0.54369485794E+02  0.64794491969E+02 -0.36913902674E+02  0.92382226569E+02  0.41800000000E+01 0.  1.
         -5    1    4    4    0  501 -0.25664521301E+02  0.83054437130E+02  0.57880781975E+02  0.10451968476E+03  0.41800000000E+01 0.  1.
</event>
<event>
11    1  0.6763327E-009  0.1739333E+03  0.7561462E-02  0.1074659E+00
         22   -1    0    0    0    0  0.00000000000E+00  0.00000000000E+00  0.13169145676E+04  0.13169145676E+04  0.00000000000E+00 0. -1.
         22   -1    0    0    0    0 -0.00000000000E+00 -0.00000000000E+00 -0.15229761603E+04  0.15229761603E+04  0.00000000000E+00 0. -1.
        -24    2    1    2    0    0 -0.12034179867E+02  0.12021832722E+03 -0.15042698951E+04  0.15111918477E+04  0.79218783524E+02 0.  0.
         25    2    1    2    0    0  0.42427800238E+02 -0.12343945922E+03  0.64581730947E+03  0.67064524273E+03  0.12509047149E+03 0.  0.
         24    2    1    2    0    0 -0.30393620371E+02  0.32211319986E+01  0.65239099293E+03  0.65805363745E+03  0.80538402346E+02 0.  0.
        -13    1    5    5    0    0 -0.49079167242E+02  0.24022808966E+02  0.33434100542E+03  0.33877687039E+03  0.00000000000E+00 0.  1.
         14    1    5    5    0    0  0.18685546871E+02 -0.20801676967E+02  0.31804998751E+03  0.31927676706E+03  0.00000000000E+00 0. -1.
         13    1    3    3    0    0  0.16702645750E+02  0.78770121426E+02 -0.12062290482E+04  0.12089136558E+04  0.00000000000E+00 0. -1.
        -14    1    3    3    0    0 -0.28736825617E+02  0.41448205797E+02 -0.29804084688E+03  0.30227819194E+03  0.00000000000E+00 0.  1.
          5    1    4    4  501    0 -0.42329960151E+02 -0.65030468249E+02  0.28658780274E+03  0.29693573111E+03  0.41800000000E+01 0.  1.
         -5    1    4    4    0  501  0.84757760390E+02 -0.58408990972E+02  0.35922950673E+03  0.37370951162E+03  0.41800000000E+01 0.  1.
</event>
<event>
11    1  0.6763327E-009  0.1252874E+03  0.7561462E-02  0.1125199E+00
         22   -1    0    0    0    0  0.00000000000E+00  0.00000000000E+00  0.26695140382E+04  0.26695140382E+04  0.00000000000E+00 0. -1.
         22   -1    0    0    0    0 -0.00000000000E+00 -0.00000000000E+00 -0.58893636305E+02  0.58893636305E+02  0.00000000000E+00 0. -1.
        -24    2    1    2    0    0 -0.21284901806E+00  0.79271367811E+01 -0.11686260184E+02  0.93925982101E+02  0.92858153300E+02 0.  0.
         25    2    1    2    0    0  0.36772345318E+02  0.17488619457E+02  0.87905557891E+03  0.88884425332E+03  0.12508932272E+03 0.  0.
         24    2    1    2    0    0 -0.36559496300E+02 -0.25415756238E+02  0.17432510832E+04  0.17456374391E+04  0.79644035072E+02 0.  0.
        -13    1    5    5    0    0 -0.33784134584E+02  0.15031937112E+02  0.38266297491E+03  0.38444541778E+03  0.00000000000E+00 0.  1.
         14    1    5    5    0    0 -0.27753617159E+01 -0.40447693350E+02  0.13605881083E+04  0.13611920213E+04  0.00000000000E+00 0. -1.
         13    1    3    3    0    0 -0.38805035406E+02  0.17555072953E+02 -0.27961953000E+02  0.50949800538E+02  0.00000000000E+00 0. -1.
        -14    1    3    3    0    0  0.38592186388E+02 -0.96279361716E+01  0.16275692816E+02  0.42976181563E+02  0.00000000000E+00 0.  1.
          5    1    4    4  501    0  0.16331109124E+02 -0.35663760702E+02  0.69537290766E+03  0.69649089159E+03  0.41800000000E+01 0. -1.
         -5    1    4    4    0  501  0.20441236194E+02  0.53152380158E+02  0.18368267125E+03  0.19235336174E+03  0.41800000000E+01 0. -1.
</event>
<event>
11    1  0.6763327E-009  0.2390520E+03  0.7561462E-02  0.1029899E+00
         22   -1    0    0    0    0  0.00000000000E+00  0.00000000000E+00  0.12003356181E+04  0.12003356181E+04  0.00000000000E+00 0.  1.
         22   -1    0    0    0    0 -0.00000000000E+00 -0.00000000000E+00 -0.69836924781E+03  0.69836924781E+03  0.00000000000E+00 0. -1.
        -24    2    1    2    0    0 -0.56017211727E+01 -0.21820714380E+03 -0.63327715841E+03  0.67463961180E+03  0.80330004071E+02 0.  0.
         25    2    1    2    0    0 -0.59275472361E+02  0.81687754526E+02  0.13691199298E+03  0.21113801700E+03  0.12509155662E+03 0.  0.
         24    2    1    2    0    0  0.64877193534E+02  0.13651938927E+03  0.99833153570E+03  0.10129272371E+04  0.80679232582E+02 0.  0.
        -11    1    5    5    0    0  0.44097447539E+02  0.15679144055E+02  0.34856298192E+03  0.35169101894E+03  0.00000000000E+00 0.  1.
         12    1    5    5    0    0  0.20779745995E+02  0.12084024522E+03  0.64976855378E+03  0.66123621815E+03  0.00000000000E+00 0. -1.
         13    1    3    3    0    0 -0.67112210849E+01 -0.18796064495E+03 -0.60370475263E+03  0.63232402523E+03  0.00000000000E+00 0. -1.
        -14    1    3    3    0    0  0.11094999122E+01 -0.30246498848E+02 -0.29572405788E+02  0.42315586569E+02  0.00000000000E+00 0.  1.
          5    1    4    4  501    0 -0.74783035112E+02  0.81508014777E+02  0.15270894542E+03  0.18860952581E+03  0.41800000000E+01 0. -1.
         -5    1    4    4    0  501  0.15507562751E+02  0.17973974961E+00 -0.15796952445E+02  0.22528491192E+02  0.41800000000E+01 0. -1.
</event>
<event>
11    1  0.6763327E-009  0.1275927E+03  0.7561462E-02  0.1122263E+00
         22   -1    0    0    0    0  0.00000000000E+00  0.00000000000E+00  0.32366163709E+03  0.32366163709E+03  0.00000000000E+00 0. -1.
         22   -1    0    0    0    0 -0.00000000000E+00 -0.00000000000E+00 -0.52389273816E+03  0.52389273816E+03  0.00000000000E+00 0. -1.
         24    2    1    2    0    0  0.65119833899E+00  0.18527132845E+02 -0.42037597071E+03  0.42821870299E+03  0.79445718124E+02 0.  0.
         25    2    1    2    0    0  0.24400254862E+02 -0.13923643731E+02 -0.44501859069E+02  0.13570931652E+03  0.12508941937E+03 0.  0.
        -24    2    1    2    0    0 -0.25051453201E+02 -0.46034891137E+01  0.26464672871E+03  0.28362635574E+03  0.98778799517E+02 0.  0.
        -11    1    3    3    0    0 -0.29556970122E+02  0.19798571146E+02 -0.95026892566E+02  0.10146776933E+03  0.00000000000E+00 0.  1.
         12    1    3    3    0    0  0.30208168461E+02 -0.12714383015E+01 -0.32534907815E+03  0.32675093366E+03  0.00000000000E+00 0. -1.
         13    1    5    5    0    0 -0.32719842930E+02  0.34163519281E+02  0.21515022475E+03  0.22028924936E+03  0.00000000000E+00 0. -1.
        -14    1    5    5    0    0  0.76683897285E+01 -0.38767008395E+02  0.49496503953E+02  0.63337106379E+02  0.00000000000E+00 0.  1.
          5    1    4    4  501    0  0.13905415809E+02  0.62963846710E+00  0.43466788252E+02  0.45832206082E+02  0.41800000000E+01 0.  1.
         -5    1    4    4    0  501  0.10494839054E+02 -0.14553282198E+02 -0.87968647322E+02  0.89877110440E+02  0.41800000000E+01 0.  1.
</event>
<event>
11    1  0.6763327E-009  0.1301996E+03  0.7561462E-02  0.1119024E+00
         22   -1    0    0    0    0  0.00000000000E+00  0.00000000000E+00  0.19746731591E+04  0.19746731591E+04  0.00000000000E+00 0. -1.
         22   -1    0    0    0    0 -0.00000000000E+00 -0.00000000000E+00 -0.96173372649E+02  0.96173372649E+02  0.00000000000E+00 0. -1.
        -24    2    1    2    0    0  0.38414540276E+02  0.96393121572E+01 -0.46669288208E+02  0.96925283939E+02  0.75152478079E+02 0.  0.
         25    2    1    2    0    0 -0.14830379921E+02  0.88490386953E+01  0.14725189869E+03  0.19398008314E+03  0.12508759064E+03 0.  0.
         24    2    1    2    0    0 -0.23584160355E+02 -0.18488350852E+02  0.17779171759E+04  0.17799411646E+04  0.79391645322E+02 0.  0.
        -11    1    5    5    0    0  0.24034846743E+02 -0.26814626451E+02  0.85674467514E+03  0.85750109996E+03  0.00000000000E+00 0.  1.
         12    1    5    5    0    0 -0.47619007098E+02  0.83262755985E+01  0.92117250081E+03  0.92244006469E+03  0.00000000000E+00 0. -1.
         11    1    3    3    0    0  0.56682803675E+02  0.23407314999E+02 -0.28078481779E+02  0.67448082010E+02  0.00000000000E+00 0. -1.
        -12    1    3    3    0    0 -0.18268263399E+02 -0.13768002842E+02 -0.18590806430E+02  0.29477201929E+02  0.00000000000E+00 0.  1.
          5    1    4    4  501    0  0.43325185036E+02  0.42284122634E+01  0.10106896730E+02  0.44883993697E+02  0.41800000000E+01 0.  1.
         -5    1    4    4    0  501 -0.58155564957E+02  0.46206264318E+01  0.13714500196E+03  0.14909608944E+03  0.41800000000E+01 0.  1.
</event>
<event>
11    1  0.6763327E-009  0.1606526E+03  0.7561462E-02  0.1086465E+00
         22   -1    0    0    0    0  0.00000000000E+00  0.00000000000E+00  0.17629852383E+03  0.17629852383E+03  0.00000000000E+00 0.  1.
         22   -1    0    0    0    0 -0.00000000000E+00 -0.00000000000E+00 -0.10145804014E+04  0.10145804014E+04  0.00000000000E+00 0.  1.
         24    2    1    2    0    0  0.67723335312E+01  0.36598991568E+02 -0.71318324828E+03  0.71854595944E+03  0.79325906899E+02 0.  0.
         25    2    1    2    0    0 -0.10643604498E+03 -0.43276000289E+02 -0.24418037231E+03  0.29744493204E+03  0.12509192421E+03 0.  0.
        -24    2    1    2    0    0  0.99663711450E+02  0.66770087206E+01  0.11908174303E+03  0.17488803375E+03  0.80174341272E+02 0.  0.
        -11    1    3    3    0    0 -0.57763672590E+01  0.38533699163E+02 -0.69645860593E+03  0.69754770601E+03  0.00000000000E+00 0.  1.
         12    1    3    3    0    0  0.12548700790E+02 -0.19347075947E+01 -0.16724642354E+02  0.20998253424E+02  0.00000000000E+00 0. -1.
         11    1    5    5    0    0 -0.77405521984E+01 -0.14620033328E+02  0.27729188105E+02  0.32288843209E+02  0.00000000000E+00 0. -1.
        -12    1    5    5    0    0  0.10740426365E+03  0.21297042048E+02  0.91352554930E+02  0.14259919054E+03  0.00000000000E+00 0.  1.
          5    1    4    4  501    0 -0.10593111635E+03  0.57131640649E+01 -0.21622608898E+03  0.24088427846E+03  0.41800000000E+01 0.  1.
         -5    1    4    4    0  501 -0.50492863475E+00 -0.48989164354E+02 -0.27954283334E+02  0.56560653583E+02  0.41800000000E+01 0.  1.
</event>
<event>
11    1  0.6763327E-009  0.1391622E+03  0.7561462E-02  0.1108498E+00
         22   -1    0    0    0    0  0.00000000000E+00  0.00000000000E+00  0.49490759094E+03  0.49490759094E+03  0.00000000000E+00 0.  1.
         22   -1    0    0    0    0 -0.00000000000E+00 -0.00000000000E+00 -0.22674159473E+04  0.22674159473E+04  0.00000000000E+00 0. -1.
         24    2    1    2    0    0  0.35601610753E+02 -0.49553309267E+02 -0.22274060741E+04  0.22296933951E+04  0.80447573335E+02 0.  0.
         25    2    1    2    0    0 -0.16743256555E+02  0.57075105896E+02  0.10667090757E+03  0.17482699071E+03  0.12509152572E+03 0.  0.
        -24    2    1    2    0    0 -0.18858354198E+02 -0.75217966290E+01  0.34822681015E+03  0.35780315246E+03  0.79680422009E+02 0.  0.
        -11    1    3    3    0    0 -0.96343336974E+01 -0.52680481850E+02 -0.14263162147E+04  0.14273212666E+04  0.00000000000E+00 0.  1.
         12    1    3    3    0    0  0.45235944451E+02  0.31271725831E+01 -0.80108985938E+03  0.80237212856E+03  0.00000000000E+00 0. -1.
         11    1    5    5    0    0  0.14650483085E+01  0.16300774601E+02  0.12435368572E+02  0.20554805051E+02  0.00000000000E+00 0. -1.
        -12    1    5    5    0    0 -0.20323402507E+02 -0.23822571230E+02  0.33579144158E+03  0.33724834740E+03  0.00000000000E+00 0.  1.
          5    1    4    4  501    0 -0.10101728598E+02  0.94906208418E+02  0.94357142429E+02  0.13427574630E+03  0.41800000000E+01 0.  1.
         -5    1    4    4    0  501 -0.66415279568E+01 -0.37831102522E+02  0.12313765140E+02  0.40551244414E+02  0.41800000000E+01 0.  1.
</event>
<event>
11    1  0.6763327E-009  0.1833294E+03  0.7561462E-02  0.1066981E+00
         22   -1    0    0    0    0  0.00000000000E+00  0.00000000000E+00  0.43488668787E+03  0.43488668787E+03  0.00000000000E+00 0.  1.
         22   -1    0    0    0    0 -0.00000000000E+00 -0.00000000000E+00 -0.94816010296E+03  0.94816010296E+03  0.00000000000E+00 0. -1.
        -24    2    1    2    0    0  0.13282227470E+03  0.91468859334E+01 -0.86849409975E+03  0.88232095133E+03  0.80516070869E+02 0.  0.
         25    2    1    2    0    0 -0.15167766323E+03 -0.25193330457E+00  0.75622187382E+02  0.21067736251E+03  0.12514015685E+03 0.  0.
         24    2    1    2    0    0  0.18855388536E+02 -0.88949526288E+01  0.27959849727E+03  0.29004847699E+03  0.74284274694E+02 0.  0.
        -11    1    5    5    0    0  0.21969681628E+02 -0.85714362120E+00  0.28051910948E+03  0.28137941003E+03  0.00000000000E+00 0.  1.
         12    1    5    5    0    0 -0.31142930919E+01 -0.80378090076E+01 -0.92061220532E+00  0.86690669588E+01  0.00000000000E+00 0. -1.
         11    1    3    3    0    0  0.83340294880E+02 -0.22908166030E+02 -0.66054041349E+03  0.66617116920E+03  0.00000000000E+00 0. -1.
        -12    1    3    3    0    0  0.49481979817E+02  0.32055051963E+02 -0.20795368627E+03  0.21614978213E+03  0.00000000000E+00 0.  1.
          5    1    4    4  501    0 -0.10470073806E+03 -0.59766051910E+02  0.49162098085E+02  0.13026361656E+03  0.41800000000E+01 0.  1.
         -5    1    4    4    0  501 -0.46976925170E+02  0.59514118605E+02  0.26460089296E+02  0.80413745947E+02  0.41800000000E+01 0.  1.
</event>
<event>
11    1  0.6763327E-009  0.2099792E+03  0.7561462E-02  0.1047683E+00
         22   -1    0    0    0    0  0.00000000000E+00  0.00000000000E+00  0.11518986312E+04  0.11518986312E+04  0.00000000000E+00 0. -1.
         22   -1    0    0    0    0 -0.00000000000E+00 -0.00000000000E+00 -0.16909500950E+03  0.16909500950E+03  0.00000000000E+00 0.  1.
        -24    2    1    2    0    0  0.79264466107E+01  0.57490132303E+02 -0.91409190124E+02  0.13537742596E+03  0.81261697946E+02 0.  0.
         25    2    1    2    0    0  0.82533958621E+02 -0.19042225283E+03  0.27534428357E+03  0.36678988056E+03  0.12509137974E+03 0.  0.
         24    2    1    2    0    0 -0.90460405231E+02  0.13293212053E+03  0.79886852824E+03  0.81882633416E+03  0.80197297436E+02 0.  0.
        -11    1    5    5    0    0  0.99517907084E+01  0.25616515572E+02  0.68293198458E+02  0.73615249534E+02  0.00000000000E+00 0.  1.
         12    1    5    5    0    0 -0.10041219594E+03  0.10731560496E+03  0.73057532978E+03  0.74521108463E+03  0.00000000000E+00 0. -1.
         11    1    3    3    0    0  0.91950194908E+01  0.54340896870E+02 -0.12651786014E+02  0.56546875646E+02  0.00000000000E+00 0. -1.
        -12    1    3    3    0    0 -0.12685728801E+01  0.31492354337E+01 -0.78757404110E+02  0.78830550316E+02  0.00000000000E+00 0.  1.
          5    1    4    4  501    0  0.63162253998E+02 -0.26548972933E+02  0.12929602148E+03  0.14638733506E+03  0.41800000000E+01 0.  1.
         -5    1    4    4    0  501  0.19371704623E+02 -0.16387327990E+03  0.14604826209E+03  0.22040254550E+03  0.41800000000E+01 0.  1.
</event>
<event>
11    1  0.6763327E-009  0.1721561E+03  0.7561462E-02  0.1076170E+00
         22   -1    0    0    0    0  0.00000000000E+00  0.00000000000E+00  0.34905967770E+03  0.34905967770E+03  0.00000000000E+00 0.  1.
         22   -1    0    0    0    0 -0.00000000000E+00 -0.00000000000E+00 -0.25524154412E+04  0.25524154412E+04  0.00000000000E+00 0.  1.
         24    2    1    2    0    0 -0.16217605813E+02 -0.11875964492E+03 -0.22859917746E+04  0.22903910181E+04  0.75932589449E+02 0.  0.
         25    2    1    2    0    0 -0.60809942769E+01  0.10179455485E+03 -0.23322726853E+03  0.28362205457E+03  0.12508957258E+03 0.  0.
        -24    2    1    2    0    0  0.22298600090E+02  0.16965090075E+02  0.31586327964E+03  0.32746204624E+03  0.81711311682E+02 0.  0.
        -11    1    3    3    0    0 -0.25219036641E+02 -0.61666785527E+02 -0.17547487154E+04  0.17560130542E+04  0.00000000000E+00 0.  1.
         12    1    3    3    0    0  0.90014308280E+01 -0.57092859394E+02 -0.53124305926E+03  0.53437796396E+03  0.00000000000E+00 0. -1.
         11    1    5    5    0    0  0.40456597641E+02 -0.93213844113E+01  0.87212710053E+02  0.96590275364E+02  0.00000000000E+00 0. -1.
        -12    1    5    5    0    0 -0.18157997551E+02  0.26286474487E+02  0.22865056959E+03  0.23087177088E+03  0.00000000000E+00 0.  1.
          5    1    4    4  501    0 -0.24749668954E+02  0.28008806809E+02 -0.19453752243E+03  0.19813974716E+03  0.41800000000E+01 0.  1.
         -5    1    4    4    0  501  0.18668674677E+02  0.73785748036E+02 -0.38689746104E+02  0.85482307415E+02  0.41800000000E+01 0.  1.
</event>
<event>
11    1  0.6763327E-009  0.2221180E+03  0.7561462E-02  0.1039899E+00
         22   -1    0    0    0    0  0.00000000000E+00  0.00000000000E+00  0.76390616299E+03  0.76390616299E+03  0.00000000000E+00 0.  1.
         22   -1    0    0    0    0 -0.00000000000E+00 -0.00000000000E+00 -0.28538161160E+03  0.28538161160E+03  0.00000000000E+00 0. -1.
         24    2    1    2    0    0  0.16918724475E+03  0.93736289737E+02 -0.19985898793E+03  0.28962095485E+03  0.80782836262E+02 0.  0.
         25    2    1    2    0    0 -0.12228007442E+03 -0.50829617420E+02  0.20117070900E+03  0.27137811244E+03  0.12506142148E+03 0.  0.
        -24    2    1    2    0    0 -0.46907170324E+02 -0.42906672318E+02  0.47721283032E+03  0.48828870729E+03  0.81562927146E+02 0.  0.
        -13    1    3    3    0    0  0.20842166792E+02  0.28173719319E+02 -0.81873441427E+02  0.89058490825E+02  0.00000000000E+00 0.  1.
         14    1    3    3    0    0  0.14834507796E+03  0.65562570419E+02 -0.11798554650E+03  0.20056246403E+03  0.00000000000E+00 0. -1.
         11    1    5    5    0    0  0.20577019335E+02 -0.17186831436E+02  0.75101931568E+02  0.79743971714E+02  0.00000000000E+00 0. -1.
        -12    1    5    5    0    0 -0.67484189659E+02 -0.25719840882E+02  0.40211089875E+03  0.40854473557E+03  0.00000000000E+00 0.  1.
          5    1    4    4  501    0 -0.85104056384E+02 -0.51542247910E+01  0.30276438303E+02  0.90572631421E+02  0.41800000000E+01 0. -1.
         -5    1    4    4    0  501 -0.37176018038E+02 -0.45675392629E+02  0.17089427070E+03  0.18080548102E+03  0.41800000000E+01 0. -1.
</event>
<event>
11    1  0.6763327E-009  0.1422935E+03  0.7561462E-02  0.1105024E+00
         22   -1    0    0    0    0  0.00000000000E+00  0.00000000000E+00  0.22692274670E+03  0.22692274670E+03  0.00000000000E+00 0.  1.
         22   -1    0    0    0    0 -0.00000000000E+00 -0.00000000000E+00 -0.39987558002E+03  0.39987558002E+03  0.00000000000E+00 0.  1.
        -24    2    1    2    0    0 -0.46601287556E+02 -0.51502958803E+02 -0.31051682628E+03  0.32887525336E+03  0.83150454635E+02 0.  0.
         25    2    1    2    0    0  0.59769474630E+02  0.18735502975E+02  0.60963727467E+01  0.14002847736E+03  0.12508956608E+03 0.  0.
         24    2    1    2    0    0 -0.13168187075E+02  0.32767455828E+02  0.13146762022E+03  0.15789459600E+03  0.79999131035E+02 0.  0.
        -13    1    5    5    0    0 -0.12473213984E+02  0.59374710703E+02  0.95680830523E+02  0.11329500725E+03  0.00000000000E+00 0.  1.
         14    1    5    5    0    0 -0.69497309071E+00 -0.26607254875E+02  0.35786789697E+02  0.44599588747E+02  0.00000000000E+00 0. -1.
         11    1    3    3    0    0  0.39366087066E+01 -0.20508395775E+02 -0.11107838345E+02  0.23653229337E+02  0.00000000000E+00 0. -1.
        -12    1    3    3    0    0 -0.50537896262E+02 -0.30994563028E+02 -0.29940898793E+03  0.30522202403E+03  0.00000000000E+00 0.  1.
          5    1    4    4  501    0 -0.38739351720E+02  0.77648751185E+01  0.91702114102E+01  0.40774941258E+02  0.41800000000E+01 0. -1.
         -5    1    4    4    0  501  0.98508826351E+02  0.10970627856E+02 -0.30738386636E+01  0.99253536102E+02  0.41800000000E+01 0. -1.
</event>
<event>
11    1  0.6763327E-009  0.1354261E+03  0.7561462E-02  0.1112776E+00
         22   -1    0    0    0    0  0.00000000000E+00  0.00000000000E+00  0.76252721974E+03  0.76252721974E+03  0.00000000000E+00 0. -1.
         22   -1    0    0    0    0 -0.00000000000E+00 -0.00000000000E+00 -0.19462890699E+03  0.19462890699E+03  0.00000000000E+00 0. -1.
         24    2    1    2    0    0  0.59399576762E+01  0.50969547819E+02 -0.13497803737E+03  0.16517962939E+03  0.80200133999E+02 0.  0.
         25    2    1    2    0    0  0.40474009054E+02 -0.59528463930E+02  0.85608715537E+02  0.16780417042E+03  0.12509038336E+03 0.  0.
        -24    2    1    2    0    0 -0.46413966730E+02  0.85589161109E+01  0.61726763457E+03  0.62417232691E+03  0.79650798092E+02 0.  0.
        -13    1    3    3    0    0 -0.10625140559E+02  0.25662480199E+02 -0.96092419219E+00  0.27791723178E+02  0.00000000000E+00 0.  1.
         14    1    3    3    0    0  0.16565098235E+02  0.25307067620E+02 -0.13401711317E+03  0.13738790622E+03  0.00000000000E+00 0. -1.
         11    1    5    5    0    0 -0.32860439645E+02  0.38746950946E+02  0.23259011052E+03  0.23807413596E+03  0.00000000000E+00 0. -1.
        -12    1    5    5    0    0 -0.13553527085E+02 -0.30188034836E+02  0.38467752405E+03  0.38609819095E+03  0.00000000000E+00 0.  1.
          5    1    4    4  501    0  0.50798432080E+02 -0.37732707827E+02 -0.14242534318E+02  0.64996616262E+02  0.41800000000E+01 0.  1.
         -5    1    4    4    0  501 -0.10324423025E+02 -0.21795756103E+02  0.99851249856E+02  0.10280755416E+03  0.41800000000E+01 0.  1.
</event>
<event>
11    1  0.6763327E-009  0.1401727E+03  0.7561462E-02  0.1107366E+00
         22   -1    0    0    0    0  0.00000000000E+00  0.00000000000E+00  0.42216092352E+03  0.42216092352E+03  0.00000000000E+00 0. -1.
         22   -1    0    0    0    0 -0.00000000000E+00 -0.00000000000E+00 -0.22162693669E+03  0.22162693669E+03  0.00000000000E+00 0. -1.
        -24    2    1    2    0    0 -0.50606191311E+02  0.56527117225E+02 -0.82707792913E+02  0.13957533356E+03  0.82972243241E+02 0.  0.
         25    2    1    2    0    0 -0.22970183586E+02 -0.62372713563E+02 -0.52592731149E+02  0.15109609431E+03  0.12508417012E+03 0.  0.
         24    2    1    2    0    0  0.73576374897E+02  0.58455963380E+01  0.33583451089E+03  0.35311643234E+03  0.80366299794E+02 0.  0.
        -13    1    5    5    0    0  0.12300857468E+01 -0.28510044507E+02  0.10367941630E+03  0.10753491113E+03  0.00000000000E+00 0.  1.
         14    1    5    5    0    0  0.72346289150E+02  0.34355640845E+02  0.23215509459E+03  0.24558152120E+03  0.00000000000E+00 0. -1.
         11    1    3    3    0    0 -0.84519882558E+01  0.18407557246E+02 -0.80165386695E+02  0.82684723458E+02  0.00000000000E+00 0. -1.
        -12    1    3    3    0    0 -0.42154203055E+02  0.38119559978E+02 -0.25424062175E+01  0.56890610100E+02  0.00000000000E+00 0.  1.
          5    1    4    4  501    0 -0.44420881403E+02 -0.91075377677E+02 -0.21955089082E+02  0.10376626359E+03  0.41800000000E+01 0. -1.
         -5    1    4    4    0  501  0.21450697817E+02  0.28702664114E+02 -0.30637642067E+02  0.47329830715E+02  0.41800000000E+01 0. -1.
</event>
<event>
11    1  0.6763327E-009  0.1343316E+03  0.7561462E-02  0.1114059E+00
         22   -1    0    0    0    0  0.00000000000E+00  0.00000000000E+00  0.74387499898E+03  0.74387499898E+03  0.00000000000E+00 0. -1.
         22   -1    0    0    0    0 -0.00000000000E+00 -0.00000000000E+00 -0.37474411901E+03  0.37474411901E+03  0.00000000000E+00 0.  1.
         24    2    1    2    0    0  0.19759771266E+02 -0.36136663273E+02 -0.31717740203E+03  0.32971032701E+03  0.80069272409E+02 0.  0.
         25    2    1    2    0    0 -0.43068044440E+02  0.75336465007E+02  0.75943650825E+02  0.17012815244E+03  0.12508281553E+03 0.  0.
        -24    2    1    2    0    0  0.23308273174E+02 -0.39199801735E+02  0.61036463118E+03  0.61878063854E+03  0.90909821141E+02 0.  0.
        -11    1    3    3    0    0  0.47440902518E+02 -0.28403778678E+02 -0.25880522734E+03  0.26464610251E+03  0.00000000000E+00 0.  1.
         12    1    3    3    0    0 -0.27681131252E+02 -0.77328845945E+01 -0.58372174691E+02  0.65064224499E+02  0.00000000000E+00 0. -1.
         11    1    5    5    0    0 -0.13254759525E+02 -0.42875291827E+02  0.50875115850E+03  0.51072665936E+03  0.00000000000E+00 0. -1.
        -12    1    5    5    0    0  0.36563032699E+02  0.36754900920E+01  0.10161347268E+03  0.10805397918E+03  0.00000000000E+00 0.  1.
          5    1    4    4  501    0 -0.84020949396E+02  0.71345289599E+02  0.61681711176E+02  0.12637949272E+03  0.41800000000E+01 0. -1.
         -5    1    4    4    0  501  0.40952904956E+02  0.39911754081E+01  0.14261939649E+02  0.43748659728E+02  0.41800000000E+01 0. -1.
</event>
<event>
11    1  0.6763327E-009  0.1406048E+03  0.7561462E-02  0.1106885E+00
         22   -1    0    0    0    0  0.00000000000E+00  0.00000000000E+00  0.77848703703E+03  0.77848703703E+03  0.00000000000E+00 0. -1.
         22   -1    0    0    0    0 -0.00000000000E+00 -0.00000000000E+00 -0.35136962541E+03  0.35136962541E+03  0.00000000000E+00 0. -1.
         24    2    1    2    0    0 -0.23309758350E+02 -0.60026719649E+02 -0.29731443550E+03  0.31473147054E+03  0.80706090765E+02 0.  0.
         25    2    1    2    0    0  0.58295910925E+02  0.42305219000E+02  0.80989043124E+02  0.16551912608E+03  0.12509680733E+03 0.  0.
        -24    2    1    2    0    0 -0.34986152575E+02  0.17721500649E+02  0.64344280399E+03  0.64960606582E+03  0.80195487889E+02 0.  0.
        -13    1    3    3    0    0 -0.10258250632E+02 -0.45256767228E+02 -0.56510007001E+02  0.73121731224E+02  0.00000000000E+00 0.  1.
         14    1    3    3    0    0 -0.13051507718E+02 -0.14769952420E+02 -0.24080442850E+03  0.24160973932E+03  0.00000000000E+00 0. -1.
         13    1    5    5    0    0 -0.50722399196E+02 -0.54702740553E+01  0.54095262177E+03  0.54335294669E+03  0.00000000000E+00 0. -1.
        -14    1    5    5    0    0  0.15736246621E+02  0.23191774704E+02  0.10249018222E+03  0.10625311912E+03  0.00000000000E+00 0.  1.
          5    1    4    4  501    0  0.81284613215E+02  0.30500067742E+02  0.71916035608E+01  0.87216019398E+02  0.41800000000E+01 0.  1.
         -5    1    4    4    0  501 -0.22988702290E+02  0.11805151257E+02  0.73797439564E+02  0.78303106677E+02  0.41800000000E+01 0.  1.
</event>
<event>
11    1  0.6763327E-009  0.2473919E+03  0.7561462E-02  0.1025298E+00
         22   -1    0    0    0    0  0.00000000000E+00  0.00000000000E+00  0.40153469249E+03  0.40153469249E+03  0.00000000000E+00 0.  1.
         22   -1    0    0    0    0 -0.00000000000E+00 -0.00000000000E+00 -0.99129202201E+03  0.99129202201E+03  0.00000000000E+00 0.  1.
        -24    2    1    2    0    0 -0.28093541441E+02 -0.31367928632E+02 -0.84658182882E+03  0.85132503928E+03  0.79248568362E+02 0.  0.
         25    2    1    2    0    0  0.19561516825E+03  0.12755879286E+03  0.17806577118E+03  0.31920369893E+03  0.12508814035E+03 0.  0.
         24    2    1    2    0    0 -0.16752162681E+03 -0.96190864228E+02  0.78758728122E+02  0.22229797630E+03  0.76793718501E+02 0.  0.
        -13    1    5    5    0    0 -0.16080363533E+03 -0.10370433065E+03  0.59195448666E+02  0.20029103443E+03  0.00000000000E+00 0.  1.
         14    1    5    5    0    0 -0.67179914823E+01  0.75134664254E+01  0.19563279456E+02  0.22006941867E+02  0.00000000000E+00 0. -1.
         13    1    3    3    0    0 -0.34904406857E+02  0.24377238837E+01 -0.15569789831E+03  0.15958100029E+03  0.00000000000E+00 0. -1.
        -14    1    3    3    0    0  0.68108654158E+01 -0.33805652516E+02 -0.69088393051E+03  0.69174403899E+03  0.00000000000E+00 0.  1.
          5    1    4    4  501    0  0.58931473597E+02  0.63173658366E+02  0.11342872478E+01  0.86501957777E+02  0.41800000000E+01 0.  1.
         -5    1    4    4    0  501  0.13668369465E+03  0.64385134495E+02  0.17693148393E+03  0.23270174115E+03  0.41800000000E+01 0.  1.
</event>
<event>
11    1  0.6763327E-009  0.1291640E+03  0.7561462E-02  0.1120300E+00
         22   -1    0    0    0    0  0.00000000000E+00  0.00000000000E+00  0.37522100761E+03  0.37522100761E+03  0.00000000000E+00 0.  1.
         22   -1    0    0    0    0 -0.00000000000E+00 -0.00000000000E+00 -0.36277911642E+03  0.36277911642E+03  0.00000000000E+00 0. -1.
        -24    2    1    2    0    0 -0.21233707098E+02 -0.20008002959E+02 -0.28734832540E+03  0.30523926718E+03  0.98745934690E+02 0.  0.
         25    2    1    2    0    0  0.57508155134E+02  0.25587046926E+02  0.22708646103E+02  0.14185847369E+03  0.12508500738E+03 0.  0.
         24    2    1    2    0    0 -0.36274448036E+02 -0.55790439668E+01  0.27708157049E+03  0.29090238316E+03  0.80641419315E+02 0.  0.
        -11    1    5    5    0    0 -0.45036830396E+02 -0.35357487771E+02  0.16794447929E+03  0.17743679482E+03  0.00000000000E+00 0.  1.
         12    1    5    5    0    0  0.87623823598E+01  0.29778443804E+02  0.10913709121E+03  0.11346558834E+03  0.00000000000E+00 0. -1.
         13    1    3    3    0    0 -0.40062321785E+02 -0.21353291129E+02 -0.28198433175E+03  0.28561532876E+03  0.00000000000E+00 0. -1.
        -14    1    3    3    0    0  0.18828614688E+02  0.13452881698E+01 -0.53639936520E+01  0.19623938422E+02  0.00000000000E+00 0.  1.
          5    1    4    4  501    0  0.23115453398E+02  0.63134431020E+02  0.50042326674E+02  0.83916550364E+02  0.41800000000E+01 0. -1.
         -5    1    4    4    0  501  0.34392701736E+02 -0.37547384094E+02 -0.27333680572E+02  0.57941923325E+02  0.41800000000E+01 0. -1.
</event>
<event>
11    1  0.6763327E-009  0.4426667E+03  0.7561462E-02  0.9531631E-01
         22   -1    0    0    0    0  0.00000000000E+00  0.00000000000E+00  0.94397278102E+03  0.94397278102E+03  0.00000000000E+00 0. -1.
         22   -1    0    0    0    0 -0.00000000000E+00 -0.00000000000E+00 -0.43969639651E+03  0.43969639651E+03  0.00000000000E+00 0.  1.
        -24    2    1    2    0    0  0.11524083716E+03  0.24149438434E+03 -0.27157210830E+03  0.38961039042E+03  0.80279873555E+02 0.  0.
         25    2    1    2    0    0  0.57286476741E+02  0.12178989795E+02 -0.17848578782E+02  0.13927347423E+03  0.12509380740E+03 0.  0.
         24    2    1    2    0    0 -0.17252731390E+03 -0.25367337414E+03  0.79369707160E+03  0.85478531288E+03  0.81160549879E+02 0.  0.
        -13    1    5    5    0    0 -0.19775423510E+02  0.14133438529E+01  0.57119218038E+02  0.60462136789E+02  0.00000000000E+00 0.  1.
         14    1    5    5    0    0 -0.15275189039E+03 -0.25508671799E+03  0.73657785356E+03  0.79432317609E+03  0.00000000000E+00 0. -1.
         13    1    3    3    0    0 -0.11910728060E+02  0.31097858992E+02 -0.27433469987E+02  0.43145539194E+02  0.00000000000E+00 0. -1.
        -14    1    3    3    0    0  0.12715156522E+03  0.21039652535E+03 -0.24413863832E+03  0.34646485123E+03  0.00000000000E+00 0.  1.
          5    1    4    4  501    0 -0.16261723422E+02  0.38941878893E+02 -0.39506828831E+02  0.57958394601E+02  0.41800000000E+01 0.  1.
         -5    1    4    4    0  501  0.73548200163E+02 -0.26762889099E+02  0.21658250049E+02  0.81315079631E+02  0.41800000000E+01 0.  1.
</event>
<event>
11    1  0.6763327E-009  0.1278289E+03  0.7561462E-02  0.1121966E+00
         22   -1    0    0    0    0  0.00000000000E+00  0.00000000000E+00  0.41315547311E+03  0.41315547311E+03  0.00000000000E+00 0. -1.
         22   -1    0    0    0    0 -0.00000000000E+00 -0.00000000000E+00 -0.25514056721E+03  0.25514056721E+03  0.00000000000E+00 0. -1.
        -24    2    1    2    0    0 -0.23751537510E+02  0.10399903982E+02 -0.20392139399E+03  0.22061280502E+03  0.80086086656E+02 0.  0.
         25    2    1    2    0    0  0.28492218564E+02 -0.13568296771E+02  0.75264170380E+02  0.14935943647E+03  0.12509053012E+03 0.  0.
         24    2    1    2    0    0 -0.47406810544E+01  0.31683927892E+01  0.28667212951E+03  0.29832379883E+03  0.82363015631E+02 0.  0.
        -13    1    5    5    0    0 -0.34860653457E+02 -0.62329595241E+01  0.61626992563E+02  0.71077430709E+02  0.00000000000E+00 0.  1.
         14    1    5    5    0    0  0.30119972403E+02  0.94013523133E+01  0.22504513695E+03  0.22724636812E+03  0.00000000000E+00 0. -1.
         13    1    3    3    0    0  0.87082757496E+01  0.22378929812E+02 -0.17157720327E+03  0.17324949422E+03  0.00000000000E+00 0. -1.
        -14    1    3    3    0    0 -0.32459813259E+02 -0.11979025830E+02 -0.32344190720E+02  0.47363310801E+02  0.00000000000E+00 0.  1.
          5    1    4    4  501    0 -0.49462966515E+02 -0.11181028165E+02  0.31079694800E+02  0.59623990777E+02  0.41800000000E+01 0.  1.
         -5    1    4    4    0  501  0.77955185079E+02 -0.23872686062E+01  0.44184475579E+02  0.89735445696E+02  0.41800000000E+01 0.  1.
</event>
<event>
11    1  0.6763327E-009  0.1345718E+03  0.7561462E-02  0.1113776E+00
         22   -1    0    0    0    0  0.00000000000E+00  0.00000000000E+00  0.10635398389E+04  0.10635398389E+04  0.00000000000E+00 0. -1.
         22   -1    0    0    0    0 -0.00000000000E+00 -0.00000000000E+00 -0.11319481485E+04  0.11319481485E+04  0.00000000000E+00 0. -1.
        -24    2    1    2    0    0 -0.39217784725E+02 -0.24589054488E+02 -0.10794452752E+04  0.10836109855E+04  0.82873453830E+02 0.  0.
         25    2    1    2    0    0  0.41705527101E+02 -0.25995218405E+02  0.45841142292E+02  0.14199650816E+03  0.12508595298E+03 0.  0.
         24    2    1    2    0    0 -0.24877423757E+01  0.50584272893E+02  0.96519582339E+03  0.96988049371E+03  0.80624047683E+02 0.  0.
        -11    1    5    5    0    0  0.59748424667E+01  0.23037954237E+01  0.42506009979E+01  0.76859498241E+01  0.00000000000E+00 0.  1.
         12    1    5    5    0    0 -0.84625848424E+01  0.48280477469E+02  0.96094522239E+03  0.96219454388E+03  0.00000000000E+00 0. -1.
         13    1    3    3    0    0 -0.20666586358E+01 -0.46601673792E+02 -0.73335315387E+03  0.73483524369E+03  0.00000000000E+00 0. -1.
        -14    1    3    3    0    0 -0.37151126089E+02  0.22012619304E+02 -0.34609212137E+03  0.34877574178E+03  0.00000000000E+00 0.  1.
          5    1    4    4  501    0  0.15431555413E+02 -0.75928469610E+02  0.30523702953E+02  0.83381258336E+02  0.41800000000E+01 0. -1.
         -5    1    4    4    0  501  0.26273971688E+02  0.49933251205E+02  0.15317439339E+02  0.58615249825E+02  0.41800000000E+01 0. -1.
</event>
<event>
11    1  0.6763327E-009  0.1385467E+03  0.7561462E-02  0.1109192E+00
         22   -1    0    0    0    0  0.00000000000E+00  0.00000000000E+00  0.56333929459E+03  0.56333929459E+03  0.00000000000E+00 0. -1.
         22   -1    0    0    0    0 -0.00000000000E+00 -0.00000000000E+00 -0.23386159318E+03  0.23386159318E+03  0.00000000000E+00 0. -1.
        -24    2    1    2    0    0  0.55550214849E+02  0.24879838343E+02 -0.18095091460E+03  0.20695023489E+03  0.79876989825E+02 0.  0.
         25    2    1    2    0    0 -0.42535724539E+02 -0.20058939867E+02  0.87838707550E+02  0.15992497865E+03  0.12509480933E+03 0.  0.
         24    2    1    2    0    0 -0.13014490310E+02 -0.48208984763E+01  0.42258990845E+03  0.43032567422E+03  0.80033350250E+02 0.  0.
        -11    1    5    5    0    0  0.31510522461E+02  0.48300618373E+01  0.24140034577E+03  0.24349613849E+03  0.00000000000E+00 0.  1.
         12    1    5    5    0    0 -0.44525012771E+02 -0.96509603137E+01  0.18118956268E+03  0.18682953573E+03  0.00000000000E+00 0. -1.
         11    1    3    3    0    0  0.26842349600E+02  0.53390889337E+02 -0.10132337741E+03  0.11763301240E+03  0.00000000000E+00 0. -1.
        -12    1    3    3    0    0  0.28707865249E+02 -0.28511050993E+02 -0.79627537187E+02  0.89317222496E+02  0.00000000000E+00 0.  1.
          5    1    4    4  501    0  0.42469155127E+02 -0.95452967673E+01  0.11748432406E+02  0.45279574773E+02  0.41800000000E+01 0.  1.
         -5    1    4    4    0  501 -0.85004879666E+02 -0.10513643100E+02  0.76090275143E+02  0.11464540388E+03  0.41800000000E+01 0.  1.
</event>
<event>
11    1  0.6763327E-009  0.2292870E+03  0.7561462E-02  0.1035551E+00
         22   -1    0    0    0    0  0.00000000000E+00  0.00000000000E+00  0.23063986169E+04  0.23063986169E+04  0.00000000000E+00 0.  1.
         22   -1    0    0    0    0 -0.00000000000E+00 -0.00000000000E+00 -0.11742929386E+04  0.11742929386E+04  0.00000000000E+00 0. -1.
        -24    2    1    2    0    0  0.27861873105E+02 -0.19950828085E+02 -0.10782084973E+04  0.10818073122E+04  0.81235323099E+02 0.  0.
         25    2    1    2    0    0  0.14526496753E+03 -0.67485157260E+02  0.26382587275E+02  0.20494119898E+03  0.12509475163E+03 0.  0.
         24    2    1    2    0    0 -0.17312684063E+03  0.87435985345E+02  0.21839315883E+04  0.21939430443E+04  0.78809548952E+02 0.  0.
        -11    1    5    5    0    0 -0.11187517216E+03  0.44260593553E+02  0.16990743757E+04  0.17033287376E+04  0.00000000000E+00 0.  1.
         12    1    5    5    0    0 -0.61251668472E+02  0.43175391791E+02  0.48485721261E+03  0.49061430673E+03  0.00000000000E+00 0. -1.
         13    1    3    3    0    0  0.71898747900E+01 -0.23656509776E+02 -0.10129706884E+04  0.10132723920E+04  0.00000000000E+00 0. -1.
        -14    1    3    3    0    0  0.20671998315E+02  0.37056816908E+01 -0.65237808804E+02  0.68534920213E+02  0.00000000000E+00 0.  1.
          5    1    4    4  501    0  0.14161523989E+03 -0.25731180018E+02 -0.16373223305E+02  0.14492247802E+03  0.41800000000E+01 0.  1.
         -5    1    4    4    0  501  0.36497276420E+01 -0.41753977242E+02  0.42755810580E+02  0.60018720961E+02  0.41800000000E+01 0.  1.
</event>
<event>
11    1  0.6763327E-009  0.1842610E+03  0.7561462E-02  0.1066247E+00
         22   -1    0    0    0    0  0.00000000000E+00  0.00000000000E+00  0.24229826772E+04  0.24229826772E+04  0.00000000000E+00 0. -1.
         22   -1    0    0    0    0 -0.00000000000E+00 -0.00000000000E+00 -0.63256470704E+03  0.63256470704E+03  0.00000000000E+00 0.  1.
        -24    2    1    2    0    0 -0.12515166433E+03  0.49913459836E+02 -0.60471222414E+03  0.62485144743E+03  0.81290619258E+02 0.  0.
         25    2    1    2    0    0  0.18915142730E+03 -0.12374189341E+02  0.79363997884E+03  0.82549501211E+03  0.12508483518E+03 0.  0.
         24    2    1    2    0    0 -0.63999762966E+02 -0.37539270494E+02  0.16014902154E+04  0.16052009247E+04  0.79962065718E+02 0.  0.
        -13    1    5    5    0    0 -0.72711487960E+02 -0.29285894057E+01  0.99087598847E+03  0.99354454436E+03  0.00000000000E+00 0.  1.
         14    1    5    5    0    0  0.87117249944E+01 -0.34610681089E+02  0.61061422697E+03  0.61165638032E+03  0.00000000000E+00 0. -1.
         13    1    3    3    0    0 -0.34550157179E+02 -0.49556809663E+01 -0.55831142214E+02  0.65843667698E+02  0.00000000000E+00 0. -1.
        -14    1    3    3    0    0 -0.90601507151E+02  0.54869140802E+02 -0.54888108193E+03  0.55900777974E+03  0.00000000000E+00 0.  1.
          5    1    4    4  501    0  0.34147534163E+01 -0.37240615619E+02  0.17885932970E+03  0.18277487851E+03  0.41800000000E+01 0. -1.
         -5    1    4    4    0  501  0.18573667388E+03  0.24866426277E+02  0.61478064914E+03  0.64272013361E+03  0.41800000000E+01 0. -1.
</event>
<event>
11    1  0.6763327E-009  0.1653957E+03  0.7561462E-02  0.1082109E+00
         22   -1    0    0    0    0  0.00000000000E+00  0.00000000000E+00  0.25779365782E+03  0.25779365782E+03  0.00000000000E+00 0.  1.
         22   -1    0    0    0    0 -0.00000000000E+00 -0.00000000000E+00 -0.81795770412E+03  0.81795770412E+03  0.00000000000E+00 0.  1.
        -24    2    1    2    0    0  0.10437899866E+03 -0.21636322969E+02 -0.58128814775E+03  0.59627676848E+03  0.79290403486E+02 0.  0.
         25    2    1    2    0    0 -0.10294785281E+03  0.65729503438E+02 -0.18428816669E+03  0.25402314927E+03  0.12508798490E+03 0.  0.
         24    2    1    2    0    0 -0.14311458525E+01 -0.44093180469E+02  0.20541226814E+03  0.22545144418E+03  0.81779563698E+02 0.  0.
        -11    1    5    5    0    0 -0.18621182863E+02 -0.41072415185E+02  0.20286033370E+03  0.20781243160E+03  0.00000000000E+00 0.  1.
         12    1    5    5    0    0  0.17190037011E+02 -0.30207652836E+01  0.25519344410E+01  0.17639012578E+02  0.00000000000E+00 0. -1.
         11    1    3    3    0    0  0.46095501763E+02 -0.28263773923E+02 -0.12445967803E+03  0.13569763320E+03  0.00000000000E+00 0. -1.
        -12    1    3    3    0    0  0.58283496895E+02  0.66274509540E+01 -0.45682846972E+03  0.46057913529E+03  0.00000000000E+00 0.  1.
          5    1    4    4  501    0  0.13339132486E+02  0.69513845030E+00 -0.89175536416E+02  0.90267183229E+02  0.41800000000E+01 0.  1.
         -5    1    4    4    0  501 -0.11628698529E+03  0.65034364988E+02 -0.95112630269E+02  0.16375596604E+03  0.41800000000E+01 0.  1.
</event>
<event>
11    1  0.6763327E-009  0.1785815E+03  0.7561462E-02  0.1070796E+00
         22   -1    0    0    0    0  0.00000000000E+00  0.00000000000E+00  0.18844570296E+03  0.18844570296E+03  0.00000000000E+00 0. -1.
         22   -1    0    0    0    0 -0.00000000000E+00 -0.00000000000E+00 -0.93521627507E+03  0.93521627507E+03  0.00000000000E+00 0.  1.
        -24    2    1    2    0    0  0.36871770685E+02  0.11505426930E+03 -0.64333385971E+03  0.65973284699E+03  0.82291931466E+02 0.  0.
         25    2    1    2    0    0  0.16060086464E+02 -0.17353448508E+03 -0.21633186969E+03  0.30465959140E+03  0.12508335181E+03 0.  0.
         24    2    1    2    0    0 -0.52931857149E+02  0.58480215781E+02  0.11289515729E+03  0.15926953965E+03  0.79998453615E+02 0.  0.
        -13    1    5    5    0    0 -0.30954688060E+02 -0.14970345450E+02  0.24286906702E+02  0.42097004560E+02  0.00000000000E+00 0.  1.
         14    1    5    5    0    0 -0.21977169088E+02  0.73450561231E+02  0.88608250589E+02  0.11717253509E+03  0.00000000000E+00 0. -1.
         13    1    3    3    0    0  0.53895279315E+02  0.53742367891E+02 -0.25145249485E+03  0.26271905223E+03  0.00000000000E+00 0. -1.
        -14    1    3    3    0    0 -0.17023508630E+02  0.61311901410E+02 -0.39188136487E+03  0.39701379476E+03  0.00000000000E+00 0.  1.
          5    1    4    4  501    0 -0.23824379899E+02  0.98622108841E+01 -0.19041958761E+02  0.32325421490E+02  0.41800000000E+01 0.  1.
         -5    1    4    4    0  501  0.39884466362E+02 -0.18339669597E+03 -0.19728991092E+03  0.27233416991E+03  0.41800000000E+01 0.  1.
</event>
<event>
11    1  0.6763327E-009  0.1313033E+03  0.7561462E-02  0.1117678E+00
         22   -1    0    0    0    0  0.00000000000E+00  0.00000000000E+00  0.14501847921E+04  0.14501847921E+04  0.00000000000E+00 0. -1.
         22   -1    0    0    0    0 -0.00000000000E+00 -0.00000000000E+00 -0.25616087944E+03  0.25616087944E+03  0.00000000000E+00 0. -1.
         24    2    1    2    0    0 -0.38334445735E+02  0.17447294418E+02 -0.19976626973E+03  0.21945717707E+03  0.80504361590E+02 0.  0.
         25    2    1    2    0    0  0.19162776476E+02 -0.53890832396E+01  0.42805359722E+02  0.13371513797E+03  0.12510469647E+03 0.  0.
        -24    2    1    2    0    0  0.19171669259E+02 -0.12058211179E+02  0.13509848227E+04  0.13531733565E+04  0.73519985721E+02 0.  0.
        -13    1    3    3    0    0 -0.45755779551E+02 -0.28653485929E+01 -0.48827566043E+02  0.66977106467E+02  0.00000000000E+00 0.  1.
         14    1    3    3    0    0  0.74213338169E+01  0.20312643011E+02 -0.15093870369E+03  0.15248007061E+03  0.00000000000E+00 0. -1.
         11    1    5    5    0    0  0.27566061521E+02  0.22534213967E+02  0.93175727776E+03  0.93243729184E+03  0.00000000000E+00 0. -1.
        -12    1    5    5    0    0 -0.83943922620E+01 -0.34592425146E+02  0.41922754494E+03  0.42073606470E+03  0.00000000000E+00 0.  1.
          5    1    4    4  501    0 -0.27715832960E+02  0.17145049436E+02  0.68185464275E+02  0.75689167357E+02  0.41800000000E+01 0. -1.
         -5    1    4    4    0  501  0.46878609436E+02 -0.22534132676E+02 -0.25380104553E+02  0.58025970610E+02  0.41800000000E+01 0. -1.
</event>
<event>
11    1  0.6763327E-009  0.1690637E+03  0.7561462E-02  0.1078849E+00
         22   -1    0    0    0    0  0.00000000000E+00  0.00000000000E+00  0.45426384911E+03  0.45426384911E+03  0.00000000000E+00 0.  1.
         22   -1    0    0    0    0 -0.00000000000E+00 -0.00000000000E+00 -0.41275721824E+03  0.41275721824E+03  0.00000000000E+00 0.  1.
         24    2    1    2    0    0 -0.12960862941E+03  0.36136151790E+02 -0.20172292744E+03  0.25533071972E+03  0.79983865213E+02 0.  0.
         25    2    1    2    0    0  0.75023890865E+02 -0.51194542764E+02 -0.14459616209E+03  0.21167171123E+03  0.12508955925E+03 0.  0.
        -24    2    1    2    0    0  0.54584738548E+02  0.15058390974E+02  0.38782572039E+03  0.40001863640E+03  0.79999195295E+02 0.  0.
        -13    1    3    3    0    0 -0.13097107985E+03  0.51663661035E+02 -0.18481713577E+03  0.23233581580E+03  0.00000000000E+00 0.  1.
         14    1    3    3    0    0  0.13624504346E+01 -0.15527509245E+02 -0.16905791669E+02  0.22994903924E+02  0.00000000000E+00 0. -1.
         13    1    5    5    0    0  0.18229027899E+02  0.41861228478E+02  0.26997849499E+03  0.27381206632E+03  0.00000000000E+00 0. -1.
        -14    1    5    5    0    0  0.36355710649E+02 -0.26802837504E+02  0.11784722541E+03  0.12620657008E+03  0.00000000000E+00 0.  1.
          5    1    4    4  501    0  0.90506761947E+02  0.99562695218E+01 -0.79807041267E+02  0.12114964918E+03  0.41800000000E+01 0.  1.
         -5    1    4    4    0  501 -0.15482871082E+02 -0.61150812286E+02 -0.64789120822E+02  0.90522062047E+02  0.41800000000E+01 0.  1.
</event>
<event>
11    1  0.6763327E-009  0.1323841E+03  0.7561462E-02  0.1116374E+00
         22   -1    0    0    0    0  0.00000000000E+00  0.00000000000E+00  0.33842779445E+03  0.33842779445E+03  0.00000000000E+00 0.  1.
         22   -1    0    0    0    0 -0.00000000000E+00 -0.00000000000E+00 -0.19217083704E+04  0.19217083704E+04  0.00000000000E+00 0. -1.
        -24    2    1    2    0    0 -0.40786004413E+02  0.14080578568E+02 -0.17757803350E+04  0.17780845177E+04  0.79542395951E+02 0.  0.
         25    2    1    2    0    0  0.53154759949E+02  0.39588027784E+01 -0.10581153775E+03  0.17228943585E+03  0.12508584076E+03 0.  0.
         24    2    1    2    0    0 -0.12368755536E+02 -0.18039381346E+02  0.29831129681E+03  0.30976221138E+03  0.80526966900E+02 0.  0.
        -13    1    5    5    0    0 -0.67177006447E+01 -0.18727227964E+02  0.30220884935E+03  0.30286304693E+03  0.00000000000E+00 0.  1.
         14    1    5    5    0    0 -0.56510548916E+01  0.68784661835E+00 -0.38975525349E+01  0.68991644510E+01  0.00000000000E+00 0. -1.
         13    1    3    3    0    0 -0.39201836874E+02  0.28776913113E+02 -0.17088312265E+04  0.17095230491E+04  0.00000000000E+00 0. -1.
        -14    1    3    3    0    0 -0.15841675391E+01 -0.14696334545E+02 -0.66949108544E+02  0.68561468557E+02  0.00000000000E+00 0.  1.
          5    1    4    4  501    0  0.68867422410E+02  0.38936420783E+02 -0.25550570804E+02  0.83241040366E+02  0.41800000000E+01 0. -1.
         -5    1    4    4    0  501 -0.15712662461E+02 -0.34977618005E+02 -0.80260966945E+02  0.89048395481E+02  0.41800000000E+01 0. -1.
</event>
<event>
11    1  0.6763327E-009  0.1886315E+03  0.7561462E-02  0.1062867E+00
         22   -1    0    0    0    0  0.00000000000E+00  0.00000000000E+00  0.93718404566E+03  0.93718404566E+03  0.00000000000E+00 0.  1.
         22   -1    0    0    0    0 -0.00000000000E+00 -0.00000000000E+00 -0.61117695608E+03  0.61117695608E+03  0.00000000000E+00 0.  1.
         24    2    1    2    0    0  0.81959277388E+01 -0.97012419711E+00 -0.36930741123E+03  0.37789747976E+03  0.79689565504E+02 0.  0.
         25    2    1    2    0    0  0.70191674788E+02 -0.11666076697E+03 -0.19316403764E+03  0.26738656030E+03  0.12508645584E+03 0.  0.
        -24    2    1    2    0    0 -0.78387602527E+02  0.11763089117E+03  0.88847853844E+03  0.90307696167E+03  0.78563621644E+02 0.  0.
        -11    1    3    3    0    0  0.14655054849E+01 -0.18627004673E+02 -0.35129555490E+03  0.35179209755E+03  0.00000000000E+00 0.  1.
         12    1    3    3    0    0  0.67304222538E+01  0.17656880475E+02 -0.18011856329E+02  0.26105382209E+02  0.00000000000E+00 0. -1.
         13    1    5    5    0    0 -0.63416492333E+01 -0.47378027511E+01  0.19746538056E+03  0.19762398592E+03  0.00000000000E+00 0. -1.
        -14    1    5    5    0    0 -0.72045953294E+02  0.12236869392E+03  0.69101315788E+03  0.70545297575E+03  0.00000000000E+00 0.  1.
          5    1    4    4  501    0  0.71802628415E+02 -0.13065312461E+03 -0.20134872638E+03  0.25056863018E+03  0.41800000000E+01 0.  1.
         -5    1    4    4    0  501 -0.16109536266E+01  0.13992357637E+02  0.81846887396E+01  0.16817930122E+02  0.41800000000E+01 0.  1.
</event>
<event>
11    1  0.6763327E-009  0.1374303E+03  0.7561462E-02  0.1110462E+00
         22   -1    0    0    0    0  0.00000000000E+00  0.00000000000E+00  0.24138292448E+03  0.24138292448E+03  0.00000000000E+00 0.  1.
         22   -1    0    0    0    0 -0.00000000000E+00 -0.00000000000E+00 -0.13572577016E+04  0.13572577016E+04  0.00000000000E+00 0. -1.
         24    2    1    2    0    0  0.24645690272E+02  0.41870143337E+02 -0.10759239685E+04  0.10799450428E+04  0.79425376639E+02 0.  0.
         25    2    1    2    0    0 -0.75627208868E+02 -0.16965511232E+02 -0.24818591477E+03  0.28853225881E+03  0.12508921934E+03 0.  0.
        -24    2    1    2    0    0  0.50981518596E+02 -0.24904632105E+02  0.20823510623E+03  0.23016332442E+03  0.79962119158E+02 0.  0.
        -11    1    3    3    0    0  0.79500916113E+01 -0.16917199595E+01 -0.95062001611E+01  0.12507346423E+02  0.00000000000E+00 0.  1.
         12    1    3    3    0    0  0.16695598661E+02  0.43561863297E+02 -0.10664177684E+04  0.10674376964E+04  0.00000000000E+00 0. -1.
         13    1    5    5    0    0 -0.20882249750E+02 -0.12641182686E+02  0.40789848009E+02  0.47536086870E+02  0.00000000000E+00 0. -1.
        -14    1    5    5    0    0  0.71863768346E+02 -0.12263449420E+02  0.16744525823E+03  0.18262723755E+03  0.00000000000E+00 0.  1.
          5    1    4    4  501    0  0.23677854528E+01  0.40872528812E+02 -0.34202152226E+02  0.53511023504E+02  0.41800000000E+01 0. -1.
         -5    1    4    4    0  501 -0.77994994321E+02 -0.57838040045E+02 -0.21398376254E+03  0.23502123531E+03  0.41800000000E+01 0. -1.
</event>
<event>
11    1  0.6763327E-009  0.1291441E+03  0.7561462E-02  0.1120325E+00
         22   -1    0    0    0    0  0.00000000000E+00  0.00000000000E+00  0.30708385129E+04  0.30708385129E+04  0.00000000000E+00 0. -1.
         22   -1    0    0    0    0 -0.00000000000E+00 -0.00000000000E+00 -0.45244972747E+03  0.45244972747E+03  0.00000000000E+00 0. -1.
        -24    2    1    2    0    0  0.23458688785E+02 -0.21933201557E+02 -0.44486539347E+03  0.45284004628E+03  0.78278437621E+02 0.  0.
         25    2    1    2    0    0 -0.20577124793E+02  0.24384495216E+02  0.18464426044E+04  0.18509498110E+04  0.12508752851E+03 0.  0.
         24    2    1    2    0    0 -0.28815639926E+01 -0.24512936593E+01  0.12168115745E+04  0.12194983831E+04  0.80818229909E+02 0.  0.
        -13    1    5    5    0    0 -0.71049327579E+01  0.36716863751E+02  0.40225764487E+03  0.40399235266E+03  0.00000000000E+00 0.  1.
         14    1    5    5    0    0  0.42233687653E+01 -0.39168157410E+02  0.81455392966E+03  0.81550603047E+03  0.00000000000E+00 0. -1.
         11    1    3    3    0    0  0.20563281279E+02 -0.50469234321E+02 -0.24967538113E+03  0.25555388491E+03  0.00000000000E+00 0. -1.
        -12    1    3    3    0    0  0.28954075061E+01  0.28536032764E+02 -0.19519001235E+03  0.19728616138E+03  0.00000000000E+00 0.  1.
          5    1    4    4  501    0  0.33070054890E+02 -0.17297130184E+02  0.22763625374E+03  0.23071314584E+03  0.41800000000E+01 0.  1.
         -5    1    4    4    0  501 -0.53647179683E+02  0.41681625401E+02  0.16188063507E+04  0.16202366652E+04  0.41800000000E+01 0.  1.
</event>
