<event>
11    1  0.7577197E-009  0.1863784E+03  0.7561462E-02  0.1064597E+00
         22   -1    0    0    0    0  0.00000000000E+00  0.00000000000E+00  0.56612308584E+03  0.56612308584E+03  0.00000000000E+00 0. -1.
         22   -1    0    0    0    0 -0.00000000000E+00 -0.00000000000E+00 -0.37390624490E+03  0.37390624490E+03  0.00000000000E+00 0.  1.
         24    2    1    2    0    0  0.94340643442E+02  0.96135219552E+02 -0.29296857279E+03  0.33106738374E+03  0.75052584848E+02 0.  0.
         25    2    1    2    0    0 -0.10861427802E+03 -0.18432589659E+03  0.34387979499E+03  0.42388011421E+03  0.12509172748E+03 0.  0.
        -24    2    1    2    0    0  0.14273634574E+02  0.88190677042E+02  0.14130561874E+03  0.18508183279E+03  0.79414575357E+02 0.  0.
        -11    1    3    3    0    0  0.41144952989E+02  0.82226307521E+02 -0.22868215622E+03  0.24647434223E+03  0.00000000000E+00 0.  1.
         12    1    3    3    0    0  0.53195690453E+02  0.13908912031E+02 -0.64286416566E+02  0.84593041508E+02  0.00000000000E+00 0. -1.
         11    1    5    5    0    0  0.29629649927E+02  0.54655949698E+02  0.13366385852E+03  0.14741511479E+03  0.00000000000E+00 0. -1.
        -12    1    5    5    0    0 -0.15356015353E+02  0.33534727344E+02  0.76417602139E+01  0.37666717998E+02  0.00000000000E+00 0.  1.
          5    1    4    4  501    0 -0.66947949395E+02 -0.18958435921E+03  0.24921940031E+03  0.32023747294E+03  0.41800000000E+01 0. -1.
         -5    1    4    4    0  501 -0.41666328621E+02  0.52584626169E+01  0.94660394673E+02  0.10364264127E+03  0.41800000000E+01 0. -1.
</event>
<event>
11    1  0.7577197E-009  0.1456974E+03  0.7561462E-02  0.1101358E+00
         22   -1    0    0    0    0  0.00000000000E+00  0.00000000000E+00  0.25790029145E+03  0.25790029145E+03  0.00000000000E+00 0. -1.
         22   -1    0    0    0    0 -0.00000000000E+00 -0.00000000000E+00 -0.19373678249E+04  0.19373678249E+04  0.00000000000E+00 0.  1.
         24    2    1    2    0    0  0.28187547186E+02 -0.70149997551E+02 -0.16911213481E+04  0.16947587576E+04  0.81242061690E+02 0.  0.
         25    2    1    2    0    0  0.39858651038E+02  0.80589542741E+02 -0.20687998142E+03  0.25793727497E+03  0.12509566197E+03 0.  0.
        -24    2    1    2    0    0 -0.68046198224E+02 -0.10439545190E+02  0.21853379609E+03  0.24257208373E+03  0.79655047394E+02 0.  0.
        -11    1    3    3    0    0  0.49094545055E+02 -0.26042007603E+02 -0.11811593263E+04  0.11824659888E+04  0.00000000000E+00 0.  1.
         12    1    3    3    0    0 -0.20906997869E+02 -0.44107989949E+02 -0.50996202175E+03  0.51229276880E+03  0.00000000000E+00 0. -1.
         13    1    5    5    0    0 -0.52579651925E+02 -0.34885612903E+02  0.19598965068E+03  0.20589698628E+03  0.00000000000E+00 0. -1.
        -14    1    5    5    0    0 -0.15466546299E+02  0.24446067713E+02  0.22544145414E+02  0.36675097457E+02  0.00000000000E+00 0.  1.
          5    1    4    4  501    0  0.33971044696E+02 -0.56293595373E+01 -0.10959111737E+01  0.34704394359E+02  0.41800000000E+01 0.  1.
         -5    1    4    4    0  501  0.58876063419E+01  0.86218902279E+02 -0.20578407024E+03  0.22323288061E+03  0.41800000000E+01 0.  1.
</event>
<event>
11    1  0.7577197E-009  0.1453184E+03  0.7561462E-02  0.1101761E+00
         22   -1    0    0    0    0  0.00000000000E+00  0.00000000000E+00  0.27694583237E+03  0.27694583237E+03  0.00000000000E+00 0.  1.
         22   -1    0    0    0    0 -0.00000000000E+00 -0.00000000000E+00 -0.49562908390E+03  0.49562908390E+03  0.00000000000E+00 0. -1.
        -24    2    1    2    0    0  0.40280120123E+02 -0.61671195320E+02 -0.42981108284E+03  0.44357400479E+03  0.81206566180E+02 0.  0.
         25    2    1    2    0    0 -0.49366192438E+02  0.62015447733E+02  0.65292569009E+02  0.16184296130E+03  0.12508832017E+03 0.  0.
         24    2    1    2    0    0  0.90860723144E+01 -0.34425241286E+00  0.14583526229E+03  0.16715795017E+03  0.81186090909E+02 0.  0.
        -11    1    5    5    0    0 -0.14347851015E+02  0.14750469549E+02  0.13607768074E+03  0.13762475204E+03  0.00000000000E+00 0.  1.
         12    1    5    5    0    0  0.23433923330E+02 -0.15094721962E+02  0.97575815582E+01  0.29533198127E+02  0.00000000000E+00 0. -1.
         13    1    3    3    0    0  0.33382363793E+02 -0.81013170901E+02 -0.37336178744E+03  0.38350559369E+03  0.00000000000E+00 0. -1.
        -14    1    3    3    0    0  0.68977563301E+01  0.19341975581E+02 -0.56449295401E+02  0.60068411108E+02  0.00000000000E+00 0.  1.
          5    1    4    4  501    0 -0.23429273041E+02  0.97679098252E+02  0.29161422041E+02  0.10468045666E+03  0.41800000000E+01 0. -1.
         -5    1    4    4    0  501 -0.25936919396E+02 -0.35663650519E+02  0.36131146968E+02  0.57162504645E+02  0.41800000000E+01 0. -1.
</event>
<event>
11    1  0.7577197E-009  0.1474831E+03  0.7561462E-02  0.1099479E+00
         22   -1    0    0    0    0  0.00000000000E+00  0.00000000000E+00  0.39519445258E+03  0.39519445258E+03  0.00000000000E+00 0.  1.
         22   -1    0    0    0    0 -0.00000000000E+00 -0.00000000000E+00 -0.30485995583E+04  0.30485995583E+04  0.00000000000E+00 0.  1.
        -24    2    1    2    0    0 -0.57087987407E+02  0.24384942165E+02 -0.25635224161E+04  0.25654154581E+04  0.76522096460E+02 0.  0.
         25    2    1    2    0    0  0.43095649909E+02 -0.10099297255E+03 -0.46108840709E+03  0.49021156125E+03  0.12509212639E+03 0.  0.
         24    2    1    2    0    0  0.13992337499E+02  0.76608030387E+02  0.37120571745E+03  0.38816699151E+03  0.82555150082E+02 0.  0.
        -11    1    5    5    0    0 -0.16261042563E+02  0.31230957438E+02  0.27766469450E+03  0.27988832912E+03  0.00000000000E+00 0.  1.
         12    1    5    5    0    0  0.30253380062E+02  0.45377072949E+02  0.93541022951E+02  0.10827866239E+03  0.00000000000E+00 0. -1.
         13    1    3    3    0    0  0.14948375163E+02  0.16915142918E+02 -0.36272913278E+03  0.36343087341E+03  0.00000000000E+00 0. -1.
        -14    1    3    3    0    0 -0.72036362570E+02  0.74697992476E+01 -0.22007932833E+04  0.22019845847E+04  0.00000000000E+00 0.  1.
          5    1    4    4  501    0 -0.38467277264E+02 -0.42105137185E+02 -0.24836112876E+03  0.25485936647E+03  0.41800000000E+01 0. -1.
         -5    1    4    4    0  501  0.81562927173E+02 -0.58887835368E+02 -0.21272727833E+03  0.23535219479E+03  0.41800000000E+01 0. -1.
</event>
<event>
11    1  0.7577197E-009  0.1303754E+03  0.7561462E-02  0.1118809E+00
         22   -1    0    0    0    0  0.00000000000E+00  0.00000000000E+00  0.24690772482E+03  0.24690772482E+03  0.00000000000E+00 0. -1.
         22   -1    0    0    0    0 -0.00000000000E+00 -0.00000000000E+00 -0.20956604198E+04  0.20956604198E+04  0.00000000000E+00 0. -1.
         24    2    1    2    0    0 -0.13684298829E+02 -0.11512283804E+01 -0.19035939435E+04  0.19053925123E+04  0.81621926662E+02 0.  0.
         25    2    1    2    0    0 -0.18578472620E+02  0.19731351776E+02 -0.16047241049E+03  0.20526481927E+03  0.12509102931E+03 0.  0.
        -24    2    1    2    0    0  0.32262771449E+02 -0.18580123396E+02  0.21531365899E+03  0.23191081306E+03  0.77695212583E+02 0.  0.
        -13    1    3    3    0    0 -0.92861576802E+01 -0.37394473987E+02 -0.57098094083E+03  0.57227948959E+03  0.00000000000E+00 0.  1.
         14    1    3    3    0    0 -0.43981411487E+01  0.36243245606E+02 -0.13326130027E+04  0.13331130227E+04  0.00000000000E+00 0. -1.
         11    1    5    5    0    0  0.31411796130E+02 -0.34514831554E+02  0.20995264135E+03  0.21507693076E+03  0.00000000000E+00 0. -1.
        -12    1    5    5    0    0  0.85097531890E+00  0.15934708158E+02  0.53610176340E+01  0.16833882296E+02  0.00000000000E+00 0.  1.
          5    1    4    4  501    0 -0.23320695499E+02  0.21213807518E+02  0.11014377638E+02  0.33655153881E+02  0.41800000000E+01 0.  1.
         -5    1    4    4    0  501  0.47422228795E+01 -0.14824557421E+01 -0.17148678812E+03  0.17160966539E+03  0.41800000000E+01 0.  1.
</event>
<event>
11    1  0.7577197E-009  0.1325033E+03  0.7561462E-02  0.1116231E+00
         22   -1    0    0    0    0  0.00000000000E+00  0.00000000000E+00  0.47339017703E+04  0.47339017703E+04  0.00000000000E+00 0.  1.
         22   -1    0    0    0    0 -0.00000000000E+00 -0.00000000000E+00 -0.11886251521E+03  0.11886251521E+03  0.00000000000E+00 0.  1.
        -24    2    1    2    0    0 -0.82834634449E+01  0.50185237595E+01 -0.92126019617E+02  0.12384529537E+03  0.82198858546E+02 0.  0.
         25    2    1    2    0    0  0.43538584176E+02 -0.30059382805E+02  0.43434664271E+03  0.45508705805E+03  0.12509216430E+03 0.  0.
         24    2    1    2    0    0 -0.35255120731E+02  0.25040859046E+02  0.42728186320E+04  0.42738319320E+04  0.82403602189E+02 0.  0.
        -13    1    5    5    0    0 -0.15920493302E+02  0.30851200616E+00  0.37703269004E+04  0.37703605256E+04  0.00000000000E+00 0.  1.
         14    1    5    5    0    0 -0.19334627429E+02  0.24732347040E+02  0.50249173155E+03  0.50347140642E+03  0.00000000000E+00 0. -1.
         11    1    3    3    0    0 -0.57052692296E+01  0.36729745751E+02 -0.14404221313E+02  0.39863591303E+02  0.00000000000E+00 0. -1.
        -12    1    3    3    0    0 -0.25781942152E+01 -0.31711221992E+02 -0.77721798304E+02  0.83981704063E+02  0.00000000000E+00 0.  1.
          5    1    4    4  501    0  0.18422825632E+02 -0.25870114845E+02  0.15750087601E+02  0.35695952232E+02  0.41800000000E+01 0.  1.
         -5    1    4    4    0  501  0.25115758544E+02 -0.41892679603E+01  0.41859655511E+03  0.41939110582E+03  0.41800000000E+01 0.  1.
</event>
<event>
11    1  0.7577197E-009  0.1838253E+03  0.7561462E-02  0.1066590E+00
         22   -1    0    0    0    0  0.00000000000E+00  0.00000000000E+00  0.36391080635E+03  0.36391080635E+03  0.00000000000E+00 0. -1.
         22   -1    0    0    0    0 -0.00000000000E+00 -0.00000000000E+00 -0.95082456196E+03  0.95082456196E+03  0.00000000000E+00 0.  1.
         24    2    1    2    0    0 -0.19883075787E+02 -0.14858017086E+03 -0.80836516109E+03  0.82568235949E+03  0.76326412398E+02 0.  0.
         25    2    1    2    0    0 -0.33482243211E+02  0.63027390449E+02 -0.77417897139E+02  0.16350860074E+03  0.12509204276E+03 0.  0.
        -24    2    1    2    0    0  0.53365318998E+02  0.85552780411E+02  0.29886930262E+03  0.32554440808E+03  0.80555360334E+02 0.  0.
        -11    1    3    3    0    0  0.11539472349E+02 -0.50204642222E+00 -0.13590383972E+03  0.13639378697E+03  0.00000000000E+00 0.  1.
         12    1    3    3    0    0 -0.31422548136E+02 -0.14807812444E+03 -0.67246132137E+03  0.68928857252E+03  0.00000000000E+00 0. -1.
         11    1    5    5    0    0  0.31672575585E+02 -0.82917805714E+01  0.76057332992E+02  0.82804731574E+02  0.00000000000E+00 0. -1.
        -12    1    5    5    0    0  0.21692743413E+02  0.93844560982E+02  0.22281196962E+03  0.24273967651E+03  0.00000000000E+00 0.  1.
          5    1    4    4  501    0 -0.38578200528E+02 -0.30144285616E+02 -0.38049376172E+02  0.62146463603E+02  0.41800000000E+01 0.  1.
         -5    1    4    4    0  501  0.50959573176E+01  0.93171676065E+02 -0.39368520966E+02  0.10136213714E+03  0.41800000000E+01 0.  1.
</event>
<event>
11    1  0.7577197E-009  0.1512046E+03  0.7561462E-02  0.1095654E+00
         22   -1    0    0    0    0  0.00000000000E+00  0.00000000000E+00  0.21655773068E+04  0.21655773068E+04  0.00000000000E+00 0. -1.
         22   -1    0    0    0    0 -0.00000000000E+00 -0.00000000000E+00 -0.28627942303E+03  0.28627942303E+03  0.00000000000E+00 0.  1.
        -24    2    1    2    0    0 -0.86229718896E+02 -0.79136296253E+00 -0.26510139327E+03  0.29021895571E+03  0.80697601357E+02 0.  0.
         25    2    1    2    0    0  0.15055045235E+02 -0.39436828266E+02  0.67812643098E+03  0.69085755245E+03  0.12508710391E+03 0.  0.
         24    2    1    2    0    0  0.71174673661E+02  0.40228191229E+02  0.14662728461E+04  0.14707802217E+04  0.80958383632E+02 0.  0.
        -13    1    5    5    0    0 -0.38548864404E+01  0.24505624034E+02  0.13224322186E+03  0.13454982530E+03  0.00000000000E+00 0.  1.
         14    1    5    5    0    0  0.75029560102E+02  0.15722567195E+02  0.13340296242E+04  0.13362303964E+04  0.00000000000E+00 0. -1.
         13    1    3    3    0    0 -0.48448864017E+02 -0.35448927155E+02 -0.93422251736E+02  0.11104789949E+03  0.00000000000E+00 0. -1.
        -14    1    3    3    0    0 -0.37780854878E+02  0.34657564192E+02 -0.17167914153E+03  0.17917105622E+03  0.00000000000E+00 0.  1.
          5    1    4    4  501    0 -0.12340711982E+02  0.30730303380E+02  0.43539674618E+03  0.43667429934E+03  0.41800000000E+01 0. -1.
         -5    1    4    4    0  501  0.27395757216E+02 -0.70167131647E+02  0.24272968480E+03  0.25418325311E+03  0.41800000000E+01 0. -1.
</event>
<event>
11    1  0.7577197E-009  0.1608233E+03  0.7561462E-02  0.1086306E+00
         22   -1    0    0    0    0  0.00000000000E+00  0.00000000000E+00  0.64781824122E+03  0.64781824122E+03  0.00000000000E+00 0.  1.
         22   -1    0    0    0    0 -0.00000000000E+00 -0.00000000000E+00 -0.60750172883E+03  0.60750172883E+03  0.00000000000E+00 0. -1.
        -24    2    1    2    0    0 -0.54066873323E+02  0.10184862811E+03 -0.41916810046E+03  0.44215161297E+03  0.80621229003E+02 0.  0.
         25    2    1    2    0    0  0.19710089212E+02 -0.63198446137E+02 -0.14435975756E+03  0.20216403370E+03  0.12509206893E+03 0.  0.
         24    2    1    2    0    0  0.34356784111E+02 -0.38650181974E+02  0.60384437041E+03  0.61100432338E+03  0.77614652795E+02 0.  0.
        -11    1    5    5    0    0  0.53972527999E+02 -0.24784985610E+02  0.53078208251E+03  0.53409451262E+03  0.00000000000E+00 0.  1.
         12    1    5    5    0    0 -0.19615743888E+02 -0.13865196364E+02  0.73062287898E+02  0.76909810762E+02  0.00000000000E+00 0. -1.
         13    1    3    3    0    0  0.73027145681E+01  0.62623320521E+02 -0.25271647224E+03  0.26046232982E+03  0.00000000000E+00 0. -1.
        -14    1    3    3    0    0 -0.61369587891E+02  0.39225307590E+02 -0.16645162822E+03  0.18168928315E+03  0.00000000000E+00 0.  1.
          5    1    4    4  501    0 -0.23843679947E+02 -0.63067414211E+02 -0.14326865960E+03  0.15839634160E+03  0.41800000000E+01 0.  1.
         -5    1    4    4    0  501  0.43553769158E+02 -0.13103192625E+00 -0.10910979638E+01  0.43767692103E+02  0.41800000000E+01 0.  1.
</event>
<event>
11    1  0.7577197E-009  0.1403633E+03  0.7561462E-02  0.1107153E+00
         22   -1    0    0    0    0  0.00000000000E+00  0.00000000000E+00  0.27733376279E+04  0.27733376279E+04  0.00000000000E+00 0.  1.
         22   -1    0    0    0    0 -0.00000000000E+00 -0.00000000000E+00 -0.30583704602E+02  0.30583704602E+02  0.00000000000E+00 0.  1.
        -24    2    1    2    0    0  0.78027685977E+01  0.62728778385E+01  0.71171458515E+02  0.10625670700E+03  0.78261606687E+02 0.  0.
         25    2    1    2    0    0 -0.58641845797E+02  0.31685235195E+02  0.41058079783E+03  0.43435816565E+03  0.12509038457E+03 0.  0.
         24    2    1    2    0    0  0.50839077199E+02 -0.37958113034E+02  0.22610016670E+04  0.22633064599E+04  0.80013518391E+02 0.  0.
        -11    1    5    5    0    0 -0.10083332439E+02 -0.18299168621E+02  0.13034007423E+04  0.13035681908E+04  0.00000000000E+00 0.  1.
         12    1    5    5    0    0  0.60922409638E+02 -0.19658944413E+02  0.95760092471E+03  0.95973826906E+03  0.00000000000E+00 0. -1.
         11    1    3    3    0    0 -0.77571506946E+01 -0.24077506395E+02  0.67341333472E+02  0.71935769231E+02  0.00000000000E+00 0. -1.
        -12    1    3    3    0    0  0.15559919292E+02  0.30350384233E+02  0.38301250421E+01  0.34320937769E+02  0.00000000000E+00 0.  1.
          5    1    4    4  501    0 -0.26859659844E+02  0.13141735217E+02  0.39156685527E+03  0.39272919561E+03  0.41800000000E+01 0.  1.
         -5    1    4    4    0  501 -0.31782185953E+02  0.18543499978E+02  0.19013942554E+02  0.41628970043E+02  0.41800000000E+01 0.  1.
</event>
<event>
11    1  0.7577197E-009  0.1470264E+03  0.7561462E-02  0.1099956E+00
         22   -1    0    0    0    0  0.00000000000E+00  0.00000000000E+00  0.49885981520E+03  0.49885981520E+03  0.00000000000E+00 0.  1.
         22   -1    0    0    0    0 -0.00000000000E+00 -0.00000000000E+00 -0.62329485358E+03  0.62329485358E+03  0.00000000000E+00 0. -1.
         24    2    1    2    0    0 -0.10802386260E+02  0.33979976062E+02 -0.41645983958E+03  0.42587077056E+03  0.81582994038E+02 0.  0.
         25    2    1    2    0    0  0.85888156855E+02 -0.16185083477E+02 -0.16565615674E+03  0.22522852597E+03  0.12508874543E+03 0.  0.
        -24    2    1    2    0    0 -0.75085770595E+02 -0.17794892586E+02  0.45768095794E+03  0.47105537225E+03  0.80416250342E+02 0.  0.
        -11    1    3    3    0    0 -0.28871624392E+02 -0.17595061067E+02 -0.13631870293E+03  0.14044908557E+03  0.00000000000E+00 0.  1.
         12    1    3    3    0    0  0.18069238132E+02  0.51575037129E+02 -0.28014113664E+03  0.28542168499E+03  0.00000000000E+00 0. -1.
         11    1    5    5    0    0 -0.25673696983E+02 -0.36808725453E+02  0.10173791684E+03  0.11119633407E+03  0.00000000000E+00 0. -1.
        -12    1    5    5    0    0 -0.49412073612E+02  0.19013832867E+02  0.35594304109E+03  0.35985903818E+03  0.00000000000E+00 0.  1.
          5    1    4    4  501    0  0.77044836948E+02  0.43804553272E+02 -0.11985464995E+03  0.14912194775E+03  0.41800000000E+01 0. -1.
         -5    1    4    4    0  501  0.88433199064E+01 -0.59989636748E+02 -0.45801506791E+02  0.76106578221E+02  0.41800000000E+01 0. -1.
</event>
<event>
11    1  0.7577197E-009  0.3861361E+03  0.7561462E-02  0.9691573E-01
         22   -1    0    0    0    0  0.00000000000E+00  0.00000000000E+00  0.18194750678E+04  0.18194750678E+04  0.00000000000E+00 0. -1.
         22   -1    0    0    0    0 -0.00000000000E+00 -0.00000000000E+00 -0.31995168105E+03  0.31995168105E+03  0.00000000000E+00 0. -1.
        -24    2    1    2    0    0  0.22947576071E+02  0.17220835961E+03  0.14808862702E+03  0.24109144909E+03  0.77540537820E+02 0.  0.
         25    2    1    2    0    0 -0.19362315127E+02 -0.52225499188E+03  0.40469790679E+02  0.53889741407E+03  0.12508974037E+03 0.  0.
         24    2    1    2    0    0 -0.35852609440E+01  0.35004663227E+03  0.13109649690E+04  0.13594378857E+04  0.83046469568E+02 0.  0.
        -11    1    5    5    0    0  0.24782529410E+02  0.17346553683E+03  0.76959311993E+03  0.78928957707E+03  0.00000000000E+00 0.  1.
         12    1    5    5    0    0 -0.28367790354E+02  0.17658109545E+03  0.54137184910E+03  0.57014830860E+03  0.00000000000E+00 0. -1.
         13    1    3    3    0    0  0.25407653039E+02  0.16777269036E+03  0.15678123406E+03  0.23102722744E+03  0.00000000000E+00 0. -1.
        -14    1    3    3    0    0 -0.24600769683E+01  0.44356692442E+01 -0.86926070387E+01  0.10064221652E+02  0.00000000000E+00 0.  1.
          5    1    4    4  501    0 -0.31241878036E+02 -0.40102896306E+03 -0.20161354813E+02  0.40277070001E+03  0.41800000000E+01 0. -1.
         -5    1    4    4    0  501  0.11879562909E+02 -0.12122602882E+03  0.60631145492E+02  0.13612671407E+03  0.41800000000E+01 0. -1.
</event>
<event>
11    1  0.7577197E-009  0.1316706E+03  0.7561462E-02  0.1117233E+00
         22   -1    0    0    0    0  0.00000000000E+00  0.00000000000E+00  0.14491898785E+04  0.14491898785E+04  0.00000000000E+00 0. -1.
         22   -1    0    0    0    0 -0.00000000000E+00 -0.00000000000E+00 -0.15266619986E+03  0.15266619986E+03  0.00000000000E+00 0.  1.
         24    2    1    2    0    0  0.39936052375E+01 -0.69405477763E+01 -0.13072547690E+03  0.15379816658E+03  0.80626333461E+02 0.  0.
         25    2    1    2    0    0 -0.11109260185E+02  0.45631153246E+02  0.55177059080E+03  0.56771797378E+03  0.12508914851E+03 0.  0.
        -24    2    1    2    0    0  0.71156549480E+01 -0.38690605470E+02  0.87547856475E+03  0.88033993801E+03  0.83594818194E+02 0.  0.
        -11    1    3    3    0    0  0.12820337907E+02  0.29324438508E+02 -0.10140328538E+03  0.10633395527E+03  0.00000000000E+00 0.  1.
         12    1    3    3    0    0 -0.88267326694E+01 -0.36264986284E+02 -0.29322191517E+02  0.47464211309E+02  0.00000000000E+00 0. -1.
         11    1    5    5    0    0 -0.81390022326E+01 -0.62958869635E+02  0.63173927392E+03  0.63492091857E+03  0.00000000000E+00 0. -1.
        -12    1    5    5    0    0  0.15254657181E+02  0.24268264165E+02  0.24373929083E+03  0.24541901945E+03  0.00000000000E+00 0.  1.
          5    1    4    4  501    0 -0.10414752551E+02  0.26550487241E+01 -0.24732395086E+01  0.11794306596E+02  0.41800000000E+01 0.  1.
         -5    1    4    4    0  501 -0.69450763450E+00  0.42976104522E+02  0.55424383031E+03  0.55592366719E+03  0.41800000000E+01 0.  1.
</event>
<event>
11    1  0.7577197E-009  0.1464712E+03  0.7561462E-02  0.1100540E+00
         22   -1    0    0    0    0  0.00000000000E+00  0.00000000000E+00  0.32243625732E+03  0.32243625732E+03  0.00000000000E+00 0. -1.
         22   -1    0    0    0    0 -0.00000000000E+00 -0.00000000000E+00 -0.64689171781E+03  0.64689171781E+03  0.00000000000E+00 0. -1.
        -24    2    1    2    0    0  0.75489471791E+02  0.16039956407E+02 -0.46310978774E+03  0.47562183748E+03  0.76088870595E+02 0.  0.
         25    2    1    2    0    0 -0.74867225870E+02  0.13623808296E+02 -0.13982960186E+03  0.20246129182E+03  0.12509015735E+03 0.  0.
         24    2    1    2    0    0 -0.62224592168E+00 -0.29663764703E+02  0.27848392911E+03  0.29124484583E+03  0.79937071017E+02 0.  0.
        -11    1    5    5    0    0 -0.11690752354E+02  0.17894806135E+02  0.24085650885E+02  0.32202738327E+02  0.00000000000E+00 0.  1.
         12    1    5    5    0    0  0.11068506433E+02 -0.47558570838E+02  0.25439827823E+03  0.25904210751E+03  0.00000000000E+00 0. -1.
         13    1    3    3    0    0  0.33171338872E+02  0.44276937645E+02 -0.19347345588E+03  0.20122813685E+03  0.00000000000E+00 0. -1.
        -14    1    3    3    0    0  0.42318132919E+02 -0.28236981238E+02 -0.26963633187E+03  0.27439370063E+03  0.00000000000E+00 0.  1.
          5    1    4    4  501    0 -0.28278572989E+02  0.58726955663E+02 -0.23875491128E+02  0.69541674471E+02  0.41800000000E+01 0.  1.
         -5    1    4    4    0  501 -0.46588652881E+02 -0.45103147366E+02 -0.11595411073E+03  0.13291961734E+03  0.41800000000E+01 0.  1.
</event>
<event>
11    1  0.7577197E-009  0.1553309E+03  0.7561462E-02  0.1091553E+00
         22   -1    0    0    0    0  0.00000000000E+00  0.00000000000E+00  0.51951507075E+03  0.51951507075E+03  0.00000000000E+00 0.  1.
         22   -1    0    0    0    0 -0.00000000000E+00 -0.00000000000E+00 -0.51387467585E+03  0.51387467585E+03  0.00000000000E+00 0.  1.
         24    2    1    2    0    0 -0.57751874091E+01  0.60690709355E+02 -0.45528346382E+03  0.46639529091E+03  0.80776357699E+02 0.  0.
         25    2    1    2    0    0  0.78205591168E+02 -0.10383140457E+03  0.14968722018E+03  0.23441725628E+03  0.12509241020E+03 0.  0.
        -24    2    1    2    0    0 -0.72430403759E+02  0.43140695218E+02  0.31123663854E+03  0.33257719941E+03  0.81437493983E+02 0.  0.
        -13    1    3    3    0    0 -0.33048510687E+02  0.62794787244E+02 -0.37282739105E+03  0.37952029310E+03  0.00000000000E+00 0.  1.
         14    1    3    3    0    0  0.27273323278E+02 -0.21040778889E+01 -0.82456072774E+02  0.86874997806E+02  0.00000000000E+00 0. -1.
         13    1    5    5    0    0 -0.17910748816E+01  0.34047763513E+02  0.42090725554E+02  0.54167216350E+02  0.00000000000E+00 0. -1.
        -14    1    5    5    0    0 -0.70639328877E+02  0.90929317052E+01  0.26914591299E+03  0.27840998306E+03  0.00000000000E+00 0.  1.
          5    1    4    4  501    0  0.62470653983E+02 -0.10185571487E+03  0.43897978440E+02  0.12736433635E+03  0.41800000000E+01 0. -1.
         -5    1    4    4    0  501  0.15734937184E+02 -0.19756896982E+01  0.10578924174E+03  0.10705291993E+03  0.41800000000E+01 0. -1.
</event>
<event>
11    1  0.7577197E-009  0.2466029E+03  0.7561462E-02  0.1025725E+00
         22   -1    0    0    0    0  0.00000000000E+00  0.00000000000E+00  0.56641414219E+03  0.56641414219E+03  0.00000000000E+00 0. -1.
         22   -1    0    0    0    0 -0.00000000000E+00 -0.00000000000E+00 -0.39399924161E+03  0.39399924161E+03  0.00000000000E+00 0. -1.
        -24    2    1    2    0    0  0.16537929973E+03 -0.10203780715E+03 -0.18257173451E+03  0.27843243629E+03  0.80188256406E+02 0.  0.
         25    2    1    2    0    0 -0.34398832004E+03  0.11131802668E+03  0.27176809777E+03  0.46928162138E+03  0.12509066235E+03 0.  0.
         24    2    1    2    0    0  0.17860902031E+03 -0.92802195295E+01  0.83218537325E+02  0.21269932614E+03  0.79551076514E+02 0.  0.
        -11    1    5    5    0    0  0.75278833435E+02 -0.41530785583E+02  0.23758415706E+02  0.89197372334E+02  0.00000000000E+00 0.  1.
         12    1    5    5    0    0  0.10333018688E+03  0.32250566054E+02  0.59460121619E+02  0.12350195380E+03  0.00000000000E+00 0. -1.
         11    1    3    3    0    0  0.15526035053E+03 -0.97482825708E+02 -0.13009770567E+03  0.22479788872E+03  0.00000000000E+00 0. -1.
        -12    1    3    3    0    0  0.10118949200E+02 -0.45549814434E+01 -0.52474028846E+02  0.53634547562E+02  0.00000000000E+00 0.  1.
          5    1    4    4  501    0 -0.53670118855E+02  0.13643620976E+02  0.10913048242E+03  0.12244821209E+03  0.41800000000E+01 0. -1.
         -5    1    4    4    0  501 -0.29031820119E+03  0.97674405705E+02  0.16263761536E+03  0.34683340929E+03  0.41800000000E+01 0. -1.
</event>
<event>
11    1  0.7577197E-009  0.2185334E+03  0.7561462E-02  0.1042140E+00
         22   -1    0    0    0    0  0.00000000000E+00  0.00000000000E+00  0.10839447528E+04  0.10839447528E+04  0.00000000000E+00 0.  1.
         22   -1    0    0    0    0 -0.00000000000E+00 -0.00000000000E+00 -0.17570827056E+04  0.17570827056E+04  0.00000000000E+00 0. -1.
         24    2    1    2    0    0 -0.50573770101E+02  0.17237623859E+03 -0.17192345928E+04  0.17304213179E+04  0.79492633267E+02 0.  0.
         25    2    1    2    0    0  0.20709544357E+00 -0.15742069629E+03  0.31781803953E+03  0.37608127519E+03  0.12508997076E+03 0.  0.
        -24    2    1    2    0    0  0.50366674657E+02 -0.14955542297E+02  0.72827860043E+03  0.73452486522E+03  0.79853538598E+02 0.  0.
        -13    1    3    3    0    0 -0.17600957257E+02  0.57819530943E+01 -0.38157374779E+03  0.38202323186E+03  0.00000000000E+00 0.  1.
         14    1    3    3    0    0 -0.32972812844E+02  0.16659428549E+03 -0.13376608450E+04  0.13483980861E+04  0.00000000000E+00 0. -1.
         13    1    5    5    0    0 -0.97704634487E+01 -0.30567517201E+02  0.19260075047E+03  0.19525594523E+03  0.00000000000E+00 0. -1.
        -14    1    5    5    0    0  0.60137138106E+02  0.15611974904E+02  0.53567784996E+03  0.53926892000E+03  0.00000000000E+00 0.  1.
          5    1    4    4  501    0  0.16655614033E+02  0.17713586476E+02  0.31386635671E+02  0.39922098184E+02  0.41800000000E+01 0.  1.
         -5    1    4    4    0  501 -0.16448518589E+02 -0.17513428277E+03  0.28643140386E+03  0.33615917700E+03  0.41800000000E+01 0.  1.
</event>
<event>
11    1  0.7577197E-009  0.1820489E+03  0.7561462E-02  0.1067997E+00
         22   -1    0    0    0    0  0.00000000000E+00  0.00000000000E+00  0.22930347626E+04  0.22930347626E+04  0.00000000000E+00 0.  1.
         22   -1    0    0    0    0 -0.00000000000E+00 -0.00000000000E+00 -0.55394525258E+02  0.55394525258E+02  0.00000000000E+00 0.  1.
         24    2    1    2    0    0  0.63114059410E+00 -0.14414687356E+03  0.14304404700E+03  0.22580327504E+03  0.98725883843E+02 0.  0.
         25    2    1    2    0    0  0.48085101925E+02  0.94687250461E+02  0.53925415356E+03  0.56366851019E+03  0.12509714151E+03 0.  0.
        -24    2    1    2    0    0 -0.48716242519E+02  0.49459623102E+02  0.15553420368E+04  0.15589575026E+04  0.80250339774E+02 0.  0.
        -13    1    3    3    0    0  0.36565673278E+02 -0.13352482414E+02  0.28104648045E+02  0.48012586794E+02  0.00000000000E+00 0.  1.
         14    1    3    3    0    0 -0.35934532684E+02 -0.13079439115E+03  0.11493939895E+03  0.17779068825E+03  0.00000000000E+00 0. -1.
         11    1    5    5    0    0 -0.97376601897E+01  0.62771566997E+02  0.81581134441E+03  0.81828066170E+03  0.00000000000E+00 0. -1.
        -12    1    5    5    0    0 -0.38978582329E+02 -0.13311943894E+02  0.73953069235E+03  0.74067684091E+03  0.00000000000E+00 0.  1.
          5    1    4    4  501    0  0.62865922498E+02  0.38310173536E+02  0.12357787018E+03  0.14390537171E+03  0.41800000000E+01 0.  1.
         -5    1    4    4    0  501 -0.14780820573E+02  0.56377076926E+02  0.41567628338E+03  0.41976313848E+03  0.41800000000E+01 0.  1.
</event>
<event>
11    1  0.7577197E-009  0.1695292E+03  0.7561462E-02  0.1078442E+00
         22   -1    0    0    0    0  0.00000000000E+00  0.00000000000E+00  0.71706915021E+03  0.71706915021E+03  0.00000000000E+00 0.  1.
         22   -1    0    0    0    0 -0.00000000000E+00 -0.00000000000E+00 -0.99929961713E+03  0.99929961713E+03  0.00000000000E+00 0. -1.
        -24    2    1    2    0    0 -0.69271632974E+02  0.51638164958E+02 -0.91712041349E+03  0.92463572674E+03  0.79851832201E+02 0.  0.
         25    2    1    2    0    0  0.13975811705E+03 -0.13016121109E+03  0.11545323212E+03  0.25583456092E+03  0.12509037375E+03 0.  0.
         24    2    1    2    0    0 -0.70486484074E+02  0.78523046128E+02  0.51943671445E+03  0.53589847968E+03  0.78983966678E+02 0.  0.
        -11    1    5    5    0    0 -0.66142624798E+02  0.94376561176E+02  0.44664227885E+03  0.46127118637E+03  0.00000000000E+00 0.  1.
         12    1    5    5    0    0 -0.43438592759E+01 -0.15853515049E+02  0.72794435599E+02  0.74627293312E+02  0.00000000000E+00 0. -1.
         13    1    3    3    0    0 -0.60691163556E+02  0.72616922586E+02 -0.71031670202E+03  0.71659364493E+03  0.00000000000E+00 0. -1.
        -14    1    3    3    0    0 -0.85804694182E+01 -0.20978757629E+02 -0.20680371147E+03  0.20804208181E+03  0.00000000000E+00 0.  1.
          5    1    4    4  501    0  0.76767363526E+02 -0.14426824385E+03  0.78637406015E+02  0.18140525988E+03  0.41800000000E+01 0.  1.
         -5    1    4    4    0  501  0.62990753522E+02  0.14107032764E+02  0.36815826105E+02  0.74429301048E+02  0.41800000000E+01 0.  1.
</event>
<event>
11    1  0.7577197E-009  0.2460709E+03  0.7561462E-02  0.1026013E+00
         22   -1    0    0    0    0  0.00000000000E+00  0.00000000000E+00  0.53123481556E+03  0.53123481556E+03  0.00000000000E+00 0.  1.
         22   -1    0    0    0    0 -0.00000000000E+00 -0.00000000000E+00 -0.50607863013E+03  0.50607863013E+03  0.00000000000E+00 0.  1.
         24    2    1    2    0    0  0.43847722450E+02  0.26040807049E+02 -0.27692076012E+03  0.29264457502E+03  0.79718213133E+02 0.  0.
         25    2    1    2    0    0 -0.96299346735E+02 -0.22640605877E+03 -0.93442603102E+02  0.29139677400E+03  0.12508913700E+03 0.  0.
        -24    2    1    2    0    0  0.52451624286E+02  0.20036525172E+03  0.39551954865E+03  0.45327209667E+03  0.78246234842E+02 0.  0.
        -11    1    3    3    0    0 -0.78808795082E+01 -0.58056443211E+01 -0.16509413387E+03  0.16538405850E+03  0.00000000000E+00 0.  1.
         12    1    3    3    0    0  0.51728601958E+02  0.31846451370E+02 -0.11182662625E+03  0.12726051652E+03  0.00000000000E+00 0. -1.
         11    1    5    5    0    0  0.65982225661E+01 -0.44666536527E+01  0.37306173404E+01  0.87980135045E+01  0.00000000000E+00 0. -1.
        -12    1    5    5    0    0  0.45853401719E+02  0.20483190537E+03  0.39178893131E+03  0.44447408316E+03  0.00000000000E+00 0.  1.
          5    1    4    4  501    0 -0.63534103466E+01 -0.10603586892E+03 -0.92737045274E+02  0.14107304239E+03  0.41800000000E+01 0.  1.
         -5    1    4    4    0  501 -0.89945936389E+02 -0.12037018984E+03 -0.70555782811E+00  0.15032373162E+03  0.41800000000E+01 0.  1.
</event>
<event>
11    1  0.7577197E-009  0.1264482E+03  0.7561462E-02  0.1123712E+00
         22   -1    0    0    0    0  0.00000000000E+00  0.00000000000E+00  0.20888794731E+03  0.20888794731E+03  0.00000000000E+00 0.  1.
         22   -1    0    0    0    0 -0.00000000000E+00 -0.00000000000E+00 -0.25591800065E+03  0.25591800065E+03  0.00000000000E+00 0.  1.
        -24    2    1    2    0    0 -0.13604544303E+02  0.42572869376E+01 -0.18230725445E+03  0.19962966605E+03  0.80080337335E+02 0.  0.
         25    2    1    2    0    0  0.28634924234E+02 -0.67823911179E+01  0.33097044833E+02  0.13269036001E+03  0.12508140368E+03 0.  0.
         24    2    1    2    0    0 -0.15030379931E+02  0.25251041802E+01  0.10218015627E+03  0.13248592190E+03  0.82942429988E+02 0.  0.
        -11    1    5    5    0    0 -0.22025902460E+02 -0.37109717676E+02  0.62634483371E+02  0.76061488497E+02  0.00000000000E+00 0.  1.
         12    1    5    5    0    0  0.69955225292E+01  0.39634821856E+02  0.39545672904E+02  0.56424433399E+02  0.00000000000E+00 0. -1.
         11    1    3    3    0    0 -0.22247133509E+02  0.31807208458E+01 -0.62078227575E+01  0.23314995129E+02  0.00000000000E+00 0. -1.
        -12    1    3    3    0    0  0.86425892054E+01  0.10765660918E+01 -0.17609943169E+03  0.17631467093E+03  0.00000000000E+00 0.  1.
          5    1    4    4  501    0 -0.49199028831E+02  0.44631641993E+01  0.16075566579E+02  0.52118715577E+02  0.41800000000E+01 0.  1.
         -5    1    4    4    0  501  0.77833953065E+02 -0.11245555317E+02  0.17021478254E+02  0.80571644430E+02  0.41800000000E+01 0.  1.
</event>
<event>
11    1  0.7577197E-009  0.1640845E+03  0.7561462E-02  0.1083297E+00
         22   -1    0    0    0    0  0.00000000000E+00  0.00000000000E+00  0.37064705586E+03  0.37064705586E+03  0.00000000000E+00 0. -1.
         22   -1    0    0    0    0 -0.00000000000E+00 -0.00000000000E+00 -0.87784249130E+03  0.87784249130E+03  0.00000000000E+00 0. -1.
         24    2    1    2    0    0 -0.25794541917E+02 -0.38283405826E+02 -0.56875700869E+03  0.57605739895E+03  0.78908899325E+02 0.  0.
         25    2    1    2    0    0  0.10926787607E+03  0.10145534429E+03 -0.26283575034E+03  0.32705344559E+03  0.12509464013E+03 0.  0.
        -24    2    1    2    0    0 -0.83473334151E+02 -0.63171938463E+02  0.32439732359E+03  0.34537870262E+03  0.55626732325E+02 0.  0.
        -13    1    3    3    0    0  0.18145725240E+02  0.90576231890E+01 -0.25005457038E+03  0.25087565854E+03  0.00000000000E+00 0.  1.
         14    1    3    3    0    0 -0.43940267156E+02 -0.47341029015E+02 -0.31870243831E+03  0.32518174040E+03  0.00000000000E+00 0. -1.
         11    1    5    5    0    0 -0.75682627249E+02 -0.73187309709E+02  0.27767495585E+03  0.29696401041E+03  0.00000000000E+00 0. -1.
        -12    1    5    5    0    0 -0.77907069021E+01  0.10015371246E+02  0.46722367740E+02  0.48414692217E+02  0.00000000000E+00 0.  1.
          5    1    4    4  501    0  0.15527161595E+02  0.91357435073E+02 -0.85432137869E+02  0.12610866850E+03  0.41800000000E+01 0. -1.
         -5    1    4    4    0  501  0.93740714472E+02  0.10097909216E+02 -0.17740361247E+03  0.20094477709E+03  0.41800000000E+01 0. -1.
</event>
<event>
11    1  0.7577197E-009  0.1732786E+03  0.7561462E-02  0.1075213E+00
         22   -1    0    0    0    0  0.00000000000E+00  0.00000000000E+00  0.24524846878E+03  0.24524846878E+03  0.00000000000E+00 0. -1.
         22   -1    0    0    0    0 -0.00000000000E+00 -0.00000000000E+00 -0.21462552951E+04  0.21462552951E+04  0.00000000000E+00 0. -1.
         24    2    1    2    0    0 -0.11759611290E+03 -0.27120898557E+02 -0.20061927827E+04  0.20113523345E+04  0.78513331308E+02 0.  0.
         25    2    1    2    0    0  0.10540837541E+03  0.63162454124E+01 -0.76339853166E+02  0.18062861552E+03  0.12509237786E+03 0.  0.
        -24    2    1    2    0    0  0.12187737490E+02  0.20804653145E+02  0.18152580953E+03  0.19952281388E+03  0.79223476286E+02 0.  0.
        -11    1    3    3    0    0  0.23321984479E+01 -0.24216253298E+00 -0.54351799102E+03  0.54352304860E+03  0.00000000000E+00 0.  1.
         12    1    3    3    0    0 -0.11992831135E+03 -0.26878736024E+02 -0.14626747916E+04  0.14678292859E+04  0.00000000000E+00 0. -1.
         13    1    5    5    0    0 -0.10241007335E+02  0.43890748679E+02  0.13941904127E+03  0.14652284846E+03  0.00000000000E+00 0. -1.
        -14    1    5    5    0    0  0.22428744825E+02 -0.23086095534E+02  0.42106768257E+02  0.52999965420E+02  0.00000000000E+00 0.  1.
          5    1    4    4  501    0  0.11533428329E+03  0.27316989915E+02 -0.20969954113E+02  0.12043847481E+03  0.41800000000E+01 0. -1.
         -5    1    4    4    0  501 -0.99259078803E+01 -0.21000744502E+02 -0.55369899053E+02  0.60190140704E+02  0.41800000000E+01 0. -1.
</event>
<event>
11    1  0.7577197E-009  0.1306897E+03  0.7561462E-02  0.1118424E+00
         22   -1    0    0    0    0  0.00000000000E+00  0.00000000000E+00  0.65705997474E+03  0.65705997474E+03  0.00000000000E+00 0.  1.
         22   -1    0    0    0    0 -0.00000000000E+00 -0.00000000000E+00 -0.26542332410E+04  0.26542332410E+04  0.00000000000E+00 0.  1.
        -24    2    1    2    0    0  0.56721982697E+00 -0.37464170658E+02 -0.25589688873E+04  0.25605391097E+04  0.81454773497E+02 0.  0.
         25    2    1    2    0    0 -0.21431731314E+02  0.63277498098E+02 -0.36622889111E+02  0.14646743031E+03  0.12509241088E+03 0.  0.
         24    2    1    2    0    0  0.20864511487E+02 -0.25813327440E+02  0.59841851015E+03  0.60428667578E+03  0.77175238996E+02 0.  0.
        -11    1    5    5    0    0  0.31416922615E+01 -0.46177895611E+02  0.21533543525E+03  0.22025353107E+03  0.00000000000E+00 0.  1.
         12    1    5    5    0    0  0.17722819225E+02  0.20364568170E+02  0.38308307491E+03  0.38403314471E+03  0.00000000000E+00 0. -1.
         11    1    3    3    0    0 -0.44670144140E+01  0.14640014712E+02 -0.11552769902E+03  0.11653726224E+03  0.00000000000E+00 0. -1.
        -12    1    3    3    0    0  0.50342342409E+01 -0.52104185370E+02 -0.24434411883E+04  0.24440018474E+04  0.00000000000E+00 0.  1.
          5    1    4    4  501    0  0.18258983116E+02  0.27149213941E+02  0.40614067846E+02  0.52320600044E+02  0.41800000000E+01 0. -1.
         -5    1    4    4    0  501 -0.39690714430E+02  0.36128284158E+02 -0.77236956957E+02  0.94146830261E+02  0.41800000000E+01 0. -1.
</event>
<event>
11    1  0.7577197E-009  0.1641575E+03  0.7561462E-02  0.1083231E+00
         22   -1    0    0    0    0  0.00000000000E+00  0.00000000000E+00  0.10152931519E+04  0.10152931519E+04  0.00000000000E+00 0.  1.
         22   -1    0    0    0    0 -0.00000000000E+00 -0.00000000000E+00 -0.18724272915E+04  0.18724272915E+04  0.00000000000E+00 0.  1.
        -24    2    1    2    0    0 -0.33299138120E+02  0.10114394146E+03 -0.18523638188E+04  0.18566528447E+04  0.67595405826E+02 0.  0.
         25    2    1    2    0    0  0.29550997894E+02 -0.70269997750E+02  0.34060387395E+03  0.37076916505E+03  0.12509053017E+03 0.  0.
         24    2    1    2    0    0  0.37481402257E+01 -0.30873943714E+02  0.65462580530E+03  0.66029843363E+03  0.80571878021E+02 0.  0.
        -11    1    5    5    0    0 -0.28324161545E+02 -0.42189301579E+02  0.32896924300E+03  0.33287078294E+03  0.00000000000E+00 0.  1.
         12    1    5    5    0    0  0.32072301771E+02  0.11315357864E+02  0.32565656230E+03  0.32742765069E+03  0.00000000000E+00 0. -1.
         11    1    3    3    0    0 -0.67245482678E+01 -0.19564935286E+01 -0.51824096060E+03  0.51828827949E+03  0.00000000000E+00 0. -1.
        -12    1    3    3    0    0 -0.26574589852E+02  0.10310043499E+03 -0.13341228582E+04  0.13383645652E+04  0.00000000000E+00 0.  1.
          5    1    4    4  501    0 -0.26586864471E+02  0.28380795143E+01  0.20482895443E+03  0.20660902456E+03  0.41800000000E+01 0. -1.
         -5    1    4    4    0  501  0.56137862365E+02 -0.73108077265E+02  0.13577491952E+03  0.16416014048E+03  0.41800000000E+01 0. -1.
</event>
<event>
11    1  0.7577197E-009  0.1475968E+03  0.7561462E-02  0.1099360E+00
         22   -1    0    0    0    0  0.00000000000E+00  0.00000000000E+00  0.88326007639E+03  0.88326007639E+03  0.00000000000E+00 0.  1.
         22   -1    0    0    0    0 -0.00000000000E+00 -0.00000000000E+00 -0.64394894168E+03  0.64394894168E+03  0.00000000000E+00 0.  1.
        -24    2    1    2    0    0 -0.33589045126E+02 -0.63602053169E+02 -0.59817642530E+03  0.60793410902E+03  0.81212068116E+02 0.  0.
         25    2    1    2    0    0  0.10804268641E+03  0.57698239286E+02  0.17566953205E+03  0.24800945390E+03  0.12508635350E+03 0.  0.
         24    2    1    2    0    0 -0.74453641280E+02  0.59038138830E+01  0.66181802796E+03  0.67126545516E+03  0.83761622693E+02 0.  0.
        -11    1    5    5    0    0 -0.44916183973E+02 -0.19455168585E+02  0.56195217218E+03  0.56407996861E+03  0.00000000000E+00 0.  1.
         12    1    5    5    0    0 -0.29537457307E+02  0.25358982468E+02  0.99865855777E+02  0.10718548655E+03  0.00000000000E+00 0. -1.
         11    1    3    3    0    0  0.79253867187E+01  0.15699048153E+02 -0.13961346255E+03  0.14071670403E+03  0.00000000000E+00 0. -1.
        -12    1    3    3    0    0 -0.41514431845E+02 -0.79301101322E+02 -0.45856296275E+03  0.46721740499E+03  0.00000000000E+00 0.  1.
          5    1    4    4  501    0  0.48761539914E+02 -0.27355500529E+02  0.17296570448E+02  0.58674141948E+02  0.41800000000E+01 0. -1.
         -5    1    4    4    0  501  0.59281146492E+02  0.85053739815E+02  0.15837296160E+03  0.18933531195E+03  0.41800000000E+01 0. -1.
</event>
<event>
11    1  0.7577197E-009  0.1404454E+03  0.7561462E-02  0.1107062E+00
         22   -1    0    0    0    0  0.00000000000E+00  0.00000000000E+00  0.53072655340E+03  0.53072655340E+03  0.00000000000E+00 0. -1.
         22   -1    0    0    0    0 -0.00000000000E+00 -0.00000000000E+00 -0.19947728452E+03  0.19947728452E+03  0.00000000000E+00 0. -1.
        -24    2    1    2    0    0 -0.41254683544E+02 -0.54416681589E+02 -0.15269827613E+03  0.18720697130E+03  0.84062848041E+02 0.  0.
         25    2    1    2    0    0  0.37188690474E+02 -0.15031469322E+02  0.18397564285E+03  0.22605615624E+03  0.12508159274E+03 0.  0.
         24    2    1    2    0    0  0.40659930708E+01  0.69448150911E+02  0.29997190216E+03  0.31694071038E+03  0.75024621594E+02 0.  0.
        -13    1    5    5    0    0  0.11298452961E+02  0.10782850423E+02  0.54436183445E+01  0.16539585340E+02  0.00000000000E+00 0.  1.
         14    1    5    5    0    0 -0.72324598897E+01  0.58665300489E+02  0.29452828381E+03  0.30040112504E+03  0.00000000000E+00 0. -1.
         13    1    3    3    0    0 -0.56245283457E+02 -0.21296832418E+02 -0.49828500390E+02  0.78102281870E+02  0.00000000000E+00 0. -1.
        -14    1    3    3    0    0  0.14990599912E+02 -0.33119849171E+02 -0.10286977574E+03  0.10910468943E+03  0.00000000000E+00 0.  1.
          5    1    4    4  501    0  0.71221060433E+02  0.50357354298E+01  0.16915394448E+03  0.18365273593E+03  0.41800000000E+01 0.  1.
         -5    1    4    4    0  501 -0.34032369959E+02 -0.20067204752E+02  0.14821698373E+02  0.42403420313E+02  0.41800000000E+01 0.  1.
</event>
<event>
11    1  0.1492545E-008  0.1474505E+03  0.7561462E-02  0.1099513E+00
         22   -1    0    0    0    0  0.00000000000E+00  0.00000000000E+00  0.15490510703E+04  0.15490510703E+04  0.00000000000E+00 0.  1.
         22   -1    0    0    0    0 -0.00000000000E+00 -0.00000000000E+00 -0.93501035927E+03  0.93501035927E+03  0.00000000000E+00 0.  1.
         24    2    1    2    0    0 -0.19066757068E+02 -0.30977485394E+02 -0.81293269658E+03  0.81778407162E+03  0.81166944052E+02 0.  0.
         25    2    1    2    0    0 -0.18577505544E+02 -0.38104208261E+02 -0.80454944661E+02  0.15466677845E+03  0.12510699355E+03 0.  0.
        -24    2    1    2    0    0  0.37644262612E+02  0.69081693655E+02  0.15074283522E+04  0.15116105795E+04  0.80230517280E+02 0.  0.
        -11    1    3    3    0    0  0.12086347754E+02 -0.19765940115E+02 -0.63069406602E+02  0.67190194521E+02  0.00000000000E+00 0.  1.
         12    1    3    3    0    0 -0.31153104821E+02 -0.11211545278E+02 -0.74986328998E+03  0.75059387710E+03  0.00000000000E+00 0. -1.
         13    1    5    5    0    0  0.21737995042E+02  0.59505243404E+01  0.93268814707E+02  0.95953222798E+02  0.00000000000E+00 0. -1.
        -14    1    5    5    0    0  0.15906267570E+02  0.63131169314E+02  0.14141595375E+04  0.14156573567E+04  0.00000000000E+00 0.  1.
          5    1    4    4  501    0  0.42253409177E+02 -0.50800371454E+02 -0.59323178457E+02  0.88897357830E+02  0.41800000000E+01 0.  1.
         -5    1    4    4    0  501 -0.60830914722E+02  0.12696163193E+02 -0.21131766204E+02  0.65769420619E+02  0.41800000000E+01 0.  1.
</event>
<event>
11    1  0.7577197E-009  0.2386949E+03  0.7561462E-02  0.1030100E+00
         22   -1    0    0    0    0  0.00000000000E+00  0.00000000000E+00  0.10658956195E+04  0.10658956195E+04  0.00000000000E+00 0.  1.
         22   -1    0    0    0    0 -0.00000000000E+00 -0.00000000000E+00 -0.12290332521E+04  0.12290332521E+04  0.00000000000E+00 0.  1.
        -24    2    1    2    0    0 -0.95170572265E+02  0.16951272549E+03 -0.74242856690E+03  0.77174899827E+03  0.81267074910E+02 0.  0.
         25    2    1    2    0    0  0.51573632853E+02 -0.22663933938E+03 -0.43075965903E+03  0.50519495602E+03  0.12507129958E+03 0.  0.
         24    2    1    2    0    0  0.43596939412E+02  0.57126613896E+02  0.10100505933E+04  0.10179849174E+04  0.10453204160E+03 0.  0.
        -13    1    5    5    0    0 -0.19085915137E+02  0.60778400826E+02  0.54681087058E+03  0.55050923185E+03  0.00000000000E+00 0.  1.
         14    1    5    5    0    0  0.62682854549E+02 -0.36517869303E+01  0.46323972277E+03  0.46747568552E+03  0.00000000000E+00 0. -1.
         13    1    3    3    0    0 -0.30281544100E+02  0.57855349432E+02 -0.40907376768E+03  0.41425301541E+03  0.00000000000E+00 0. -1.
        -14    1    3    3    0    0 -0.64889028165E+02  0.11165737606E+03 -0.33335479921E+03  0.35749598286E+03  0.00000000000E+00 0.  1.
          5    1    4    4  501    0  0.40784261973E+02 -0.45784092274E+02 -0.21404025567E+03  0.22268866737E+03  0.41800000000E+01 0. -1.
         -5    1    4    4    0  501  0.10789370880E+02 -0.18085524711E+03 -0.21671940336E+03  0.28250628864E+03  0.41800000000E+01 0. -1.
</event>
<event>
11    1  0.7577197E-009  0.1480882E+03  0.7561462E-02  0.1098848E+00
         22   -1    0    0    0    0  0.00000000000E+00  0.00000000000E+00  0.15519010828E+04  0.15519010828E+04  0.00000000000E+00 0.  1.
         22   -1    0    0    0    0 -0.00000000000E+00 -0.00000000000E+00 -0.15190100183E+03  0.15190100183E+03  0.00000000000E+00 0.  1.
        -24    2    1    2    0    0  0.33440778873E+01 -0.68348104766E+02 -0.71322483671E+02  0.12638281176E+03  0.78759584492E+02 0.  0.
         25    2    1    2    0    0  0.56123796901E+02  0.12601925251E+02  0.43082892879E+02  0.14426461407E+03  0.12508978421E+03 0.  0.
         24    2    1    2    0    0 -0.59467874788E+02  0.55746179515E+02  0.14282396717E+04  0.14331546588E+04  0.86137398459E+02 0.  0.
        -11    1    5    5    0    0 -0.64479118133E+02  0.42956132550E+02  0.13955110638E+04  0.13976601572E+04  0.00000000000E+00 0.  1.
         12    1    5    5    0    0  0.50112433453E+01  0.12790046965E+02  0.32728607945E+02  0.35494501535E+02  0.00000000000E+00 0. -1.
         13    1    3    3    0    0 -0.22406492971E+02  0.71775953809E+01 -0.92231398889E+01  0.25271230918E+02  0.00000000000E+00 0. -1.
        -14    1    3    3    0    0  0.25750570858E+02 -0.75525700147E+02 -0.62099343782E+02  0.10111158084E+03  0.00000000000E+00 0.  1.
          5    1    4    4  501    0  0.29715252283E+02 -0.25337045893E+02  0.77230258345E+02  0.86642641446E+02  0.41800000000E+01 0. -1.
         -5    1    4    4    0  501  0.26408544618E+02  0.37938971144E+02 -0.34147365466E+02  0.57621972619E+02  0.41800000000E+01 0. -1.
</event>
<event>
11    1  0.9121583E-009  0.1542008E+03  0.7561462E-02  0.1092662E+00
         22   -1    0    0    0    0  0.00000000000E+00  0.00000000000E+00  0.20489235812E+04  0.20489235812E+04  0.00000000000E+00 0. -1.
         22   -1    0    0    0    0 -0.00000000000E+00 -0.00000000000E+00 -0.79649224468E+03  0.79649224468E+03  0.00000000000E+00 0. -1.
        -24    2    1    2    0    0 -0.49389870223E+02 -0.48728560543E+02 -0.72462579214E+03  0.73282479477E+03  0.84473719556E+02 0.  0.
         25    2    1    2    0    0  0.29923253752E+02 -0.40950235742E+02  0.32278413002E+01  0.13501909988E+03  0.12508962967E+03 0.  0.
         24    2    1    2    0    0  0.19466616471E+02  0.89678796285E+02  0.19738292874E+04  0.19775719312E+04  0.79796315266E+02 0.  0.
        -11    1    5    5    0    0  0.88212224776E+01 -0.14071477688E+02  0.20570982756E+03  0.20637915012E+03  0.00000000000E+00 0.  1.
         12    1    5    5    0    0  0.10645393993E+02  0.10375027397E+03  0.17681194598E+04  0.17711927811E+04  0.00000000000E+00 0. -1.
         11    1    3    3    0    0 -0.20584031834E+02 -0.18279346255E+02 -0.61253441105E+03  0.61315270658E+03  0.00000000000E+00 0. -1.
        -12    1    3    3    0    0 -0.28805838389E+02 -0.30449214288E+02 -0.11209138109E+03  0.11967208819E+03  0.00000000000E+00 0.  1.
          5    1    4    4  501    0  0.61057680883E+02  0.16107264159E+02  0.22384357318E+02  0.67126866499E+02  0.41800000000E+01 0.  1.
         -5    1    4    4    0  501 -0.31134427131E+02 -0.57057499901E+02 -0.19156516018E+02  0.67892233383E+02  0.41800000000E+01 0.  1.
</event>
<event>
11    1  0.7577197E-009  0.1737302E+03  0.7561462E-02  0.1074830E+00
         22   -1    0    0    0    0  0.00000000000E+00  0.00000000000E+00  0.18443657106E+03  0.18443657106E+03  0.00000000000E+00 0. -1.
         22   -1    0    0    0    0 -0.00000000000E+00 -0.00000000000E+00 -0.64379245404E+03  0.64379245404E+03  0.00000000000E+00 0. -1.
         24    2    1    2    0    0  0.42727924129E+02  0.99809046986E+01 -0.48964942882E+03  0.49922591932E+03  0.86860010429E+02 0.  0.
         25    2    1    2    0    0 -0.14087008967E+03 -0.46112817107E+02  0.48021902202E+01  0.19401321145E+03  0.12508913271E+03 0.  0.
        -24    2    1    2    0    0  0.98142165543E+02  0.36131912409E+02  0.25491355626E+02  0.13498989432E+03  0.81455893623E+02 0.  0.
        -11    1    3    3    0    0  0.48614979959E+02  0.97110015744E+01 -0.12419583173E+03  0.13372480865E+03  0.00000000000E+00 0.  1.
         12    1    3    3    0    0 -0.58870558299E+01  0.26990312421E+00 -0.36545359709E+03  0.36550111067E+03  0.00000000000E+00 0. -1.
         11    1    5    5    0    0  0.11004157857E+03  0.26747747417E+02  0.10595492200E+02  0.11374029832E+03  0.00000000000E+00 0. -1.
        -12    1    5    5    0    0 -0.11899413031E+02  0.93841649920E+01  0.14895863426E+02  0.21249596003E+02  0.00000000000E+00 0.  1.
          5    1    4    4  501    0 -0.14041976524E+03  0.25099704288E+01  0.22104868782E+02  0.14223258433E+03  0.41800000000E+01 0. -1.
         -5    1    4    4    0  501 -0.45032443160E+00 -0.48622787536E+02 -0.17302678561E+02  0.51780627123E+02  0.41800000000E+01 0. -1.
</event>
<event>
11    1  0.7577197E-009  0.1323095E+03  0.7561462E-02  0.1116464E+00
         22   -1    0    0    0    0  0.00000000000E+00  0.00000000000E+00  0.46856954058E+03  0.46856954058E+03  0.00000000000E+00 0. -1.
         22   -1    0    0    0    0 -0.00000000000E+00 -0.00000000000E+00 -0.35263678869E+03  0.35263678869E+03  0.00000000000E+00 0. -1.
        -24    2    1    2    0    0 -0.35633739480E+02  0.24272750897E+02 -0.31687939957E+03  0.33054632312E+03  0.83602559951E+02 0.  0.
         25    2    1    2    0    0  0.39568331424E+02 -0.20719311516E+02  0.17084881731E+03  0.21639642910E+03  0.12507259264E+03 0.  0.
         24    2    1    2    0    0 -0.39345919432E+01 -0.35534393808E+01  0.26196333416E+03  0.27426357705E+03  0.81040812611E+02 0.  0.
        -11    1    5    5    0    0 -0.52614282241E+00 -0.38560525248E+02  0.78523318898E+02  0.87482012691E+02  0.00000000000E+00 0.  1.
         12    1    5    5    0    0 -0.34084491208E+01  0.35007085867E+02  0.18344001526E+03  0.18678156436E+03  0.00000000000E+00 0. -1.
         13    1    3    3    0    0 -0.47098031706E+02  0.46781350166E+02 -0.25943781697E+03  0.26779600480E+03  0.00000000000E+00 0. -1.
        -14    1    3    3    0    0  0.11464292225E+02 -0.22508599269E+02 -0.57441582603E+02  0.62750318319E+02  0.00000000000E+00 0.  1.
          5    1    4    4  501    0 -0.20941731741E+02 -0.37825419973E+02  0.13930978836E+03  0.14592466569E+03  0.41800000000E+01 0. -1.
         -5    1    4    4    0  501  0.60510063165E+02  0.17106108457E+02  0.31539028952E+02  0.70471763409E+02  0.41800000000E+01 0. -1.
</event>
<event>
11    1  0.8276624E-009  0.1628818E+03  0.7561462E-02  0.1084398E+00
         22   -1    0    0    0    0  0.00000000000E+00  0.00000000000E+00  0.23224082318E+03  0.23224082318E+03  0.00000000000E+00 0.  1.
         22   -1    0    0    0    0 -0.00000000000E+00 -0.00000000000E+00 -0.12124478158E+04  0.12124478158E+04  0.00000000000E+00 0.  1.
         24    2    1    2    0    0 -0.55631566519E+02  0.14320725015E+02 -0.10143718213E+04  0.10194257065E+04  0.83538164475E+02 0.  0.
         25    2    1    2    0    0  0.40377823610E+02  0.91539649394E+02 -0.13254500673E+03  0.20790978569E+03  0.12509366142E+03 0.  0.
        -24    2    1    2    0    0  0.15253742909E+02 -0.10586037441E+03  0.16670983538E+03  0.21735314679E+03  0.89504891848E+02 0.  0.
        -11    1    3    3    0    0 -0.70385330610E+02 -0.65133277617E+01 -0.57772682807E+03  0.58203505571E+03  0.00000000000E+00 0.  1.
         12    1    3    3    0    0  0.14753764091E+02  0.20834052776E+02 -0.43664499324E+03  0.43739065082E+03  0.00000000000E+00 0. -1.
         13    1    5    5    0    0  0.33000329402E+01  0.27668727823E+01 -0.92588044600E+01  0.10211330101E+02  0.00000000000E+00 0. -1.
        -14    1    5    5    0    0  0.11953709969E+02 -0.10862724719E+03  0.17596863984E+03  0.20714181669E+03  0.00000000000E+00 0.  1.
          5    1    4    4  501    0  0.13757770388E+02  0.21632573968E+02 -0.13039635659E+03  0.13295836459E+03  0.41800000000E+01 0. -1.
         -5    1    4    4    0  501  0.26620053222E+02  0.69907075426E+02 -0.21486501379E+01  0.74951421104E+02  0.41800000000E+01 0. -1.
</event>
<event>
11    1  0.7577197E-009  0.1339301E+03  0.7561462E-02  0.1114532E+00
         22   -1    0    0    0    0  0.00000000000E+00  0.00000000000E+00  0.32340528499E+03  0.32340528499E+03  0.00000000000E+00 0. -1.
         22   -1    0    0    0    0 -0.00000000000E+00 -0.00000000000E+00 -0.44821696192E+03  0.44821696192E+03  0.00000000000E+00 0. -1.
         24    2    1    2    0    0 -0.65317452954E+01  0.41801578531E+02 -0.24547560192E+03  0.26180203252E+03  0.80572932371E+02 0.  0.
         25    2    1    2    0    0  0.20953085542E+02 -0.63086468006E+02 -0.16180850862E+03  0.21505812143E+03  0.12509623452E+03 0.  0.
        -24    2    1    2    0    0 -0.14421340247E+02  0.21284889475E+02  0.28247243360E+03  0.29476209297E+03  0.80205948231E+02 0.  0.
        -11    1    3    3    0    0 -0.32664265829E+02  0.19493671001E+02 -0.47436524438E+02  0.60804451499E+02  0.00000000000E+00 0.  1.
         12    1    3    3    0    0  0.26132520534E+02  0.22307907530E+02 -0.19803907748E+03  0.20099758102E+03  0.00000000000E+00 0. -1.
         13    1    5    5    0    0 -0.30924524175E+02  0.25559628844E+01  0.25781220005E+03  0.25967285117E+03  0.00000000000E+00 0. -1.
        -14    1    5    5    0    0  0.16503183929E+02  0.18728926591E+02  0.24660233556E+02  0.35089241799E+02  0.00000000000E+00 0.  1.
          5    1    4    4  501    0  0.42355752411E+02 -0.62146115735E+01 -0.14589610554E+03  0.15210449425E+03  0.41800000000E+01 0.  1.
         -5    1    4    4    0  501 -0.21402666869E+02 -0.56871856432E+02 -0.15912403078E+02  0.62953627178E+02  0.41800000000E+01 0.  1.
</event>
<event>
11    1  0.7577197E-009  0.2103551E+03  0.7561462E-02  0.1047433E+00
         22   -1    0    0    0    0  0.00000000000E+00  0.00000000000E+00  0.65236636394E+03  0.65236636394E+03  0.00000000000E+00 0.  1.
         22   -1    0    0    0    0 -0.00000000000E+00 -0.00000000000E+00 -0.17558812850E+03  0.17558812850E+03  0.00000000000E+00 0. -1.
        -24    2    1    2    0    0 -0.12219426465E+03 -0.94066049121E+02 -0.25886826212E+02  0.17872070354E+03  0.86551153622E+02 0.  0.
         25    2    1    2    0    0  0.13951802060E+03  0.18666193415E+03  0.23650096299E+03  0.35480754695E+03  0.12509090354E+03 0.  0.
         24    2    1    2    0    0 -0.17323755949E+02 -0.92595885026E+02  0.26616409867E+03  0.29442624194E+03  0.83482777154E+02 0.  0.
        -13    1    5    5    0    0  0.15662487164E+02 -0.23776146484E+02  0.16640541984E+03  0.16882352442E+03  0.00000000000E+00 0.  1.
         14    1    5    5    0    0 -0.32986243112E+02 -0.68819738542E+02  0.99758678828E+02  0.12560271752E+03  0.00000000000E+00 0. -1.
         13    1    3    3    0    0 -0.70045648378E+02 -0.92467596683E+02  0.83730383228E+01  0.11630458746E+03  0.00000000000E+00 0. -1.
        -14    1    3    3    0    0 -0.52148616274E+02 -0.15984524381E+01 -0.34259864535E+02  0.62416116087E+02  0.00000000000E+00 0.  1.
          5    1    4    4  501    0  0.13754894666E+02 -0.11585513403E+02 -0.37786168904E+01  0.18845996755E+02  0.41800000000E+01 0. -1.
         -5    1    4    4    0  501  0.12576312593E+03  0.19824744755E+03  0.24027957988E+03  0.33596155020E+03  0.41800000000E+01 0. -1.
</event>
<event>
11    1  0.7577197E-009  0.1360048E+03  0.7561462E-02  0.1112104E+00
         22   -1    0    0    0    0  0.00000000000E+00  0.00000000000E+00  0.14542255068E+04  0.14542255068E+04  0.00000000000E+00 0. -1.
         22   -1    0    0    0    0 -0.00000000000E+00 -0.00000000000E+00 -0.36601412936E+03  0.36601412936E+03  0.00000000000E+00 0.  1.
        -24    2    1    2    0    0  0.46847657316E+02 -0.41625637469E+02 -0.23687900398E+03  0.25686200030E+03  0.77065089242E+02 0.  0.
         25    2    1    2    0    0 -0.32623852879E+02 -0.89021140061E+01 -0.81771370560E+02  0.15322841985E+03  0.12509527647E+03 0.  0.
         24    2    1    2    0    0 -0.14223804438E+02  0.50527751475E+02  0.14068617519E+04  0.14101492160E+04  0.80656382045E+02 0.  0.
        -13    1    5    5    0    0 -0.33287250321E+02 -0.61928793745E+01  0.67336615078E+03  0.67421685369E+03  0.00000000000E+00 0.  1.
         14    1    5    5    0    0  0.19063445883E+02  0.56720630850E+02  0.73349560117E+03  0.73593236229E+03  0.00000000000E+00 0. -1.
         11    1    3    3    0    0 -0.13305759114E+02  0.41015350909E+01 -0.85125425744E+01  0.16319595484E+02  0.00000000000E+00 0. -1.
        -12    1    3    3    0    0  0.60153416430E+02 -0.45727172560E+02 -0.22836646141E+03  0.24054240482E+03  0.00000000000E+00 0.  1.
          5    1    4    4  501    0 -0.38468980394E+02 -0.63521004634E+02 -0.43750758078E+02  0.86292419799E+02  0.41800000000E+01 0. -1.
         -5    1    4    4    0  501  0.58451275150E+01  0.54618890628E+02 -0.38020612481E+02  0.66936000049E+02  0.41800000000E+01 0. -1.
</event>
<event>
11    1  0.7577197E-009  0.1417210E+03  0.7561462E-02  0.1105652E+00
         22   -1    0    0    0    0  0.00000000000E+00  0.00000000000E+00  0.26362491970E+04  0.26362491970E+04  0.00000000000E+00 0.  1.
         22   -1    0    0    0    0 -0.00000000000E+00 -0.00000000000E+00 -0.38087364917E+03  0.38087364917E+03  0.00000000000E+00 0. -1.
         24    2    1    2    0    0  0.19523860816E+02 -0.70311772005E+02 -0.25823312222E+03  0.27985887734E+03  0.79446330243E+02 0.  0.
         25    2    1    2    0    0  0.26955123691E+02  0.48774075337E+02 -0.68725451228E+02  0.15318912410E+03  0.12505291271E+03 0.  0.
        -24    2    1    2    0    0 -0.46478984507E+02  0.21537696668E+02  0.25823341213E+04  0.25840748447E+04  0.79806771872E+02 0.  0.
        -11    1    3    3    0    0 -0.45289991725E+01  0.70717495356E+01  0.80986036199E+00  0.84366669251E+01  0.00000000000E+00 0.  1.
         12    1    3    3    0    0  0.24052859988E+02 -0.77383521541E+02 -0.25904298259E+03  0.27142221042E+03  0.00000000000E+00 0. -1.
         13    1    5    5    0    0 -0.23387324818E+02  0.38262144209E+02  0.65655318339E+03  0.65808285288E+03  0.00000000000E+00 0. -1.
        -14    1    5    5    0    0 -0.23091659689E+02 -0.16724447541E+02  0.19257809379E+04  0.19259919918E+04  0.00000000000E+00 0.  1.
          5    1    4    4  501    0 -0.28073049743E+02  0.19847659197E+02  0.23524845791E+02  0.41867845263E+02  0.41800000000E+01 0. -1.
         -5    1    4    4    0  501  0.55028173434E+02  0.28926416141E+02 -0.92250297020E+02  0.11132127884E+03  0.41800000000E+01 0. -1.
</event>
<event>
11    1  0.7577197E-009  0.1454597E+03  0.7561462E-02  0.1101610E+00
         22   -1    0    0    0    0  0.00000000000E+00  0.00000000000E+00  0.68149552824E+03  0.68149552824E+03  0.00000000000E+00 0. -1.
         22   -1    0    0    0    0 -0.00000000000E+00 -0.00000000000E+00 -0.20525775379E+04  0.20525775379E+04  0.00000000000E+00 0.  1.
         24    2    1    2    0    0  0.27912603401E+02  0.69647585917E+02 -0.19982108433E+04  0.20012558243E+04  0.80922186015E+02 0.  0.
         25    2    1    2    0    0 -0.24403818070E+02 -0.22215325704E+02  0.36056147349E+02  0.13430004212E+03  0.12508952202E+03 0.  0.
        -24    2    1    2    0    0 -0.35087853312E+01 -0.47432260213E+02  0.59107268630E+03  0.59851719974E+03  0.81202136733E+02 0.  0.
        -13    1    3    3    0    0  0.11277284762E+02  0.57769041464E+02 -0.19013865309E+04  0.19022973425E+04  0.00000000000E+00 0.  1.
         14    1    3    3    0    0  0.16635318639E+02  0.11878544454E+02 -0.96824312361E+02  0.98958481742E+02  0.00000000000E+00 0. -1.
         13    1    5    5    0    0  0.33914966596E+02 -0.16826585441E+02  0.38465334750E+03  0.38651203950E+03  0.00000000000E+00 0. -1.
        -14    1    5    5    0    0 -0.37423751928E+02 -0.30605674772E+02  0.20641933880E+03  0.21200516024E+03  0.00000000000E+00 0.  1.
          5    1    4    4  501    0 -0.36698856931E+02  0.45973786347E+02  0.83557651566E+01  0.59562457492E+02  0.41800000000E+01 0.  1.
         -5    1    4    4    0  501  0.12295038861E+02 -0.68189112051E+02  0.27700382192E+02  0.74737584631E+02  0.41800000000E+01 0.  1.
</event>
<event>
11    1  0.7577197E-009  0.1444555E+03  0.7561462E-02  0.1102683E+00
         22   -1    0    0    0    0  0.00000000000E+00  0.00000000000E+00  0.46187131470E+03  0.46187131470E+03  0.00000000000E+00 0.  1.
         22   -1    0    0    0    0 -0.00000000000E+00 -0.00000000000E+00 -0.26551812200E+03  0.26551812200E+03  0.00000000000E+00 0. -1.
         24    2    1    2    0    0 -0.19729877718E+02  0.99649881706E+00 -0.21108829102E+03  0.22608847082E+03  0.78533234673E+02 0.  0.
         25    2    1    2    0    0 -0.26934914619E+02 -0.58983385637E+02  0.93436814875E+02  0.16906441639E+03  0.12509120317E+03 0.  0.
        -24    2    1    2    0    0  0.46664792337E+02  0.57986886820E+02  0.31400466884E+03  0.33223654948E+03  0.79007030508E+02 0.  0.
        -13    1    3    3    0    0 -0.41707907627E+02 -0.17925211463E+01 -0.58316812619E+02  0.71718988592E+02  0.00000000000E+00 0.  1.
         14    1    3    3    0    0  0.21978029909E+02  0.27890199634E+01 -0.15277147840E+03  0.15436948223E+03  0.00000000000E+00 0. -1.
         13    1    5    5    0    0  0.84594117651E+01 -0.36515242170E+01 -0.74196427868E+00  0.92436890639E+01  0.00000000000E+00 0. -1.
        -14    1    5    5    0    0  0.38205380571E+02  0.61638411037E+02  0.31474663312E+03  0.32299286042E+03  0.00000000000E+00 0.  1.
          5    1    4    4  501    0 -0.60976925542E+01  0.22562333590E+02  0.80350289523E+02  0.83784737142E+02  0.41800000000E+01 0.  1.
         -5    1    4    4    0  501 -0.20837222065E+02 -0.81545719227E+02  0.13086525352E+02  0.85279679252E+02  0.41800000000E+01 0.  1.
</event>
<event>
11    1  0.7577197E-009  0.1510217E+03  0.7561462E-02  0.1095839E+00
         22   -1    0    0    0    0  0.00000000000E+00  0.00000000000E+00  0.13989201011E+03  0.13989201011E+03  0.00000000000E+00 0. -1.
         22   -1    0    0    0    0 -0.00000000000E+00 -0.00000000000E+00 -0.23504120305E+04  0.23504120305E+04  0.00000000000E+00 0.  1.
         24    2    1    2    0    0  0.50983678531E+02 -0.51953065076E+02 -0.18634523852E+04  0.18666323488E+04  0.81012821409E+02 0.  0.
         25    2    1    2    0    0 -0.10185399444E+03 -0.16393340641E+02 -0.44023536922E+03  0.46914658904E+03  0.12509342069E+03 0.  0.
        -24    2    1    2    0    0  0.50870315906E+02  0.68346405717E+02  0.93167733958E+02  0.15452510284E+03  0.89099722459E+02 0.  0.
        -13    1    3    3    0    0  0.64903996018E+02 -0.62878850469E+02 -0.14620518364E+04  0.14648419201E+04  0.00000000000E+00 0.  1.
         14    1    3    3    0    0 -0.13920317487E+02  0.10925785393E+02 -0.40140054873E+03  0.40179042864E+03  0.00000000000E+00 0. -1.
         13    1    5    5    0    0 -0.17365159486E+02  0.26292790785E+02  0.60018921945E+02  0.67787392653E+02  0.00000000000E+00 0. -1.
        -14    1    5    5    0    0  0.68235475392E+02  0.42053614932E+02  0.33148812014E+02  0.86737710188E+02  0.00000000000E+00 0.  1.
          5    1    4    4  501    0 -0.52564055585E+02 -0.10402628762E+02 -0.40394197470E+03  0.40750188459E+03  0.41800000000E+01 0.  1.
         -5    1    4    4    0  501 -0.49289938852E+02 -0.59907118793E+01 -0.36293394520E+02  0.61644704450E+02  0.41800000000E+01 0.  1.
</event>
<event>
11    1  0.7577197E-009  0.1383848E+03  0.7561462E-02  0.1109376E+00
         22   -1    0    0    0    0  0.00000000000E+00  0.00000000000E+00  0.54837827971E+03  0.54837827971E+03  0.00000000000E+00 0.  1.
         22   -1    0    0    0    0 -0.00000000000E+00 -0.00000000000E+00 -0.52959464037E+03  0.52959464037E+03  0.00000000000E+00 0. -1.
        -24    2    1    2    0    0  0.46401971972E+01  0.65028290131E+02 -0.42877887157E+03  0.44141541170E+03  0.82134250041E+02 0.  0.
         25    2    1    2    0    0 -0.96640071488E+01 -0.16294768223E+02 -0.46010267328E+02  0.13462469523E+03  0.12509177175E+03 0.  0.
         24    2    1    2    0    0  0.50238099517E+01 -0.48733521908E+02  0.49357277824E+03  0.50193281316E+03  0.76956264745E+02 0.  0.
        -11    1    5    5    0    0  0.24531533777E+02 -0.46056501429E+02  0.46046333055E+03  0.46341069933E+03  0.00000000000E+00 0.  1.
         12    1    5    5    0    0 -0.19507723825E+02 -0.26770204798E+01  0.33109447684E+02  0.38522113823E+02  0.00000000000E+00 0. -1.
         13    1    3    3    0    0  0.39445829078E+02  0.56684299411E+02 -0.28564071038E+03  0.29387020716E+03  0.00000000000E+00 0. -1.
        -14    1    3    3    0    0 -0.34805631881E+02  0.83439907201E+01 -0.14313816119E+03  0.14754520454E+03  0.00000000000E+00 0.  1.
          5    1    4    4  501    0 -0.49208140495E+02  0.28661134002E+02  0.29403058523E+01  0.57175339892E+02  0.41800000000E+01 0. -1.
         -5    1    4    4    0  501  0.39544133346E+02 -0.44955902225E+02 -0.48950573180E+02  0.77449355333E+02  0.41800000000E+01 0. -1.
</event>
<event>
11    1  0.7577197E-009  0.1816836E+03  0.7561462E-02  0.1068289E+00
         22   -1    0    0    0    0  0.00000000000E+00  0.00000000000E+00  0.60146606637E+03  0.60146606637E+03  0.00000000000E+00 0. -1.
         22   -1    0    0    0    0 -0.00000000000E+00 -0.00000000000E+00 -0.21097794301E+03  0.21097794301E+03  0.00000000000E+00 0. -1.
         24    2    1    2    0    0  0.19149145186E+02 -0.49901310353E+02 -0.12715263928E+03  0.15904736963E+03  0.79192433824E+02 0.  0.
         25    2    1    2    0    0 -0.14258418949E+03  0.73516563872E+02  0.13760744779E+03  0.24559569872E+03  0.12508597558E+03 0.  0.
        -24    2    1    2    0    0  0.12343504431E+03 -0.23615253519E+02  0.38003331485E+03  0.40780094103E+03  0.77989722077E+02 0.  0.
        -11    1    3    3    0    0 -0.26468293436E+02 -0.45620714191E-01 -0.23990797317E+02  0.35722975724E+02  0.00000000000E+00 0.  1.
         12    1    3    3    0    0  0.45617438623E+02 -0.49855689639E+02 -0.10316184196E+03  0.12332439391E+03  0.00000000000E+00 0. -1.
         13    1    5    5    0    0  0.36781510284E+02 -0.35248371332E+02  0.21594821049E+03  0.22187599418E+03  0.00000000000E+00 0. -1.
        -14    1    5    5    0    0  0.86653534022E+02  0.11633117814E+02  0.16408510436E+03  0.18592494685E+03  0.00000000000E+00 0.  1.
          5    1    4    4  501    0 -0.12349525616E+03  0.47703128884E+01  0.11928573507E+03  0.17181499693E+03  0.41800000000E+01 0. -1.
         -5    1    4    4    0  501 -0.19088933331E+02  0.68746250984E+02  0.18321712719E+02  0.73780701792E+02  0.41800000000E+01 0. -1.
</event>
<event>
11    1  0.7577197E-009  0.1334570E+03  0.7561462E-02  0.1115093E+00
         22   -1    0    0    0    0  0.00000000000E+00  0.00000000000E+00  0.11377800096E+04  0.11377800096E+04  0.00000000000E+00 0. -1.
         22   -1    0    0    0    0 -0.00000000000E+00 -0.00000000000E+00 -0.37622365341E+03  0.37622365341E+03  0.00000000000E+00 0.  1.
         24    2    1    2    0    0 -0.76077948155E+01  0.54611205827E+01 -0.35215568851E+03  0.36145700110E+03  0.80931034339E+02 0.  0.
         25    2    1    2    0    0  0.77943465166E+01  0.41725078926E+02  0.24025083975E+03  0.27417118945E+03  0.12509053151E+03 0.  0.
        -24    2    1    2    0    0 -0.18655170107E+00 -0.47186199509E+02  0.87346120491E+03  0.87837547242E+03  0.79890060992E+02 0.  0.
        -11    1    3    3    0    0  0.18521222386E+01  0.17383543409E+02 -0.34350736163E+03  0.34395192314E+03  0.00000000000E+00 0.  1.
         12    1    3    3    0    0 -0.94599170541E+01 -0.11922422827E+02 -0.86483268775E+01  0.17505077964E+02  0.00000000000E+00 0. -1.
         11    1    5    5    0    0 -0.22836772931E+02 -0.56638115109E+02  0.75101125079E+03  0.75349007498E+03  0.00000000000E+00 0. -1.
        -12    1    5    5    0    0  0.22650221230E+02  0.94519156004E+01  0.12244995412E+03  0.12488539744E+03  0.00000000000E+00 0.  1.
          5    1    4    4  501    0 -0.53426567951E+02  0.35409035925E+02  0.16375282898E+03  0.17589957188E+03  0.41800000000E+01 0.  1.
         -5    1    4    4    0  501  0.61220914467E+02  0.63160430016E+01  0.76498010771E+02  0.98271617567E+02  0.41800000000E+01 0.  1.
</event>
<event>
11    1  0.7577197E-009  0.1938803E+03  0.7561462E-02  0.1058938E+00
         22   -1    0    0    0    0  0.00000000000E+00  0.00000000000E+00  0.93405946575E+03  0.93405946575E+03  0.00000000000E+00 0.  1.
         22   -1    0    0    0    0 -0.00000000000E+00 -0.00000000000E+00 -0.36009914451E+03  0.36009914451E+03  0.00000000000E+00 0.  1.
        -24    2    1    2    0    0  0.85599589633E+01  0.40820289970E+02 -0.23041792794E+03  0.24577877166E+03  0.74667356416E+02 0.  0.
         25    2    1    2    0    0  0.13983330511E+03 -0.28408949227E+02 -0.34581689751E+02  0.19288373317E+03  0.12509124526E+03 0.  0.
         24    2    1    2    0    0 -0.14839326408E+03 -0.12411340743E+02  0.83895993893E+03  0.85549610543E+03  0.76453940869E+02 0.  0.
        -13    1    5    5    0    0 -0.83940932360E+02 -0.56298653684E+01  0.65649454955E+03  0.66186318004E+03  0.00000000000E+00 0.  1.
         14    1    5    5    0    0 -0.64452331717E+02 -0.67814753747E+01  0.18246538939E+03  0.19363292539E+03  0.00000000000E+00 0. -1.
         11    1    3    3    0    0  0.15982953932E+02  0.31166403306E+01 -0.18736265776E+03  0.18806896019E+03  0.00000000000E+00 0. -1.
        -12    1    3    3    0    0 -0.74229949688E+01  0.37703649640E+02 -0.43055270181E+02  0.57709811478E+02  0.00000000000E+00 0.  1.
          5    1    4    4  501    0  0.14380534625E+03  0.41063776985E+01 -0.54980477890E+02  0.15406870317E+03  0.41800000000E+01 0. -1.
         -5    1    4    4    0  501 -0.39720411405E+01 -0.32515326926E+02  0.20398788138E+02  0.38815029994E+02  0.41800000000E+01 0. -1.
</event>
<event>
11    1  0.7577197E-009  0.1993758E+03  0.7561462E-02  0.1054966E+00
         22   -1    0    0    0    0  0.00000000000E+00  0.00000000000E+00  0.46941272425E+03  0.46941272425E+03  0.00000000000E+00 0. -1.
         22   -1    0    0    0    0 -0.00000000000E+00 -0.00000000000E+00 -0.37238448185E+04  0.37238448185E+04  0.00000000000E+00 0. -1.
         24    2    1    2    0    0 -0.14581934647E+03 -0.52328715954E+02 -0.36463119237E+04  0.36505412324E+04  0.82819494036E+02 0.  0.
         25    2    1    2    0    0  0.16661749771E+03  0.74633342178E+02  0.11043870110E+03  0.24734409963E+03  0.12510343966E+03 0.  0.
        -24    2    1    2    0    0 -0.20798151243E+02 -0.22304626224E+02  0.28144112829E+03  0.29537221073E+03  0.84294571188E+02 0.  0.
        -11    1    3    3    0    0 -0.18869023188E+02 -0.42141735067E+02 -0.73896124883E+03  0.74040238596E+03  0.00000000000E+00 0.  1.
         12    1    3    3    0    0 -0.12695032328E+03 -0.10186980887E+02 -0.29073506749E+04  0.29101388465E+04  0.00000000000E+00 0. -1.
         13    1    5    5    0    0  0.22997432652E+01 -0.39650910035E+02  0.24809690512E+03  0.25125596076E+03  0.00000000000E+00 0. -1.
        -14    1    5    5    0    0 -0.23097894508E+02  0.17346283811E+02  0.33344223166E+02  0.44116249968E+02  0.00000000000E+00 0.  1.
          5    1    4    4  501    0  0.76579010275E+02  0.92076848834E+02  0.26023932981E+02  0.12262629569E+03  0.41800000000E+01 0.  1.
         -5    1    4    4    0  501  0.90038487438E+02 -0.17443506656E+02  0.84414768120E+02  0.12471780395E+03  0.41800000000E+01 0.  1.
</event>
<event>
11    1  0.7577197E-009  0.1359742E+03  0.7561462E-02  0.1112139E+00
         22   -1    0    0    0    0  0.00000000000E+00  0.00000000000E+00  0.74970621215E+03  0.74970621215E+03  0.00000000000E+00 0.  1.
         22   -1    0    0    0    0 -0.00000000000E+00 -0.00000000000E+00 -0.99738672720E+02  0.99738672720E+02  0.00000000000E+00 0. -1.
        -24    2    1    2    0    0 -0.29622817171E+02 -0.41719315251E+02 -0.20335772905E+02  0.98264566754E+02  0.81390225810E+02 0.  0.
         25    2    1    2    0    0  0.49454925024E+02  0.38083960569E+02  0.93207948882E+02  0.16802714883E+03  0.12509685586E+03 0.  0.
         24    2    1    2    0    0 -0.19832107853E+02  0.36353546827E+01  0.57709536346E+03  0.58315316929E+03  0.81375868837E+02 0.  0.
        -13    1    5    5    0    0 -0.10555603258E+02  0.21573456460E+02  0.54296371358E+03  0.54349464491E+03  0.00000000000E+00 0.  1.
         14    1    5    5    0    0 -0.92765045955E+01 -0.17938101777E+02  0.34131649882E+02  0.39658524387E+02  0.00000000000E+00 0. -1.
         11    1    3    3    0    0 -0.71237613866E+01 -0.57788081032E+02 -0.33998606762E+02  0.67424888190E+02  0.00000000000E+00 0. -1.
        -12    1    3    3    0    0 -0.22499055784E+02  0.16068765781E+02  0.13662833857E+02  0.30839678564E+02  0.00000000000E+00 0.  1.
          5    1    4    4  501    0 -0.41736657493E+02  0.20599375436E+02  0.27826257334E+02  0.54388011954E+02  0.41800000000E+01 0. -1.
         -5    1    4    4    0  501  0.91191582517E+02  0.17484585133E+02  0.65381691548E+02  0.11363913687E+03  0.41800000000E+01 0. -1.
</event>
<event>
11    1  0.8240391E-009  0.1429627E+03  0.7561462E-02  0.1104294E+00
         22   -1    0    0    0    0  0.00000000000E+00  0.00000000000E+00  0.77275217896E+03  0.77275217896E+03  0.00000000000E+00 0. -1.
         22   -1    0    0    0    0 -0.00000000000E+00 -0.00000000000E+00 -0.14212156998E+04  0.14212156998E+04  0.00000000000E+00 0. -1.
         24    2    1    2    0    0 -0.17685923870E+02  0.53362361150E+01 -0.12349131889E+04  0.12377362950E+04  0.81481803902E+02 0.  0.
         25    2    1    2    0    0  0.21355092166E+01 -0.72829398494E+02 -0.15218482306E+03  0.21001537977E+03  0.12505022065E+03 0.  0.
        -24    2    1    2    0    0  0.15550414654E+02  0.67493162379E+02  0.73863449114E+03  0.74621620404E+03  0.80377666687E+02 0.  0.
        -11    1    3    3    0    0 -0.14123812866E+02 -0.26546532795E+02 -0.19292302293E+03  0.19525238351E+03  0.00000000000E+00 0.  1.
         12    1    3    3    0    0 -0.35621110048E+01  0.31882768910E+02 -0.10419901660E+04  0.10424839115E+04  0.00000000000E+00 0. -1.
         13    1    5    5    0    0  0.26023787614E+02  0.55366780199E+02  0.71529194637E+03  0.71790339629E+03  0.00000000000E+00 0. -1.
        -14    1    5    5    0    0 -0.10473372960E+02  0.12126382180E+02  0.23342544778E+02  0.28312807750E+02  0.00000000000E+00 0.  1.
          5    1    4    4  501    0  0.62327505910E+02 -0.47168857243E+02 -0.94287118364E+02  0.12254449060E+03  0.41800000000E+01 0.  1.
         -5    1    4    4    0  501 -0.60191996694E+02 -0.25660541251E+02 -0.57897704700E+02  0.87470889174E+02  0.41800000000E+01 0.  1.
</event>
<event>
11    1  0.7577197E-009  0.1843416E+03  0.7561462E-02  0.1066184E+00
         22   -1    0    0    0    0  0.00000000000E+00  0.00000000000E+00  0.36610316032E+03  0.36610316032E+03  0.00000000000E+00 0. -1.
         22   -1    0    0    0    0 -0.00000000000E+00 -0.00000000000E+00 -0.37556485662E+03  0.37556485662E+03  0.00000000000E+00 0. -1.
        -24    2    1    2    0    0  0.53411000328E+02  0.39903147845E+02 -0.10857185025E+03  0.15063617762E+03  0.80364265555E+02 0.  0.
         25    2    1    2    0    0 -0.18376472910E+03 -0.23924206680E+02 -0.16988259085E+03  0.28079258157E+03  0.12507012379E+03 0.  0.
         24    2    1    2    0    0  0.13035372877E+03 -0.15978941165E+02  0.26899274480E+03  0.31023925775E+03  0.81509994065E+02 0.  0.
        -11    1    5    5    0    0  0.19300691311E+02 -0.14006688506E+02  0.57606030127E+01  0.24533417109E+02  0.00000000000E+00 0.  1.
         12    1    5    5    0    0  0.11105303746E+03 -0.19722526583E+01  0.26323214178E+03  0.28570584064E+03  0.00000000000E+00 0. -1.
         13    1    3    3    0    0  0.42358380890E+02  0.64413678389E+02 -0.86326483565E+02  0.11573943217E+03  0.00000000000E+00 0. -1.
        -14    1    3    3    0    0  0.11052619438E+02 -0.24510530544E+02 -0.22245366682E+02  0.34896745447E+02  0.00000000000E+00 0.  1.
          5    1    4    4  501    0 -0.11444508568E+03 -0.70003700238E+02 -0.72275436687E+02  0.15244476649E+03  0.41800000000E+01 0.  1.
         -5    1    4    4    0  501 -0.69319643416E+02  0.46079493558E+02 -0.97607154168E+02  0.12834781507E+03  0.41800000000E+01 0.  1.
</event>
<event>
11    1  0.7577197E-009  0.1531224E+03  0.7561462E-02  0.1093730E+00
         22   -1    0    0    0    0  0.00000000000E+00  0.00000000000E+00  0.23441851205E+04  0.23441851205E+04  0.00000000000E+00 0.  1.
         22   -1    0    0    0    0 -0.00000000000E+00 -0.00000000000E+00 -0.22064609038E+03  0.22064609038E+03  0.00000000000E+00 0.  1.
         24    2    1    2    0    0 -0.47655217985E+02 -0.73690317524E+02 -0.19296149430E+03  0.22753279378E+03  0.82678602214E+02 0.  0.
         25    2    1    2    0    0  0.51731415429E+02  0.10111267311E+03  0.76655145014E+03  0.78495177940E+03  0.12509299844E+03 0.  0.
        -24    2    1    2    0    0 -0.40761974445E+01 -0.27422355586E+02  0.15499490742E+04  0.15523466377E+04  0.81666086767E+02 0.  0.
        -13    1    3    3    0    0 -0.41712837411E+02 -0.67452047700E+02 -0.20079418120E+03  0.21588895930E+03  0.00000000000E+00 0.  1.
         14    1    3    3    0    0 -0.59423805735E+01 -0.62382698247E+01  0.78326869000E+01  0.11643834478E+02  0.00000000000E+00 0. -1.
         11    1    5    5    0    0  0.18765311417E+02 -0.78807631464E+01  0.13497430914E+04  0.13498965354E+04  0.00000000000E+00 0. -1.
        -12    1    5    5    0    0 -0.22841508862E+02 -0.19541592440E+02  0.20020598282E+03  0.20245010230E+03  0.00000000000E+00 0.  1.
          5    1    4    4  501    0 -0.36038981357E+02  0.13264526949E+02  0.10608205799E+03  0.11289655123E+03  0.41800000000E+01 0. -1.
         -5    1    4    4    0  501  0.87770396786E+02  0.87848146162E+02  0.66046939215E+03  0.67205522816E+03  0.41800000000E+01 0. -1.
</event>
<event>
11    1  0.7577197E-009  0.1816476E+03  0.7561462E-02  0.1068318E+00
         22   -1    0    0    0    0  0.00000000000E+00  0.00000000000E+00  0.78395946838E+03  0.78395946838E+03  0.00000000000E+00 0.  1.
         22   -1    0    0    0    0 -0.00000000000E+00 -0.00000000000E+00 -0.93479333399E+02  0.93479333399E+02  0.00000000000E+00 0. -1.
         24    2    1    2    0    0 -0.27799755649E+02  0.13498955632E+03  0.22357077733E+02  0.16065580289E+03  0.79469751154E+02 0.  0.
         25    2    1    2    0    0  0.11809843637E+02 -0.10658474861E+03  0.35422804467E+03  0.39067206386E+03  0.12508945920E+03 0.  0.
        -24    2    1    2    0    0  0.15989912012E+02 -0.28404807705E+02  0.31389501257E+03  0.32611093503E+03  0.82193385631E+02 0.  0.
        -11    1    3    3    0    0  0.26072238526E+02  0.27216675565E+02 -0.19542736867E+01  0.37740273399E+02  0.00000000000E+00 0.  1.
         12    1    3    3    0    0 -0.53871994175E+02  0.10777288075E+03  0.24311351420E+02  0.12291552949E+03  0.00000000000E+00 0. -1.
         13    1    5    5    0    0  0.16929966240E+02 -0.23222122219E+01  0.75938207215E+01  0.18699800524E+02  0.00000000000E+00 0. -1.
        -14    1    5    5    0    0 -0.94005422777E+00 -0.26082595483E+02  0.30630119185E+03  0.30741113450E+03  0.00000000000E+00 0.  1.
          5    1    4    4  501    0  0.32083528764E+02 -0.27069343415E+02  0.26899765225E+03  0.27228534938E+03  0.41800000000E+01 0. -1.
         -5    1    4    4    0  501 -0.20273685127E+02 -0.79515405196E+02  0.85230392422E+02  0.11838671448E+03  0.41800000000E+01 0. -1.
</event>
<event>
11    1  0.7577197E-009  0.1496506E+03  0.7561462E-02  0.1097236E+00
         22   -1    0    0    0    0  0.00000000000E+00  0.00000000000E+00  0.30475641374E+03  0.30475641374E+03  0.00000000000E+00 0.  1.
         22   -1    0    0    0    0 -0.00000000000E+00 -0.00000000000E+00 -0.59934479496E+03  0.59934479496E+03  0.00000000000E+00 0.  1.
        -24    2    1    2    0    0 -0.82232551028E+02 -0.65043722561E+01 -0.54502306645E+03  0.55708235097E+03  0.80536348910E+02 0.  0.
         25    2    1    2    0    0  0.68658583494E+02  0.49933444346E+02  0.12938657215E+03  0.19898621830E+03  0.12508908853E+03 0.  0.
         24    2    1    2    0    0  0.13573967534E+02 -0.43429072090E+02  0.12104811308E+03  0.14803263943E+03  0.72046372284E+02 0.  0.
        -11    1    5    5    0    0 -0.13376150808E+02 -0.54110621815E+01  0.91988413873E+02  0.93113206857E+02  0.00000000000E+00 0.  1.
         12    1    5    5    0    0  0.26950118343E+02 -0.38018009908E+02  0.29059699204E+02  0.54919432571E+02  0.00000000000E+00 0. -1.
         13    1    3    3    0    0  0.77538942224E+00 -0.25030247098E+02 -0.66479686272E+02  0.71039870392E+02  0.00000000000E+00 0. -1.
        -14    1    3    3    0    0 -0.83007940450E+02  0.18525874842E+02 -0.47854338017E+03  0.48604248058E+03  0.00000000000E+00 0.  1.
          5    1    4    4  501    0  0.35072683481E+02  0.10948910604E+01  0.13476745051E+03  0.13932347265E+03  0.41800000000E+01 0. -1.
         -5    1    4    4    0  501  0.33585900013E+02  0.48838553285E+02 -0.53808783632E+01  0.59662745651E+02  0.41800000000E+01 0. -1.
</event>
<event>
11    1  0.7577197E-009  0.1647400E+03  0.7561462E-02  0.1082702E+00
         22   -1    0    0    0    0  0.00000000000E+00  0.00000000000E+00  0.53781204944E+03  0.53781204944E+03  0.00000000000E+00 0. -1.
         22   -1    0    0    0    0 -0.00000000000E+00 -0.00000000000E+00 -0.90450873269E+03  0.90450873269E+03  0.00000000000E+00 0.  1.
        -24    2    1    2    0    0 -0.10666354460E+03 -0.26265101745E+02 -0.84329163636E+03  0.85414229746E+03  0.79695125591E+02 0.  0.
         25    2    1    2    0    0  0.61663106664E+02 -0.13179903492E+01  0.45055058760E+02  0.14659592677E+03  0.12512526365E+03 0.  0.
         24    2    1    2    0    0  0.45000437940E+02  0.27583092094E+02  0.43153989434E+03  0.44158255790E+03  0.77347324761E+02 0.  0.
        -11    1    5    5    0    0  0.53982930786E+02 -0.94113239249E+01  0.28186421168E+03  0.28714136529E+03  0.00000000000E+00 0.  1.
         12    1    5    5    0    0 -0.89824928465E+01  0.36994416019E+02  0.14967568267E+03  0.15444119261E+03  0.00000000000E+00 0. -1.
         11    1    3    3    0    0  0.10787944122E+02 -0.88791895844E+01 -0.46523309199E+02  0.48576105699E+02  0.00000000000E+00 0. -1.
        -12    1    3    3    0    0 -0.11745148873E+03 -0.17385912160E+02 -0.79676832716E+03  0.80556619176E+03  0.00000000000E+00 0.  1.
          5    1    4    4  501    0  0.93188404474E+02 -0.54486202784E+01  0.60176123413E+02  0.11114137133E+03  0.41800000000E+01 0. -1.
         -5    1    4    4    0  501 -0.31525297810E+02  0.41306299291E+01 -0.15121064653E+02  0.35454555445E+02  0.41800000000E+01 0. -1.
</event>
<event>
11    1  0.7577197E-009  0.1831434E+03  0.7561462E-02  0.1067128E+00
         22   -1    0    0    0    0  0.00000000000E+00  0.00000000000E+00  0.11829505215E+04  0.11829505215E+04  0.00000000000E+00 0. -1.
         22   -1    0    0    0    0 -0.00000000000E+00 -0.00000000000E+00 -0.70483699443E+03  0.70483699443E+03  0.00000000000E+00 0. -1.
        -24    2    1    2    0    0  0.70081390626E+01  0.23365955112E+02 -0.64301481979E+03  0.64866693607E+03  0.81888055328E+02 0.  0.
         25    2    1    2    0    0 -0.13985479132E+03 -0.13424126056E+02  0.11380550769E+03  0.21985951258E+03  0.12508773671E+03 0.  0.
         24    2    1    2    0    0  0.13284665226E+03 -0.99418290564E+01  0.10073228392E+04  0.10192610673E+04  0.80291643213E+02 0.  0.
        -13    1    5    5    0    0  0.37754409060E+02  0.32404962811E+02  0.39990924396E+03  0.40299240740E+03  0.00000000000E+00 0.  1.
         14    1    5    5    0    0  0.95092243202E+02 -0.42346791868E+02  0.60741359523E+03  0.61626865990E+03  0.00000000000E+00 0. -1.
         11    1    3    3    0    0  0.34759639229E+02  0.13370802604E+02 -0.54596163767E+03  0.54723040914E+03  0.00000000000E+00 0. -1.
        -12    1    3    3    0    0 -0.27751500166E+02  0.99951525076E+01 -0.97053182122E+02  0.10143652693E+03  0.00000000000E+00 0.  1.
          5    1    4    4  501    0 -0.13824192386E+03  0.32110755118E+02  0.79996450467E+02  0.16296881479E+03  0.41800000000E+01 0. -1.
         -5    1    4    4    0  501 -0.16128674655E+01 -0.45534881174E+02  0.33809057221E+02  0.56890697791E+02  0.41800000000E+01 0. -1.
</event>
<event>
11    1  0.7577197E-009  0.1348590E+03  0.7561462E-02  0.1113439E+00
         22   -1    0    0    0    0  0.00000000000E+00  0.00000000000E+00  0.32970824121E+03  0.32970824121E+03  0.00000000000E+00 0. -1.
         22   -1    0    0    0    0 -0.00000000000E+00 -0.00000000000E+00 -0.45458789453E+03  0.45458789453E+03  0.00000000000E+00 0.  1.
        -24    2    1    2    0    0 -0.39997075274E+02 -0.28603982827E+02 -0.39785231507E+03  0.40897101222E+03  0.80949801528E+02 0.  0.
         25    2    1    2    0    0  0.87314736724E+02  0.22218649547E+02  0.11545931428E+03  0.19260184768E+03  0.12508831616E+03 0.  0.
         24    2    1    2    0    0 -0.47317661450E+02  0.63853332806E+01  0.15751334747E+03  0.18272327584E+03  0.79357465536E+02 0.  0.
        -13    1    5    5    0    0 -0.45817971092E+02 -0.19984358207E+02  0.45352490780E+02  0.67494514354E+02  0.00000000000E+00 0.  1.
         14    1    5    5    0    0 -0.14996903586E+01  0.26369691487E+02  0.11216085669E+03  0.11522876148E+03  0.00000000000E+00 0. -1.
         11    1    3    3    0    0  0.16961512219E+02 -0.25540593212E+02 -0.73452959237E+02  0.79594924581E+02  0.00000000000E+00 0. -1.
        -12    1    3    3    0    0 -0.56958587493E+02 -0.30633896156E+01 -0.32439935583E+03  0.32937608764E+03  0.00000000000E+00 0.  1.
          5    1    4    4  501    0 -0.25048785015E+02  0.17309607247E+02  0.59366500031E+02  0.66849965293E+02  0.41800000000E+01 0. -1.
         -5    1    4    4    0  501  0.11236352174E+03  0.49090422996E+01  0.56092814253E+02  0.12575188239E+03  0.41800000000E+01 0. -1.
</event>
<event>
11    1  0.7577197E-009  0.1348210E+03  0.7561462E-02  0.1113483E+00
         22   -1    0    0    0    0  0.00000000000E+00  0.00000000000E+00  0.10657638455E+04  0.10657638455E+04  0.00000000000E+00 0. -1.
         22   -1    0    0    0    0 -0.00000000000E+00 -0.00000000000E+00 -0.13867266486E+03  0.13867266486E+03  0.00000000000E+00 0. -1.
        -24    2    1    2    0    0  0.26773966933E+02 -0.72564991247E+01 -0.11155137143E+03  0.13615093190E+03  0.72964825110E+02 0.  0.
         25    2    1    2    0    0 -0.49823915285E+02  0.46487185946E+02  0.43403130787E+03  0.45680845621E+03  0.12508920201E+03 0.  0.
         24    2    1    2    0    0  0.23049948352E+02 -0.39230686822E+02  0.60461124416E+03  0.61147712221E+03  0.79241198397E+02 0.  0.
        -11    1    5    5    0    0 -0.27416545657E+02 -0.68531412016E+00  0.15575891803E+03  0.15815491513E+03  0.00000000000E+00 0.  1.
         12    1    5    5    0    0  0.50466494009E+02 -0.38545372701E+02  0.44885232612E+03  0.45332220709E+03  0.00000000000E+00 0. -1.
         11    1    3    3    0    0  0.33900720198E+02  0.22481044301E+02 -0.34800648048E+02  0.53532618910E+02  0.00000000000E+00 0. -1.
        -12    1    3    3    0    0 -0.71267532646E+01 -0.29737543426E+02 -0.76750723381E+02  0.82618312985E+02  0.00000000000E+00 0.  1.
          5    1    4    4  501    0 -0.10556543853E+02 -0.16859033792E+02  0.31920474231E+03  0.31985122722E+03  0.41800000000E+01 0. -1.
         -5    1    4    4    0  501 -0.39267371432E+02  0.63346219738E+02  0.11482656556E+03  0.13695722899E+03  0.41800000000E+01 0. -1.
</event>
<event>
11    1  0.7577197E-009  0.1669141E+03  0.7561462E-02  0.1080749E+00
         22   -1    0    0    0    0  0.00000000000E+00  0.00000000000E+00  0.31077564857E+04  0.31077564857E+04  0.00000000000E+00 0. -1.
         22   -1    0    0    0    0 -0.00000000000E+00 -0.00000000000E+00 -0.13813950285E+03  0.13813950285E+03  0.00000000000E+00 0.  1.
        -24    2    1    2    0    0 -0.99288701571E+02 -0.18194739223E+02 -0.57110917264E+02  0.14062724297E+03  0.79530307423E+02 0.  0.
         25    2    1    2    0    0  0.18440664790E+03  0.34010765675E+02  0.29815750727E+03  0.37377482964E+03  0.12508868919E+03 0.  0.
         24    2    1    2    0    0 -0.85117946327E+02 -0.15816026452E+02  0.27285703929E+04  0.27314939160E+04  0.92018544871E+02 0.  0.
        -13    1    5    5    0    0  0.80227007641E+01 -0.43844282423E+01  0.12059115494E+04  0.12059462061E+04  0.00000000000E+00 0.  1.
         14    1    5    5    0    0 -0.93140647091E+02 -0.11431598210E+02  0.15226588435E+04  0.15255477099E+04  0.00000000000E+00 0. -1.
         11    1    3    3    0    0 -0.76856857900E+01  0.10957218653E+02  0.15262124517E+02  0.20299331305E+02  0.00000000000E+00 0. -1.
        -12    1    3    3    0    0 -0.91603015781E+02 -0.29151957876E+02 -0.72373041781E+02  0.12032791166E+03  0.00000000000E+00 0.  1.
          5    1    4    4  501    0  0.65170920756E+02  0.50414797367E+02  0.46300029580E+02  0.94604787643E+02  0.41800000000E+01 0. -1.
         -5    1    4    4    0  501  0.11923572714E+03 -0.16404031692E+02  0.25185747769E+03  0.27917004200E+03  0.41800000000E+01 0. -1.
</event>
<event>
11    1  0.7577197E-009  0.1554840E+03  0.7561462E-02  0.1091403E+00
         22   -1    0    0    0    0  0.00000000000E+00  0.00000000000E+00  0.97222248095E+03  0.97222248095E+03  0.00000000000E+00 0.  1.
         22   -1    0    0    0    0 -0.00000000000E+00 -0.00000000000E+00 -0.97077213902E+02  0.97077213902E+02  0.00000000000E+00 0.  1.
         24    2    1    2    0    0 -0.13743722666E+02  0.11692340784E+02 -0.53447050535E+02  0.95487538449E+02  0.77043377667E+02 0.  0.
         25    2    1    2    0    0 -0.38708927054E+02  0.70078506164E+02  0.32200618291E+03  0.35460619746E+03  0.12509274713E+03 0.  0.
        -24    2    1    2    0    0  0.52452649720E+02 -0.81770846948E+02  0.60658613467E+03  0.61920595894E+03  0.77662918691E+02 0.  0.
        -13    1    3    3    0    0  0.54347575139E+01 -0.19779558368E+02 -0.54896810595E+02  0.58603987339E+02  0.00000000000E+00 0.  1.
         14    1    3    3    0    0 -0.19178480180E+02  0.31471899152E+02  0.14497600596E+01  0.36883551110E+02  0.00000000000E+00 0. -1.
         11    1    5    5    0    0  0.72750052326E+02 -0.58977586660E+02  0.44181278807E+03  0.45162978814E+03  0.00000000000E+00 0. -1.
        -12    1    5    5    0    0 -0.20297402606E+02 -0.22793260288E+02  0.16477334661E+03  0.16757617080E+03  0.00000000000E+00 0.  1.
          5    1    4    4  501    0  0.32359190492E+02  0.31434110407E+02  0.37560339068E+02  0.58851269972E+02  0.41800000000E+01 0. -1.
         -5    1    4    4    0  501 -0.71068117546E+02  0.38644395757E+02  0.28444584384E+03  0.29575492749E+03  0.41800000000E+01 0. -1.
</event>
<event>
11    1  0.7577197E-009  0.1598795E+03  0.7561462E-02  0.1087191E+00
         22   -1    0    0    0    0  0.00000000000E+00  0.00000000000E+00  0.17107766097E+03  0.17107766097E+03  0.00000000000E+00 0.  1.
         22   -1    0    0    0    0 -0.00000000000E+00 -0.00000000000E+00 -0.17333929625E+04  0.17333929625E+04  0.00000000000E+00 0. -1.
        -24    2    1    2    0    0  0.33085539223E+02  0.83646992605E+02 -0.11417729838E+04  0.11480453744E+04  0.79190674525E+02 0.  0.
         25    2    1    2    0    0 -0.33427960037E+02 -0.15018544596E+03 -0.55332816476E+03  0.58778604350E+03  0.12508908154E+03 0.  0.
         24    2    1    2    0    0  0.34242081320E+00  0.66538453358E+02  0.13278584698E+03  0.16863920561E+03  0.79872507675E+02 0.  0.
        -11    1    5    5    0    0  0.17379346601E+02  0.55914387046E+02  0.13621852387E+03  0.14826984391E+03  0.00000000000E+00 0.  1.
         12    1    5    5    0    0 -0.17036925787E+02  0.10624066312E+02 -0.34326768932E+01  0.20369361697E+02  0.00000000000E+00 0. -1.
         13    1    3    3    0    0  0.55032206209E+02  0.79826069587E+02 -0.87958443223E+03  0.88491215300E+03  0.00000000000E+00 0. -1.
        -14    1    3    3    0    0 -0.21946666986E+02  0.38209230174E+01 -0.26218855154E+03  0.26313322140E+03  0.00000000000E+00 0.  1.
          5    1    4    4  501    0 -0.39228400486E+02 -0.16026617586E+03 -0.55102680279E+03  0.57521485057E+03  0.41800000000E+01 0.  1.
         -5    1    4    4    0  501  0.58004404495E+01  0.10080729895E+02 -0.23013619742E+01  0.12571192925E+02  0.41800000000E+01 0.  1.
</event>
<event>
11    1  0.7577197E-009  0.1444898E+03  0.7561462E-02  0.1102646E+00
         22   -1    0    0    0    0  0.00000000000E+00  0.00000000000E+00  0.37335776590E+03  0.37335776590E+03  0.00000000000E+00 0.  1.
         22   -1    0    0    0    0 -0.00000000000E+00 -0.00000000000E+00 -0.14916687426E+04  0.14916687426E+04  0.00000000000E+00 0. -1.
        -24    2    1    2    0    0 -0.46399653022E+02  0.54785123268E+02 -0.14121613636E+04  0.14162172906E+04  0.79481820818E+02 0.  0.
         25    2    1    2    0    0  0.42949959332E+02 -0.88441536912E+02  0.18056257646E+02  0.16012518452E+03  0.12508973506E+03 0.  0.
         24    2    1    2    0    0  0.34496936898E+01  0.33656413644E+02  0.27579412925E+03  0.28868403337E+03  0.78303351304E+02 0.  0.
        -11    1    5    5    0    0  0.35152622675E+02  0.17662617953E+01  0.74049913820E+02  0.81989123049E+02  0.00000000000E+00 0.  1.
         12    1    5    5    0    0 -0.31702928985E+02  0.31890151849E+02  0.20174421543E+03  0.20669491032E+03  0.00000000000E+00 0. -1.
         11    1    3    3    0    0  0.95528077348E+01  0.11015226643E+02 -0.77009300764E+03  0.77023102493E+03  0.00000000000E+00 0. -1.
        -12    1    3    3    0    0 -0.55952460757E+02  0.43769896625E+02 -0.64206835595E+03  0.64598626567E+03  0.00000000000E+00 0.  1.
          5    1    4    4  501    0 -0.43574561703E+02 -0.17847077245E+02  0.77389603995E+01  0.47902239007E+02  0.41800000000E+01 0. -1.
         -5    1    4    4    0  501  0.86524521035E+02 -0.70594459668E+02  0.10317297246E+02  0.11222294551E+03  0.41800000000E+01 0. -1.
</event>
<event>
11    1  0.7577197E-009  0.2219173E+03  0.7561462E-02  0.1040023E+00
         22   -1    0    0    0    0  0.00000000000E+00  0.00000000000E+00  0.53479053523E+03  0.53479053523E+03  0.00000000000E+00 0. -1.
         22   -1    0    0    0    0 -0.00000000000E+00 -0.00000000000E+00 -0.53561329737E+03  0.53561329737E+03  0.00000000000E+00 0.  1.
         24    2    1    2    0    0 -0.13510337066E+01 -0.18187355800E+03 -0.43238052333E+03  0.47576304673E+03  0.79484232978E+02 0.  0.
         25    2    1    2    0    0 -0.55348412730E+02  0.19523861599E+03  0.11498666052E+03  0.26467427715E+03  0.12509587091E+03 0.  0.
        -24    2    1    2    0    0  0.56699446436E+02 -0.13365057997E+02  0.31657110067E+03  0.32996650873E+03  0.72575361544E+02 0.  0.
        -11    1    3    3    0    0 -0.13927176990E+02 -0.12219444557E+03 -0.36359961000E+03  0.38383606550E+03  0.00000000000E+00 0.  1.
         12    1    3    3    0    0  0.12576143284E+02 -0.59679112429E+02 -0.68780913328E+02  0.91926981232E+02  0.00000000000E+00 0. -1.
         13    1    5    5    0    0  0.65260606046E+02 -0.23894016054E+02  0.30264530778E+03  0.31052222630E+03  0.00000000000E+00 0. -1.
        -14    1    5    5    0    0 -0.85611596100E+01  0.10528958057E+02  0.13925792887E+02  0.19444282429E+02  0.00000000000E+00 0.  1.
          5    1    4    4  501    0  0.10441841546E+02  0.59278098498E+02 -0.18445692177E+02  0.63092321056E+02  0.41800000000E+01 0. -1.
         -5    1    4    4    0  501 -0.65790254275E+02  0.13596051750E+03  0.13343235270E+03  0.20158195609E+03  0.41800000000E+01 0. -1.
</event>
<event>
11    1  0.7577197E-009  0.2478740E+03  0.7561462E-02  0.1025038E+00
         22   -1    0    0    0    0  0.00000000000E+00  0.00000000000E+00  0.25995693259E+04  0.25995693259E+04  0.00000000000E+00 0.  1.
         22   -1    0    0    0    0 -0.00000000000E+00 -0.00000000000E+00 -0.10710017074E+03  0.10710017074E+03  0.00000000000E+00 0.  1.
        -24    2    1    2    0    0  0.18576193602E+03 -0.97117548341E+02  0.57657271657E+02  0.23129940777E+03  0.78966701770E+02 0.  0.
         25    2    1    2    0    0 -0.25378297382E+03  0.49720483942E+02  0.11484464540E+04  0.11838305853E+04  0.12509065742E+03 0.  0.
         24    2    1    2    0    0  0.68021037793E+02  0.47397064399E+02  0.12863654295E+04  0.12915395037E+04  0.80404775252E+02 0.  0.
        -13    1    5    5    0    0  0.48425193047E+02  0.63899360910E+02  0.11497969411E+04  0.11525888831E+04  0.00000000000E+00 0.  1.
         14    1    5    5    0    0  0.19595844746E+02 -0.16502296510E+02  0.13656848841E+03  0.13895062054E+03  0.00000000000E+00 0. -1.
         11    1    3    3    0    0  0.10515287941E+02 -0.36183229434E+02  0.26236518721E+01  0.37771429969E+02  0.00000000000E+00 0. -1.
        -12    1    3    3    0    0  0.17524664808E+03 -0.60934318907E+02  0.55033619785E+02  0.19352797780E+03  0.00000000000E+00 0.  1.
          5    1    4    4  501    0 -0.26458466982E+03  0.39695895304E+02  0.10215381840E+04  0.10560012052E+04  0.41800000000E+01 0.  1.
         -5    1    4    4    0  501  0.10801695999E+02  0.10024588638E+02  0.12690826997E+03  0.12782938004E+03  0.41800000000E+01 0.  1.
</event>
<event>
11    1  0.7577197E-009  0.1574242E+03  0.7561462E-02  0.1089525E+00
         22   -1    0    0    0    0  0.00000000000E+00  0.00000000000E+00  0.30668494966E+04  0.30668494966E+04  0.00000000000E+00 0.  1.
         22   -1    0    0    0    0 -0.00000000000E+00 -0.00000000000E+00 -0.59050916571E+03  0.59050916571E+03  0.00000000000E+00 0. -1.
         24    2    1    2    0    0 -0.92210092370E+02 -0.11371793532E+02 -0.50225848740E+03  0.51696341681E+03  0.79721812094E+02 0.  0.
         25    2    1    2    0    0  0.13166986593E+03  0.22323774005E+02  0.24111156917E+02  0.18456515218E+03  0.12509053934E+03 0.  0.
        -24    2    1    2    0    0 -0.39459773556E+02 -0.10951980473E+02  0.29544876614E+04  0.29558300934E+04  0.79102337390E+02 0.  0.
        -13    1    3    3    0    0 -0.65067899305E+02 -0.27178337134E+02 -0.18223687108E+03  0.19540412153E+03  0.00000000000E+00 0.  1.
         14    1    3    3    0    0 -0.27142193065E+02  0.15806543602E+02 -0.32002161632E+03  0.32155929527E+03  0.00000000000E+00 0. -1.
         11    1    5    5    0    0 -0.36701818110E+02 -0.55728406966E+01  0.51549022177E+03  0.51682516264E+03  0.00000000000E+00 0. -1.
        -12    1    5    5    0    0 -0.27579554461E+01 -0.53791397764E+01  0.24389974397E+04  0.24390049307E+04  0.00000000000E+00 0.  1.
          5    1    4    4  501    0  0.69934338023E+02 -0.50353587905E+02  0.67526579087E+00  0.86279915586E+02  0.41800000000E+01 0.  1.
         -5    1    4    4    0  501  0.61735527903E+02  0.72677361910E+02  0.23435891126E+02  0.98285236595E+02  0.41800000000E+01 0.  1.
</event>
<event>
11    1  0.7577197E-009  0.1521444E+03  0.7561462E-02  0.1094708E+00
         22   -1    0    0    0    0  0.00000000000E+00  0.00000000000E+00  0.18731767221E+04  0.18731767221E+04  0.00000000000E+00 0. -1.
         22   -1    0    0    0    0 -0.00000000000E+00 -0.00000000000E+00 -0.49199429021E+03  0.49199429021E+03  0.00000000000E+00 0.  1.
        -24    2    1    2    0    0  0.21022598220E+02 -0.85581823348E+01 -0.43370510014E+03  0.44185470826E+03  0.81365085876E+02 0.  0.
         25    2    1    2    0    0 -0.79933068149E+02 -0.54516710318E+02  0.67465733570E+02  0.17193099687E+03  0.12508906984E+03 0.  0.
         24    2    1    2    0    0  0.58910469929E+02  0.63074892652E+02  0.17474217984E+04  0.17513853071E+04  0.80116583257E+02 0.  0.
        -11    1    5    5    0    0 -0.10541544141E+02 -0.10528177111E+02  0.14265620138E+03  0.14343206915E+03  0.00000000000E+00 0.  1.
         12    1    5    5    0    0  0.69452014070E+02  0.73603069763E+02  0.16047655970E+04  0.16079532380E+04  0.00000000000E+00 0. -1.
         13    1    3    3    0    0 -0.20845417043E+01  0.34714681452E+02 -0.15374963598E+03  0.15763376855E+03  0.00000000000E+00 0. -1.
        -14    1    3    3    0    0  0.23107139924E+02 -0.43272863787E+02 -0.27995546416E+03  0.28422093971E+03  0.00000000000E+00 0.  1.
          5    1    4    4  501    0 -0.44283690479E+02 -0.80191890194E+02  0.46620883463E+00  0.91703185583E+02  0.41800000000E+01 0. -1.
         -5    1    4    4    0  501 -0.35649377670E+02  0.25675179876E+02  0.66999524736E+02  0.80227811292E+02  0.41800000000E+01 0. -1.
</event>
<event>
11    1  0.7577197E-009  0.1721003E+03  0.7561462E-02  0.1076218E+00
         22   -1    0    0    0    0  0.00000000000E+00  0.00000000000E+00  0.21049744706E+03  0.21049744706E+03  0.00000000000E+00 0.  1.
         22   -1    0    0    0    0 -0.00000000000E+00 -0.00000000000E+00 -0.13378311478E+04  0.13378311478E+04  0.00000000000E+00 0.  1.
        -24    2    1    2    0    0 -0.47545640695E+02 -0.88632199895E+02 -0.85847218047E+03  0.86810554831E+03  0.80724863354E+02 0.  0.
         25    2    1    2    0    0  0.89778462252E+02  0.19217835044E+03 -0.41018870083E+03  0.47842892090E+03  0.12508705529E+03 0.  0.
         24    2    1    2    0    0 -0.42232821558E+02 -0.10354615055E+03  0.14132718052E+03  0.20179412569E+03  0.90785905850E+02 0.  0.
        -11    1    5    5    0    0 -0.34334887150E+02 -0.11899033844E+03  0.10843348158E+03  0.16460681956E+03  0.00000000000E+00 0.  1.
         12    1    5    5    0    0 -0.78979344077E+01  0.15444187894E+02  0.32893698941E+02  0.37187306136E+02  0.00000000000E+00 0. -1.
         11    1    3    3    0    0 -0.20024150371E+02 -0.55373278011E+02 -0.20720221531E+03  0.21540641714E+03  0.00000000000E+00 0. -1.
        -12    1    3    3    0    0 -0.27521490323E+02 -0.33258921884E+02 -0.65126996516E+03  0.65269913117E+03  0.00000000000E+00 0.  1.
          5    1    4    4  501    0  0.35271518499E+02 -0.23043600158E+01 -0.25056663491E+02  0.43528138917E+02  0.41800000000E+01 0. -1.
         -5    1    4    4    0  501  0.54506943753E+02  0.19448271046E+03 -0.38513203734E+03  0.43490078198E+03  0.41800000000E+01 0. -1.
</event>
<event>
11    1  0.7577197E-009  0.1398660E+03  0.7561462E-02  0.1107708E+00
         22   -1    0    0    0    0  0.00000000000E+00  0.00000000000E+00  0.86251809908E+03  0.86251809908E+03  0.00000000000E+00 0.  1.
         22   -1    0    0    0    0 -0.00000000000E+00 -0.00000000000E+00 -0.10945867612E+03  0.10945867612E+03  0.00000000000E+00 0. -1.
        -24    2    1    2    0    0 -0.45078017287E+02  0.46999737680E+02 -0.47114308450E+02  0.11202950928E+03  0.78037490371E+02 0.  0.
         25    2    1    2    0    0  0.47056295600E+02 -0.22535206095E+02  0.14145072692E+03  0.19590449631E+03  0.12509249801E+03 0.  0.
         24    2    1    2    0    0 -0.19782783131E+01 -0.24464531585E+02  0.65872300450E+03  0.66404276961E+03  0.80214564347E+02 0.  0.
        -13    1    5    5    0    0  0.24084370774E+02 -0.38378132120E+02  0.23739543933E+03  0.24168064166E+03  0.00000000000E+00 0.  1.
         14    1    5    5    0    0 -0.26062649087E+02  0.13913600535E+02  0.42132756517E+03  0.42236212795E+03  0.00000000000E+00 0. -1.
         11    1    3    3    0    0 -0.64090200280E+02  0.43332753258E+02 -0.22221255089E+02  0.80492642239E+02  0.00000000000E+00 0. -1.
        -12    1    3    3    0    0  0.19012182993E+02  0.36669844217E+01 -0.24893053360E+02  0.31536867037E+02  0.00000000000E+00 0.  1.
          5    1    4    4  501    0  0.63203881049E+02 -0.27290723064E+02  0.18053898527E+02  0.71294668784E+02  0.41800000000E+01 0. -1.
         -5    1    4    4    0  501 -0.16147585449E+02  0.47555169693E+01  0.12339682840E+03  0.12460982753E+03  0.41800000000E+01 0. -1.
</event>
<event>
11    1  0.7577197E-009  0.1830736E+03  0.7561462E-02  0.1067183E+00
         22   -1    0    0    0    0  0.00000000000E+00  0.00000000000E+00  0.18502427351E+04  0.18502427351E+04  0.00000000000E+00 0. -1.
         22   -1    0    0    0    0 -0.00000000000E+00 -0.00000000000E+00 -0.96625887608E+03  0.96625887608E+03  0.00000000000E+00 0. -1.
        -24    2    1    2    0    0 -0.12122015437E+02 -0.56927529364E+02 -0.92756404295E+03  0.93258619371E+03  0.77163903913E+02 0.  0.
         25    2    1    2    0    0  0.13849206275E+03  0.11217570897E+02  0.23824769722E+03  0.30284608628E+03  0.12509157207E+03 0.  0.
         24    2    1    2    0    0 -0.12637004731E+03  0.45709958467E+02  0.15733002047E+04  0.15810693311E+04  0.80298858052E+02 0.  0.
        -11    1    5    5    0    0  0.11095269704E+02  0.88370795252E+01  0.15276208645E+03  0.15341921015E+03  0.00000000000E+00 0.  1.
         12    1    5    5    0    0 -0.13746531702E+03  0.36872878942E+02  0.14205381183E+04  0.14276501210E+04  0.00000000000E+00 0. -1.
         13    1    3    3    0    0  0.11676985485E+02 -0.52962242560E+02 -0.84029516132E+03  0.84204353170E+03  0.00000000000E+00 0. -1.
        -14    1    3    3    0    0 -0.23799000922E+02 -0.39652868035E+01 -0.87268881629E+02  0.90542662017E+02  0.00000000000E+00 0.  1.
          5    1    4    4  501    0  0.85457943676E+02 -0.30705071430E+02  0.21116583748E+03  0.22990072829E+03  0.41800000000E+01 0.  1.
         -5    1    4    4    0  501  0.53034119075E+02  0.41922642328E+02  0.27081859744E+02  0.72945357995E+02  0.41800000000E+01 0.  1.
</event>
<event>
11    1  0.7577197E-009  0.1452322E+03  0.7561462E-02  0.1101853E+00
         22   -1    0    0    0    0  0.00000000000E+00  0.00000000000E+00  0.86442882924E+03  0.86442882924E+03  0.00000000000E+00 0. -1.
         22   -1    0    0    0    0 -0.00000000000E+00 -0.00000000000E+00 -0.22350228796E+03  0.22350228796E+03  0.00000000000E+00 0. -1.
         24    2    1    2    0    0  0.65536861004E+02  0.33944794258E+02 -0.18970102460E+03  0.21902407107E+03  0.80856266094E+02 0.  0.
         25    2    1    2    0    0 -0.70723795440E+02 -0.23002828250E+02  0.31732983116E+03  0.34910837664E+03  0.12508977396E+03 0.  0.
        -24    2    1    2    0    0  0.51869344355E+01 -0.10941966008E+02  0.51329773473E+03  0.51979866949E+03  0.81052214181E+02 0.  0.
        -11    1    3    3    0    0  0.56166133886E+02  0.58824587269E+02 -0.15754999660E+03  0.17730473229E+03  0.00000000000E+00 0.  1.
         12    1    3    3    0    0  0.93707271187E+01 -0.24879793011E+02 -0.32151027997E+02  0.41719338780E+02  0.00000000000E+00 0. -1.
         13    1    5    5    0    0 -0.32813866339E+02  0.75632887705E+01  0.13455340478E+03  0.13870317912E+03  0.00000000000E+00 0. -1.
        -14    1    5    5    0    0  0.38000800775E+02 -0.18505254778E+02  0.37874432995E+03  0.38109549037E+03  0.00000000000E+00 0.  1.
          5    1    4    4  501    0 -0.21991030592E+02 -0.69039580960E+02  0.21300277736E+03  0.22502827540E+03  0.41800000000E+01 0.  1.
         -5    1    4    4    0  501 -0.48732764848E+02  0.46036752710E+02  0.10432705379E+03  0.12408010124E+03  0.41800000000E+01 0.  1.
</event>
<event>
11    1  0.7577197E-009  0.1507408E+03  0.7561462E-02  0.1096124E+00
         22   -1    0    0    0    0  0.00000000000E+00  0.00000000000E+00  0.10165020010E+03  0.10165020010E+03  0.00000000000E+00 0.  1.
         22   -1    0    0    0    0 -0.00000000000E+00 -0.00000000000E+00 -0.21683276595E+04  0.21683276595E+04  0.00000000000E+00 0.  1.
        -24    2    1    2    0    0  0.55463726735E+02 -0.42719991195E+02 -0.12232199069E+04  0.12276866490E+04  0.77758246012E+02 0.  0.
         25    2    1    2    0    0 -0.13667731151E+03  0.34122500600E+02 -0.88799229096E+03  0.90775685407E+03  0.12508862769E+03 0.  0.
         24    2    1    2    0    0  0.81213584774E+02  0.85974905947E+01  0.44534738450E+02  0.13453435657E+03  0.97193554167E+02 0.  0.
        -13    1    5    5    0    0  0.72471219375E+02  0.47714207595E+02  0.32925280906E+02  0.92805158083E+02  0.00000000000E+00 0.  1.
         14    1    5    5    0    0  0.87423653992E+01 -0.39116717000E+02  0.11609457544E+02  0.41729198484E+02  0.00000000000E+00 0. -1.
         13    1    3    3    0    0 -0.13184904726E+02 -0.15676658391E+02 -0.10170619438E+03  0.10374849063E+03  0.00000000000E+00 0. -1.
        -14    1    3    3    0    0  0.68648631461E+02 -0.27043332804E+02 -0.11215137126E+04  0.11239381584E+04  0.00000000000E+00 0.  1.
          5    1    4    4  501    0 -0.35521692956E+02 -0.35497760843E+02 -0.45141448093E+03  0.45421843610E+03  0.41800000000E+01 0.  1.
         -5    1    4    4    0  501 -0.10115561855E+03  0.69620261443E+02 -0.43657781002E+03  0.45353841797E+03  0.41800000000E+01 0.  1.
</event>
<event>
11    1  0.7577197E-009  0.2025156E+03  0.7561462E-02  0.1052759E+00
         22   -1    0    0    0    0  0.00000000000E+00  0.00000000000E+00  0.20975939973E+04  0.20975939973E+04  0.00000000000E+00 0. -1.
         22   -1    0    0    0    0 -0.00000000000E+00 -0.00000000000E+00 -0.15087513850E+03  0.15087513850E+03  0.00000000000E+00 0. -1.
         24    2    1    2    0    0  0.70312793510E+02 -0.11399161128E+03  0.98044388220E+01  0.15631670483E+03  0.80005054924E+02 0.  0.
         25    2    1    2    0    0 -0.11729131608E+03  0.19432735857E+03  0.14667242094E+03  0.29780271090E+03  0.12511307062E+03 0.  0.
        -24    2    1    2    0    0  0.46978522572E+02 -0.80335747294E+02  0.17902419991E+04  0.17943497201E+04  0.77869691833E+02 0.  0.
        -11    1    3    3    0    0  0.44309600167E+02 -0.96406569205E+01 -0.11277969185E+02  0.46727674046E+02  0.00000000000E+00 0.  1.
         12    1    3    3    0    0  0.26003193343E+02 -0.10435095436E+03  0.21082408007E+02  0.10958903078E+03  0.00000000000E+00 0. -1.
         11    1    5    5    0    0 -0.39051065035E+01 -0.64771176019E+02  0.11840954937E+04  0.11858721235E+04  0.00000000000E+00 0. -1.
        -12    1    5    5    0    0  0.50883629075E+02 -0.15564571276E+02  0.60614650543E+03  0.60847759666E+03  0.00000000000E+00 0.  1.
          5    1    4    4  501    0 -0.29665644319E+02  0.66200913098E+02  0.11994478105E+03  0.14023849061E+03  0.41800000000E+01 0.  1.
         -5    1    4    4    0  501 -0.87625671763E+02  0.12812644548E+03  0.26727639886E+02  0.15756422029E+03  0.41800000000E+01 0.  1.
</event>
<event>
11    1  0.7577197E-009  0.6205035E+03  0.7561462E-02  0.9158424E-01
         22   -1    0    0    0    0  0.00000000000E+00  0.00000000000E+00  0.45144796304E+03  0.45144796304E+03  0.00000000000E+00 0.  1.
         22   -1    0    0    0    0 -0.00000000000E+00 -0.00000000000E+00 -0.11841366043E+04  0.11841366043E+04  0.00000000000E+00 0. -1.
         24    2    1    2    0    0 -0.50861731928E+02 -0.73420911599E+02 -0.23565377909E+03  0.26434224331E+03  0.79790801270E+02 0.  0.
         25    2    1    2    0    0 -0.29178713863E+02  0.63350526925E+03 -0.55262866632E+02  0.64875389752E+03  0.12508921458E+03 0.  0.
        -24    2    1    2    0    0  0.80040445791E+02 -0.56008435765E+03 -0.44177199558E+03  0.72248842654E+03  0.82012619548E+02 0.  0.
        -13    1    3    3    0    0 -0.38907233254E+02  0.58474844107E+01 -0.85905290177E+02  0.94486426294E+02  0.00000000000E+00 0.  1.
         14    1    3    3    0    0 -0.11954498673E+02 -0.79268396010E+02 -0.14974848891E+03  0.16985581702E+03  0.00000000000E+00 0. -1.
         11    1    5    5    0    0  0.72912219293E+02 -0.49017150560E+03 -0.34908526214E+03  0.60617226666E+03  0.00000000000E+00 0. -1.
        -12    1    5    5    0    0  0.71282264982E+01 -0.69912852052E+02 -0.92686733434E+02  0.11631615988E+03  0.00000000000E+00 0.  1.
          5    1    4    4  501    0  0.40274413454E+02  0.10824746876E+03  0.37369218469E+01  0.11563295316E+03  0.41800000000E+01 0.  1.
         -5    1    4    4    0  501 -0.69453127317E+02  0.52525780050E+03 -0.58999788479E+02  0.53312094436E+03  0.41800000000E+01 0.  1.
</event>
<event>
11    1  0.7577197E-009  0.1974088E+03  0.7561462E-02  0.1056371E+00
         22   -1    0    0    0    0  0.00000000000E+00  0.00000000000E+00  0.74941131243E+03  0.74941131243E+03  0.00000000000E+00 0.  1.
         22   -1    0    0    0    0 -0.00000000000E+00 -0.00000000000E+00 -0.66932653371E+03  0.66932653371E+03  0.00000000000E+00 0.  1.
         24    2    1    2    0    0  0.14097528498E+03 -0.26428929510E+02 -0.50649842242E+03  0.53262050353E+03  0.81064354570E+02 0.  0.
         25    2    1    2    0    0 -0.26357801988E+03  0.52705881107E+01  0.11257907172E+02  0.29201993859E+03  0.12509097648E+03 0.  0.
        -24    2    1    2    0    0  0.12260273490E+03  0.21158341399E+02  0.57532529396E+03  0.59409740402E+03  0.80457601116E+02 0.  0.
        -13    1    3    3    0    0  0.13564502961E+03 -0.12915262840E+02 -0.35218816732E+03  0.37762796940E+03  0.00000000000E+00 0.  1.
         14    1    3    3    0    0  0.53302553704E+01 -0.13513666669E+02 -0.15431025509E+03  0.15499253413E+03  0.00000000000E+00 0. -1.
         13    1    5    5    0    0  0.16835342924E+02  0.34548693276E+02  0.10424202255E+03  0.11110103620E+03  0.00000000000E+00 0. -1.
        -14    1    5    5    0    0  0.10576739198E+03 -0.13390351878E+02  0.47108327141E+03  0.48299636783E+03  0.00000000000E+00 0.  1.
          5    1    4    4  501    0 -0.18255273984E+03 -0.15474246459E+02 -0.47993054081E+02  0.18943537359E+03  0.41800000000E+01 0.  1.
         -5    1    4    4    0  501 -0.81025280035E+02  0.20744834570E+02  0.59250961253E+02  0.10258456500E+03  0.41800000000E+01 0.  1.
</event>
<event>
11    1  0.7577197E-009  0.1363368E+03  0.7561462E-02  0.1111719E+00
         22   -1    0    0    0    0  0.00000000000E+00  0.00000000000E+00  0.36607505964E+03  0.36607505964E+03  0.00000000000E+00 0. -1.
         22   -1    0    0    0    0 -0.00000000000E+00 -0.00000000000E+00 -0.62408998234E+03  0.62408998234E+03  0.00000000000E+00 0.  1.
         24    2    1    2    0    0 -0.83948466240E+01  0.52842281652E+02 -0.51592836121E+03  0.52473526129E+03  0.79386651017E+02 0.  0.
         25    2    1    2    0    0  0.30310955911E+02 -0.58170160668E+02 -0.48049534807E+02  0.14919247024E+03  0.12508842369E+03 0.  0.
        -24    2    1    2    0    0 -0.21916109287E+02  0.53278790155E+01  0.30596297332E+03  0.31623731045E+03  0.76707192219E+02 0.  0.
        -11    1    3    3    0    0  0.33629795642E+02  0.11429632413E+02 -0.23587896408E+03  0.23853822618E+03  0.00000000000E+00 0.  1.
         12    1    3    3    0    0 -0.42024642266E+02  0.41412649239E+02 -0.28004939713E+03  0.28619703511E+03  0.00000000000E+00 0. -1.
         13    1    5    5    0    0 -0.46822214356E+02  0.71393524430E+00  0.25570069875E+03  0.25995322041E+03  0.00000000000E+00 0. -1.
        -14    1    5    5    0    0  0.24906105068E+02  0.46139437712E+01  0.50262274565E+02  0.56284090036E+02  0.00000000000E+00 0.  1.
          5    1    4    4  501    0 -0.31737914019E+02 -0.39571010124E+02  0.20422573006E+02  0.54842628645E+02  0.41800000000E+01 0.  1.
         -5    1    4    4    0  501  0.62048869931E+02 -0.18599150544E+02 -0.68472107813E+02  0.94349841595E+02  0.41800000000E+01 0.  1.
</event>
<event>
11    1  0.7577197E-009  0.1983407E+03  0.7561462E-02  0.1055703E+00
         22   -1    0    0    0    0  0.00000000000E+00  0.00000000000E+00  0.92397045809E+03  0.92397045809E+03  0.00000000000E+00 0. -1.
         22   -1    0    0    0    0 -0.00000000000E+00 -0.00000000000E+00 -0.25835955222E+03  0.25835955222E+03  0.00000000000E+00 0. -1.
        -24    2    1    2    0    0 -0.61747131696E+01  0.17569522785E+02 -0.16799815989E+03  0.18769004076E+03  0.81592612767E+02 0.  0.
         25    2    1    2    0    0  0.32538049114E+02  0.13605593495E+03  0.53464081303E+02  0.19513205379E+03  0.12509263907E+03 0.  0.
         24    2    1    2    0    0 -0.26363335944E+02 -0.15362545774E+03  0.78014498446E+03  0.79950791576E+03  0.79315218252E+02 0.  0.
        -11    1    5    5    0    0  0.82335113386E+01  0.52334981342E+01  0.21102696334E+02  0.23248741992E+02  0.00000000000E+00 0.  1.
         12    1    5    5    0    0 -0.34596847283E+02 -0.15885895587E+03  0.75904228812E+03  0.77625917377E+03  0.00000000000E+00 0. -1.
         11    1    3    3    0    0  0.18439431911E+01  0.44239438320E+02 -0.14488202866E+03  0.15149696452E+03  0.00000000000E+00 0. -1.
        -12    1    3    3    0    0 -0.80186563607E+01 -0.26669915535E+02 -0.23116131233E+02  0.36193076239E+02  0.00000000000E+00 0.  1.
          5    1    4    4  501    0  0.67814063753E+02  0.29825882801E+02  0.95237367271E+01  0.74809788723E+02  0.41800000000E+01 0. -1.
         -5    1    4    4    0  501 -0.35276014639E+02  0.10623005215E+03  0.43940344576E+02  0.12032226507E+03  0.41800000000E+01 0. -1.
</event>
<event>
11    1  0.7577197E-009  0.1604364E+03  0.7561462E-02  0.1086668E+00
         22   -1    0    0    0    0  0.00000000000E+00  0.00000000000E+00  0.14990568370E+03  0.14990568370E+03  0.00000000000E+00 0.  1.
         22   -1    0    0    0    0 -0.00000000000E+00 -0.00000000000E+00 -0.62805906457E+03  0.62805906457E+03  0.00000000000E+00 0. -1.
         24    2    1    2    0    0  0.68521053946E+02  0.69406399370E+02 -0.43082273597E+03  0.44913717207E+03  0.81262453820E+02 0.  0.
         25    2    1    2    0    0 -0.17991879637E+02 -0.15260663560E+03 -0.44162684221E+02  0.20300476135E+03  0.12509235584E+03 0.  0.
        -24    2    1    2    0    0 -0.50529174309E+02  0.83200236235E+02 -0.31679606738E+01  0.12582281484E+03  0.79660956525E+02 0.  0.
        -13    1    3    3    0    0 -0.38468503309E+01 -0.36232640360E+01 -0.14987600559E+03  0.14996914133E+03  0.00000000000E+00 0.  1.
         14    1    3    3    0    0  0.72367904277E+02  0.73029663406E+02 -0.28094673038E+03  0.29916803074E+03  0.00000000000E+00 0. -1.
         11    1    5    5    0    0 -0.47510038172E+02  0.65550212488E+01 -0.93736070331E+01  0.48867540755E+02  0.00000000000E+00 0. -1.
        -12    1    5    5    0    0 -0.30191361370E+01  0.76645214986E+02  0.62056463593E+01  0.76955274089E+02  0.00000000000E+00 0.  1.
          5    1    4    4  501    0 -0.14658482894E+02 -0.13822071401E+03  0.16864337831E+02  0.14007753279E+03  0.41800000000E+01 0. -1.
         -5    1    4    4    0  501 -0.33333967429E+01 -0.14385921598E+02 -0.61027022052E+02  0.62927228563E+02  0.41800000000E+01 0. -1.
</event>
<event>
11    1  0.7577197E-009  0.1518036E+03  0.7561462E-02  0.1095050E+00
         22   -1    0    0    0    0  0.00000000000E+00  0.00000000000E+00  0.56491920738E+03  0.56491920738E+03  0.00000000000E+00 0.  1.
         22   -1    0    0    0    0 -0.00000000000E+00 -0.00000000000E+00 -0.23105761133E+03  0.23105761133E+03  0.00000000000E+00 0. -1.
        -24    2    1    2    0    0  0.33179685217E+02  0.53638726840E+02 -0.16532188113E+03  0.19390755229E+03  0.79314626193E+02 0.  0.
         25    2    1    2    0    0  0.55804169922E+02 -0.23225730616E+02  0.70379720399E+02  0.15573827592E+03  0.12509022983E+03 0.  0.
         24    2    1    2    0    0 -0.88983855139E+02 -0.30412996224E+02  0.42880375678E+03  0.44633099051E+03  0.80595374833E+02 0.  0.
        -13    1    5    5    0    0 -0.96521836657E+02 -0.45052365293E+02  0.35113225975E+03  0.36693329694E+03  0.00000000000E+00 0.  1.
         14    1    5    5    0    0  0.75379815187E+01  0.14639369069E+02  0.77671497032E+02  0.79397693564E+02  0.00000000000E+00 0. -1.
         13    1    3    3    0    0  0.18020594721E+02  0.56263888116E+02 -0.16818400088E+03  0.17825887101E+03  0.00000000000E+00 0. -1.
        -14    1    3    3    0    0  0.15159090496E+02 -0.26251612757E+01  0.28621197565E+01  0.15648681283E+02  0.00000000000E+00 0.  1.
          5    1    4    4  501    0 -0.27019102662E+02  0.18090086809E+02 -0.87106957923E+01  0.33920963586E+02  0.41800000000E+01 0.  1.
         -5    1    4    4    0  501  0.82823272583E+02 -0.41315817426E+02  0.79090416191E+02  0.12181731233E+03  0.41800000000E+01 0.  1.
</event>
<event>
11    1  0.7577197E-009  0.1254237E+03  0.7561462E-02  0.1125023E+00
         22   -1    0    0    0    0  0.00000000000E+00  0.00000000000E+00  0.47274817771E+03  0.47274817771E+03  0.00000000000E+00 0. -1.
         22   -1    0    0    0    0 -0.00000000000E+00 -0.00000000000E+00 -0.73294200776E+03  0.73294200776E+03  0.00000000000E+00 0.  1.
        -24    2    1    2    0    0 -0.89135180305E+01  0.32090597380E+01 -0.67973281166E+03  0.68465596899E+03  0.81408548423E+02 0.  0.
         25    2    1    2    0    0  0.13396410935E+01  0.14241258030E+02  0.38877513062E+02  0.13177278374E+03  0.12509195595E+03 0.  0.
         24    2    1    2    0    0  0.75738769369E+01 -0.17450317768E+02  0.38066146854E+03  0.38926143275E+03  0.79116573399E+02 0.  0.
        -13    1    5    5    0    0 -0.15815623857E+02 -0.23202311741E+02  0.47126509153E+02  0.54857899094E+02  0.00000000000E+00 0.  1.
         14    1    5    5    0    0  0.23389500794E+02  0.57519939721E+01  0.33353495939E+03  0.33440353365E+03  0.00000000000E+00 0. -1.
         11    1    3    3    0    0 -0.22834655100E+02 -0.24327899101E+02 -0.13544127156E+03  0.13949052366E+03  0.00000000000E+00 0. -1.
        -12    1    3    3    0    0  0.13921137070E+02  0.27536958839E+02 -0.54429154010E+03  0.54516544533E+03  0.00000000000E+00 0.  1.
          5    1    4    4  501    0  0.38068639131E+02 -0.37343964649E+02  0.42333778353E+02  0.68215937805E+02  0.41800000000E+01 0. -1.
         -5    1    4    4    0  501 -0.36728998037E+02  0.51585222679E+02 -0.34562652907E+01  0.63556845937E+02  0.41800000000E+01 0. -1.
</event>
<event>
11    1  0.7577197E-009  0.1340783E+03  0.7561462E-02  0.1114357E+00
         22   -1    0    0    0    0  0.00000000000E+00  0.00000000000E+00  0.11355736364E+04  0.11355736364E+04  0.00000000000E+00 0. -1.
         22   -1    0    0    0    0 -0.00000000000E+00 -0.00000000000E+00 -0.18007207503E+04  0.18007207503E+04  0.00000000000E+00 0.  1.
        -24    2    1    2    0    0 -0.15764531988E+02 -0.20486584561E+02 -0.17613605065E+04  0.17631631236E+04  0.75399908122E+02 0.  0.
         25    2    1    2    0    0  0.61505910556E+02  0.31618318391E+02  0.10488142517E+03  0.17728481125E+03  0.12508835223E+03 0.  0.
         24    2    1    2    0    0 -0.45741378568E+02 -0.11131733830E+02  0.99133196744E+03  0.99584645180E+03  0.82188178496E+02 0.  0.
        -13    1    5    5    0    0 -0.65421788416E+01  0.30817475969E+02  0.20338379952E+03  0.20580934585E+03  0.00000000000E+00 0.  1.
         14    1    5    5    0    0 -0.39199199727E+02 -0.41949209799E+02  0.78794816791E+03  0.79003710595E+03  0.00000000000E+00 0. -1.
         13    1    3    3    0    0 -0.26949255881E+02 -0.18559401088E+02 -0.30357116511E+03  0.30532960231E+03  0.00000000000E+00 0. -1.
        -14    1    3    3    0    0  0.11184723893E+02 -0.19271834729E+01 -0.14577893414E+04  0.14578335213E+04  0.00000000000E+00 0.  1.
          5    1    4    4  501    0 -0.92989738771E+01  0.16455303902E+01 -0.24576263755E+02  0.26657903623E+02  0.41800000000E+01 0.  1.
         -5    1    4    4    0  501  0.70804884434E+02  0.29972788001E+02  0.12945768892E+03  0.15062690763E+03  0.41800000000E+01 0.  1.
</event>
<event>
11    1  0.7577197E-009  0.1355805E+03  0.7561462E-02  0.1112596E+00
         22   -1    0    0    0    0  0.00000000000E+00  0.00000000000E+00  0.63068225734E+03  0.63068225734E+03  0.00000000000E+00 0. -1.
         22   -1    0    0    0    0 -0.00000000000E+00 -0.00000000000E+00 -0.16211364323E+03  0.16211364323E+03  0.00000000000E+00 0. -1.
        -24    2    1    2    0    0 -0.20663812762E+01  0.48729560480E+02 -0.11173451060E+03  0.15268202736E+03  0.91914964090E+02 0.  0.
         25    2    1    2    0    0  0.26301736847E+02 -0.10415066735E+03  0.28749680641E+03  0.33142317530E+03  0.12509102510E+03 0.  0.
         24    2    1    2    0    0 -0.24235355571E+02  0.55421106866E+02  0.29280631829E+03  0.30869069790E+03  0.76782520119E+02 0.  0.
        -13    1    5    5    0    0 -0.26221178651E+02  0.42776040108E+02  0.73389469420E+02  0.88900810114E+02  0.00000000000E+00 0.  1.
         14    1    5    5    0    0  0.19858230804E+01  0.12645066758E+02  0.21941684887E+03  0.21978988779E+03  0.00000000000E+00 0. -1.
         11    1    3    3    0    0 -0.11336681875E+02  0.21890844982E+02 -0.12047595845E+03  0.12297229776E+03  0.00000000000E+00 0. -1.
        -12    1    3    3    0    0  0.92703005989E+01  0.26838715499E+02  0.87414478504E+01  0.29709729607E+02  0.00000000000E+00 0.  1.
          5    1    4    4  501    0 -0.16591054587E+02 -0.95724920208E+02  0.26459475100E+03  0.28189781499E+03  0.41800000000E+01 0. -1.
         -5    1    4    4    0  501  0.42892791434E+02 -0.84257471389E+01  0.22902055417E+02  0.49525360313E+02  0.41800000000E+01 0. -1.
</event>
<event>
11    1  0.7577197E-009  0.1293083E+03  0.7561462E-02  0.1120122E+00
         22   -1    0    0    0    0  0.00000000000E+00  0.00000000000E+00  0.15519471454E+04  0.15519471454E+04  0.00000000000E+00 0.  1.
         22   -1    0    0    0    0 -0.00000000000E+00 -0.00000000000E+00 -0.17768632314E+04  0.17768632314E+04  0.00000000000E+00 0. -1.
        -24    2    1    2    0    0  0.10857909199E+02 -0.18201774816E+02 -0.14259900937E+04  0.14284536064E+04  0.81134207849E+02 0.  0.
         25    2    1    2    0    0 -0.18449995979E+02  0.49983400193E+02 -0.33515230961E+03  0.36168234042E+03  0.12509317361E+03 0.  0.
         24    2    1    2    0    0  0.75920867799E+01 -0.31781625376E+02  0.15362263174E+04  0.15386744300E+04  0.80374074155E+02 0.  0.
        -11    1    5    5    0    0  0.29615549750E+02 -0.16123031048E+02  0.13573229884E+04  0.13577417751E+04  0.00000000000E+00 0.  1.
         12    1    5    5    0    0 -0.22023462970E+02 -0.15658594328E+02  0.17890332896E+03  0.18093265490E+03  0.00000000000E+00 0. -1.
         13    1    3    3    0    0 -0.51279839772E+01 -0.24413757906E+02 -0.13613036425E+04  0.13615322012E+04  0.00000000000E+00 0. -1.
        -14    1    3    3    0    0  0.15985893176E+02  0.62119830901E+01 -0.64686451189E+02  0.66921405260E+02  0.00000000000E+00 0.  1.
          5    1    4    4  501    0  0.14579121211E+02 -0.31445003406E+02 -0.17974023261E+03  0.18309932451E+03  0.41800000000E+01 0.  1.
         -5    1    4    4    0  501 -0.33029117190E+02  0.81428403599E+02 -0.15541207700E+03  0.17858301591E+03  0.41800000000E+01 0.  1.
</event>
<event>
11    1  0.7577197E-009  0.1354691E+03  0.7561462E-02  0.1112726E+00
         22   -1    0    0    0    0  0.00000000000E+00  0.00000000000E+00  0.99473731676E+02  0.99473731676E+02  0.00000000000E+00 0. -1.
         22   -1    0    0    0    0 -0.00000000000E+00 -0.00000000000E+00 -0.12189163147E+04  0.12189163147E+04  0.00000000000E+00 0. -1.
        -24    2    1    2    0    0 -0.46403892328E+01  0.49057381407E+02 -0.98718840026E+03  0.99168781406E+03  0.80471256113E+02 0.  0.
         25    2    1    2    0    0  0.61187234198E+00 -0.87225987575E+02 -0.17231533218E+03  0.23010768448E+03  0.12509286734E+03 0.  0.
         24    2    1    2    0    0  0.40285168908E+01  0.38168606169E+02  0.40061149401E+02  0.96594547845E+02  0.79073001315E+02 0.  0.
        -11    1    5    5    0    0  0.21855406868E+02  0.53858987635E+01 -0.17143757130E+02  0.28294436262E+02  0.00000000000E+00 0.  1.
         12    1    5    5    0    0 -0.17826889978E+02  0.32782707405E+02  0.57204906531E+02  0.68300111583E+02  0.00000000000E+00 0. -1.
         11    1    3    3    0    0  0.31023804463E+02  0.33497117248E+02 -0.74461386011E+03  0.74601228808E+03  0.00000000000E+00 0. -1.
        -12    1    3    3    0    0 -0.35664193696E+02  0.15560264159E+02 -0.24257454015E+03  0.24567552597E+03  0.00000000000E+00 0.  1.
          5    1    4    4  501    0 -0.39826437437E+02 -0.42219073363E+02 -0.15716950079E+03  0.16759570297E+03  0.41800000000E+01 0. -1.
         -5    1    4    4    0  501  0.40438309779E+02 -0.45006914212E+02 -0.15145831386E+02  0.62511981516E+02  0.41800000000E+01 0. -1.
</event>
<event>
11    1  0.7577197E-009  0.2108994E+03  0.7561462E-02  0.1047073E+00
         22   -1    0    0    0    0  0.00000000000E+00  0.00000000000E+00  0.20497785809E+04  0.20497785809E+04  0.00000000000E+00 0. -1.
         22   -1    0    0    0    0 -0.00000000000E+00 -0.00000000000E+00 -0.53697335229E+02  0.53697335229E+02  0.00000000000E+00 0.  1.
         24    2    1    2    0    0 -0.11675597786E+03  0.11265564599E+03  0.20197833683E+03  0.27191477066E+03  0.82578090434E+02 0.  0.
         25    2    1    2    0    0  0.18821126618E+03 -0.91668825091E+02  0.97824933331E+03  0.10081889004E+04  0.12508575715E+03 0.  0.
        -24    2    1    2    0    0 -0.71455288328E+02 -0.20986820899E+02  0.81585357551E+03  0.82337224500E+03  0.82331599514E+02 0.  0.
        -11    1    3    3    0    0 -0.11873199356E+03  0.11870430075E+03  0.20491078470E+03  0.26490833698E+03  0.00000000000E+00 0.  1.
         12    1    3    3    0    0  0.19760157083E+01 -0.60486547588E+01 -0.29324478767E+01  0.70064336877E+01  0.00000000000E+00 0. -1.
         13    1    5    5    0    0 -0.67380157769E+02  0.14061675194E+02  0.38732994264E+03  0.39339839964E+03  0.00000000000E+00 0. -1.
        -14    1    5    5    0    0 -0.40751305586E+01 -0.35048496093E+02  0.42852363287E+03  0.42997384536E+03  0.00000000000E+00 0.  1.
          5    1    4    4  501    0  0.10310724731E+03  0.77231778686E+01  0.57449937473E+03  0.58374459817E+03  0.41800000000E+01 0. -1.
         -5    1    4    4    0  501  0.85104018871E+02 -0.99392002960E+02  0.40374995858E+03  0.42444430228E+03  0.41800000000E+01 0. -1.
</event>
<event>
11    1  0.7577197E-009  0.1525949E+03  0.7561462E-02  0.1094256E+00
         22   -1    0    0    0    0  0.00000000000E+00  0.00000000000E+00  0.22272435946E+03  0.22272435946E+03  0.00000000000E+00 0.  1.
         22   -1    0    0    0    0 -0.00000000000E+00 -0.00000000000E+00 -0.96382460578E+03  0.96382460578E+03  0.00000000000E+00 0. -1.
        -24    2    1    2    0    0  0.16823118115E+01 -0.12627495654E+02 -0.73401336476E+03  0.73851377444E+03  0.80403305706E+02 0.  0.
         25    2    1    2    0    0  0.30340497153E+02  0.92965919573E+02 -0.17880481919E+03  0.23912714878E+03  0.12508965565E+03 0.  0.
         24    2    1    2    0    0 -0.32022808964E+02 -0.80338423919E+02  0.17171793763E+03  0.20890804202E+03  0.81705552224E+02 0.  0.
        -11    1    5    5    0    0 -0.34623354467E+02  0.32885420455E+01  0.59718301340E+02  0.69107645730E+02  0.00000000000E+00 0.  1.
         12    1    5    5    0    0  0.26005455031E+01 -0.83626965964E+02  0.11199963629E+03  0.13980039629E+03  0.00000000000E+00 0. -1.
         11    1    3    3    0    0 -0.38839769248E+02 -0.10302296935E+01 -0.38892774423E+03  0.39086363259E+03  0.00000000000E+00 0. -1.
        -12    1    3    3    0    0  0.40522081060E+02 -0.11597265961E+02 -0.34508562053E+03  0.34765014185E+03  0.00000000000E+00 0.  1.
          5    1    4    4  501    0 -0.40815918397E+02  0.74651843047E+02 -0.96173328243E+02  0.12847419325E+03  0.41800000000E+01 0.  1.
         -5    1    4    4    0  501  0.71156415550E+02  0.18314076526E+02 -0.82631490944E+02  0.11065295553E+03  0.41800000000E+01 0.  1.
</event>
<event>
11    1  0.7577197E-009  0.1294257E+03  0.7561462E-02  0.1119977E+00
         22   -1    0    0    0    0  0.00000000000E+00  0.00000000000E+00  0.17544135856E+04  0.17544135856E+04  0.00000000000E+00 0. -1.
         22   -1    0    0    0    0 -0.00000000000E+00 -0.00000000000E+00 -0.46222024846E+02  0.46222024846E+02  0.00000000000E+00 0. -1.
        -24    2    1    2    0    0  0.25820195952E+02  0.27115956714E+02  0.36248068801E+02  0.94902277438E+02  0.79313064142E+02 0.  0.
         25    2    1    2    0    0 -0.17604724447E+02 -0.61361667774E+01  0.23952234852E+03  0.27086103875E+03  0.12508864059E+03 0.  0.
         24    2    1    2    0    0 -0.82154715048E+01 -0.20979789937E+02  0.14324211434E+04  0.14348722943E+04  0.80749756202E+02 0.  0.
        -11    1    5    5    0    0 -0.41423523573E+02 -0.24461212532E+01  0.97114425990E+03  0.97203038294E+03  0.00000000000E+00 0.  1.
         12    1    5    5    0    0  0.33208052069E+02 -0.18533668684E+02  0.46127688354E+03  0.46284191133E+03  0.00000000000E+00 0. -1.
         11    1    3    3    0    0  0.18932606664E+02 -0.11548124429E+02 -0.17559643468E+02  0.28286814095E+02  0.00000000000E+00 0. -1.
        -12    1    3    3    0    0  0.68875892883E+01  0.38664081143E+02  0.53807712268E+02  0.66615463343E+02  0.00000000000E+00 0.  1.
          5    1    4    4  501    0 -0.37353845865E+02 -0.44259066306E+02  0.50421678872E+02  0.76902489241E+02  0.41800000000E+01 0.  1.
         -5    1    4    4    0  501  0.19749121418E+02  0.38122899529E+02  0.18910066965E+03  0.19395854951E+03  0.41800000000E+01 0.  1.
</event>
<event>
11    1  0.7577197E-009  0.3135073E+03  0.7561462E-02  0.9946313E-01
         22   -1    0    0    0    0  0.00000000000E+00  0.00000000000E+00  0.40800052198E+03  0.40800052198E+03  0.00000000000E+00 0. -1.
         22   -1    0    0    0    0 -0.00000000000E+00 -0.00000000000E+00 -0.27848260794E+03  0.27848260794E+03  0.00000000000E+00 0. -1.
         24    2    1    2    0    0 -0.13886038423E+02 -0.11544615176E+03 -0.48494992594E+02  0.15114122504E+03  0.83494129021E+02 0.  0.
         25    2    1    2    0    0  0.89526302049E+01 -0.11490101612E+03 -0.72773962566E+02  0.18500307770E+03  0.12509075121E+03 0.  0.
        -24    2    1    2    0    0  0.49334082182E+01  0.23034716788E+03  0.25078686920E+03  0.35033882717E+03  0.82213647249E+02 0.  0.
        -11    1    3    3    0    0  0.10273876484E+02 -0.22941857955E+02  0.21154629432E+02  0.32854219377E+02  0.00000000000E+00 0.  1.
         12    1    3    3    0    0 -0.24159914907E+02 -0.92504293805E+02 -0.69649622027E+02  0.11828700567E+03  0.00000000000E+00 0. -1.
         13    1    5    5    0    0 -0.19992133978E+02  0.20794749975E+03  0.19810619223E+03  0.28790260762E+03  0.00000000000E+00 0. -1.
        -14    1    5    5    0    0  0.24925542196E+02  0.22399668129E+02  0.52680676972E+02  0.62436219555E+02  0.00000000000E+00 0.  1.
          5    1    4    4  501    0  0.38031776633E+02 -0.64323226132E+02  0.18037342607E+02  0.76985138710E+02  0.41800000000E+01 0.  1.
         -5    1    4    4    0  501 -0.29079146428E+02 -0.50577789985E+02 -0.90811305173E+02  0.10801793899E+03  0.41800000000E+01 0.  1.
</event>
<event>
11    1  0.7577197E-009  0.1815042E+03  0.7561462E-02  0.1068433E+00
         22   -1    0    0    0    0  0.00000000000E+00  0.00000000000E+00  0.16532012276E+03  0.16532012276E+03  0.00000000000E+00 0.  1.
         22   -1    0    0    0    0 -0.00000000000E+00 -0.00000000000E+00 -0.14899427484E+04  0.14899427484E+04  0.00000000000E+00 0. -1.
         24    2    1    2    0    0  0.70490149913E+02  0.10334942899E+03 -0.11068670922E+04  0.11169748201E+04  0.82631854138E+02 0.  0.
         25    2    1    2    0    0 -0.72357607008E+02 -0.15910446127E+03 -0.32742631834E+03  0.39165190472E+03  0.12503346608E+03 0.  0.
        -24    2    1    2    0    0  0.18674570951E+01  0.55755032285E+02  0.10967078485E+03  0.14663614636E+03  0.79764449149E+02 0.  0.
        -13    1    3    3    0    0  0.47649751157E+02  0.50886405107E+01 -0.29550793316E+03  0.29936822077E+03  0.00000000000E+00 0.  1.
         14    1    3    3    0    0  0.22840398756E+02  0.98260788479E+02 -0.81135915903E+03  0.81760659936E+03  0.00000000000E+00 0. -1.
         11    1    5    5    0    0  0.35064694847E+01  0.39371803180E+02  0.40442022651E+01  0.39733987792E+02  0.00000000000E+00 0. -1.
        -12    1    5    5    0    0 -0.16390123896E+01  0.16383229105E+02  0.10562658258E+03  0.10690215857E+03  0.00000000000E+00 0.  1.
          5    1    4    4  501    0 -0.44632108823E+02 -0.13658840410E+02 -0.16634144350E+03  0.17281648442E+03  0.41800000000E+01 0.  1.
         -5    1    4    4    0  501 -0.27725498185E+02 -0.14544562087E+03 -0.16108487484E+03  0.21883542031E+03  0.41800000000E+01 0.  1.
</event>
<event>
11    1  0.7577197E-009  0.1486968E+03  0.7561462E-02  0.1098218E+00
         22   -1    0    0    0    0  0.00000000000E+00  0.00000000000E+00  0.88725300547E+03  0.88725300547E+03  0.00000000000E+00 0.  1.
         22   -1    0    0    0    0 -0.00000000000E+00 -0.00000000000E+00 -0.51696548098E+03  0.51696548098E+03  0.00000000000E+00 0.  1.
         24    2    1    2    0    0 -0.10589905130E+02  0.79367619890E+01 -0.48337891305E+03  0.49505904303E+03  0.10608083815E+03 0.  0.
         25    2    1    2    0    0  0.84342606796E+02 -0.33621863635E+02  0.24024059163E+03  0.28567164295E+03  0.12509452700E+03 0.  0.
        -24    2    1    2    0    0 -0.73752701666E+02  0.25685101646E+02  0.61342584591E+03  0.62348780047E+03  0.79665447071E+02 0.  0.
        -13    1    3    3    0    0  0.13788191387E+02 -0.13984603809E+02 -0.44120134882E+03  0.44163821570E+03  0.00000000000E+00 0.  1.
         14    1    3    3    0    0 -0.24378096517E+02  0.21921365798E+02 -0.42177564230E+02  0.53420827330E+02  0.00000000000E+00 0. -1.
         13    1    5    5    0    0 -0.46944738141E+02  0.83830048847E+01  0.12142550606E+03  0.13045396403E+03  0.00000000000E+00 0. -1.
        -14    1    5    5    0    0 -0.26807963525E+02  0.17302096761E+02  0.49200033985E+03  0.49303383644E+03  0.00000000000E+00 0.  1.
          5    1    4    4  501    0  0.53070648807E+02 -0.66622370934E+01  0.13714373627E+02  0.55375406200E+02  0.41800000000E+01 0. -1.
         -5    1    4    4    0  501  0.31271957989E+02 -0.26959626542E+02  0.22652621800E+03  0.23029623675E+03  0.41800000000E+01 0. -1.
</event>
<event>
11    1  0.7577197E-009  0.1319627E+03  0.7561462E-02  0.1116881E+00
         22   -1    0    0    0    0  0.00000000000E+00  0.00000000000E+00  0.20393590260E+04  0.20393590260E+04  0.00000000000E+00 0.  1.
         22   -1    0    0    0    0 -0.00000000000E+00 -0.00000000000E+00 -0.19598345668E+03  0.19598345668E+03  0.00000000000E+00 0.  1.
         24    2    1    2    0    0 -0.23401320433E+02  0.34902958149E+02 -0.17879295551E+03  0.20028151205E+03  0.79874431716E+02 0.  0.
         25    2    1    2    0    0  0.27091958625E+02 -0.23838735188E+02  0.86025852737E+03  0.87005898872E+03  0.12512254163E+03 0.  0.
        -24    2    1    2    0    0 -0.36906381922E+01 -0.11064222962E+02  0.11619099974E+04  0.11650019819E+04  0.84016294874E+02 0.  0.
        -13    1    3    3    0    0 -0.19215868346E+02  0.19579861037E+02 -0.18201729638E+03  0.18407312878E+03  0.00000000000E+00 0.  1.
         14    1    3    3    0    0 -0.41854520868E+01  0.15323097113E+02  0.32243408703E+01  0.16208383274E+02  0.00000000000E+00 0. -1.
         13    1    5    5    0    0  0.52411319094E+01 -0.28868063273E+02  0.14715021765E+03  0.15004672971E+03  0.00000000000E+00 0. -1.
        -14    1    5    5    0    0 -0.89317701016E+01  0.17803840312E+02  0.10147597798E+04  0.10149552522E+04  0.00000000000E+00 0.  1.
          5    1    4    4  501    0  0.31124782600E+02  0.46103810841E+02  0.49375166384E+03  0.49689283694E+03  0.41800000000E+01 0.  1.
         -5    1    4    4    0  501 -0.40328239749E+01 -0.69942546028E+02  0.36650686354E+03  0.37316615178E+03  0.41800000000E+01 0.  1.
</event>
<event>
11    1  0.7577197E-009  0.1492144E+03  0.7561462E-02  0.1097684E+00
         22   -1    0    0    0    0  0.00000000000E+00  0.00000000000E+00  0.98995421356E+03  0.98995421356E+03  0.00000000000E+00 0.  1.
         22   -1    0    0    0    0 -0.00000000000E+00 -0.00000000000E+00 -0.96645793805E+03  0.96645793805E+03  0.00000000000E+00 0.  1.
        -24    2    1    2    0    0 -0.11289664719E+02  0.57520677495E+02 -0.91646796471E+03  0.92188286976E+03  0.80736672945E+02 0.  0.
         25    2    1    2    0    0  0.61053336289E+01 -0.13405539327E+03  0.15037070760E+03  0.23720654523E+03  0.12508985504E+03 0.  0.
         24    2    1    2    0    0  0.51843310900E+01  0.76534715772E+02  0.78959353261E+03  0.79732273662E+03  0.79882160585E+02 0.  0.
        -13    1    5    5    0    0 -0.24055003302E+01 -0.69046135350E+01  0.33457171672E+03  0.33465160055E+03  0.00000000000E+00 0.  1.
         14    1    5    5    0    0  0.75898314203E+01  0.83439329307E+02  0.45502181589E+03  0.46267113607E+03  0.00000000000E+00 0. -1.
         11    1    3    3    0    0  0.82019726697E+01 -0.73429359208E+01 -0.19751237686E+02  0.22611998004E+02  0.00000000000E+00 0. -1.
        -12    1    3    3    0    0 -0.19491637389E+02  0.64863613416E+02 -0.89671672702E+03  0.89927087176E+03  0.00000000000E+00 0.  1.
          5    1    4    4  501    0 -0.20217462664E+02 -0.12336386639E+03  0.16331236134E+03  0.20570801903E+03  0.41800000000E+01 0. -1.
         -5    1    4    4    0  501  0.26322796293E+02 -0.10691526877E+02 -0.12941653734E+02  0.31498526204E+02  0.41800000000E+01 0. -1.
</event>
<event>
11    1  0.7577197E-009  0.1847309E+03  0.7561462E-02  0.1065879E+00
         22   -1    0    0    0    0  0.00000000000E+00  0.00000000000E+00  0.24538826770E+03  0.24538826770E+03  0.00000000000E+00 0.  1.
         22   -1    0    0    0    0 -0.00000000000E+00 -0.00000000000E+00 -0.72154266949E+03  0.72154266949E+03  0.00000000000E+00 0.  1.
         24    2    1    2    0    0 -0.76750095680E+01  0.13953182487E+03 -0.58155983759E+03  0.60347758757E+03  0.80282738403E+02 0.  0.
         25    2    1    2    0    0  0.41584178894E+01 -0.11476723377E+03 -0.57917452982E+02  0.17941707835E+03  0.12508895337E+03 0.  0.
        -24    2    1    2    0    0  0.35165916786E+01 -0.24764591099E+02  0.16332288878E+03  0.18403627126E+03  0.81051414248E+02 0.  0.
        -11    1    3    3    0    0 -0.41611723920E+02  0.10285049231E+03 -0.41590195283E+03  0.43044650505E+03  0.00000000000E+00 0.  1.
         12    1    3    3    0    0  0.33936714352E+02  0.36681332558E+02 -0.16565788475E+03  0.17303108253E+03  0.00000000000E+00 0. -1.
         13    1    5    5    0    0  0.59731179969E+01 -0.40459773441E+02  0.32464204540E+02  0.52216817041E+02  0.00000000000E+00 0. -1.
        -14    1    5    5    0    0 -0.24565263183E+01  0.15695182342E+02  0.13085868424E+03  0.13181945422E+03  0.00000000000E+00 0.  1.
          5    1    4    4  501    0  0.37558110350E+02  0.11049907355E+02 -0.17134315138E+02  0.42939134375E+02  0.41800000000E+01 0.  1.
         -5    1    4    4    0  501 -0.33399692461E+02 -0.12581714113E+03 -0.40783137844E+02  0.13647794397E+03  0.41800000000E+01 0.  1.
</event>
<event>
11    1  0.7577197E-009  0.1351320E+03  0.7561462E-02  0.1113119E+00
         22   -1    0    0    0    0  0.00000000000E+00  0.00000000000E+00  0.20220879468E+04  0.20220879468E+04  0.00000000000E+00 0. -1.
         22   -1    0    0    0    0 -0.00000000000E+00 -0.00000000000E+00 -0.10202094951E+03  0.10202094951E+03  0.00000000000E+00 0.  1.
        -24    2    1    2    0    0  0.19637264891E+02 -0.41570397275E+02 -0.51594530052E+02  0.10619789799E+03  0.80636703212E+02 0.  0.
         25    2    1    2    0    0  0.18909082278E+02  0.43938858698E+01  0.16188387536E+03  0.20550213732E+03  0.12509148537E+03 0.  0.
         24    2    1    2    0    0 -0.38546347169E+02  0.37176511406E+02  0.18097776520E+04  0.18124088611E+04  0.81626074164E+02 0.  0.
        -11    1    5    5    0    0  0.25321922578E+02  0.14782276743E+02  0.45753879790E+03  0.45847733537E+03  0.00000000000E+00 0.  1.
         12    1    5    5    0    0 -0.63868269747E+02  0.22394234663E+02  0.13522388541E+04  0.13539315257E+04  0.00000000000E+00 0. -1.
         11    1    3    3    0    0  0.50926238656E+02 -0.22230396849E+02 -0.25753907185E+02  0.61244886015E+02  0.00000000000E+00 0. -1.
        -12    1    3    3    0    0 -0.31288973765E+02 -0.19340000427E+02 -0.25840622866E+02  0.44953011978E+02  0.00000000000E+00 0.  1.
          5    1    4    4  501    0 -0.38583221728E+02 -0.15151111287E+02  0.11428135744E+02  0.43200646508E+02  0.41800000000E+01 0. -1.
         -5    1    4    4    0  501  0.57492304005E+02  0.19544997157E+02  0.15045573962E+03  0.16230149081E+03  0.41800000000E+01 0. -1.
</event>
<event>
11    1  0.7577197E-009  0.1758049E+03  0.7561462E-02  0.1073088E+00
         22   -1    0    0    0    0  0.00000000000E+00  0.00000000000E+00  0.34417108061E+04  0.34417108061E+04  0.00000000000E+00 0.  1.
         22   -1    0    0    0    0 -0.00000000000E+00 -0.00000000000E+00 -0.19909760881E+03  0.19909760881E+03  0.00000000000E+00 0.  1.
        -24    2    1    2    0    0  0.57495831787E+01  0.65978549528E+02 -0.17199402126E+03  0.20104589746E+03  0.80319878203E+02 0.  0.
         25    2    1    2    0    0 -0.12792529614E+03 -0.62649386781E+02  0.86347095195E+03  0.88403563977E+03  0.12508837064E+03 0.  0.
         24    2    1    2    0    0  0.12217571296E+03 -0.33291627468E+01  0.25511362666E+04  0.25557268777E+04  0.92225996073E+02 0.  0.
        -13    1    5    5    0    0  0.31310839476E+02  0.63514811802E+01  0.15747107372E+04  0.15750347983E+04  0.00000000000E+00 0.  1.
         14    1    5    5    0    0  0.90864873487E+02 -0.96806439270E+01  0.97642552948E+03  0.98069207946E+03  0.00000000000E+00 0. -1.
         11    1    3    3    0    0 -0.13525431249E+02 -0.16271998364E+01  0.16391322474E+01  0.13721218033E+02  0.00000000000E+00 0. -1.
        -12    1    3    3    0    0  0.19275014428E+02  0.67605749364E+02 -0.17363315350E+03  0.18732467943E+03  0.00000000000E+00 0.  1.
          5    1    4    4  501    0 -0.38363184200E+01 -0.62705912263E+02  0.36119027479E+03  0.36663692637E+03  0.41800000000E+01 0. -1.
         -5    1    4    4    0  501 -0.12408897772E+03  0.56525482507E-01  0.50228067715E+03  0.51739871340E+03  0.41800000000E+01 0. -1.
</event>
<event>
11    1  0.7577197E-009  0.1429835E+03  0.7561462E-02  0.1104272E+00
         22   -1    0    0    0    0  0.00000000000E+00  0.00000000000E+00  0.41810276836E+02  0.41810276836E+02  0.00000000000E+00 0. -1.
         22   -1    0    0    0    0 -0.00000000000E+00 -0.00000000000E+00 -0.24719957677E+04  0.24719957677E+04  0.00000000000E+00 0. -1.
         24    2    1    2    0    0  0.41386529226E+02  0.47289038960E+02 -0.15675780841E+04  0.15709071565E+04  0.80617285333E+02 0.  0.
         25    2    1    2    0    0 -0.79443030388E+02 -0.61427160430E+02 -0.82617729532E+03  0.84160579065E+03  0.12508753910E+03 0.  0.
        -24    2    1    2    0    0  0.38056501163E+02  0.14138121469E+02 -0.36430111512E+02  0.10129309742E+03  0.85351946671E+02 0.  0.
        -13    1    3    3    0    0  0.21451017704E+02  0.69271286768E+02 -0.11277962806E+04  0.11301252620E+04  0.00000000000E+00 0.  1.
         14    1    3    3    0    0  0.19935511522E+02 -0.21982247807E+02 -0.43978180346E+03  0.44078189447E+03  0.00000000000E+00 0. -1.
         11    1    5    5    0    0  0.13019671399E+02  0.40020868138E+02  0.92858481293E+01  0.43097664732E+02  0.00000000000E+00 0. -1.
        -12    1    5    5    0    0  0.25036829764E+02 -0.25882746669E+02 -0.45715959641E+02  0.58195432687E+02  0.00000000000E+00 0.  1.
          5    1    4    4  501    0  0.30857131580E+02  0.50674366564E+01 -0.16160633751E+03  0.16465698348E+03  0.41800000000E+01 0. -1.
         -5    1    4    4    0  501 -0.11030016197E+03 -0.66494597086E+02 -0.66457095781E+03  0.67694880718E+03  0.41800000000E+01 0. -1.
</event>
<event>
11    1  0.7577197E-009  0.3353790E+03  0.7561462E-02  0.9862385E-01
         22   -1    0    0    0    0  0.00000000000E+00  0.00000000000E+00  0.11063598329E+04  0.11063598329E+04  0.00000000000E+00 0.  1.
         22   -1    0    0    0    0 -0.00000000000E+00 -0.00000000000E+00 -0.69048194737E+03  0.69048194737E+03  0.00000000000E+00 0. -1.
         24    2    1    2    0    0 -0.21234847940E+03 -0.24524515889E+03 -0.55873802835E+03  0.65096422590E+03  0.79556108557E+02 0.  0.
         25    2    1    2    0    0 -0.11584336451E+03  0.73220844793E+02  0.15129723045E+03  0.23941333280E+03  0.12508762835E+03 0.  0.
        -24    2    1    2    0    0  0.32819184391E+03  0.17202431410E+03  0.82331868345E+03  0.90646422159E+03  0.80755677592E+02 0.  0.
        -11    1    3    3    0    0  0.22929074770E+01 -0.26567318079E+02 -0.59323502889E+02  0.65041200863E+02  0.00000000000E+00 0.  1.
         12    1    3    3    0    0 -0.21464138688E+03 -0.21867784081E+03 -0.49941452546E+03  0.58592302503E+03  0.00000000000E+00 0. -1.
         11    1    5    5    0    0  0.35097753916E+02  0.39970074086E+02  0.17359735457E+03  0.18156404013E+03  0.00000000000E+00 0. -1.
        -12    1    5    5    0    0  0.29309408999E+03  0.13205424001E+03  0.64972132888E+03  0.72490018147E+03  0.00000000000E+00 0.  1.
          5    1    4    4  501    0 -0.35217845699E+02  0.81911046041E+02  0.31427955156E+02  0.94630359211E+02  0.41800000000E+01 0.  1.
         -5    1    4    4    0  501 -0.80625518810E+02 -0.86902012480E+01  0.11986927529E+03  0.14478297358E+03  0.41800000000E+01 0.  1.
</event>
<event>
11    1  0.7577197E-009  0.1848145E+03  0.7561462E-02  0.1065814E+00
         22   -1    0    0    0    0  0.00000000000E+00  0.00000000000E+00  0.10997179441E+04  0.10997179441E+04  0.00000000000E+00 0. -1.
         22   -1    0    0    0    0 -0.00000000000E+00 -0.00000000000E+00 -0.53849318134E+03  0.53849318134E+03  0.00000000000E+00 0.  1.
         24    2    1    2    0    0  0.13694736210E+03 -0.25712837255E+02 -0.41318878526E+03  0.44648918066E+03  0.95978571551E+02 0.  0.
         25    2    1    2    0    0 -0.12880363129E+03 -0.89916793394E+02 -0.63028260659E+01  0.20090721673E+03  0.12509428024E+03 0.  0.
        -24    2    1    2    0    0 -0.81437308080E+01  0.11562963065E+03  0.98071637406E+03  0.99081472802E+03  0.80453011610E+02 0.  0.
        -13    1    3    3    0    0  0.26086639975E+01  0.23273283889E+02 -0.91545524644E+02  0.94493565671E+02  0.00000000000E+00 0.  1.
         14    1    3    3    0    0  0.13433869810E+03 -0.48986121144E+02 -0.32164326061E+03  0.35199561499E+03  0.00000000000E+00 0. -1.
         11    1    5    5    0    0 -0.28557719538E+02  0.10806318699E+03  0.90956841624E+03  0.91641033361E+03  0.00000000000E+00 0. -1.
        -12    1    5    5    0    0  0.20413988730E+02  0.75664436636E+01  0.71147957822E+02  0.74404394412E+02  0.00000000000E+00 0.  1.
          5    1    4    4  501    0 -0.12742281116E+03 -0.86472979917E+02  0.36029164721E+02  0.15820784484E+03  0.41800000000E+01 0.  1.
         -5    1    4    4    0  501 -0.13808201335E+01 -0.34438134777E+01 -0.42331990787E+02  0.42699371887E+02  0.41800000000E+01 0.  1.
</event>
<event>
11    1  0.7577197E-009  0.1626116E+03  0.7561462E-02  0.1084646E+00
         22   -1    0    0    0    0  0.00000000000E+00  0.00000000000E+00  0.82590182591E+03  0.82590182591E+03  0.00000000000E+00 0. -1.
         22   -1    0    0    0    0 -0.00000000000E+00 -0.00000000000E+00 -0.20397114639E+03  0.20397114639E+03  0.00000000000E+00 0.  1.
        -24    2    1    2    0    0 -0.79945587545E+02  0.37499059740E+02 -0.11792055825E+03  0.16828800914E+03  0.81351825500E+02 0.  0.
         25    2    1    2    0    0  0.16502539558E+03 -0.77610676216E+02  0.17195965176E+03  0.28013358820E+03  0.12509159505E+03 0.  0.
         24    2    1    2    0    0 -0.85079808035E+02  0.40111616477E+02  0.56789158601E+03  0.58145137497E+03  0.82081255324E+02 0.  0.
        -13    1    5    5    0    0 -0.26713014292E+02  0.57907124687E+02  0.29828774880E+03  0.30502852540E+03  0.00000000000E+00 0.  1.
         14    1    5    5    0    0 -0.58366793744E+02 -0.17795508210E+02  0.26960383721E+03  0.27642284957E+03  0.00000000000E+00 0. -1.
         13    1    3    3    0    0 -0.58067402227E+02  0.20643880050E+02 -0.17392294120E+02  0.64035028537E+02  0.00000000000E+00 0. -1.
        -14    1    3    3    0    0 -0.21878185318E+02  0.16855179689E+02 -0.10052826413E+03  0.10425298060E+03  0.00000000000E+00 0.  1.
          5    1    4    4  501    0  0.15551624288E+03 -0.46255755911E+02  0.18365366258E+03  0.24509393492E+03  0.41800000000E+01 0.  1.
         -5    1    4    4    0  501  0.95091526956E+01 -0.31354920306E+02 -0.11694010824E+02  0.35039653273E+02  0.41800000000E+01 0.  1.
</event>
<event>
11    1  0.7577197E-009  0.1282298E+03  0.7561462E-02  0.1121463E+00
         22   -1    0    0    0    0  0.00000000000E+00  0.00000000000E+00  0.18318198125E+03  0.18318198125E+03  0.00000000000E+00 0. -1.
         22   -1    0    0    0    0 -0.00000000000E+00 -0.00000000000E+00 -0.12092073753E+04  0.12092073753E+04  0.00000000000E+00 0.  1.
        -24    2    1    2    0    0  0.22479683050E+02  0.17052268067E+02 -0.11269082294E+04  0.11303053756E+04  0.82897337474E+02 0.  0.
         25    2    1    2    0    0 -0.11686356692E+02 -0.30111228154E+02 -0.24400389039E+01  0.12921621451E+03  0.12509044451E+03 0.  0.
         24    2    1    2    0    0 -0.10793326357E+02  0.13058960087E+02  0.10332287425E+03  0.13286776647E+03  0.81799723040E+02 0.  0.
        -13    1    5    5    0    0 -0.11991531905E+02 -0.12348639666E+02 -0.77806616100E+01  0.18889797090E+02  0.00000000000E+00 0.  1.
         14    1    5    5    0    0  0.11982055473E+01  0.25407599753E+02  0.11110353586E+03  0.11397796938E+03  0.00000000000E+00 0. -1.
         11    1    3    3    0    0 -0.15284927106E+02 -0.25465728941E+02 -0.47156900883E+03  0.47250339939E+03  0.00000000000E+00 0. -1.
        -12    1    3    3    0    0  0.37764610156E+02  0.42517997008E+02 -0.65533922060E+03  0.65780197622E+03  0.00000000000E+00 0.  1.
          5    1    4    4  501    0 -0.32602101982E+02 -0.31985912071E+02  0.52820014825E+02  0.69952998440E+02  0.41800000000E+01 0. -1.
         -5    1    4    4    0  501  0.20915745290E+02  0.18746839162E+01 -0.55260053729E+02  0.59263216070E+02  0.41800000000E+01 0. -1.
</event>
<event>
11    1  0.7577197E-009  0.1354899E+03  0.7561462E-02  0.1112702E+00
         22   -1    0    0    0    0  0.00000000000E+00  0.00000000000E+00  0.50762071489E+03  0.50762071489E+03  0.00000000000E+00 0. -1.
         22   -1    0    0    0    0 -0.00000000000E+00 -0.00000000000E+00 -0.43090585449E+03  0.43090585449E+03  0.00000000000E+00 0. -1.
         24    2    1    2    0    0 -0.37363147097E+02 -0.63163060612E+01 -0.36449356196E+03  0.37530461336E+03  0.81006762752E+02 0.  0.
         25    2    1    2    0    0  0.51630308585E+01  0.49137903212E+02  0.26336480066E+02  0.13704827870E+03  0.12508968820E+03 0.  0.
        -24    2    1    2    0    0  0.32200116238E+02 -0.42821597151E+02  0.41487194229E+03  0.42617367732E+03  0.81453901500E+02 0.  0.
        -13    1    3    3    0    0 -0.32053564142E+02  0.63300435339E+01 -0.45496289471E+02  0.56012612696E+02  0.00000000000E+00 0.  1.
         14    1    3    3    0    0 -0.53095829550E+01 -0.12646349595E+02 -0.31899727249E+03  0.31929200066E+03  0.00000000000E+00 0. -1.
         11    1    5    5    0    0 -0.66325391769E+01 -0.53748965074E+02  0.28783058806E+03  0.29288118623E+03  0.00000000000E+00 0. -1.
        -12    1    5    5    0    0  0.38832655415E+02  0.10927367923E+02  0.12704135423E+03  0.13329249109E+03  0.00000000000E+00 0.  1.
          5    1    4    4  501    0  0.16637347129E+02  0.49154886310E+02 -0.42456924709E+02  0.67179364565E+02  0.41800000000E+01 0. -1.
         -5    1    4    4    0  501 -0.11474316271E+02 -0.16983097655E-01  0.68793404775E+02  0.69868914139E+02  0.41800000000E+01 0. -1.
</event>
<event>
11    1  0.7577197E-009  0.1427611E+03  0.7561462E-02  0.1104514E+00
         22   -1    0    0    0    0  0.00000000000E+00  0.00000000000E+00  0.14801543411E+04  0.14801543411E+04  0.00000000000E+00 0. -1.
         22   -1    0    0    0    0 -0.00000000000E+00 -0.00000000000E+00 -0.53734275629E+03  0.53734275629E+03  0.00000000000E+00 0.  1.
         24    2    1    2    0    0  0.22255062391E+02 -0.13160505449E+02 -0.49427153941E+03  0.50197098939E+03  0.83678150166E+02 0.  0.
         25    2    1    2    0    0 -0.22429855309E+02 -0.56320041323E+02  0.92916004415E+02  0.16720116634E+03  0.12509116949E+03 0.  0.
        -24    2    1    2    0    0  0.17479291766E+00  0.69480546772E+02  0.13441671198E+04  0.13483249416E+04  0.79795522327E+02 0.  0.
        -11    1    3    3    0    0  0.94497707156E+01 -0.11002814464E+02 -0.48674624655E+03  0.48696228665E+03  0.00000000000E+00 0.  1.
         12    1    3    3    0    0  0.12805291675E+02 -0.21576909853E+01 -0.75252928611E+01  0.15008702740E+02  0.00000000000E+00 0. -1.
         11    1    5    5    0    0 -0.29070960455E+02  0.45225170261E+02  0.10908654250E+04  0.10921894580E+04  0.00000000000E+00 0. -1.
        -12    1    5    5    0    0  0.29245753373E+02  0.24255376511E+02  0.25330169476E+03  0.25613548358E+03  0.00000000000E+00 0.  1.
          5    1    4    4  501    0 -0.29244084247E+02  0.29444755749E+02  0.17023133746E+01  0.41744225654E+02  0.41800000000E+01 0. -1.
         -5    1    4    4    0  501  0.68142289385E+01 -0.85764797072E+02  0.91213691040E+02  0.12545694069E+03  0.41800000000E+01 0. -1.
</event>
<event>
11    1  0.7577197E-009  0.1344694E+03  0.7561462E-02  0.1113896E+00
         22   -1    0    0    0    0  0.00000000000E+00  0.00000000000E+00  0.27884474158E+04  0.27884474158E+04  0.00000000000E+00 0. -1.
         22   -1    0    0    0    0 -0.00000000000E+00 -0.00000000000E+00 -0.37126054228E+03  0.37126054228E+03  0.00000000000E+00 0. -1.
        -24    2    1    2    0    0  0.96660526660E+01 -0.47215826900E+02 -0.32892619294E+03  0.34208912801E+03  0.80683109868E+02 0.  0.
         25    2    1    2    0    0  0.97396642810E+01  0.80040101394E+02  0.12358841555E+03  0.19345206269E+03  0.12509326604E+03 0.  0.
         24    2    1    2    0    0 -0.19405716947E+02 -0.32824274494E+02  0.26225246509E+04  0.26241667674E+04  0.84626612692E+02 0.  0.
        -11    1    5    5    0    0 -0.40112271487E+02  0.13223943441E+02  0.11355988761E+04  0.11363840347E+04  0.00000000000E+00 0.  1.
         12    1    5    5    0    0  0.20706554540E+02 -0.46048217936E+02  0.14869257748E+04  0.14877827327E+04  0.00000000000E+00 0. -1.
         11    1    3    3    0    0 -0.25193169696E+02 -0.52291562132E+02 -0.22445802381E+03  0.23184155737E+03  0.00000000000E+00 0. -1.
        -12    1    3    3    0    0  0.34859222362E+02  0.50757352320E+01 -0.10446816912E+03  0.11024757064E+03  0.00000000000E+00 0.  1.
          5    1    4    4  501    0 -0.45564117687E+02  0.53357952958E+02  0.20205664645E+02  0.73136182893E+02  0.41800000000E+01 0.  1.
         -5    1    4    4    0  501  0.55303781968E+02  0.26682148436E+02  0.10338275091E+03  0.12031587979E+03  0.41800000000E+01 0.  1.
</event>
<event>
11    1  0.7577197E-009  0.1539569E+03  0.7561462E-02  0.1092903E+00
         22   -1    0    0    0    0  0.00000000000E+00  0.00000000000E+00  0.40193659438E+03  0.40193659438E+03  0.00000000000E+00 0. -1.
         22   -1    0    0    0    0 -0.00000000000E+00 -0.00000000000E+00 -0.61723766532E+03  0.61723766532E+03  0.00000000000E+00 0.  1.
        -24    2    1    2    0    0  0.36036789315E+02  0.85767381954E+02 -0.54142165374E+03  0.55509035067E+03  0.79581381496E+02 0.  0.
         25    2    1    2    0    0 -0.48499323321E+02 -0.35857867315E+02  0.16435294169E+02  0.13984036838E+03  0.12508892326E+03 0.  0.
         24    2    1    2    0    0  0.12462534007E+02 -0.49909514639E+02  0.30968528862E+03  0.32424354065E+03  0.81133354808E+02 0.  0.
        -13    1    5    5    0    0 -0.64236761184E+01 -0.19424035735E+02  0.10648276892E+02  0.23063880417E+02  0.00000000000E+00 0.  1.
         14    1    5    5    0    0  0.18886210125E+02 -0.30485478904E+02  0.29903701173E+03  0.30117966024E+03  0.00000000000E+00 0. -1.
         13    1    3    3    0    0  0.27270872483E+02 -0.20074120274E+01 -0.22320032354E+03  0.22486910552E+03  0.00000000000E+00 0. -1.
        -14    1    3    3    0    0  0.87659168321E+01  0.87774793982E+02 -0.31822133020E+03  0.33022124515E+03  0.00000000000E+00 0.  1.
          5    1    4    4  501    0 -0.29571127524E+02  0.36636143367E+02 -0.25676817741E+02  0.53790612128E+02  0.41800000000E+01 0. -1.
         -5    1    4    4    0  501 -0.18928195797E+02 -0.72494010682E+02  0.42112111910E+02  0.86049756248E+02  0.41800000000E+01 0. -1.
</event>
<event>
11    1  0.7577197E-009  0.1708901E+03  0.7561462E-02  0.1077260E+00
         22   -1    0    0    0    0  0.00000000000E+00  0.00000000000E+00  0.48546239399E+03  0.48546239399E+03  0.00000000000E+00 0.  1.
         22   -1    0    0    0    0 -0.00000000000E+00 -0.00000000000E+00 -0.11681020629E+04  0.11681020629E+04  0.00000000000E+00 0.  1.
         24    2    1    2    0    0  0.62956311173E+02  0.12864172545E+03 -0.82740152855E+03  0.84357583206E+03  0.80713718450E+02 0.  0.
         25    2    1    2    0    0 -0.40934733510E+02 -0.52404323207E+02 -0.31001727639E+03  0.34085329694E+03  0.12509353649E+03 0.  0.
        -24    2    1    2    0    0 -0.22021577663E+02 -0.76237402245E+02  0.45477913602E+03  0.46913532790E+03  0.83467370540E+02 0.  0.
        -11    1    3    3    0    0  0.69764071888E+02  0.60532992026E+02 -0.38589423634E+03  0.39679419161E+03  0.00000000000E+00 0.  1.
         12    1    3    3    0    0 -0.68077607146E+01  0.68108733426E+02 -0.44150729220E+03  0.44678164045E+03  0.00000000000E+00 0. -1.
         13    1    5    5    0    0 -0.12360321777E+02 -0.55449035983E+02  0.11193964931E+03  0.12553030803E+03  0.00000000000E+00 0. -1.
        -14    1    5    5    0    0 -0.96612558855E+01 -0.20788366263E+02  0.34283948671E+03  0.34360501987E+03  0.00000000000E+00 0.  1.
          5    1    4    4  501    0 -0.30417286705E+02 -0.11099555253E+02 -0.52207985163E+01  0.33062676759E+02  0.41800000000E+01 0. -1.
         -5    1    4    4    0  501 -0.10517446805E+02 -0.41304767953E+02 -0.30479647788E+03  0.30779062018E+03  0.41800000000E+01 0. -1.
</event>
<event>
11    1  0.7577197E-009  0.1421680E+03  0.7561462E-02  0.1105161E+00
         22   -1    0    0    0    0  0.00000000000E+00  0.00000000000E+00  0.70300622918E+02  0.70300622918E+02  0.00000000000E+00 0. -1.
         22   -1    0    0    0    0 -0.00000000000E+00 -0.00000000000E+00 -0.16958808588E+04  0.16958808588E+04  0.00000000000E+00 0.  1.
         24    2    1    2    0    0  0.58760178564E+02 -0.30728545066E+02 -0.10074584270E+04  0.10140865177E+04  0.94878770794E+02 0.  0.
         25    2    1    2    0    0 -0.52848729171E+02  0.49487430870E+02 -0.64774320490E+03  0.66367157903E+03  0.12508681520E+03 0.  0.
        -24    2    1    2    0    0 -0.59114493927E+01 -0.18758885805E+02  0.29621396015E+02  0.88423385001E+02  0.80959415034E+02 0.  0.
        -13    1    3    3    0    0  0.16921684771E+02 -0.29225342415E+02 -0.86360050799E+03  0.86426055183E+03  0.00000000000E+00 0.  1.
         14    1    3    3    0    0  0.41838493793E+02 -0.15032026510E+01 -0.14385791902E+03  0.14982596586E+03  0.00000000000E+00 0. -1.
         13    1    5    5    0    0  0.13449892709E+02 -0.10617981546E+02  0.53760820270E+02  0.56425764879E+02  0.00000000000E+00 0. -1.
        -14    1    5    5    0    0 -0.19361342102E+02 -0.81409042588E+01 -0.24139424255E+02  0.31997620122E+02  0.00000000000E+00 0.  1.
          5    1    4    4  501    0 -0.20910458837E+02 -0.35632561524E+02 -0.34653280088E+03  0.34901200726E+03  0.41800000000E+01 0.  1.
         -5    1    4    4    0  501 -0.31938270335E+02  0.85119992395E+02 -0.30121040402E+03  0.31465957177E+03  0.41800000000E+01 0.  1.
</event>
<event>
11    1  0.7577197E-009  0.1344653E+03  0.7561462E-02  0.1113901E+00
         22   -1    0    0    0    0  0.00000000000E+00  0.00000000000E+00  0.67673140217E+03  0.67673140217E+03  0.00000000000E+00 0.  1.
         22   -1    0    0    0    0 -0.00000000000E+00 -0.00000000000E+00 -0.17686191341E+03  0.17686191341E+03  0.00000000000E+00 0. -1.
         24    2    1    2    0    0 -0.46043173856E+02 -0.18088653831E+01 -0.98915997548E+02  0.13644074511E+03  0.81905167746E+02 0.  0.
         25    2    1    2    0    0 -0.20750241945E+01  0.21546819837E+02  0.17374980848E+02  0.12813250486E+03  0.12508987837E+03 0.  0.
        -24    2    1    2    0    0  0.48118198050E+02 -0.19737954454E+02  0.58141050546E+03  0.58902006562E+03  0.78749692127E+02 0.  0.
        -11    1    3    3    0    0  0.99003498929E+01  0.46109248235E+01  0.93689762802E+01  0.14389415286E+02  0.00000000000E+00 0.  1.
         12    1    3    3    0    0 -0.55943523749E+02 -0.64197902066E+01 -0.10828497383E+03  0.12205132983E+03  0.00000000000E+00 0. -1.
         11    1    5    5    0    0  0.49410935919E+02 -0.14148383231E+02  0.17070632795E+03  0.17827581928E+03  0.00000000000E+00 0. -1.
        -12    1    5    5    0    0 -0.12927378687E+01 -0.55895712229E+01  0.41070417751E+03  0.41074424634E+03  0.00000000000E+00 0.  1.
          5    1    4    4  501    0 -0.22031824675E+02 -0.19096745799E+02 -0.43263912584E+02  0.52338566380E+02  0.41800000000E+01 0.  1.
         -5    1    4    4    0  501  0.19956800480E+02  0.40643565636E+02  0.60638893432E+02  0.75793938476E+02  0.41800000000E+01 0.  1.
</event>
<event>
11    1  0.7577197E-009  0.2945077E+03  0.7561462E-02  0.1002543E+00
         22   -1    0    0    0    0  0.00000000000E+00  0.00000000000E+00  0.36717366567E+03  0.36717366567E+03  0.00000000000E+00 0. -1.
         22   -1    0    0    0    0 -0.00000000000E+00 -0.00000000000E+00 -0.25722188221E+04  0.25722188221E+04  0.00000000000E+00 0.  1.
        -24    2    1    2    0    0 -0.19896940246E+03 -0.17047303535E+03 -0.17573762277E+04  0.17786473924E+04  0.81027537824E+02 0.  0.
         25    2    1    2    0    0  0.61369604710E+02  0.34109357123E+03 -0.71578312368E+03  0.80504963487E+03  0.12509349199E+03 0.  0.
         24    2    1    2    0    0  0.13759979775E+03 -0.17062053589E+03  0.26811419494E+03  0.35569546052E+03  0.81172455277E+02 0.  0.
        -11    1    5    5    0    0  0.17985066217E+02  0.78516693866E-01  0.26500254369E+01  0.18179422612E+02  0.00000000000E+00 0.  1.
         12    1    5    5    0    0  0.11961473153E+03 -0.17069905258E+03  0.26546416951E+03  0.33751603791E+03  0.00000000000E+00 0. -1.
         11    1    3    3    0    0 -0.13072553878E+03 -0.58857270588E+02 -0.89961519934E+03  0.91096698714E+03  0.00000000000E+00 0. -1.
        -12    1    3    3    0    0 -0.68243863681E+02 -0.11161576476E+03 -0.85776102838E+03  0.86768040526E+03  0.00000000000E+00 0.  1.
          5    1    4    4  501    0  0.11946944358E+02  0.30926126997E+03 -0.60118745095E+03  0.67618716800E+03  0.41800000000E+01 0. -1.
         -5    1    4    4    0  501  0.49422660352E+02  0.31832301261E+02 -0.11459567273E+03  0.12886246687E+03  0.41800000000E+01 0. -1.
</event>
<event>
11    1  0.8513742E-009  0.1522817E+03  0.7561462E-02  0.1094570E+00
         22   -1    0    0    0    0  0.00000000000E+00  0.00000000000E+00  0.31858356425E+03  0.31858356425E+03  0.00000000000E+00 0. -1.
         22   -1    0    0    0    0 -0.00000000000E+00 -0.00000000000E+00 -0.10251171358E+04  0.10251171358E+04  0.00000000000E+00 0. -1.
         24    2    1    2    0    0 -0.60739027522E+02 -0.47700112372E+02 -0.79755245250E+03  0.80607300708E+03  0.87745359212E+02 0.  0.
         25    2    1    2    0    0  0.14056150350E+03  0.20348675230E+02 -0.16807415240E+03  0.25311623544E+03  0.12508918055E+03 0.  0.
        -24    2    1    2    0    0 -0.79822475976E+02  0.27351437142E+02  0.25909303334E+03  0.28451145754E+03  0.81840337008E+02 0.  0.
        -13    1    3    3    0    0 -0.79330293725E+02 -0.20527458055E+02 -0.49529623185E+03  0.50202891283E+03  0.00000000000E+00 0.  1.
         14    1    3    3    0    0  0.18591266203E+02 -0.27172654317E+02 -0.30225622065E+03  0.30404409425E+03  0.00000000000E+00 0. -1.
         13    1    5    5    0    0 -0.58488931862E+02  0.12483206762E+02  0.24985918658E+03  0.25691710476E+03  0.00000000000E+00 0. -1.
        -14    1    5    5    0    0 -0.21333544114E+02  0.14868230380E+02  0.92338467568E+01  0.27594352774E+02  0.00000000000E+00 0.  1.
          5    1    4    4  501    0  0.11633828246E+02  0.29278143783E+00 -0.10921962440E+03  0.10991738004E+03  0.41800000000E+01 0. -1.
         -5    1    4    4    0  501  0.12892767525E+03  0.20055893792E+02 -0.58854527995E+02  0.14319885540E+03  0.41800000000E+01 0. -1.
</event>
<event>
11    1  0.7577197E-009  0.1425106E+03  0.7561462E-02  0.1104787E+00
         22   -1    0    0    0    0  0.00000000000E+00  0.00000000000E+00  0.27137027498E+03  0.27137027498E+03  0.00000000000E+00 0. -1.
         22   -1    0    0    0    0 -0.00000000000E+00 -0.00000000000E+00 -0.18732500546E+03  0.18732500546E+03  0.00000000000E+00 0. -1.
         24    2    1    2    0    0  0.32595409562E+02  0.60577550410E+02 -0.64098446324E+02  0.12221032107E+03  0.78068248446E+02 0.  0.
         25    2    1    2    0    0 -0.88113681852E+02 -0.19818759523E+02  0.69654212807E+00  0.15428948122E+03  0.12509178504E+03 0.  0.
        -24    2    1    2    0    0  0.55518272290E+02 -0.40758790887E+02  0.14744717371E+03  0.18219547815E+03  0.81920483572E+02 0.  0.
        -11    1    3    3    0    0 -0.29409626771E+01  0.61927663418E+02 -0.19134504663E+02  0.64883079663E+02  0.00000000000E+00 0.  1.
         12    1    3    3    0    0  0.35536372240E+02 -0.13501130075E+01 -0.44963941661E+02  0.57327241402E+02  0.00000000000E+00 0. -1.
         11    1    5    5    0    0  0.66546281815E+02 -0.50569937693E+02  0.14481241615E+03  0.16720156128E+03  0.00000000000E+00 0. -1.
        -12    1    5    5    0    0 -0.11028009525E+02  0.98111468062E+01  0.26347575627E+01  0.14993916871E+02  0.00000000000E+00 0.  1.
          5    1    4    4  501    0 -0.12081094300E+02  0.49596001480E+02 -0.12670119741E+01  0.51232742672E+02  0.41800000000E+01 0. -1.
         -5    1    4    4    0  501 -0.76032587553E+02 -0.69414761004E+02  0.19635541021E+01  0.10305673855E+03  0.41800000000E+01 0. -1.
</event>
<event>
11    1  0.7577197E-009  0.1397984E+03  0.7561462E-02  0.1107784E+00
         22   -1    0    0    0    0  0.00000000000E+00  0.00000000000E+00  0.33275558224E+03  0.33275558224E+03  0.00000000000E+00 0.  1.
         22   -1    0    0    0    0 -0.00000000000E+00 -0.00000000000E+00 -0.42495104858E+03  0.42495104858E+03  0.00000000000E+00 0. -1.
         24    2    1    2    0    0  0.11447722548E+02 -0.25190337324E+02 -0.35991646889E+03  0.36968401114E+03  0.79754624130E+02 0.  0.
         25    2    1    2    0    0  0.26837907796E+02 -0.30945444638E+02  0.42419656776E+02  0.13829188159E+03  0.12508926170E+03 0.  0.
        -24    2    1    2    0    0 -0.38285630344E+02  0.56135781963E+02  0.22530134577E+03  0.24973073809E+03  0.83592641028E+02 0.  0.
        -11    1    3    3    0    0 -0.82816209737E+01  0.26512670764E+02 -0.91533049968E+02  0.95654619301E+02  0.00000000000E+00 0.  1.
         12    1    3    3    0    0  0.19729343522E+02 -0.51703008089E+02 -0.26838341892E+03  0.27402939184E+03  0.00000000000E+00 0. -1.
         11    1    5    5    0    0 -0.53726127399E+02  0.46164520287E+01  0.11052420815E+03  0.12297727018E+03  0.00000000000E+00 0. -1.
        -12    1    5    5    0    0  0.15440497055E+02  0.51519329934E+02  0.11477713762E+03  0.12675346791E+03  0.00000000000E+00 0.  1.
          5    1    4    4  501    0 -0.38425969310E+02 -0.19599207677E+02 -0.19497067131E+02  0.47521490778E+02  0.41800000000E+01 0. -1.
         -5    1    4    4    0  501  0.65263877106E+02 -0.11346236961E+02  0.61916723907E+02  0.90770390808E+02  0.41800000000E+01 0. -1.
</event>
<event>
11    1  0.7577197E-009  0.2169031E+03  0.7561462E-02  0.1043175E+00
         22   -1    0    0    0    0  0.00000000000E+00  0.00000000000E+00  0.16446290710E+03  0.16446290710E+03  0.00000000000E+00 0. -1.
         22   -1    0    0    0    0 -0.00000000000E+00 -0.00000000000E+00 -0.90802509785E+03  0.90802509785E+03  0.00000000000E+00 0. -1.
         24    2    1    2    0    0 -0.54687710009E+01  0.15037483573E+02 -0.55003352102E+03  0.55609275294E+03  0.80288493954E+02 0.  0.
         25    2    1    2    0    0 -0.16316087735E+03  0.46284104613E+02 -0.23697668416E+03  0.31712706247E+03  0.12509170506E+03 0.  0.
        -24    2    1    2    0    0  0.16862964836E+03 -0.61321588186E+02  0.43448014429E+02  0.19926818954E+03  0.74991905701E+02 0.  0.
        -11    1    3    3    0    0  0.37476508221E+02  0.77896615232E+01 -0.26568282708E+03  0.26842602724E+03  0.00000000000E+00 0.  1.
         12    1    3    3    0    0 -0.42945279222E+02  0.72478220500E+01 -0.28435069394E+03  0.28766672571E+03  0.00000000000E+00 0. -1.
         11    1    5    5    0    0  0.16457742843E+03 -0.36127610833E+02  0.33015509199E+02  0.17170019819E+03  0.00000000000E+00 0. -1.
        -12    1    5    5    0    0  0.40522199286E+01 -0.25193977353E+02  0.10432505230E+02  0.27567991342E+02  0.00000000000E+00 0.  1.
          5    1    4    4  501    0 -0.15488467525E+02 -0.17838014445E+02 -0.10847319481E+03  0.11109452632E+03  0.41800000000E+01 0.  1.
         -5    1    4    4    0  501 -0.14767240983E+03  0.64122119058E+02 -0.12850348935E+03  0.20603253615E+03  0.41800000000E+01 0.  1.
</event>
<event>
11    1  0.7577197E-009  0.2252186E+03  0.7561462E-02  0.1037997E+00
         22   -1    0    0    0    0  0.00000000000E+00  0.00000000000E+00  0.12329725441E+04  0.12329725441E+04  0.00000000000E+00 0.  1.
         22   -1    0    0    0    0 -0.00000000000E+00 -0.00000000000E+00 -0.68760069326E+03  0.68760069326E+03  0.00000000000E+00 0.  1.
        -24    2    1    2    0    0 -0.86278258631E+02  0.16832100528E+03 -0.49079619712E+03  0.53213600837E+03  0.80696502863E+02 0.  0.
         25    2    1    2    0    0  0.12345662519E+03 -0.13844828663E+03 -0.10240659828E+03  0.24605727098E+03  0.12509037875E+03 0.  0.
         24    2    1    2    0    0 -0.37178366562E+02 -0.29872718651E+02  0.11385746462E+04  0.11423799580E+04  0.80032075820E+02 0.  0.
        -11    1    5    5    0    0 -0.12113910349E+02 -0.51262504184E+02  0.90005798782E+03  0.90159801053E+03  0.00000000000E+00 0.  1.
         12    1    5    5    0    0 -0.25064456213E+02  0.21389785533E+02  0.23851665839E+03  0.24078194745E+03  0.00000000000E+00 0. -1.
         11    1    3    3    0    0 -0.83076450879E+02  0.79526627805E+02 -0.24166146392E+03  0.26763117226E+03  0.00000000000E+00 0. -1.
        -12    1    3    3    0    0 -0.32018077521E+01  0.88794377473E+02 -0.24913473319E+03  0.26450483611E+03  0.00000000000E+00 0.  1.
          5    1    4    4  501    0 -0.14660989384E+02 -0.65160925281E+02 -0.37506403408E+02  0.76714362995E+02  0.41800000000E+01 0. -1.
         -5    1    4    4    0  501  0.13811761458E+03 -0.73287361346E+02 -0.64900194873E+02  0.16934290798E+03  0.41800000000E+01 0. -1.
</event>
<event>
11    1  0.7577197E-009  0.1518437E+03  0.7561462E-02  0.1095010E+00
         22   -1    0    0    0    0  0.00000000000E+00  0.00000000000E+00  0.42045692730E+03  0.42045692730E+03  0.00000000000E+00 0.  1.
         22   -1    0    0    0    0 -0.00000000000E+00 -0.00000000000E+00 -0.39719588619E+03  0.39719588619E+03  0.00000000000E+00 0.  1.
         24    2    1    2    0    0 -0.71488820644E+02  0.24275425225E+02 -0.30984011131E+03  0.32881355499E+03  0.80109372888E+02 0.  0.
         25    2    1    2    0    0  0.36945873786E+02 -0.10338045131E+03  0.36523238517E+02  0.17039357164E+03  0.12508999560E+03 0.  0.
        -24    2    1    2    0    0  0.34542946857E+02  0.79105026088E+02  0.29657791390E+03  0.31844568686E+03  0.77449184223E+02 0.  0.
        -11    1    3    3    0    0 -0.40597357873E+02  0.27965009616E+02 -0.62874687886E+02  0.79896267784E+02  0.00000000000E+00 0.  1.
         12    1    3    3    0    0 -0.30891462771E+02 -0.36895843913E+01 -0.24696542342E+03  0.24891728721E+03  0.00000000000E+00 0. -1.
         11    1    5    5    0    0 -0.91418887341E+01  0.16030205425E+02  0.84851074558E+01  0.20311047834E+02  0.00000000000E+00 0. -1.
        -12    1    5    5    0    0  0.43684835591E+02  0.63074820664E+02  0.28809280645E+03  0.29813463903E+03  0.00000000000E+00 0.  1.
          5    1    4    4  501    0  0.48528732591E+02 -0.11663060226E+03  0.60688545454E+02  0.14020808543E+03  0.41800000000E+01 0.  1.
         -5    1    4    4    0  501 -0.11582858805E+02  0.13250150946E+02 -0.24165306937E+02  0.30185486207E+02  0.41800000000E+01 0.  1.
</event>
<event>
11    1  0.7577197E-009  0.1452941E+03  0.7561462E-02  0.1101787E+00
         22   -1    0    0    0    0  0.00000000000E+00  0.00000000000E+00  0.13816713868E+03  0.13816713868E+03  0.00000000000E+00 0. -1.
         22   -1    0    0    0    0 -0.00000000000E+00 -0.00000000000E+00 -0.93902805410E+03  0.93902805410E+03  0.00000000000E+00 0.  1.
         24    2    1    2    0    0 -0.18544868294E+02  0.79156581477E+02 -0.52600955702E+03  0.53899765197E+03  0.84986694415E+02 0.  0.
         25    2    1    2    0    0  0.44437020206E+02 -0.48083520301E+02 -0.37653747790E+03  0.40213805193E+03  0.12509143396E+03 0.  0.
        -24    2    1    2    0    0 -0.25892151913E+02 -0.31073061176E+02  0.10168611951E+03  0.13605948888E+03  0.80846638471E+02 0.  0.
        -11    1    3    3    0    0  0.19302475540E+02  0.53476411259E+01 -0.24981385871E+03  0.25061553589E+03  0.00000000000E+00 0.  1.
         12    1    3    3    0    0 -0.37847343833E+02  0.73808940351E+02 -0.27619569831E+03  0.28838211608E+03  0.00000000000E+00 0. -1.
         13    1    5    5    0    0 -0.42104262019E+02  0.10417271398E+01  0.88017770366E+02  0.97575519347E+02  0.00000000000E+00 0. -1.
        -14    1    5    5    0    0  0.16212110106E+02 -0.32114788315E+02  0.13668349140E+02  0.38483969531E+02  0.00000000000E+00 0.  1.
          5    1    4    4  501    0  0.82387619523E+02 -0.91959416524E+01 -0.27000323795E+03  0.28247390339E+03  0.41800000000E+01 0. -1.
         -5    1    4    4    0  501 -0.37950599317E+02 -0.38887578649E+02 -0.10653423996E+03  0.11966414854E+03  0.41800000000E+01 0. -1.
</event>
<event>
11    1  0.7577197E-009  0.2524406E+03  0.7561462E-02  0.1022607E+00
         22   -1    0    0    0    0  0.00000000000E+00  0.00000000000E+00  0.19443408528E+04  0.19443408528E+04  0.00000000000E+00 0. -1.
         22   -1    0    0    0    0 -0.00000000000E+00 -0.00000000000E+00 -0.13628206971E+04  0.13628206971E+04  0.00000000000E+00 0. -1.
        -24    2    1    2    0    0 -0.13930021746E+03  0.96097457698E+01 -0.12691396984E+04  0.12792528815E+04  0.79217819312E+02 0.  0.
         25    2    1    2    0    0  0.25786450516E+03 -0.18434984891E+03  0.27992982536E+03  0.44101414898E+03  0.12511515761E+03 0.  0.
         24    2    1    2    0    0 -0.11856428770E+03  0.17474010314E+03  0.15707300288E+04  0.15868945194E+04  0.80310636640E+02 0.  0.
        -13    1    5    5    0    0 -0.73887256421E+01  0.77106580403E+02  0.59111429167E+03  0.59616786547E+03  0.00000000000E+00 0.  1.
         14    1    5    5    0    0 -0.11117556206E+03  0.97633522738E+02  0.97961573713E+03  0.99072665392E+03  0.00000000000E+00 0. -1.
         13    1    3    3    0    0 -0.10224548549E+03 -0.29655222847E+02 -0.82165627737E+03  0.82852435672E+03  0.00000000000E+00 0. -1.
        -14    1    3    3    0    0 -0.37054731964E+02  0.39264968617E+02 -0.44748342104E+03  0.45072852475E+03  0.00000000000E+00 0.  1.
          5    1    4    4  501    0  0.30918239445E+02 -0.33066994364E+01 -0.77172427716E+01  0.32309441770E+02  0.41800000000E+01 0. -1.
         -5    1    4    4    0  501  0.22694626571E+03 -0.18104314947E+03  0.28764706813E+03  0.40870470721E+03  0.41800000000E+01 0. -1.
</event>
<event>
11    1  0.7577197E-009  0.2828130E+03  0.7561462E-02  0.1007739E+00
         22   -1    0    0    0    0  0.00000000000E+00  0.00000000000E+00  0.18165859421E+04  0.18165859421E+04  0.00000000000E+00 0. -1.
         22   -1    0    0    0    0 -0.00000000000E+00 -0.00000000000E+00 -0.15758980640E+04  0.15758980640E+04  0.00000000000E+00 0.  1.
         24    2    1    2    0    0  0.23334160562E+03 -0.92072348864E+02 -0.13560299625E+04  0.13813133498E+04  0.79269720643E+02 0.  0.
         25    2    1    2    0    0 -0.25780865245E+03  0.10587669671E+03 -0.92964245820E+02  0.31931876834E+03  0.12508776369E+03 0.  0.
        -24    2    1    2    0    0  0.24467046832E+02 -0.13804347843E+02  0.16896820864E+04  0.16918518880E+04  0.80920091305E+02 0.  0.
        -11    1    3    3    0    0  0.19453368497E+03 -0.43514699512E+02 -0.96505317554E+03  0.98542605774E+03  0.00000000000E+00 0.  1.
         12    1    3    3    0    0  0.38807920654E+02 -0.48557649352E+02 -0.39097678700E+03  0.39588729202E+03  0.00000000000E+00 0. -1.
         13    1    5    5    0    0  0.15246025158E+02  0.42546146747E+01  0.15924190412E+04  0.15924977067E+04  0.00000000000E+00 0. -1.
        -14    1    5    5    0    0  0.92210216737E+01 -0.18058962518E+02  0.97263045208E+02  0.99354181246E+02  0.00000000000E+00 0.  1.
          5    1    4    4  501    0 -0.19422984487E+03  0.59525150190E+02 -0.78611631523E+01  0.20334145281E+03  0.41800000000E+01 0.  1.
         -5    1    4    4    0  501 -0.63578807585E+02  0.46351546517E+02 -0.85103082667E+02  0.11597731553E+03  0.41800000000E+01 0.  1.
</event>
<event>
11    1  0.7577197E-009  0.1283682E+03  0.7561462E-02  0.1121290E+00
         22   -1    0    0    0    0  0.00000000000E+00  0.00000000000E+00  0.34269250340E+04  0.34269250340E+04  0.00000000000E+00 0.  1.
         22   -1    0    0    0    0 -0.00000000000E+00 -0.00000000000E+00 -0.85157695262E+02  0.85157695262E+02  0.00000000000E+00 0.  1.
         24    2    1    2    0    0  0.27645817370E+02  0.55626850454E+01 -0.53074652595E+02  0.10309779885E+03  0.83767551577E+02 0.  0.
         25    2    1    2    0    0 -0.48089289153E+02  0.46966178936E+01  0.69262292836E+03  0.70548464789E+03  0.12508968608E+03 0.  0.
        -24    2    1    2    0    0  0.20443471783E+02 -0.10259302939E+02  0.27022190630E+04  0.27035002825E+04  0.80017026136E+02 0.  0.
        -13    1    3    3    0    0 -0.31911543371E+01  0.10514612203E+02 -0.67717739399E+02  0.68603445723E+02  0.00000000000E+00 0.  1.
         14    1    3    3    0    0  0.30836971707E+02 -0.49519271572E+01  0.14643086804E+02  0.34494353129E+02  0.00000000000E+00 0. -1.
         11    1    5    5    0    0 -0.21183674362E+02 -0.56682972632E+01  0.26028298231E+03  0.26120510817E+03  0.00000000000E+00 0. -1.
        -12    1    5    5    0    0  0.41627146145E+02 -0.45910056758E+01  0.24419360807E+04  0.24422951744E+04  0.00000000000E+00 0.  1.
          5    1    4    4  501    0 -0.79553665612E+02 -0.65259951561E+01  0.62346214179E+03  0.62856494411E+03  0.41800000000E+01 0. -1.
         -5    1    4    4    0  501  0.31464376459E+02  0.11222613050E+02  0.69160786578E+02  0.76919703780E+02  0.41800000000E+01 0. -1.
</event>
<event>
11    1  0.7577197E-009  0.1470678E+03  0.7561462E-02  0.1099913E+00
         22   -1    0    0    0    0  0.00000000000E+00  0.00000000000E+00  0.14971845464E+04  0.14971845464E+04  0.00000000000E+00 0. -1.
         22   -1    0    0    0    0 -0.00000000000E+00 -0.00000000000E+00 -0.96548843493E+03  0.96548843493E+03  0.00000000000E+00 0.  1.
         24    2    1    2    0    0  0.84314416643E+01 -0.31688096062E+02 -0.90362187435E+03  0.90775571769E+03  0.80079501453E+02 0.  0.
         25    2    1    2    0    0  0.68860067582E+02  0.37987128323E+02  0.37285531474E+02  0.15238987012E+03  0.12509089028E+03 0.  0.
        -24    2    1    2    0    0 -0.77291509246E+02 -0.62990322607E+01  0.13980324543E+04  0.14025273935E+04  0.81084468150E+02 0.  0.
        -13    1    3    3    0    0 -0.75108746543E+01 -0.56477399157E+02 -0.61434845367E+03  0.61698471001E+03  0.00000000000E+00 0.  1.
         14    1    3    3    0    0  0.15942316319E+02  0.24789303095E+02 -0.28927342068E+03  0.29077100769E+03  0.00000000000E+00 0. -1.
         13    1    5    5    0    0 -0.81114631115E+02  0.14178152483E+02  0.82101979194E+03  0.82513883810E+03  0.00000000000E+00 0. -1.
        -14    1    5    5    0    0  0.38231218689E+01 -0.20477184744E+02  0.57701266238E+03  0.57738855539E+03  0.00000000000E+00 0.  1.
          5    1    4    4  501    0  0.83142678668E+02  0.72291258570E+02  0.25272707451E+02  0.11311460217E+03  0.41800000000E+01 0. -1.
         -5    1    4    4    0  501 -0.14282611087E+02 -0.34304130247E+02  0.12012824023E+02  0.39275267949E+02  0.41800000000E+01 0. -1.
</event>
<event>
11    1  0.7577197E-009  0.1283947E+03  0.7561462E-02  0.1121257E+00
         22   -1    0    0    0    0  0.00000000000E+00  0.00000000000E+00  0.10070102284E+03  0.10070102284E+03  0.00000000000E+00 0.  1.
         22   -1    0    0    0    0 -0.00000000000E+00 -0.00000000000E+00 -0.45065275996E+03  0.45065275996E+03  0.00000000000E+00 0. -1.
        -24    2    1    2    0    0  0.42157334045E+00  0.29326302421E+02 -0.32195059701E+03  0.33304811127E+03  0.80054030305E+02 0.  0.
         25    2    1    2    0    0  0.64269727630E+01 -0.26402824582E+02 -0.47356285548E+02  0.13647329740E+03  0.12507568907E+03 0.  0.
         24    2    1    2    0    0 -0.68485461034E+01 -0.29234778391E+01  0.19355145432E+02  0.81832374145E+02  0.79161016271E+02 0.  0.
        -13    1    5    5    0    0 -0.25597525239E+02  0.18484208807E+02 -0.16844868932E+02  0.35786154906E+02  0.00000000000E+00 0.  1.
         14    1    5    5    0    0  0.18748979136E+02 -0.21407686646E+02  0.36200014364E+02  0.46046219239E+02  0.00000000000E+00 0. -1.
         13    1    3    3    0    0 -0.18204820304E+02  0.16340815314E+02 -0.30149782995E+03  0.30248864308E+03  0.00000000000E+00 0. -1.
        -14    1    3    3    0    0  0.18626393644E+02  0.12985487107E+02 -0.20452767053E+02  0.30559468185E+02  0.00000000000E+00 0.  1.
          5    1    4    4  501    0 -0.56276207098E+02  0.21177056628E+01 -0.34789289180E+02  0.66326941768E+02  0.41800000000E+01 0.  1.
         -5    1    4    4    0  501  0.62703179861E+02 -0.28520530245E+02 -0.12566996368E+02  0.70146355628E+02  0.41800000000E+01 0.  1.
</event>
<event>
11    1  0.7577197E-009  0.1957655E+03  0.7561462E-02  0.1057559E+00
         22   -1    0    0    0    0  0.00000000000E+00  0.00000000000E+00  0.33557095820E+04  0.33557095820E+04  0.00000000000E+00 0.  1.
         22   -1    0    0    0    0 -0.00000000000E+00 -0.00000000000E+00 -0.15948040632E+04  0.15948040632E+04  0.00000000000E+00 0.  1.
         24    2    1    2    0    0  0.13811446510E+03 -0.53275722832E+02 -0.14534207863E+04  0.14631598128E+04  0.80565176089E+02 0.  0.
         25    2    1    2    0    0 -0.17660830811E+03  0.13277921063E+03 -0.16393004822E+02  0.25443433913E+03  0.12508912443E+03 0.  0.
        -24    2    1    2    0    0  0.38493843007E+02 -0.79503487798E+02  0.32307193099E+04  0.32329194933E+04  0.80116231392E+02 0.  0.
        -13    1    3    3    0    0  0.47303212668E+02 -0.61147343273E+02 -0.68902872026E+03  0.69335212473E+03  0.00000000000E+00 0.  1.
         14    1    3    3    0    0  0.90811252434E+02  0.78716204406E+01 -0.76439206604E+03  0.76980768807E+03  0.00000000000E+00 0. -1.
         13    1    5    5    0    0 -0.15722709377E+02 -0.49496890319E+02  0.19627000377E+04  0.19633870183E+04  0.00000000000E+00 0. -1.
        -14    1    5    5    0    0  0.54216552384E+02 -0.30006597479E+02  0.12680192722E+04  0.12695324750E+04  0.00000000000E+00 0.  1.
          5    1    4    4  501    0 -0.60414843504E+02 -0.17637504926E+02  0.41570689331E+01  0.63212249745E+02  0.41800000000E+01 0. -1.
         -5    1    4    4    0  501 -0.11619346460E+03  0.15041671556E+03 -0.20550073756E+02  0.19122208938E+03  0.41800000000E+01 0. -1.
</event>
<event>
11    1  0.7577197E-009  0.2917107E+03  0.7561462E-02  0.1003762E+00
         22   -1    0    0    0    0  0.00000000000E+00  0.00000000000E+00  0.26294701738E+03  0.26294701738E+03  0.00000000000E+00 0. -1.
         22   -1    0    0    0    0 -0.00000000000E+00 -0.00000000000E+00 -0.13247444735E+04  0.13247444735E+04  0.00000000000E+00 0.  1.
         24    2    1    2    0    0  0.13164576056E+03  0.61867422111E+01 -0.97381862096E+03  0.98564812615E+03  0.76227554108E+02 0.  0.
         25    2    1    2    0    0 -0.34507124606E+03  0.61070419702E+01 -0.56916472544E+02  0.37148302945E+03  0.12509474612E+03 0.  0.
        -24    2    1    2    0    0  0.21342548549E+03 -0.12293784181E+02 -0.31062362618E+02  0.23056033528E+03  0.80570607834E+02 0.  0.
        -11    1    3    3    0    0  0.58452474268E+02 -0.35131064194E+02 -0.43774445120E+03  0.44302492929E+03  0.00000000000E+00 0.  1.
         12    1    3    3    0    0  0.73193286293E+02  0.41317806405E+02 -0.53607416977E+03  0.54262319686E+03  0.00000000000E+00 0. -1.
         13    1    5    5    0    0  0.18590475181E+03 -0.39116997304E+02 -0.27682326979E+02  0.19198184146E+03  0.00000000000E+00 0. -1.
        -14    1    5    5    0    0  0.27520733685E+02  0.26823213123E+02 -0.33800356392E+01  0.38578493824E+02  0.00000000000E+00 0.  1.
          5    1    4    4  501    0 -0.28518515174E+03  0.16159900759E+02  0.35375535307E+01  0.28569511696E+03  0.41800000000E+01 0. -1.
         -5    1    4    4    0  501 -0.59886094312E+02 -0.10052858789E+02 -0.60454026074E+02  0.85787912496E+02  0.41800000000E+01 0. -1.
</event>
<event>
11    1  0.7577197E-009  0.1533479E+03  0.7561462E-02  0.1093506E+00
         22   -1    0    0    0    0  0.00000000000E+00  0.00000000000E+00  0.21707167996E+04  0.21707167996E+04  0.00000000000E+00 0. -1.
         22   -1    0    0    0    0 -0.00000000000E+00 -0.00000000000E+00 -0.98828616084E+02  0.98828616084E+02  0.00000000000E+00 0. -1.
        -24    2    1    2    0    0 -0.62908675706E+02 -0.58802830323E+02 -0.15944947708E+02  0.11737901334E+03  0.78155723292E+02 0.  0.
         25    2    1    2    0    0  0.34816199686E+02  0.10524362031E+03  0.19483440881E+03  0.25670315907E+03  0.12509067768E+03 0.  0.
         24    2    1    2    0    0  0.28092476020E+02 -0.46440789990E+02  0.18929987224E+04  0.18954632433E+04  0.79942537791E+02 0.  0.
        -13    1    5    5    0    0 -0.23347798993E+02  0.29938687175E+01  0.33089498811E+03  0.33173118052E+03  0.00000000000E+00 0.  1.
         14    1    5    5    0    0  0.51440275012E+02 -0.49434658708E+02  0.15621037343E+04  0.15637320628E+04  0.00000000000E+00 0. -1.
         13    1    3    3    0    0 -0.45595739783E+02 -0.17139540057E+02 -0.42826835482E+02  0.64860412865E+02  0.00000000000E+00 0. -1.
        -14    1    3    3    0    0 -0.17312935923E+02 -0.41663290266E+02  0.26881887773E+02  0.52518600480E+02  0.00000000000E+00 0.  1.
          5    1    4    4  501    0  0.71822686908E+02  0.78479567543E+02  0.80377226830E+02  0.13339981960E+03  0.41800000000E+01 0. -1.
         -5    1    4    4    0  501 -0.37006487222E+02  0.26764052771E+02  0.11445718198E+03  0.12330333947E+03  0.41800000000E+01 0. -1.
</event>
<event>
11    1  0.7577197E-009  0.3943833E+03  0.7561462E-02  0.9666477E-01
         22   -1    0    0    0    0  0.00000000000E+00  0.00000000000E+00  0.20581027074E+03  0.20581027074E+03  0.00000000000E+00 0. -1.
         22   -1    0    0    0    0 -0.00000000000E+00 -0.00000000000E+00 -0.10307230030E+04  0.10307230030E+04  0.00000000000E+00 0.  1.
        -24    2    1    2    0    0 -0.36666500148E+03 -0.59191914020E+02 -0.55492759440E+03  0.67249320218E+03  0.79721803552E+02 0.  0.
         25    2    1    2    0    0  0.36607451687E+03  0.10481525680E+03 -0.24239992929E+03  0.46840365864E+03  0.12508985470E+03 0.  0.
         24    2    1    2    0    0  0.59048461193E+00 -0.45623342783E+02 -0.27585208544E+02  0.95636412892E+02  0.79394846569E+02 0.  0.
        -13    1    5    5    0    0  0.21242399046E+02  0.98044838861E+01 -0.27995939617E+02  0.36484792127E+02  0.00000000000E+00 0.  1.
         14    1    5    5    0    0 -0.20651914434E+02 -0.55427826669E+02  0.41073107343E+00  0.59151620765E+02  0.00000000000E+00 0. -1.
         11    1    3    3    0    0 -0.19327502002E+03  0.30104463551E+01 -0.24662165328E+03  0.31334730893E+03  0.00000000000E+00 0. -1.
        -12    1    3    3    0    0 -0.17338998146E+03 -0.62202360375E+02 -0.30830594112E+03  0.35914589325E+03  0.00000000000E+00 0.  1.
          5    1    4    4  501    0  0.19660450487E+03  0.80598777231E+02 -0.65955531811E+02  0.22252437800E+03  0.41800000000E+01 0. -1.
         -5    1    4    4    0  501  0.16947001200E+03  0.24216479573E+02 -0.17644439747E+03  0.24587928065E+03  0.41800000000E+01 0. -1.
</event>
<event>
11    1  0.7577197E-009  0.1541539E+03  0.7561462E-02  0.1092708E+00
         22   -1    0    0    0    0  0.00000000000E+00  0.00000000000E+00  0.21769865803E+03  0.21769865803E+03  0.00000000000E+00 0. -1.
         22   -1    0    0    0    0 -0.00000000000E+00 -0.00000000000E+00 -0.71586939092E+03  0.71586939092E+03  0.00000000000E+00 0.  1.
         24    2    1    2    0    0  0.27537635092E+02  0.47979580015E+02 -0.49195080433E+03  0.50154797266E+03  0.80463740628E+02 0.  0.
         25    2    1    2    0    0 -0.10285372423E+03  0.17699305763E+01 -0.16591805989E+03  0.23185863180E+03  0.12509037254E+03 0.  0.
        -24    2    1    2    0    0  0.75316089134E+02 -0.49749510591E+02  0.15969813133E+03  0.20016144449E+03  0.80084852652E+02 0.  0.
        -13    1    3    3    0    0  0.21043434386E+02  0.68402296177E+02 -0.43187029736E+03  0.43775981313E+03  0.00000000000E+00 0.  1.
         14    1    3    3    0    0  0.64942007060E+01 -0.20422716163E+02 -0.60080506970E+02  0.63788159529E+02  0.00000000000E+00 0. -1.
         13    1    5    5    0    0  0.49219234772E+02 -0.14132636303E+02  0.14475715816E+03  0.15354771024E+03  0.00000000000E+00 0. -1.
        -14    1    5    5    0    0  0.26096854363E+02 -0.35616874288E+02  0.14940973165E+02  0.46613734251E+02  0.00000000000E+00 0.  1.
          5    1    4    4  501    0 -0.90388878495E+01  0.45882881767E+02 -0.16125419633E+02  0.49643145459E+02  0.41800000000E+01 0.  1.
         -5    1    4    4    0  501 -0.93814836377E+02 -0.44112951190E+02 -0.14979264026E+03  0.18221548634E+03  0.41800000000E+01 0.  1.
</event>
<event>
11    1  0.7577197E-009  0.2000012E+03  0.7561462E-02  0.1054523E+00
         22   -1    0    0    0    0  0.00000000000E+00  0.00000000000E+00  0.42608712193E+03  0.42608712193E+03  0.00000000000E+00 0.  1.
         22   -1    0    0    0    0 -0.00000000000E+00 -0.00000000000E+00 -0.12309246103E+04  0.12309246103E+04  0.00000000000E+00 0.  1.
        -24    2    1    2    0    0  0.14414382321E+02 -0.66289852204E+02 -0.10986252067E+04  0.11037058166E+04  0.81160741709E+02 0.  0.
         25    2    1    2    0    0 -0.21940797385E+02  0.20962181737E+03  0.36831888681E+02  0.24784227080E+03  0.12508596350E+03 0.  0.
         24    2    1    2    0    0  0.75264150644E+01 -0.14333196516E+03  0.25695582964E+03  0.30546364479E+03  0.81737633564E+02 0.  0.
        -11    1    5    5    0    0 -0.29242842788E+02 -0.17503512027E+02  0.53150632568E+02  0.63138787840E+02  0.00000000000E+00 0.  1.
         12    1    5    5    0    0  0.36769257852E+02 -0.12582845314E+03  0.20380519707E+03  0.24232485695E+03  0.00000000000E+00 0. -1.
         13    1    3    3    0    0 -0.33141674308E+02 -0.24963696625E+02 -0.35502903223E+03  0.35744533911E+03  0.00000000000E+00 0. -1.
        -14    1    3    3    0    0  0.47556056629E+02 -0.41326155579E+02 -0.74359617445E+03  0.74626047753E+03  0.00000000000E+00 0.  1.
          5    1    4    4  501    0 -0.59416061515E+02  0.14160748339E+03  0.62639808207E+02  0.16590408581E+03  0.41800000000E+01 0.  1.
         -5    1    4    4    0  501  0.37475264130E+02  0.68014333982E+02 -0.25807919526E+02  0.81938184987E+02  0.41800000000E+01 0.  1.
</event>
<event>
11    1  0.7577197E-009  0.1410617E+03  0.7561462E-02  0.1106379E+00
         22   -1    0    0    0    0  0.00000000000E+00  0.00000000000E+00  0.12922927583E+04  0.12922927583E+04  0.00000000000E+00 0.  1.
         22   -1    0    0    0    0 -0.00000000000E+00 -0.00000000000E+00 -0.18325660294E+03  0.18325660294E+03  0.00000000000E+00 0.  1.
        -24    2    1    2    0    0  0.28351168555E+02 -0.21249666485E+02 -0.14996541185E+03  0.17354617011E+03  0.79833021521E+02 0.  0.
         25    2    1    2    0    0 -0.69936114809E+01 -0.43932271236E+02  0.21374513753E+03  0.25162627327E+03  0.12509933062E+03 0.  0.
         24    2    1    2    0    0 -0.21357557074E+02  0.65181937721E+02  0.10452564297E+04  0.10503769179E+04  0.77626255593E+02 0.  0.
        -11    1    5    5    0    0  0.70506073758E+01  0.66302560833E+02  0.89322031261E+03  0.89570545800E+03  0.00000000000E+00 0.  1.
         12    1    5    5    0    0 -0.28408164450E+02 -0.11206231117E+01  0.15203611706E+03  0.15467145985E+03  0.00000000000E+00 0. -1.
         13    1    3    3    0    0  0.27399423688E+02 -0.46250036788E+02 -0.61843075636E+02  0.81941200415E+02  0.00000000000E+00 0. -1.
        -14    1    3    3    0    0  0.95174486745E+00  0.25000370303E+02 -0.88122336210E+02  0.91604969695E+02  0.00000000000E+00 0.  1.
          5    1    4    4  501    0  0.56729382226E+02 -0.86209228022E+01  0.11765625501E+03  0.13096949973E+03  0.41800000000E+01 0. -1.
         -5    1    4    4    0  501 -0.63722993707E+02 -0.35311348434E+02  0.96088882526E+02  0.12065677354E+03  0.41800000000E+01 0. -1.
</event>
<event>
11    1  0.7577197E-009  0.1326384E+03  0.7561462E-02  0.1116069E+00
         22   -1    0    0    0    0  0.00000000000E+00  0.00000000000E+00  0.57824174572E+03  0.57824174572E+03  0.00000000000E+00 0.  1.
         22   -1    0    0    0    0 -0.00000000000E+00 -0.00000000000E+00 -0.54160053955E+03  0.54160053955E+03  0.00000000000E+00 0. -1.
         24    2    1    2    0    0 -0.12670084382E+02 -0.41421196591E+02 -0.50064636865E+03  0.50895895850E+03  0.80722911425E+02 0.  0.
         25    2    1    2    0    0  0.38400077403E+02  0.68298448419E+02  0.13999460533E+03  0.20343459642E+03  0.12509157245E+03 0.  0.
        -24    2    1    2    0    0 -0.25729993021E+02 -0.26877251828E+02  0.39729296949E+03  0.40744873035E+03  0.82391413676E+02 0.  0.
        -13    1    3    3    0    0  0.28888228072E+02  0.44865898623E+01 -0.18500916596E+03  0.18730470016E+03  0.00000000000E+00 0.  1.
         14    1    3    3    0    0 -0.41558312454E+02 -0.45907786453E+02 -0.31563720269E+03  0.32165425835E+03  0.00000000000E+00 0. -1.
         11    1    5    5    0    0 -0.75392621008E+01  0.29703952553E+02  0.11927950669E+03  0.12315342458E+03  0.00000000000E+00 0. -1.
        -12    1    5    5    0    0 -0.18190730920E+02 -0.56581204382E+02  0.27801346281E+03  0.28429530577E+03  0.00000000000E+00 0.  1.
          5    1    4    4  501    0  0.39209037955E+02  0.30912937910E+01  0.13176403322E+03  0.13757229955E+03  0.41800000000E+01 0.  1.
         -5    1    4    4    0  501 -0.80896055262E+00  0.65207154628E+02  0.82305721157E+01  0.65862296872E+02  0.41800000000E+01 0.  1.
</event>
<event>
11    1  0.7577197E-009  0.1355236E+03  0.7561462E-02  0.1112663E+00
         22   -1    0    0    0    0  0.00000000000E+00  0.00000000000E+00  0.16844308562E+04  0.16844308562E+04  0.00000000000E+00 0.  1.
         22   -1    0    0    0    0 -0.00000000000E+00 -0.00000000000E+00 -0.93800501214E+02  0.93800501214E+02  0.00000000000E+00 0. -1.
         24    2    1    2    0    0  0.37990530265E+02  0.23598813001E+02 -0.20867576127E+02  0.93858902621E+02  0.79836417147E+02 0.  0.
         25    2    1    2    0    0 -0.88514673156E+02 -0.21330197925E+02  0.13654956402E+03  0.20635865659E+03  0.12509311336E+03 0.  0.
        -24    2    1    2    0    0  0.50524142891E+02 -0.22686150759E+01  0.14749483671E+04  0.14780137982E+04  0.80587011659E+02 0.  0.
        -13    1    3    3    0    0  0.24456537727E+02  0.32985946855E+02  0.22954554665E+02  0.47043665965E+02  0.00000000000E+00 0.  1.
         14    1    3    3    0    0  0.13533992538E+02 -0.93871338545E+01 -0.43822130791E+02  0.46815236656E+02  0.00000000000E+00 0. -1.
         13    1    5    5    0    0 -0.61556636960E+01  0.23700222568E+02  0.19253847892E+03  0.19408930576E+03  0.00000000000E+00 0. -1.
        -14    1    5    5    0    0  0.56679806587E+02 -0.25968837644E+02  0.12824098882E+04  0.12839244925E+04  0.00000000000E+00 0.  1.
          5    1    4    4  501    0 -0.45050996446E+02 -0.34024775648E+01  0.15045832949E+03  0.15715072525E+03  0.41800000000E+01 0.  1.
         -5    1    4    4    0  501 -0.43463676711E+02 -0.17927720360E+02 -0.13908765467E+02  0.49207931346E+02  0.41800000000E+01 0.  1.
</event>
<event>
11    1  0.7577197E-009  0.2626130E+03  0.7561462E-02  0.1017387E+00
         22   -1    0    0    0    0  0.00000000000E+00  0.00000000000E+00  0.19149969905E+03  0.19149969905E+03  0.00000000000E+00 0.  1.
         22   -1    0    0    0    0 -0.00000000000E+00 -0.00000000000E+00 -0.13619365410E+04  0.13619365410E+04  0.00000000000E+00 0. -1.
         24    2    1    2    0    0 -0.21827926371E+01  0.19352877301E+02 -0.54178681883E+03  0.54754330631E+03  0.76755565141E+02 0.  0.
         25    2    1    2    0    0 -0.76717586994E+02 -0.23426874575E+03 -0.70032282420E+03  0.75291556632E+03  0.12514934490E+03 0.  0.
        -24    2    1    2    0    0  0.78900379631E+02  0.21491586845E+03  0.71672801041E+02  0.25297736746E+03  0.80289835104E+02 0.  0.
        -11    1    3    3    0    0 -0.51805646624E+01  0.10775215810E+02 -0.97460377898E+01  0.15424940148E+02  0.00000000000E+00 0.  1.
         12    1    3    3    0    0  0.29977720253E+01  0.85776614909E+01 -0.53204078104E+03  0.53211836616E+03  0.00000000000E+00 0. -1.
         11    1    5    5    0    0  0.61968389254E+02  0.59642155532E+02  0.32526324090E+02  0.91952323201E+02  0.00000000000E+00 0. -1.
        -12    1    5    5    0    0  0.16931990377E+02  0.15527371291E+03  0.39146476952E+02  0.16102504426E+03  0.00000000000E+00 0.  1.
          5    1    4    4  501    0 -0.69240174045E+01 -0.85228066447E+02 -0.10621975334E+03  0.13642534122E+03  0.41800000000E+01 0. -1.
         -5    1    4    4    0  501 -0.69793569589E+02 -0.14904067930E+03 -0.59410307086E+03  0.61649022511E+03  0.41800000000E+01 0. -1.
</event>
<event>
11    1  0.7577197E-009  0.1319892E+03  0.7561462E-02  0.1116849E+00
         22   -1    0    0    0    0  0.00000000000E+00  0.00000000000E+00  0.74217452233E+02  0.74217452233E+02  0.00000000000E+00 0.  1.
         22   -1    0    0    0    0 -0.00000000000E+00 -0.00000000000E+00 -0.19734749747E+04  0.19734749747E+04  0.00000000000E+00 0.  1.
        -24    2    1    2    0    0  0.12244189635E+02 -0.15243725012E+01 -0.16404579393E+04  0.16424016680E+04  0.78922396697E+02 0.  0.
         25    2    1    2    0    0  0.30573486559E+02  0.89560447423E+01 -0.28191547308E+03  0.31005398501E+03  0.12506874447E+03 0.  0.
         24    2    1    2    0    0 -0.42817676194E+02 -0.74316722411E+01  0.23115889858E+02  0.95236773926E+02  0.81529844824E+02 0.  0.
        -11    1    5    5    0    0  0.86012596578E+00 -0.84292529801E+01  0.45406083534E+02  0.46189874912E+02  0.00000000000E+00 0.  1.
         12    1    5    5    0    0 -0.43677802160E+02  0.99758073906E+00 -0.22290193676E+02  0.49046899015E+02  0.00000000000E+00 0. -1.
         13    1    3    3    0    0 -0.27515928656E+02  0.12993863548E+02 -0.37374459291E+03  0.37498131627E+03  0.00000000000E+00 0. -1.
        -14    1    3    3    0    0  0.39760118291E+02 -0.14518236049E+02 -0.12667133464E+04  0.12674203518E+04  0.00000000000E+00 0.  1.
          5    1    4    4  501    0  0.39874688490E+02  0.49234175134E+02 -0.71702713725E+02  0.95774455566E+02  0.41800000000E+01 0. -1.
         -5    1    4    4    0  501 -0.93012019306E+01 -0.40278130392E+02 -0.21021275935E+03  0.21427952945E+03  0.41800000000E+01 0. -1.
</event>
<event>
11    1  0.7577197E-009  0.1624917E+03  0.7561462E-02  0.1084757E+00
         22   -1    0    0    0    0  0.00000000000E+00  0.00000000000E+00  0.82140385292E+03  0.82140385292E+03  0.00000000000E+00 0. -1.
         22   -1    0    0    0    0 -0.00000000000E+00 -0.00000000000E+00 -0.21013078213E+04  0.21013078213E+04  0.00000000000E+00 0. -1.
        -24    2    1    2    0    0 -0.89170364199E+02  0.52696469937E+02 -0.20720161987E+04  0.20761590293E+04  0.80354935884E+02 0.  0.
         25    2    1    2    0    0  0.11666433391E+03 -0.50311159887E+02  0.32029989901E+03  0.36658035890E+03  0.12508938648E+03 0.  0.
         24    2    1    2    0    0 -0.27493969716E+02 -0.23853100506E+01  0.47181233130E+03  0.47997228597E+03  0.83695347868E+02 0.  0.
        -13    1    5    5    0    0  0.26909874536E+02 -0.19022532634E+01  0.80597101272E+02  0.84992074034E+02  0.00000000000E+00 0.  1.
         14    1    5    5    0    0 -0.54403844252E+02 -0.48305678725E+00  0.39121523003E+03  0.39498021194E+03  0.00000000000E+00 0. -1.
         13    1    3    3    0    0 -0.57859091530E+02 -0.10844078537E+02 -0.10925172855E+04  0.10941020463E+04  0.00000000000E+00 0. -1.
        -14    1    3    3    0    0 -0.31311272669E+02  0.63540548474E+02 -0.97949891317E+03  0.98205698307E+03  0.00000000000E+00 0.  1.
          5    1    4    4  501    0  0.13041997811E+03 -0.57496715414E+01  0.25090619449E+03  0.28286714239E+03  0.41800000000E+01 0. -1.
         -5    1    4    4    0  501 -0.13755644196E+02 -0.44561488345E+02  0.69393704519E+02  0.83713216505E+02  0.41800000000E+01 0. -1.
</event>
<event>
11    1  0.7577197E-009  0.1443659E+03  0.7561462E-02  0.1102779E+00
         22   -1    0    0    0    0  0.00000000000E+00  0.00000000000E+00  0.10314122311E+04  0.10314122311E+04  0.00000000000E+00 0. -1.
         22   -1    0    0    0    0 -0.00000000000E+00 -0.00000000000E+00 -0.19274339116E+03  0.19274339116E+03  0.00000000000E+00 0.  1.
        -24    2    1    2    0    0  0.30034312407E+02  0.37332404354E+02 -0.16227564402E+03  0.18731707826E+03  0.80365009968E+02 0.  0.
         25    2    1    2    0    0 -0.71154950660E+02 -0.79316804826E+02  0.50869084220E+03  0.53457095669E+03  0.12508218204E+03 0.  0.
         24    2    1    2    0    0  0.41120638253E+02  0.41984400472E+02  0.49225364178E+03  0.50226758734E+03  0.80656584808E+02 0.  0.
        -13    1    5    5    0    0  0.11441439982E+02  0.99128084786E+01  0.10237991613E+02  0.18275305553E+02  0.00000000000E+00 0.  1.
         14    1    5    5    0    0  0.29679198271E+02  0.32071591994E+02  0.48201565016E+03  0.48399228178E+03  0.00000000000E+00 0. -1.
         13    1    3    3    0    0  0.31567247193E+02  0.56498197099E+02 -0.80388341365E+02  0.10320282360E+03  0.00000000000E+00 0. -1.
        -14    1    3    3    0    0 -0.15329347853E+01 -0.19165792745E+02 -0.81887302659E+02  0.84114254662E+02  0.00000000000E+00 0.  1.
          5    1    4    4  501    0 -0.97595287149E+02 -0.65640621440E+02  0.47524993618E+03  0.48960545901E+03  0.41800000000E+01 0.  1.
         -5    1    4    4    0  501  0.26440336489E+02 -0.13676183386E+02  0.33440906020E+02  0.44965497674E+02  0.41800000000E+01 0.  1.
</event>
<event>
11    1  0.7577197E-009  0.1451428E+03  0.7561462E-02  0.1101948E+00
         22   -1    0    0    0    0  0.00000000000E+00  0.00000000000E+00  0.10998219351E+04  0.10998219351E+04  0.00000000000E+00 0. -1.
         22   -1    0    0    0    0 -0.00000000000E+00 -0.00000000000E+00 -0.24633113508E+03  0.24633113508E+03  0.00000000000E+00 0.  1.
         24    2    1    2    0    0  0.32269004536E+02  0.60121884185E+02 -0.18349122517E+03  0.21174208916E+03  0.80683040305E+02 0.  0.
         25    2    1    2    0    0 -0.80417048793E+02 -0.10928026313E+03  0.14340375910E+03  0.23371218256E+03  0.12509064116E+03 0.  0.
        -24    2    1    2    0    0  0.48148044257E+02  0.49158378944E+02  0.89357826615E+03  0.90069879852E+03  0.89674006993E+02 0.  0.
        -11    1    3    3    0    0  0.52198721238E+02  0.61925727524E+02 -0.16776226785E+03  0.18628923947E+03  0.00000000000E+00 0.  1.
         12    1    3    3    0    0 -0.19929716702E+02 -0.18038433390E+01 -0.15728957322E+02  0.25452849685E+02  0.00000000000E+00 0. -1.
         11    1    5    5    0    0  0.65762487557E+02  0.10126990311E+02  0.64881329884E+03  0.65221618920E+03  0.00000000000E+00 0. -1.
        -12    1    5    5    0    0 -0.17614443300E+02  0.39031388634E+02  0.24476496730E+03  0.24848260931E+03  0.00000000000E+00 0.  1.
          5    1    4    4  501    0 -0.35291728533E+02 -0.12524027864E+03  0.12965983874E+03  0.18373834570E+03  0.41800000000E+01 0.  1.
         -5    1    4    4    0  501 -0.45125320260E+02  0.15960015511E+02  0.13743920357E+02  0.49973836859E+02  0.41800000000E+01 0.  1.
</event>
<event>
11    1  0.7577197E-009  0.2214796E+03  0.7561462E-02  0.1040295E+00
         22   -1    0    0    0    0  0.00000000000E+00  0.00000000000E+00  0.19459436880E+03  0.19459436880E+03  0.00000000000E+00 0.  1.
         22   -1    0    0    0    0 -0.00000000000E+00 -0.00000000000E+00 -0.37266456287E+03  0.37266456287E+03  0.00000000000E+00 0.  1.
         24    2    1    2    0    0  0.44342693608E+02 -0.42572634360E+01 -0.67586225675E+02  0.11398868335E+03  0.80256608842E+02 0.  0.
         25    2    1    2    0    0  0.15241912862E+03  0.23215328477E+02 -0.13261741795E+03  0.23875732760E+03  0.12508852743E+03 0.  0.
        -24    2    1    2    0    0 -0.19676182223E+03 -0.18958065041E+02  0.22133449556E+02  0.21451292072E+03  0.80319864592E+02 0.  0.
        -11    1    3    3    0    0  0.53376223859E+02 -0.25577844283E+02 -0.68855818493E+02  0.90798519437E+02  0.00000000000E+00 0.  1.
         12    1    3    3    0    0 -0.90335302509E+01  0.21320580847E+02  0.12695928182E+01  0.23190163915E+02  0.00000000000E+00 0. -1.
         13    1    5    5    0    0 -0.84385203173E+01  0.16119986445E+02  0.13680034980E+02  0.22764137260E+02  0.00000000000E+00 0. -1.
        -14    1    5    5    0    0 -0.18832330191E+03 -0.35078051487E+02  0.84534145760E+01  0.19174878346E+03  0.00000000000E+00 0.  1.
          5    1    4    4  501    0  0.13330217049E+03 -0.31857956974E+02 -0.11108608221E+03  0.17647092718E+03  0.41800000000E+01 0. -1.
         -5    1    4    4    0  501  0.19116958133E+02  0.55073285451E+02 -0.21531335743E+02  0.62286400422E+02  0.41800000000E+01 0. -1.
</event>
<event>
11    1  0.7577197E-009  0.1601806E+03  0.7561462E-02  0.1086908E+00
         22   -1    0    0    0    0  0.00000000000E+00  0.00000000000E+00  0.82259888104E+03  0.82259888104E+03  0.00000000000E+00 0. -1.
         22   -1    0    0    0    0 -0.00000000000E+00 -0.00000000000E+00 -0.10916322408E+04  0.10916322408E+04  0.00000000000E+00 0.  1.
        -24    2    1    2    0    0  0.59728706253E+02  0.81179470130E+02 -0.10399035116E+04  0.10469219485E+04  0.66997224106E+02 0.  0.
         25    2    1    2    0    0 -0.38498140475E+02 -0.66294618408E+02  0.72478860574E+02  0.16362426158E+03  0.12507050211E+03 0.  0.
         24    2    1    2    0    0 -0.21230565778E+02 -0.14884851722E+02  0.69839129124E+03  0.70368491181E+03  0.82156945528E+02 0.  0.
        -13    1    5    5    0    0  0.51580213022E+01  0.31525652099E+02  0.30996521049E+03  0.31160696981E+03  0.00000000000E+00 0.  1.
         14    1    5    5    0    0 -0.26388587080E+02 -0.46410503821E+02  0.38842608075E+03  0.39207794200E+03  0.00000000000E+00 0. -1.
         11    1    3    3    0    0  0.13784403972E+02  0.22609743742E+02 -0.82874621795E+02  0.87002374926E+02  0.00000000000E+00 0. -1.
        -12    1    3    3    0    0  0.45944302281E+02  0.58569726388E+02 -0.95702888981E+03  0.95991957356E+03  0.00000000000E+00 0.  1.
          5    1    4    4  501    0 -0.68720636390E+02 -0.30540423103E+01  0.61866841853E+02  0.92611184860E+02  0.41800000000E+01 0. -1.
         -5    1    4    4    0  501  0.30222495915E+02 -0.63240576098E+02  0.10612018720E+02  0.71013076724E+02  0.41800000000E+01 0. -1.
</event>
<event>
11    1  0.7577197E-009  0.1860999E+03  0.7561462E-02  0.1064813E+00
         22   -1    0    0    0    0  0.00000000000E+00  0.00000000000E+00  0.25179410383E+04  0.25179410383E+04  0.00000000000E+00 0. -1.
         22   -1    0    0    0    0 -0.00000000000E+00 -0.00000000000E+00 -0.19417172197E+03  0.19417172197E+03  0.00000000000E+00 0.  1.
         24    2    1    2    0    0 -0.56048417300E+00 -0.11672501644E+03 -0.46776128939E+02  0.14914522950E+03  0.80195072409E+02 0.  0.
         25    2    1    2    0    0  0.13825780258E+03  0.10887580172E+03  0.31112934914E+02  0.21813880495E+03  0.12508942134E+03 0.  0.
        -24    2    1    2    0    0 -0.13769731840E+03  0.78492147206E+01  0.23394325104E+04  0.23448287258E+04  0.79089324514E+02 0.  0.
        -11    1    3    3    0    0 -0.13855893944E+02 -0.12490724667E+03 -0.44749203452E+02  0.13340276338E+03  0.00000000000E+00 0.  1.
         12    1    3    3    0    0  0.13295409771E+02  0.81822302328E+01 -0.20269254876E+01  0.15742466118E+02  0.00000000000E+00 0. -1.
         13    1    5    5    0    0 -0.87745838250E+02 -0.33492367197E+02  0.13217395303E+04  0.13250722459E+04  0.00000000000E+00 0. -1.
        -14    1    5    5    0    0 -0.49951480152E+02  0.41341581917E+02  0.10176929801E+04  0.10197564800E+04  0.00000000000E+00 0.  1.
          5    1    4    4  501    0  0.23949224133E+02  0.87755894870E+01  0.58257891661E+02  0.63734061915E+02  0.41800000000E+01 0. -1.
         -5    1    4    4    0  501  0.11430857844E+03  0.10010021223E+03 -0.27144956747E+02  0.15440474303E+03  0.41800000000E+01 0. -1.
</event>
<event>
11    1  0.7577197E-009  0.2204426E+03  0.7561462E-02  0.1040941E+00
         22   -1    0    0    0    0  0.00000000000E+00  0.00000000000E+00  0.58877872779E+03  0.58877872779E+03  0.00000000000E+00 0.  1.
         22   -1    0    0    0    0 -0.00000000000E+00 -0.00000000000E+00 -0.65344616988E+03  0.65344616988E+03  0.00000000000E+00 0. -1.
         24    2    1    2    0    0  0.15294659697E+03 -0.10838191189E+03 -0.58708147537E+03  0.62208994659E+03  0.84805321630E+02 0.  0.
         25    2    1    2    0    0 -0.12561354113E+03 -0.14565456807E+02  0.22278714025E+03  0.28508330022E+03  0.12508982355E+03 0.  0.
        -24    2    1    2    0    0 -0.27333055833E+02  0.12294736869E+03  0.29962689303E+03  0.33505165086E+03  0.81364502760E+02 0.  0.
        -11    1    3    3    0    0  0.95690918010E+01 -0.30126852463E+02 -0.39086492127E+02  0.50268763900E+02  0.00000000000E+00 0.  1.
         12    1    3    3    0    0  0.14337750516E+03 -0.78255059423E+02 -0.54799498324E+03  0.57182118269E+03  0.00000000000E+00 0. -1.
         13    1    5    5    0    0 -0.36046633243E+02  0.96352315999E+02  0.14425657241E+03  0.17718094494E+03  0.00000000000E+00 0. -1.
        -14    1    5    5    0    0  0.87135774098E+01  0.26595052694E+02  0.15537032062E+03  0.15787070592E+03  0.00000000000E+00 0.  1.
          5    1    4    4  501    0 -0.61084975557E+02 -0.31987537034E+02  0.20422028342E+03  0.21558750734E+03  0.41800000000E+01 0.  1.
         -5    1    4    4    0  501 -0.64528565576E+02  0.17422080227E+02  0.18566856837E+02  0.69495792876E+02  0.41800000000E+01 0.  1.
</event>
<event>
11    1  0.7577197E-009  0.1958579E+03  0.7561462E-02  0.1057492E+00
         22   -1    0    0    0    0  0.00000000000E+00  0.00000000000E+00  0.18017173839E+04  0.18017173839E+04  0.00000000000E+00 0. -1.
         22   -1    0    0    0    0 -0.00000000000E+00 -0.00000000000E+00 -0.76073706744E+03  0.76073706744E+03  0.00000000000E+00 0.  1.
         24    2    1    2    0    0 -0.38133242089E+02 -0.14801784354E+03 -0.72692682991E+03  0.74698987939E+03  0.78789832534E+02 0.  0.
         25    2    1    2    0    0  0.21124623597E+02  0.89935250057E+02  0.25111828078E+03  0.29536778936E+03  0.12508853315E+03 0.  0.
        -24    2    1    2    0    0  0.17008618492E+02  0.58082593483E+02  0.15167888656E+04  0.15200967826E+04  0.79892958932E+02 0.  0.
        -11    1    3    3    0    0 -0.60648234782E+02 -0.11156583424E+03 -0.59024638639E+03  0.60375155520E+03  0.00000000000E+00 0.  1.
         12    1    3    3    0    0  0.22514992693E+02 -0.36452009303E+02 -0.13668044352E+03  0.14323832420E+03  0.00000000000E+00 0. -1.
         13    1    5    5    0    0  0.56100226509E+01  0.60249450094E+02  0.14854022509E+04  0.14866342238E+04  0.00000000000E+00 0. -1.
        -14    1    5    5    0    0  0.11398595841E+02 -0.21668566106E+01  0.31386614743E+02  0.33462558775E+02  0.00000000000E+00 0.  1.
          5    1    4    4  501    0  0.63956247701E+02  0.10533197038E+02  0.97056756194E+02  0.11678542796E+03  0.41800000000E+01 0.  1.
         -5    1    4    4    0  501 -0.42831624104E+02  0.79402053020E+02  0.15406152458E+03  0.17858236140E+03  0.41800000000E+01 0.  1.
</event>
<event>
11    1  0.7577197E-009  0.1314981E+03  0.7561462E-02  0.1117442E+00
         22   -1    0    0    0    0  0.00000000000E+00  0.00000000000E+00  0.89202409305E+03  0.89202409305E+03  0.00000000000E+00 0. -1.
         22   -1    0    0    0    0 -0.00000000000E+00 -0.00000000000E+00 -0.23401827863E+04  0.23401827863E+04  0.00000000000E+00 0.  1.
        -24    2    1    2    0    0 -0.16815449204E+02 -0.88135127457E+01 -0.22784354955E+04  0.22799264346E+04  0.80223454821E+02 0.  0.
         25    2    1    2    0    0  0.37913632002E+02 -0.25754190110E+02  0.17578598437E+02  0.13437438378E+03  0.12508695413E+03 0.  0.
         24    2    1    2    0    0 -0.21098182798E+02  0.34567702856E+02  0.81269820380E+03  0.81790606097E+03  0.82776172355E+02 0.  0.
        -11    1    5    5    0    0  0.24876775817E+02  0.29957009207E+02  0.22081579767E+03  0.22422286430E+03  0.00000000000E+00 0.  1.
         12    1    5    5    0    0 -0.45974958615E+02  0.46106936494E+01  0.59188240614E+03  0.59368319667E+03  0.00000000000E+00 0. -1.
         13    1    3    3    0    0  0.21945828712E+02  0.50424900457E+01 -0.23499483607E+03  0.23607121613E+03  0.00000000000E+00 0. -1.
        -14    1    3    3    0    0 -0.38761277915E+02 -0.13856002791E+02 -0.20434406594E+04  0.20438552185E+04  0.00000000000E+00 0.  1.
          5    1    4    4  501    0  0.66833552611E+02 -0.50317820191E+02 -0.13885606472E+02  0.84905177996E+02  0.41800000000E+01 0.  1.
         -5    1    4    4    0  501 -0.28919920609E+02  0.24563630081E+02  0.31464204909E+02  0.49469205788E+02  0.41800000000E+01 0.  1.
</event>
<event>
11    1  0.7577197E-009  0.1673420E+03  0.7561462E-02  0.1080368E+00
         22   -1    0    0    0    0  0.00000000000E+00  0.00000000000E+00  0.17594033457E+04  0.17594033457E+04  0.00000000000E+00 0. -1.
         22   -1    0    0    0    0 -0.00000000000E+00 -0.00000000000E+00 -0.66638693597E+03  0.66638693597E+03  0.00000000000E+00 0. -1.
         24    2    1    2    0    0 -0.82814896744E+02 -0.71445964463E+02 -0.58761695920E+03  0.60271220226E+03  0.77495000140E+02 0.  0.
         25    2    1    2    0    0  0.94646022868E+02  0.10685659035E+03  0.58680702528E+02  0.19866287439E+03  0.12508921723E+03 0.  0.
        -24    2    1    2    0    0 -0.11831126124E+02 -0.35410625883E+02  0.16219526664E+04  0.16244152050E+04  0.81242958140E+02 0.  0.
        -11    1    3    3    0    0  0.51266493551E+01 -0.19651145768E+01 -0.11211995432E+01  0.56036860481E+01  0.00000000000E+00 0.  1.
         12    1    3    3    0    0 -0.87941546099E+02 -0.69480849886E+02 -0.58649575966E+03  0.59710851621E+03  0.00000000000E+00 0. -1.
         11    1    5    5    0    0  0.18674289281E+02 -0.21994061981E+02  0.13656888799E+04  0.13659936254E+04  0.00000000000E+00 0. -1.
        -12    1    5    5    0    0 -0.30505415405E+02 -0.13416563902E+02  0.25626378646E+03  0.25842157961E+03  0.00000000000E+00 0.  1.
          5    1    4    4  501    0  0.91623998460E+01  0.10058825922E+03  0.48885214648E+02  0.11229062328E+03  0.41800000000E+01 0. -1.
         -5    1    4    4    0  501  0.85483623022E+02  0.62683311216E+01  0.97954878797E+01  0.86372251115E+02  0.41800000000E+01 0. -1.
</event>
<event>
11    1  0.7577197E-009  0.1376693E+03  0.7561462E-02  0.1110189E+00
         22   -1    0    0    0    0  0.00000000000E+00  0.00000000000E+00  0.24781313007E+03  0.24781313007E+03  0.00000000000E+00 0.  1.
         22   -1    0    0    0    0 -0.00000000000E+00 -0.00000000000E+00 -0.26597550447E+04  0.26597550447E+04  0.00000000000E+00 0.  1.
         24    2    1    2    0    0  0.51005597150E+02  0.45377201860E+00 -0.22732325984E+04  0.22751939614E+04  0.79494268494E+02 0.  0.
         25    2    1    2    0    0 -0.10255242395E+03  0.21958746731E+02 -0.35726944971E+03  0.39279685743E+03  0.12509486519E+03 0.  0.
        -24    2    1    2    0    0  0.51546826801E+02 -0.22412518750E+02  0.21856013350E+03  0.23957735591E+03  0.80432463348E+02 0.  0.
        -11    1    3    3    0    0  0.36361090225E+02  0.18858630343E+02 -0.20968566713E+04  0.20972567027E+04  0.00000000000E+00 0.  1.
         12    1    3    3    0    0  0.14644506925E+02 -0.18404858325E+02 -0.17637592707E+03  0.17793725873E+03  0.00000000000E+00 0. -1.
         11    1    5    5    0    0  0.48278457874E+02  0.10118228126E+02  0.59961533770E+02  0.77643889438E+02  0.00000000000E+00 0. -1.
        -12    1    5    5    0    0  0.32683689269E+01 -0.32530746876E+02  0.15859859973E+03  0.16193346647E+03  0.00000000000E+00 0.  1.
          5    1    4    4  501    0 -0.31138885288E+02 -0.27447697253E+02 -0.23483156826E+02  0.47874182144E+02  0.41800000000E+01 0. -1.
         -5    1    4    4    0  501 -0.71413538663E+02  0.49406443984E+02 -0.33378629288E+03  0.34492267529E+03  0.41800000000E+01 0. -1.
</event>
<event>
11    1  0.7577197E-009  0.1966357E+03  0.7561462E-02  0.1056929E+00
         22   -1    0    0    0    0  0.00000000000E+00  0.00000000000E+00  0.33143949071E+03  0.33143949071E+03  0.00000000000E+00 0.  1.
         22   -1    0    0    0    0 -0.00000000000E+00 -0.00000000000E+00 -0.27330916336E+04  0.27330916336E+04  0.00000000000E+00 0. -1.
        -24    2    1    2    0    0 -0.10106802056E+03  0.11412739537E+01 -0.17588112190E+04  0.17633845339E+04  0.76759776492E+02 0.  0.
         25    2    1    2    0    0  0.16206837109E+03 -0.13894216489E+03 -0.93263808753E+03  0.96490019813E+03  0.12508999941E+03 0.  0.
         24    2    1    2    0    0 -0.61000350536E+02  0.13780089094E+03  0.28979716363E+03  0.33624639221E+03  0.79806715957E+02 0.  0.
        -13    1    5    5    0    0 -0.42644003198E+02  0.85825368505E+02  0.25146069080E+03  0.26910403918E+03  0.00000000000E+00 0.  1.
         14    1    5    5    0    0 -0.18356347338E+02  0.51975522433E+02  0.38336472834E+02  0.67142353021E+02  0.00000000000E+00 0. -1.
         13    1    3    3    0    0 -0.94782269594E+02  0.22343153503E+02 -0.11311817106E+04  0.11353655612E+04  0.00000000000E+00 0. -1.
        -14    1    3    3    0    0 -0.62857509619E+01 -0.21201879549E+02 -0.62762950838E+03  0.62801897276E+03  0.00000000000E+00 0.  1.
          5    1    4    4  501    0  0.20931738128E+02  0.52353620527E+01 -0.18425155113E+02  0.28679355255E+02  0.41800000000E+01 0. -1.
         -5    1    4    4    0  501  0.14113663296E+03 -0.14417752694E+03 -0.91421293241E+03  0.93622084288E+03  0.41800000000E+01 0. -1.
</event>
<event>
11    1  0.7577197E-009  0.1966326E+03  0.7561462E-02  0.1056931E+00
         22   -1    0    0    0    0  0.00000000000E+00  0.00000000000E+00  0.33562309702E+03  0.33562309702E+03  0.00000000000E+00 0. -1.
         22   -1    0    0    0    0 -0.00000000000E+00 -0.00000000000E+00 -0.11736324303E+04  0.11736324303E+04  0.00000000000E+00 0. -1.
        -24    2    1    2    0    0  0.91971706288E+01 -0.13575023589E+03 -0.60561130031E+03  0.62613729701E+03  0.82280940406E+02 0.  0.
         25    2    1    2    0    0 -0.29293749532E+01  0.18690559663E+03 -0.52748236438E+03  0.57343312988E+03  0.12508247846E+03 0.  0.
         24    2    1    2    0    0 -0.62677956756E+01 -0.51155360742E+02  0.29508433141E+03  0.30968510044E+03  0.78574439836E+02 0.  0.
        -11    1    5    5    0    0  0.12082637840E+02  0.14188276142E+02  0.12787770837E+03  0.12922850156E+03  0.00000000000E+00 0.  1.
         12    1    5    5    0    0 -0.18350433516E+02 -0.65343636884E+02  0.16720662304E+03  0.18045659888E+03  0.00000000000E+00 0. -1.
         11    1    3    3    0    0  0.10067799920E+02 -0.14670332349E+03 -0.57820105199E+03  0.59660680706E+03  0.00000000000E+00 0. -1.
        -12    1    3    3    0    0 -0.87062929073E+00  0.10953087600E+02 -0.27410248326E+02  0.29530489949E+02  0.00000000000E+00 0.  1.
          5    1    4    4  501    0  0.14504177453E+02  0.45265532405E+01 -0.17909536534E+03  0.17978732751E+03  0.41800000000E+01 0. -1.
         -5    1    4    4    0  501 -0.17433552406E+02  0.18237904339E+03 -0.34838699904E+03  0.39364580236E+03  0.41800000000E+01 0. -1.
</event>
<event>
11    1  0.7577197E-009  0.1653326E+03  0.7561462E-02  0.1082166E+00
         22   -1    0    0    0    0  0.00000000000E+00  0.00000000000E+00  0.14534899649E+04  0.14534899649E+04  0.00000000000E+00 0.  1.
         22   -1    0    0    0    0 -0.00000000000E+00 -0.00000000000E+00 -0.70384611915E+02  0.70384611915E+02  0.00000000000E+00 0. -1.
        -24    2    1    2    0    0  0.34617030733E+02 -0.70234134709E+02  0.13600671475E+02  0.11252890696E+03  0.79665576898E+02 0.  0.
         25    2    1    2    0    0 -0.11206706744E+03  0.11824578417E+03  0.65492826368E+03  0.68638180524E+03  0.12509140224E+03 0.  0.
         24    2    1    2    0    0  0.77450036711E+02 -0.48011649465E+02  0.71457641785E+03  0.72496386463E+03  0.81544597667E+02 0.  0.
        -11    1    5    5    0    0  0.33750426924E+02 -0.30031701839E+02  0.58998849030E+03  0.59171565225E+03  0.00000000000E+00 0.  1.
         12    1    5    5    0    0  0.43699609787E+02 -0.17979947626E+02  0.12458792754E+03  0.13324821238E+03  0.00000000000E+00 0. -1.
         13    1    3    3    0    0  0.54608420965E+02 -0.68505679252E+02 -0.11654188139E+01  0.87615443451E+02  0.00000000000E+00 0. -1.
        -14    1    3    3    0    0 -0.19991390233E+02 -0.17284554573E+01  0.14766090289E+02  0.24913463511E+02  0.00000000000E+00 0.  1.
          5    1    4    4  501    0 -0.22648526812E+02  0.25468391606E+02  0.39246950285E+03  0.39396875232E+03  0.41800000000E+01 0. -1.
         -5    1    4    4    0  501 -0.89418540632E+02  0.92777392568E+02  0.26245876083E+03  0.29241305292E+03  0.41800000000E+01 0. -1.
</event>
<event>
11    1  0.7577197E-009  0.1428106E+03  0.7561462E-02  0.1104460E+00
         22   -1    0    0    0    0  0.00000000000E+00  0.00000000000E+00  0.17923174970E+04  0.17923174970E+04  0.00000000000E+00 0.  1.
         22   -1    0    0    0    0 -0.00000000000E+00 -0.00000000000E+00 -0.22342178939E+04  0.22342178939E+04  0.00000000000E+00 0.  1.
        -24    2    1    2    0    0  0.46120830224E+02  0.23231073843E+02 -0.21465198070E+04  0.21485798102E+04  0.78620003486E+02 0.  0.
         25    2    1    2    0    0  0.10675745958E+02 -0.63013599877E+02 -0.26994647108E+02  0.14304964148E+03  0.12509917520E+03 0.  0.
         24    2    1    2    0    0 -0.56796576182E+02  0.39782526034E+02  0.17316140572E+04  0.17349059392E+04  0.81258073377E+02 0.  0.
        -11    1    5    5    0    0 -0.33897332115E+02  0.53733448378E+02  0.15521552836E+04  0.15534549678E+04  0.00000000000E+00 0.  1.
         12    1    5    5    0    0 -0.22899244068E+02 -0.13950922343E+02  0.17945877355E+03  0.18145097138E+03  0.00000000000E+00 0. -1.
         13    1    3    3    0    0 -0.56294018118E+01  0.37285533040E+01 -0.16312380527E+02  0.17654632054E+02  0.00000000000E+00 0. -1.
        -14    1    3    3    0    0  0.51750232036E+02  0.19502520539E+02 -0.21302074265E+04  0.21309251781E+04  0.00000000000E+00 0.  1.
          5    1    4    4  501    0 -0.11791397005E+02 -0.97928769376E+02 -0.17719416633E+02  0.10030219858E+03  0.41800000000E+01 0. -1.
         -5    1    4    4    0  501  0.22467142964E+02  0.34915169499E+02 -0.92752304749E+01  0.42747442900E+02  0.41800000000E+01 0. -1.
</event>
<event>
11    1  0.7577197E-009  0.1417312E+03  0.7561462E-02  0.1105640E+00
         22   -1    0    0    0    0  0.00000000000E+00  0.00000000000E+00  0.70118794853E+03  0.70118794853E+03  0.00000000000E+00 0. -1.
         22   -1    0    0    0    0 -0.00000000000E+00 -0.00000000000E+00 -0.50624361251E+03  0.50624361251E+03  0.00000000000E+00 0.  1.
        -24    2    1    2    0    0 -0.60243341143E+02  0.23675821122E+02 -0.44328935606E+03  0.45403313758E+03  0.73829751243E+02 0.  0.
         25    2    1    2    0    0  0.56722540573E+02  0.44898950185E+02  0.45951300575E+02  0.15163015599E+03  0.12508724893E+03 0.  0.
         24    2    1    2    0    0  0.35208005704E+01 -0.68574771307E+02  0.59228239150E+03  0.60176826747E+03  0.81312490747E+02 0.  0.
        -13    1    5    5    0    0 -0.38062431308E+02 -0.26526019774E+02  0.29964131597E+03  0.30321163671E+03  0.00000000000E+00 0.  1.
         14    1    5    5    0    0  0.41583231879E+02 -0.42048751533E+02  0.29264107553E+03  0.29855663076E+03  0.00000000000E+00 0. -1.
         13    1    3    3    0    0 -0.39336669119E+02  0.23286164081E+02 -0.98281721004E+02  0.10839241513E+03  0.00000000000E+00 0. -1.
        -14    1    3    3    0    0 -0.20906672024E+02  0.38965704106E+00 -0.34500763506E+03  0.34564072245E+03  0.00000000000E+00 0.  1.
          5    1    4    4  501    0 -0.43246594084E+01 -0.31477007941E+02 -0.15985996292E+02  0.35812416637E+02  0.41800000000E+01 0.  1.
         -5    1    4    4    0  501  0.61047199981E+02  0.76375958126E+02  0.61937296867E+02  0.11581773935E+03  0.41800000000E+01 0.  1.
</event>
<event>
11    1  0.7577197E-009  0.1336765E+03  0.7561462E-02  0.1114832E+00
         22   -1    0    0    0    0  0.00000000000E+00  0.00000000000E+00  0.10654860647E+04  0.10654860647E+04  0.00000000000E+00 0.  1.
         22   -1    0    0    0    0 -0.00000000000E+00 -0.00000000000E+00 -0.10535600340E+03  0.10535600340E+03  0.00000000000E+00 0. -1.
         24    2    1    2    0    0 -0.48666904779E+02 -0.58825821597E+01 -0.90554045562E+01  0.94461561553E+02  0.80236611754E+02 0.  0.
         25    2    1    2    0    0  0.43194502840E+02  0.41976731681E+01  0.32561293083E+02  0.13635174518E+03  0.12509266594E+03 0.  0.
        -24    2    1    2    0    0  0.54724019389E+01  0.16849089917E+01  0.93662417273E+03  0.94002876131E+03  0.79727316924E+02 0.  0.
        -11    1    3    3    0    0 -0.69865505097E+02  0.21570388196E+01  0.39230585605E+00  0.69899896443E+02  0.00000000000E+00 0.  1.
         12    1    3    3    0    0  0.21198600318E+02 -0.80396209793E+01 -0.94477104123E+01  0.24561665110E+02  0.00000000000E+00 0. -1.
         13    1    5    5    0    0  0.17902588278E+02 -0.27955315927E+01  0.47996205474E+02  0.51302567225E+02  0.00000000000E+00 0. -1.
        -14    1    5    5    0    0 -0.12430186339E+02  0.44804405843E+01  0.88862796725E+03  0.88872619409E+03  0.00000000000E+00 0.  1.
          5    1    4    4  501    0 -0.38519485942E+02  0.26995419155E+02  0.15638884285E+02  0.49744854551E+02  0.41800000000E+01 0. -1.
         -5    1    4    4    0  501  0.81713988783E+02 -0.22797745987E+02  0.16922408798E+02  0.86606890629E+02  0.41800000000E+01 0. -1.
</event>
<event>
11    1  0.7577197E-009  0.1405356E+03  0.7561462E-02  0.1106962E+00
         22   -1    0    0    0    0  0.00000000000E+00  0.00000000000E+00  0.33411908114E+03  0.33411908114E+03  0.00000000000E+00 0. -1.
         22   -1    0    0    0    0 -0.00000000000E+00 -0.00000000000E+00 -0.33850561659E+03  0.33850561659E+03  0.00000000000E+00 0. -1.
         24    2    1    2    0    0  0.43388205658E+02 -0.65129259357E+02 -0.23097153994E+03  0.25713592476E+03  0.81527141018E+02 0.  0.
         25    2    1    2    0    0 -0.21472880818E+02 -0.80305869504E+00 -0.35578260609E+02  0.13181496177E+03  0.12509053523E+03 0.  0.
        -24    2    1    2    0    0 -0.21915324840E+02  0.65932318052E+02  0.26216326511E+03  0.28367381121E+03  0.83149874107E+02 0.  0.
        -13    1    3    3    0    0  0.18892358191E+02 -0.78841338433E+02 -0.13836064097E+03  0.16036378897E+03  0.00000000000E+00 0.  1.
         14    1    3    3    0    0  0.24495847467E+02  0.13712079076E+02 -0.92610898977E+02  0.96772135788E+02  0.00000000000E+00 0. -1.
         11    1    5    5    0    0 -0.47138525182E+02  0.68130479734E+02  0.20767210584E+03  0.22358780461E+03  0.00000000000E+00 0. -1.
        -12    1    5    5    0    0  0.25223200342E+02 -0.21981616820E+01  0.54491159265E+02  0.60086006594E+02  0.00000000000E+00 0.  1.
          5    1    4    4  501    0  0.43980703597E+02  0.29282267925E+02 -0.25961944354E+02  0.59019051656E+02  0.41800000000E+01 0.  1.
         -5    1    4    4    0  501 -0.65453584415E+02 -0.30085326620E+02 -0.96163162551E+01  0.72795910111E+02  0.41800000000E+01 0.  1.
</event>
<event>
11    1  0.7577197E-009  0.1408896E+03  0.7561462E-02  0.1106569E+00
         22   -1    0    0    0    0  0.00000000000E+00  0.00000000000E+00  0.90574084944E+02  0.90574084944E+02  0.00000000000E+00 0.  1.
         22   -1    0    0    0    0 -0.00000000000E+00 -0.00000000000E+00 -0.22943499371E+04  0.22943499371E+04  0.00000000000E+00 0.  1.
         24    2    1    2    0    0  0.24988008312E+02 -0.58760204255E+02 -0.19370610329E+04  0.19397791879E+04  0.80378418807E+02 0.  0.
         25    2    1    2    0    0 -0.79640566381E+01  0.79372028709E+02 -0.31527581247E+03  0.34844190878E+03  0.12509828427E+03 0.  0.
        -24    2    1    2    0    0 -0.17023951674E+02 -0.20611824454E+02  0.48560993252E+02  0.96702925390E+02  0.79237765463E+02 0.  0.
        -13    1    3    3    0    0  0.31666419956E+02 -0.74219194063E+02 -0.13040268333E+04  0.13065210418E+04  0.00000000000E+00 0.  1.
         14    1    3    3    0    0 -0.66784116442E+01  0.15458989807E+02 -0.63303419967E+03  0.63325814602E+03  0.00000000000E+00 0. -1.
         13    1    5    5    0    0 -0.32606860924E+02  0.16427154915E+02  0.42557955249E+02  0.56073508477E+02  0.00000000000E+00 0. -1.
        -14    1    5    5    0    0  0.15582909250E+02 -0.37038979370E+02  0.60030380025E+01  0.40629416913E+02  0.00000000000E+00 0.  1.
          5    1    4    4  501    0 -0.58168984824E+02  0.75985856282E+02 -0.17734033785E+03  0.20155532486E+03  0.41800000000E+01 0.  1.
         -5    1    4    4    0  501  0.50204928185E+02  0.33861724272E+01 -0.13793547462E+03  0.14688658393E+03  0.41800000000E+01 0.  1.
</event>
<event>
11    1  0.7577197E-009  0.2041096E+03  0.7561462E-02  0.1051655E+00
         22   -1    0    0    0    0  0.00000000000E+00  0.00000000000E+00  0.11155769705E+04  0.11155769705E+04  0.00000000000E+00 0.  1.
         22   -1    0    0    0    0 -0.00000000000E+00 -0.00000000000E+00 -0.38652243573E+03  0.38652243573E+03  0.00000000000E+00 0.  1.
         24    2    1    2    0    0  0.15009199088E+03 -0.39304280236E+02 -0.29674014956E+03  0.34435450177E+03  0.80329784987E+02 0.  0.
         25    2    1    2    0    0 -0.24133181477E+03  0.22734676236E+02  0.24256788945E+03  0.36502642242E+03  0.12508875948E+03 0.  0.
        -24    2    1    2    0    0  0.91239823886E+02  0.16569604000E+02  0.78322679485E+03  0.79271848200E+03  0.79744105077E+02 0.  0.
        -13    1    3    3    0    0  0.27141789206E+02  0.22144249872E+02 -0.84745914161E+02  0.91700133536E+02  0.00000000000E+00 0.  1.
         14    1    3    3    0    0  0.12295020167E+03 -0.61448530108E+02 -0.21199423540E+03  0.25265436824E+03  0.00000000000E+00 0. -1.
         11    1    5    5    0    0  0.64010530799E+01 -0.20951231544E+02  0.29121929358E+03  0.29204212801E+03  0.00000000000E+00 0. -1.
        -12    1    5    5    0    0  0.84838770806E+02  0.37520835543E+02  0.49200750127E+03  0.50067635399E+03  0.00000000000E+00 0.  1.
          5    1    4    4  501    0 -0.16224359446E+03 -0.42790380800E+02  0.12783029758E+03  0.21097880940E+03  0.41800000000E+01 0. -1.
         -5    1    4    4    0  501 -0.79088220301E+02  0.65525057036E+02  0.11473759187E+03  0.15404761302E+03  0.41800000000E+01 0. -1.
</event>
<event>
11    1  0.7577197E-009  0.1780548E+03  0.7561462E-02  0.1071227E+00
         22   -1    0    0    0    0  0.00000000000E+00  0.00000000000E+00  0.17543334931E+04  0.17543334931E+04  0.00000000000E+00 0. -1.
         22   -1    0    0    0    0 -0.00000000000E+00 -0.00000000000E+00 -0.57359968916E+03  0.57359968916E+03  0.00000000000E+00 0.  1.
         24    2    1    2    0    0 -0.34142783005E+02  0.11690208251E+03 -0.44638327556E+03  0.46947135342E+03  0.79457513536E+02 0.  0.
         25    2    1    2    0    0  0.21295930383E+02 -0.16889539969E+03 -0.16677720495E+02  0.21190590503E+03  0.12508714379E+03 0.  0.
        -24    2    1    2    0    0  0.12846852622E+02  0.51993317174E+02  0.16437948000E+04  0.16465559238E+04  0.78846173365E+02 0.  0.
        -11    1    3    3    0    0 -0.32784426902E+02  0.74984420869E+02 -0.39378663204E+03  0.40220068821E+03  0.00000000000E+00 0.  1.
         12    1    3    3    0    0 -0.13583561030E+01  0.41917661644E+02 -0.52596643519E+02  0.67270665215E+02  0.00000000000E+00 0. -1.
         11    1    5    5    0    0  0.85685582428E+01  0.48848963452E+02  0.16377887386E+04  0.16385394697E+04  0.00000000000E+00 0. -1.
        -12    1    5    5    0    0  0.42782943794E+01  0.31443537214E+01  0.60060613929E+01  0.80164541150E+01  0.00000000000E+00 0.  1.
          5    1    4    4  501    0 -0.15067202617E+02 -0.14287300337E+01 -0.36121630707E+02  0.39386628049E+02  0.41800000000E+01 0.  1.
         -5    1    4    4    0  501  0.36363133000E+02 -0.16746666965E+03  0.19443910211E+02  0.17251927698E+03  0.41800000000E+01 0.  1.
</event>
<event>
11    1  0.7577197E-009  0.1895829E+03  0.7561462E-02  0.1062145E+00
         22   -1    0    0    0    0  0.00000000000E+00  0.00000000000E+00  0.58593054588E+03  0.58593054588E+03  0.00000000000E+00 0. -1.
         22   -1    0    0    0    0 -0.00000000000E+00 -0.00000000000E+00 -0.13775841933E+03  0.13775841933E+03  0.00000000000E+00 0.  1.
        -24    2    1    2    0    0 -0.32998251872E+02 -0.19840408770E+02 -0.47419737805E+02  0.10116560768E+03  0.80643178243E+02 0.  0.
         25    2    1    2    0    0  0.13521551826E+03  0.10197560873E+03  0.20376533954E+03  0.29299711229E+03  0.12507890733E+03 0.  0.
         24    2    1    2    0    0 -0.10221726639E+03 -0.82135199962E+02  0.29182652481E+03  0.32952624524E+03  0.78932028341E+02 0.  0.
        -11    1    5    5    0    0 -0.45021462975E+02 -0.34064374980E+00  0.46746436805E+02  0.64902060989E+02  0.00000000000E+00 0.  1.
         12    1    5    5    0    0 -0.57195803415E+02 -0.81794556212E+02  0.24508008800E+03  0.26462418425E+03  0.00000000000E+00 0. -1.
         13    1    3    3    0    0 -0.33076602814E+02 -0.26669580391E+02  0.97466329895E+01  0.43592717587E+02  0.00000000000E+00 0. -1.
        -14    1    3    3    0    0  0.78350942377E-01  0.68291716220E+01 -0.57166370794E+02  0.57572890093E+02  0.00000000000E+00 0.  1.
          5    1    4    4  501    0  0.15941132395E+02 -0.27055718329E+02  0.14932086878E+02  0.35022438734E+02  0.41800000000E+01 0. -1.
         -5    1    4    4    0  501  0.11927438587E+03  0.12903132706E+03  0.18883325266E+03  0.25797467356E+03  0.41800000000E+01 0. -1.
</event>
<event>
11    1  0.7577197E-009  0.1688558E+03  0.7561462E-02  0.1079032E+00
         22   -1    0    0    0    0  0.00000000000E+00  0.00000000000E+00  0.48089187552E+03  0.48089187552E+03  0.00000000000E+00 0. -1.
         22   -1    0    0    0    0 -0.00000000000E+00 -0.00000000000E+00 -0.19487450010E+03  0.19487450010E+03  0.00000000000E+00 0.  1.
        -24    2    1    2    0    0  0.98633397139E+01  0.21240697727E+02 -0.32791525404E+02  0.91281481764E+02  0.81905873198E+02 0.  0.
         25    2    1    2    0    0 -0.22323229145E+02 -0.13181970711E+03 -0.50169924426E+02  0.18983774676E+03  0.12508631833E+03 0.  0.
         24    2    1    2    0    0  0.12459889431E+02  0.11057900938E+03  0.36897882525E+03  0.39464714710E+03  0.84958996386E+02 0.  0.
        -13    1    5    5    0    0 -0.14372286017E+01  0.16994095859E+02  0.38823435443E+01  0.17491069479E+02  0.00000000000E+00 0.  1.
         14    1    5    5    0    0  0.13897118033E+02  0.93584913522E+02  0.36509648171E+03  0.37715607762E+03  0.00000000000E+00 0. -1.
         13    1    3    3    0    0 -0.18677609120E+02 -0.18084240932E+02 -0.33847420619E+02  0.42679511890E+02  0.00000000000E+00 0. -1.
        -14    1    3    3    0    0  0.28540948834E+02  0.39324938660E+02  0.10558952154E+01  0.48601969874E+02  0.00000000000E+00 0.  1.
          5    1    4    4  501    0 -0.56537108502E+02 -0.13180481236E+03 -0.21657626840E+02  0.14510505987E+03  0.41800000000E+01 0.  1.
         -5    1    4    4    0  501  0.34213879357E+02 -0.14894749335E-01 -0.28512297586E+02  0.44732686887E+02  0.41800000000E+01 0.  1.
</event>
<event>
11    1  0.7577197E-009  0.1538640E+03  0.7561462E-02  0.1092995E+00
         22   -1    0    0    0    0  0.00000000000E+00  0.00000000000E+00  0.96129700559E+02  0.96129700559E+02  0.00000000000E+00 0. -1.
         22   -1    0    0    0    0 -0.00000000000E+00 -0.00000000000E+00 -0.10741622440E+04  0.10741622440E+04  0.00000000000E+00 0.  1.
        -24    2    1    2    0    0 -0.27826513578E+01  0.89136645086E+02 -0.90477941958E+03  0.91326343389E+03  0.86436201627E+02 0.  0.
         25    2    1    2    0    0 -0.25222679029E+02 -0.96056375901E+02 -0.52080255716E+02  0.16798520052E+03  0.12507463239E+03 0.  0.
         24    2    1    2    0    0  0.28005330387E+02  0.69197308147E+01 -0.21172868144E+02  0.89043310143E+02  0.81536737310E+02 0.  0.
        -11    1    5    5    0    0 -0.74921385800E+01 -0.31045637860E+02  0.22871196352E+01  0.32018661540E+02  0.00000000000E+00 0.  1.
         12    1    5    5    0    0  0.35497468967E+02  0.37965368674E+02 -0.23459987780E+02  0.57024648603E+02  0.00000000000E+00 0. -1.
         13    1    3    3    0    0 -0.69573251336E+00 -0.17342687242E+02 -0.10511452625E+03  0.10653786404E+03  0.00000000000E+00 0. -1.
        -14    1    3    3    0    0 -0.20869188444E+01  0.10647933233E+03 -0.79966489332E+03  0.80672556985E+03  0.00000000000E+00 0.  1.
          5    1    4    4  501    0 -0.73191641557E+02 -0.74773660856E+02 -0.47967762413E+02  0.11518027341E+03  0.41800000000E+01 0.  1.
         -5    1    4    4    0  501  0.47968962528E+02 -0.21282715045E+02 -0.41124933028E+01  0.52804927108E+02  0.41800000000E+01 0.  1.
</event>
<event>
11    1  0.7577197E-009  0.1413723E+03  0.7561462E-02  0.1106036E+00
         22   -1    0    0    0    0  0.00000000000E+00  0.00000000000E+00  0.10680291245E+04  0.10680291245E+04  0.00000000000E+00 0. -1.
         22   -1    0    0    0    0 -0.00000000000E+00 -0.00000000000E+00 -0.55480491881E+03  0.55480491881E+03  0.00000000000E+00 0.  1.
        -24    2    1    2    0    0  0.32338598188E+02  0.32148900288E+01 -0.49462015837E+03  0.50216689302E+03  0.80413723523E+02 0.  0.
         25    2    1    2    0    0  0.28771538571E+02 -0.31483098757E+02  0.28227753754E+02  0.13514067116E+03  0.12508880037E+03 0.  0.
         24    2    1    2    0    0 -0.61110136759E+02  0.28268208728E+02  0.97961661033E+03  0.98552647915E+03  0.84143909111E+02 0.  0.
        -11    1    5    5    0    0 -0.44937111586E+02 -0.21056558513E+02  0.31492151508E+03  0.31880759607E+03  0.00000000000E+00 0.  1.
         12    1    5    5    0    0 -0.16173025173E+02  0.49324767242E+02  0.66469509525E+03  0.66671888308E+03  0.00000000000E+00 0. -1.
         13    1    3    3    0    0  0.21841521114E+02  0.15220762587E+02 -0.45152007197E+02  0.52415908007E+02  0.00000000000E+00 0. -1.
        -14    1    3    3    0    0  0.10497077074E+02 -0.12005872558E+02 -0.44946815118E+03  0.44975098502E+03  0.00000000000E+00 0.  1.
          5    1    4    4  501    0  0.60493367146E+02 -0.51818511156E+02  0.47268085871E+02  0.92716502894E+02  0.41800000000E+01 0.  1.
         -5    1    4    4    0  501 -0.31721828574E+02  0.20335412399E+02 -0.19040332117E+02  0.42424168261E+02  0.41800000000E+01 0.  1.
</event>
<event>
11    1  0.7577197E-009  0.2203610E+03  0.7561462E-02  0.1040992E+00
         22   -1    0    0    0    0  0.00000000000E+00  0.00000000000E+00  0.17312417601E+03  0.17312417601E+03  0.00000000000E+00 0. -1.
         22   -1    0    0    0    0 -0.00000000000E+00 -0.00000000000E+00 -0.18866886519E+04  0.18866886519E+04  0.00000000000E+00 0.  1.
        -24    2    1    2    0    0  0.15551214120E+03  0.99346182565E+02 -0.16386006041E+04  0.16509424991E+04  0.80904298150E+02 0.  0.
         25    2    1    2    0    0 -0.11218826594E+03 -0.11650531003E+03 -0.17614307190E+03  0.26987606818E+03  0.12508803347E+03 0.  0.
         24    2    1    2    0    0 -0.43323875252E+02  0.17159127466E+02  0.10117920008E+03  0.13899426067E+03  0.83131102171E+02 0.  0.
        -11    1    5    5    0    0 -0.51841378040E+02  0.38122771699E+02  0.45265861463E+02  0.78675742215E+02  0.00000000000E+00 0.  1.
         12    1    5    5    0    0  0.85175027880E+01 -0.20963644233E+02  0.55913338619E+02  0.60318518457E+02  0.00000000000E+00 0. -1.
         13    1    3    3    0    0  0.52850713108E+02  0.65005640927E+02 -0.97257972725E+03  0.97618146729E+03  0.00000000000E+00 0. -1.
        -14    1    3    3    0    0  0.10266142809E+03  0.34340541638E+02 -0.66602087683E+03  0.67476103176E+03  0.00000000000E+00 0.  1.
          5    1    4    4  501    0 -0.11742881985E+03 -0.35252831659E+02 -0.99098305862E+02  0.15770300091E+03  0.41800000000E+01 0.  1.
         -5    1    4    4    0  501  0.52405539072E+01 -0.81252478372E+02 -0.77044766037E+02  0.11217306727E+03  0.41800000000E+01 0.  1.
</event>
<event>
11    1  0.7577197E-009  0.1988816E+03  0.7561462E-02  0.1055317E+00
         22   -1    0    0    0    0  0.00000000000E+00  0.00000000000E+00  0.17728685412E+04  0.17728685412E+04  0.00000000000E+00 0.  1.
         22   -1    0    0    0    0 -0.00000000000E+00 -0.00000000000E+00 -0.50693221855E+03  0.50693221855E+03  0.00000000000E+00 0.  1.
        -24    2    1    2    0    0  0.66943562808E+02 -0.20882870447E+02 -0.47041770740E+03  0.48298253258E+03  0.84034352875E+02 0.  0.
         25    2    1    2    0    0  0.94104713607E+02 -0.27115055672E+02  0.23373258169E+03  0.28261273132E+03  0.12509241701E+03 0.  0.
         24    2    1    2    0    0 -0.16104827641E+03  0.47997926119E+02  0.15026214484E+04  0.15142054959E+04  0.81894556171E+02 0.  0.
        -13    1    5    5    0    0 -0.63651708510E+02  0.24230042928E+02  0.95910093945E+03  0.96151611896E+03  0.00000000000E+00 0.  1.
         14    1    5    5    0    0 -0.97396567905E+02  0.23767883191E+02  0.54352050895E+03  0.55268937692E+03  0.00000000000E+00 0. -1.
         11    1    3    3    0    0  0.50398879518E+02 -0.25486843838E+02 -0.12532358629E+03  0.13746136746E+03  0.00000000000E+00 0. -1.
        -12    1    3    3    0    0  0.16544683290E+02  0.46039733911E+01 -0.34509412112E+03  0.34552116512E+03  0.00000000000E+00 0.  1.
          5    1    4    4  501    0  0.10117455807E+03 -0.26766265926E+02  0.88427304925E+02  0.13707510660E+03  0.41800000000E+01 0.  1.
         -5    1    4    4    0  501 -0.70698444607E+01 -0.34878974612E+00  0.14530527676E+03  0.14553762472E+03  0.41800000000E+01 0.  1.
</event>
<event>
11    1  0.7577197E-009  0.1513128E+03  0.7561462E-02  0.1095545E+00
         22   -1    0    0    0    0  0.00000000000E+00  0.00000000000E+00  0.22643342915E+04  0.22643342915E+04  0.00000000000E+00 0.  1.
         22   -1    0    0    0    0 -0.00000000000E+00 -0.00000000000E+00 -0.13392629289E+03  0.13392629289E+03  0.00000000000E+00 0.  1.
         24    2    1    2    0    0  0.15126870668E+02  0.73171285971E+02 -0.38325348013E+02  0.11727368184E+03  0.81862230881E+02 0.  0.
         25    2    1    2    0    0 -0.94772144047E-01 -0.12412946871E+03  0.86127452759E+02  0.19614655744E+03  0.12508956749E+03 0.  0.
        -24    2    1    2    0    0 -0.15032098524E+02  0.50958182739E+02  0.20826058938E+04  0.20848403451E+04  0.80555912747E+02 0.  0.
        -13    1    3    3    0    0  0.64147014612E+01  0.81611527878E+02 -0.53538956302E+02  0.97816203767E+02  0.00000000000E+00 0.  1.
         14    1    3    3    0    0  0.87121692065E+01 -0.84402419078E+01  0.15213608289E+02  0.19457478072E+02  0.00000000000E+00 0. -1.
         11    1    5    5    0    0 -0.16245602853E+02 -0.14839440753E+02  0.22601454511E+03  0.22708303155E+03  0.00000000000E+00 0. -1.
        -12    1    5    5    0    0  0.12135043292E+01  0.65797623492E+02  0.18565913487E+04  0.18577573135E+04  0.00000000000E+00 0.  1.
          5    1    4    4  501    0 -0.35890165146E+01  0.65931880209E+01 -0.23772717338E+02  0.25277770025E+02  0.41800000000E+01 0. -1.
         -5    1    4    4    0  501  0.34942443706E+01 -0.13072265673E+03  0.10990017010E+03  0.17086878742E+03  0.41800000000E+01 0. -1.
</event>
<event>
11    1  0.7577197E-009  0.2634351E+03  0.7561462E-02  0.1016976E+00
         22   -1    0    0    0    0  0.00000000000E+00  0.00000000000E+00  0.23450809932E+04  0.23450809932E+04  0.00000000000E+00 0. -1.
         22   -1    0    0    0    0 -0.00000000000E+00 -0.00000000000E+00 -0.20643708006E+03  0.20643708006E+03  0.00000000000E+00 0.  1.
        -24    2    1    2    0    0  0.12373150337E+03  0.27923370291E+02 -0.12988473645E+03  0.20036159650E+03  0.84767476406E+02 0.  0.
         25    2    1    2    0    0 -0.16781689724E+03 -0.24276126393E+03  0.75899446278E+03  0.82390209647E+03  0.12508608147E+03 0.  0.
         24    2    1    2    0    0  0.44085393868E+02  0.21483789364E+03  0.15095341868E+04  0.15272543803E+04  0.75588613192E+02 0.  0.
        -13    1    5    5    0    0 -0.10160791369E+02  0.57824717294E+01  0.33041650948E+02  0.35048956588E+02  0.00000000000E+00 0.  1.
         14    1    5    5    0    0  0.54246185238E+02  0.20905542191E+03  0.14764925359E+04  0.14922054237E+04  0.00000000000E+00 0. -1.
         13    1    3    3    0    0  0.19283527585E+02  0.27438507107E+02  0.19471564688E+00  0.33537501734E+02  0.00000000000E+00 0. -1.
        -14    1    3    3    0    0  0.10444797579E+03  0.48486318378E+00 -0.13007945210E+03  0.16682409477E+03  0.00000000000E+00 0.  1.
          5    1    4    4  501    0 -0.56861093070E+01 -0.86974892414E+02  0.30537834823E+03  0.31760096303E+03  0.41800000000E+01 0.  1.
         -5    1    4    4    0  501 -0.16213078793E+03 -0.15578637151E+03  0.45361611454E+03  0.50630113343E+03  0.41800000000E+01 0.  1.
</event>
<event>
11    1  0.7577197E-009  0.1344109E+03  0.7561462E-02  0.1113965E+00
         22   -1    0    0    0    0  0.00000000000E+00  0.00000000000E+00  0.16596151602E+03  0.16596151602E+03  0.00000000000E+00 0.  1.
         22   -1    0    0    0    0 -0.00000000000E+00 -0.00000000000E+00 -0.15367493017E+04  0.15367493017E+04  0.00000000000E+00 0. -1.
        -24    2    1    2    0    0  0.99293617099E+01  0.47014015708E+02 -0.11916986134E+04  0.11954701821E+04  0.81819686540E+02 0.  0.
         25    2    1    2    0    0  0.11883424911E+02 -0.61944412092E+02 -0.31607618446E+03  0.34571865884E+03  0.12505563044E+03 0.  0.
         24    2    1    2    0    0 -0.21812786621E+02  0.14930396384E+02  0.13698701220E+03  0.16152197681E+03  0.81395289083E+02 0.  0.
        -13    1    5    5    0    0 -0.50868362681E+02 -0.37477634951E+01  0.79488521617E+02  0.94446075207E+02  0.00000000000E+00 0.  1.
         14    1    5    5    0    0  0.29055576060E+02  0.18678159879E+02  0.57498490586E+02  0.67075901606E+02  0.00000000000E+00 0. -1.
         13    1    3    3    0    0  0.32945514738E+02  0.12681106569E+02 -0.91699623951E+03  0.91767549857E+03  0.00000000000E+00 0. -1.
        -14    1    3    3    0    0 -0.23016153028E+02  0.34332909139E+02 -0.27470237390E+03  0.27779468349E+03  0.00000000000E+00 0.  1.
          5    1    4    4  501    0 -0.55960263192E+02 -0.38929151643E+02 -0.15487117562E+03  0.16926187800E+03  0.41800000000E+01 0. -1.
         -5    1    4    4    0  501  0.67843688104E+02 -0.23015260448E+02 -0.16120500884E+03  0.17645678084E+03  0.41800000000E+01 0. -1.
</event>
<event>
11    1  0.7798892E-009  0.1424963E+03  0.7561462E-02  0.1104802E+00
         22   -1    0    0    0    0  0.00000000000E+00  0.00000000000E+00  0.13870452033E+04  0.13870452033E+04  0.00000000000E+00 0. -1.
         22   -1    0    0    0    0 -0.00000000000E+00 -0.00000000000E+00 -0.16579937607E+03  0.16579937607E+03  0.00000000000E+00 0.  1.
        -24    2    1    2    0    0  0.17871261355E+02 -0.61050282605E+02 -0.10293765528E+03  0.14558217289E+03  0.80941270076E+02 0.  0.
         25    2    1    2    0    0  0.51133917515E+02  0.63467695225E+02  0.10285581445E+03  0.18129639158E+03  0.12508491986E+03 0.  0.
         24    2    1    2    0    0 -0.69005178870E+02 -0.24174126198E+01  0.12213276680E+04  0.12259660149E+04  0.81140854818E+02 0.  0.
        -11    1    5    5    0    0  0.99374268800E+01  0.99765984260E+00  0.23490818799E+02  0.25525797656E+02  0.00000000000E+00 0.  1.
         12    1    5    5    0    0 -0.78942605750E+02 -0.34150724624E+01  0.11978368492E+04  0.12004402172E+04  0.00000000000E+00 0. -1.
         13    1    3    3    0    0 -0.45789816313E+01  0.13854301341E+02 -0.47598571069E+02  0.49784864229E+02  0.00000000000E+00 0. -1.
        -14    1    3    3    0    0  0.22450242986E+02 -0.74904583946E+02 -0.55339084207E+02  0.95797308663E+02  0.00000000000E+00 0.  1.
          5    1    4    4  501    0 -0.36845666912E+02  0.41231579548E+02  0.21919321458E+02  0.59628645594E+02  0.41800000000E+01 0. -1.
         -5    1    4    4    0  501  0.87979584426E+02  0.22236115677E+02  0.80936492990E+02  0.12166774599E+03  0.41800000000E+01 0. -1.
</event>
<event>
11    1  0.7577197E-009  0.3446824E+03  0.7561462E-02  0.9828742E-01
         22   -1    0    0    0    0  0.00000000000E+00  0.00000000000E+00  0.11132677484E+04  0.11132677484E+04  0.00000000000E+00 0. -1.
         22   -1    0    0    0    0 -0.00000000000E+00 -0.00000000000E+00 -0.15760646593E+04  0.15760646593E+04  0.00000000000E+00 0.  1.
         24    2    1    2    0    0 -0.24700812286E+03 -0.73489689492E+02 -0.59603788668E+03  0.65419064451E+03  0.79312607942E+02 0.  0.
         25    2    1    2    0    0  0.39838107481E+03  0.23233868161E+03 -0.87667082656E+03  0.99844254437E+03  0.12508809911E+03 0.  0.
        -24    2    1    2    0    0 -0.15137295195E+03 -0.15884899212E+03  0.10099118024E+04  0.10366992188E+04  0.81710762502E+02 0.  0.
        -13    1    3    3    0    0 -0.70189773587E+02 -0.51196252598E+02 -0.14251610496E+03  0.16690865996E+03  0.00000000000E+00 0.  1.
         14    1    3    3    0    0 -0.17681834928E+03 -0.22293436895E+02 -0.45352178172E+03  0.48728198455E+03  0.00000000000E+00 0. -1.
         11    1    5    5    0    0 -0.10179100322E+03 -0.92098929471E+02  0.44472874700E+03  0.46543235766E+03  0.00000000000E+00 0. -1.
        -12    1    5    5    0    0 -0.49581948729E+02 -0.66750062650E+02  0.56518305540E+03  0.57126686112E+03  0.00000000000E+00 0.  1.
          5    1    4    4  501    0  0.23189809281E+03  0.20308425596E+03 -0.54453588164E+03  0.62574494746E+03  0.41800000000E+01 0.  1.
         -5    1    4    4    0  501  0.16648298200E+03  0.29254425650E+02 -0.33213494491E+03  0.37269759692E+03  0.41800000000E+01 0.  1.
</event>
<event>
11    1  0.7577197E-009  0.1615839E+03  0.7561462E-02  0.1085597E+00
         22   -1    0    0    0    0  0.00000000000E+00  0.00000000000E+00  0.18421861572E+03  0.18421861572E+03  0.00000000000E+00 0. -1.
         22   -1    0    0    0    0 -0.00000000000E+00 -0.00000000000E+00 -0.90374318581E+03  0.90374318581E+03  0.00000000000E+00 0. -1.
         24    2    1    2    0    0 -0.36651831622E+02  0.87841989340E+02 -0.59074206544E+03  0.60408346672E+03  0.82952245475E+02 0.  0.
         25    2    1    2    0    0  0.44745632585E+02 -0.12477183207E+03 -0.26490395292E+03  0.32154657792E+03  0.12509162956E+03 0.  0.
        -24    2    1    2    0    0 -0.80938009621E+01  0.36929842729E+02  0.13612144827E+03  0.16233175689E+03  0.79957662036E+02 0.  0.
        -11    1    3    3    0    0  0.17722096969E+02 -0.19373482231E+01 -0.14799908050E+03  0.14906895675E+03  0.00000000000E+00 0.  1.
         12    1    3    3    0    0 -0.54373928591E+02  0.89779337563E+02 -0.44274298495E+03  0.45501450997E+03  0.00000000000E+00 0. -1.
         11    1    5    5    0    0 -0.42233284547E+00  0.15803473235E+02  0.13879928125E+03  0.13969670221E+03  0.00000000000E+00 0. -1.
        -12    1    5    5    0    0 -0.76714681166E+01  0.21126369494E+02 -0.26778329827E+01  0.22635054684E+02  0.00000000000E+00 0.  1.
          5    1    4    4  501    0  0.60885225037E+02 -0.11285994629E+03 -0.12155717590E+03  0.17674274389E+03  0.41800000000E+01 0.  1.
         -5    1    4    4    0  501 -0.16139592452E+02 -0.11911885774E+02 -0.14334677702E+03  0.14480383403E+03  0.41800000000E+01 0.  1.
</event>
<event>
11    1  0.7577197E-009  0.1362657E+03  0.7561462E-02  0.1111801E+00
         22   -1    0    0    0    0  0.00000000000E+00  0.00000000000E+00  0.10514441772E+04  0.10514441772E+04  0.00000000000E+00 0.  1.
         22   -1    0    0    0    0 -0.00000000000E+00 -0.00000000000E+00 -0.34896532585E+03  0.34896532585E+03  0.00000000000E+00 0.  1.
        -24    2    1    2    0    0  0.21130551191E+02 -0.52048658687E+02 -0.29059295627E+03  0.30681016576E+03  0.80824801329E+02 0.  0.
         25    2    1    2    0    0  0.18294727547E+01  0.32805520213E+02  0.38538550096E+02  0.13500043726E+03  0.12514131648E+03 0.  0.
         24    2    1    2    0    0 -0.22960023945E+02  0.19243138474E+02  0.95453325750E+03  0.95859890001E+03  0.82949685579E+02 0.  0.
        -11    1    5    5    0    0 -0.13926526464E+02  0.37183968068E+02  0.89274624216E+03  0.89362880913E+03  0.00000000000E+00 0.  1.
         12    1    5    5    0    0 -0.90334974816E+01 -0.17940829594E+02  0.61787015343E+02  0.64970090874E+02  0.00000000000E+00 0. -1.
         13    1    3    3    0    0  0.35496086923E+01  0.12098350060E+02 -0.49822286771E+01  0.13557005519E+02  0.00000000000E+00 0. -1.
        -14    1    3    3    0    0  0.17580942498E+02 -0.64147008747E+02 -0.28561072760E+03  0.29325316024E+03  0.00000000000E+00 0.  1.
          5    1    4    4  501    0  0.50780827718E+01 -0.25761782146E+02 -0.33010172500E+02  0.42386321290E+02  0.41800000000E+01 0. -1.
         -5    1    4    4    0  501 -0.32486100171E+01  0.58567302359E+02  0.71548722596E+02  0.92614115975E+02  0.41800000000E+01 0. -1.
</event>
<event>
11    1  0.7577197E-009  0.1365524E+03  0.7561462E-02  0.1111470E+00
         22   -1    0    0    0    0  0.00000000000E+00  0.00000000000E+00  0.62198311878E+03  0.62198311878E+03  0.00000000000E+00 0.  1.
         22   -1    0    0    0    0 -0.00000000000E+00 -0.00000000000E+00 -0.20983282457E+03  0.20983282457E+03  0.00000000000E+00 0.  1.
        -24    2    1    2    0    0 -0.19314592995E+02 -0.51091373115E+02 -0.16001889838E+03  0.18646506362E+03  0.78611641646E+02 0.  0.
         25    2    1    2    0    0  0.49067770168E+02  0.41028319683E+02  0.12114805704E+03  0.18551322502E+03  0.12508931148E+03 0.  0.
         24    2    1    2    0    0 -0.29753177174E+02  0.10063053432E+02  0.45102113555E+03  0.45983765470E+03  0.83929061550E+02 0.  0.
        -13    1    5    5    0    0 -0.54059521900E+02 -0.13536224284E+02  0.28329839254E+03  0.28872762336E+03  0.00000000000E+00 0.  1.
         14    1    5    5    0    0  0.24306344727E+02  0.23599277716E+02  0.16772274300E+03  0.17111003134E+03  0.00000000000E+00 0. -1.
         13    1    3    3    0    0 -0.68819575386E+01 -0.38569212018E+02 -0.17587767476E+02  0.42945023228E+02  0.00000000000E+00 0. -1.
        -14    1    3    3    0    0 -0.12432635456E+02 -0.12522161097E+02 -0.14243113091E+03  0.14352004039E+03  0.00000000000E+00 0.  1.
          5    1    4    4  501    0  0.52474252159E+02  0.82517255127E+02  0.75668263301E+02  0.12371662380E+03  0.41800000000E+01 0.  1.
         -5    1    4    4    0  501 -0.34064819910E+01 -0.41488935444E+02  0.45479793744E+02  0.61796601224E+02  0.41800000000E+01 0.  1.
</event>
<event>
11    1  0.7577197E-009  0.1630646E+03  0.7561462E-02  0.1084230E+00
         22   -1    0    0    0    0  0.00000000000E+00  0.00000000000E+00  0.35389201997E+04  0.35389201997E+04  0.00000000000E+00 0.  1.
         22   -1    0    0    0    0 -0.00000000000E+00 -0.00000000000E+00 -0.66775334826E+02  0.66775334826E+02  0.00000000000E+00 0. -1.
        -24    2    1    2    0    0  0.13047875408E+02  0.57212180363E+02  0.20758365985E+02  0.10150441845E+03  0.80179527139E+02 0.  0.
         25    2    1    2    0    0  0.60742675954E+02 -0.12905382877E+03  0.33451176826E+03  0.38456330412E+03  0.12508496459E+03 0.  0.
         24    2    1    2    0    0 -0.73790551362E+02  0.71841648408E+02  0.31168747306E+04  0.31196278119E+04  0.81014386254E+02 0.  0.
        -13    1    5    5    0    0 -0.87709344189E+02  0.54448601725E+02  0.21285025147E+04  0.21310045834E+04  0.00000000000E+00 0.  1.
         14    1    5    5    0    0  0.13918792827E+02  0.17393046683E+02  0.98837221585E+03  0.98862322850E+03  0.00000000000E+00 0. -1.
         13    1    3    3    0    0 -0.33986378438E+02  0.26152571018E+02  0.11349082043E+02  0.44360258716E+02  0.00000000000E+00 0. -1.
        -14    1    3    3    0    0  0.47034253846E+02  0.31059609345E+02  0.94092839418E+01  0.57144159735E+02  0.00000000000E+00 0.  1.
          5    1    4    4  501    0  0.62702238634E+02 -0.15261744658E+03  0.28051832133E+03  0.32547143766E+03  0.41800000000E+01 0. -1.
         -5    1    4    4    0  501 -0.19595626798E+01  0.23563617809E+02  0.53993446927E+02  0.59091866456E+02  0.41800000000E+01 0. -1.
</event>
<event>
11    1  0.7577197E-009  0.1377443E+03  0.7561462E-02  0.1110104E+00
         22   -1    0    0    0    0  0.00000000000E+00  0.00000000000E+00  0.41717482042E+03  0.41717482042E+03  0.00000000000E+00 0. -1.
         22   -1    0    0    0    0 -0.00000000000E+00 -0.00000000000E+00 -0.69193900787E+03  0.69193900787E+03  0.00000000000E+00 0. -1.
         24    2    1    2    0    0 -0.20843868460E+02  0.55188575030E+02 -0.65300032688E+03  0.66095772256E+03  0.83519090245E+02 0.  0.
         25    2    1    2    0    0 -0.30101515251E+01 -0.95431147799E+01  0.12393708619E+03  0.17637386613E+03  0.12508879753E+03 0.  0.
        -24    2    1    2    0    0  0.23854019985E+02 -0.45645460250E+02  0.25429905325E+03  0.27178223961E+03  0.80901514035E+02 0.  0.
        -11    1    3    3    0    0  0.28617387142E+02  0.19282758659E+01 -0.14802965590E+03  0.15078279782E+03  0.00000000000E+00 0.  1.
         12    1    3    3    0    0 -0.49461255601E+02  0.53260299164E+02 -0.50497067099E+03  0.51017492474E+03  0.00000000000E+00 0. -1.
         13    1    5    5    0    0  0.17074930334E+02 -0.68532658526E+02  0.16798893327E+03  0.18223216026E+03  0.00000000000E+00 0. -1.
        -14    1    5    5    0    0  0.67790896505E+01  0.22887198276E+02  0.86310119978E+02  0.89550079353E+02  0.00000000000E+00 0.  1.
          5    1    4    4  501    0  0.32800554974E+02  0.11170052563E+02 -0.98576507301E+01  0.36266956845E+02  0.41800000000E+01 0. -1.
         -5    1    4    4    0  501 -0.35810706499E+02 -0.20713167343E+02  0.13379473692E+03  0.14010690928E+03  0.41800000000E+01 0. -1.
</event>
<event>
11    1  0.7577197E-009  0.1367487E+03  0.7561462E-02  0.1111244E+00
         22   -1    0    0    0    0  0.00000000000E+00  0.00000000000E+00  0.15934944243E+03  0.15934944243E+03  0.00000000000E+00 0.  1.
         22   -1    0    0    0    0 -0.00000000000E+00 -0.00000000000E+00 -0.66962948055E+03  0.66962948055E+03  0.00000000000E+00 0.  1.
        -24    2    1    2    0    0 -0.12770684931E+02  0.17014616574E+02 -0.45005103146E+03  0.45771295186E+03  0.80638872870E+02 0.  0.
         25    2    1    2    0    0 -0.42779041641E+02 -0.24802653390E+02 -0.17471163868E+03  0.22049259915E+03  0.12509041358E+03 0.  0.
         24    2    1    2    0    0  0.55549726572E+02  0.77880368163E+01  0.11448263202E+03  0.15077337197E+03  0.80497894517E+02 0.  0.
        -13    1    5    5    0    0  0.42732472216E+02 -0.12592533467E+02  0.12903952299E+02  0.46380470736E+02  0.00000000000E+00 0.  1.
         14    1    5    5    0    0  0.12817254357E+02  0.20380570284E+02  0.10157867972E+03  0.10439290124E+03  0.00000000000E+00 0. -1.
         13    1    3    3    0    0 -0.43699727641E+02 -0.44959053857E+01 -0.19446626591E+03  0.19936651659E+03  0.00000000000E+00 0. -1.
        -14    1    3    3    0    0  0.30929042710E+02  0.21510521960E+02 -0.25558476555E+03  0.25834643527E+03  0.00000000000E+00 0.  1.
          5    1    4    4  501    0  0.39939589108E+02  0.12926575554E+02 -0.70255947178E+02  0.81948994183E+02  0.41800000000E+01 0.  1.
         -5    1    4    4    0  501 -0.82718630749E+02 -0.37729228944E+02 -0.10445569150E+03  0.13854360497E+03  0.41800000000E+01 0.  1.
</event>
<event>
11    1  0.7577197E-009  0.1286587E+03  0.7561462E-02  0.1120928E+00
         22   -1    0    0    0    0  0.00000000000E+00  0.00000000000E+00  0.30177322742E+03  0.30177322742E+03  0.00000000000E+00 0. -1.
         22   -1    0    0    0    0 -0.00000000000E+00 -0.00000000000E+00 -0.64710600662E+03  0.64710600662E+03  0.00000000000E+00 0. -1.
         24    2    1    2    0    0 -0.22957559257E+02 -0.20781629895E+02 -0.58932049788E+03  0.59592736301E+03  0.82896604910E+02 0.  0.
         25    2    1    2    0    0 -0.80640893705E+01  0.18617406316E+02  0.42432674126E+02  0.13364059707E+03  0.12509052721E+03 0.  0.
        -24    2    1    2    0    0  0.31021648627E+02  0.21642235787E+01  0.20155504455E+03  0.21931127395E+03  0.80659607917E+02 0.  0.
        -13    1    3    3    0    0 -0.86880102100E+01 -0.45912854945E+02 -0.19385107391E+03  0.19940338670E+03  0.00000000000E+00 0.  1.
         14    1    3    3    0    0 -0.14269549047E+02  0.25131225051E+02 -0.39546942396E+03  0.39652397631E+03  0.00000000000E+00 0. -1.
         11    1    5    5    0    0  0.22400922751E+02 -0.17023763017E+02  0.19536960706E+03  0.19738513929E+03  0.00000000000E+00 0. -1.
        -12    1    5    5    0    0  0.86207258764E+01  0.19187986596E+02  0.61854374876E+01  0.21926134661E+02  0.00000000000E+00 0.  1.
          5    1    4    4  501    0  0.48508465494E+02  0.37606315067E+02  0.40757201185E+02  0.73796531124E+02  0.41800000000E+01 0. -1.
         -5    1    4    4    0  501 -0.56572554864E+02 -0.18988908751E+02  0.16754729415E+01  0.59844065947E+02  0.41800000000E+01 0. -1.
</event>
<event>
11    1  0.7577197E-009  0.1505911E+03  0.7561462E-02  0.1096276E+00
         22   -1    0    0    0    0  0.00000000000E+00  0.00000000000E+00  0.20204515216E+03  0.20204515216E+03  0.00000000000E+00 0. -1.
         22   -1    0    0    0    0 -0.00000000000E+00 -0.00000000000E+00 -0.28784513884E+04  0.28784513884E+04  0.00000000000E+00 0.  1.
        -24    2    1    2    0    0  0.18799033771E+02 -0.29806402519E+02 -0.26255334643E+04  0.26271606960E+04  0.85472362755E+02 0.  0.
         25    2    1    2    0    0 -0.96721819990E+02  0.40883353358E+00 -0.20597119034E+03  0.25966048396E+03  0.12507660882E+03 0.  0.
         24    2    1    2    0    0  0.77922786219E+02  0.29397568986E+02  0.15509841841E+03  0.19367536066E+03  0.80736907654E+02 0.  0.
        -13    1    5    5    0    0 -0.16397225323E+02  0.90088447032E+01  0.17543796679E+02  0.25647867029E+02  0.00000000000E+00 0.  1.
         14    1    5    5    0    0  0.94320011542E+02  0.20388724283E+02  0.13755462174E+03  0.16802749363E+03  0.00000000000E+00 0. -1.
         11    1    3    3    0    0  0.26095566719E+02 -0.34687329138E+02 -0.58494841642E+03  0.58655676560E+03  0.00000000000E+00 0. -1.
        -12    1    3    3    0    0 -0.72965329480E+01  0.48809266190E+01 -0.20405850479E+04  0.20406039303E+04  0.00000000000E+00 0.  1.
          5    1    4    4  501    0  0.27260219835E+02  0.17578294931E+02 -0.47698652779E+02  0.57833812905E+02  0.41800000000E+01 0.  1.
         -5    1    4    4    0  501 -0.12398203983E+03 -0.17169461398E+02 -0.15827253756E+03  0.20182667106E+03  0.41800000000E+01 0.  1.
</event>
<event>
11    1  0.7577197E-009  0.2360887E+03  0.7561462E-02  0.1031582E+00
         22   -1    0    0    0    0  0.00000000000E+00  0.00000000000E+00  0.22093861671E+04  0.22093861671E+04  0.00000000000E+00 0. -1.
         22   -1    0    0    0    0 -0.00000000000E+00 -0.00000000000E+00 -0.10016441598E+03  0.10016441598E+03  0.00000000000E+00 0.  1.
         24    2    1    2    0    0 -0.30012511477E+02  0.65248703004E+02 -0.15588393853E+02  0.10793565853E+03  0.79050390708E+02 0.  0.
         25    2    1    2    0    0 -0.33328588748E+02 -0.24511256117E+03  0.57921688306E+03  0.64213058668E+03  0.12509408561E+03 0.  0.
        -24    2    1    2    0    0  0.63341100225E+02  0.17986385817E+03  0.15455932619E+04  0.15594843378E+04  0.82278589826E+02 0.  0.
        -13    1    3    3    0    0 -0.15910804935E+02  0.74801252027E+02 -0.33257878361E+02  0.83393449932E+02  0.00000000000E+00 0.  1.
         14    1    3    3    0    0 -0.14101706543E+02 -0.95525490221E+01  0.17669484509E+02  0.24542208601E+02  0.00000000000E+00 0. -1.
         13    1    5    5    0    0  0.79030035100E+02  0.11791756344E+03  0.11563891470E+04  0.11650691643E+04  0.00000000000E+00 0. -1.
        -14    1    5    5    0    0 -0.15688934874E+02  0.61946294724E+02  0.38920411482E+03  0.39441517352E+03  0.00000000000E+00 0.  1.
          5    1    4    4  501    0 -0.32646953964E+01 -0.18703056166E+03  0.28663064312E+03  0.34229473733E+03  0.41800000000E+01 0.  1.
         -5    1    4    4    0  501 -0.30063893351E+02 -0.58081999514E+02  0.29258623994E+03  0.29983584935E+03  0.41800000000E+01 0.  1.
</event>
<event>
11    1  0.7577197E-009  0.2105197E+03  0.7561462E-02  0.1047324E+00
         22   -1    0    0    0    0  0.00000000000E+00  0.00000000000E+00  0.12044019557E+04  0.12044019557E+04  0.00000000000E+00 0. -1.
         22   -1    0    0    0    0 -0.00000000000E+00 -0.00000000000E+00 -0.92182749516E+03  0.92182749516E+03  0.00000000000E+00 0. -1.
        -24    2    1    2    0    0  0.25060856300E+02  0.16566547824E+03 -0.76439452853E+03  0.78670255659E+03  0.80801114468E+02 0.  0.
         25    2    1    2    0    0 -0.21949893217E+02 -0.18162233684E+03 -0.59937952651E+02  0.22957913950E+03  0.12508218129E+03 0.  0.
         24    2    1    2    0    0 -0.31109630828E+01  0.15956858601E+02  0.11069069418E+04  0.11099477548E+04  0.80478203569E+02 0.  0.
        -13    1    5    5    0    0 -0.17540059584E+02 -0.15050924218E+02  0.89502283268E+03  0.89532120215E+03  0.00000000000E+00 0.  1.
         14    1    5    5    0    0  0.14429096501E+02  0.31007782820E+02  0.21188410909E+03  0.21462655266E+03  0.00000000000E+00 0. -1.
         11    1    3    3    0    0  0.43149872945E+01  0.16412153368E+03 -0.64875168201E+03  0.66920343831E+03  0.00000000000E+00 0. -1.
        -12    1    3    3    0    0  0.20745869006E+02  0.15439445582E+01 -0.11564284652E+03  0.11749911828E+03  0.00000000000E+00 0.  1.
          5    1    4    4  501    0 -0.38392969569E+02 -0.18334354443E+03 -0.22845644672E+02  0.18875452650E+03  0.41800000000E+01 0. -1.
         -5    1    4    4    0  501  0.16443076352E+02  0.17212075841E+01 -0.37092307978E+02  0.40824613000E+02  0.41800000000E+01 0. -1.
</event>
<event>
11    1  0.7577197E-009  0.1426753E+03  0.7561462E-02  0.1104607E+00
         22   -1    0    0    0    0  0.00000000000E+00  0.00000000000E+00  0.41911906493E+03  0.41911906493E+03  0.00000000000E+00 0.  1.
         22   -1    0    0    0    0 -0.00000000000E+00 -0.00000000000E+00 -0.11267793021E+03  0.11267793021E+03  0.00000000000E+00 0.  1.
         24    2    1    2    0    0  0.69382716995E+02 -0.37468362099E+02  0.19710130822E+02  0.12186978371E+03  0.90807022570E+02 0.  0.
         25    2    1    2    0    0 -0.66633436498E+02 -0.47162220424E+02  0.72169321648E+02  0.16589544568E+03  0.12509435645E+03 0.  0.
        -24    2    1    2    0    0 -0.27492804966E+01  0.84630582523E+02  0.21456168225E+03  0.24403176575E+03  0.79654837667E+02 0.  0.
        -11    1    3    3    0    0  0.20188313218E+02  0.62420167177E+01 -0.31881943559E+02  0.38249040359E+02  0.00000000000E+00 0.  1.
         12    1    3    3    0    0  0.49194403777E+02 -0.43710378816E+02  0.51592074382E+02  0.83620743349E+02  0.00000000000E+00 0. -1.
         11    1    5    5    0    0 -0.84389919758E+01  0.66569536419E+02  0.65495606432E+02  0.93767767524E+02  0.00000000000E+00 0. -1.
        -12    1    5    5    0    0  0.56897114792E+01  0.18061046104E+02  0.14906607582E+03  0.15026399823E+03  0.00000000000E+00 0.  1.
          5    1    4    4  501    0 -0.55873733160E+02 -0.74953822534E+02  0.90889653113E+02  0.13045440204E+03  0.41800000000E+01 0.  1.
         -5    1    4    4    0  501 -0.10759703339E+02  0.27791602110E+02 -0.18720331466E+02  0.35441043635E+02  0.41800000000E+01 0.  1.
</event>
<event>
11    1  0.7577197E-009  0.1587364E+03  0.7561462E-02  0.1088272E+00
         22   -1    0    0    0    0  0.00000000000E+00  0.00000000000E+00  0.86372572031E+03  0.86372572031E+03  0.00000000000E+00 0. -1.
         22   -1    0    0    0    0 -0.00000000000E+00 -0.00000000000E+00 -0.40818170467E+03  0.40818170467E+03  0.00000000000E+00 0. -1.
        -24    2    1    2    0    0 -0.95275417494E+02 -0.19219566777E+02 -0.32673482122E+03  0.35038219736E+03  0.81026192706E+02 0.  0.
         25    2    1    2    0    0  0.85634963756E+02  0.84750165123E+02  0.48398159144E+02  0.18029513554E+03  0.12509203246E+03 0.  0.
         24    2    1    2    0    0  0.96404537380E+01 -0.65530598346E+02  0.73388067772E+03  0.74123009209E+03  0.80336807365E+02 0.  0.
        -11    1    5    5    0    0  0.24269108006E+02  0.52825631446E+01  0.92151466125E+02  0.95439969540E+02  0.00000000000E+00 0.  1.
         12    1    5    5    0    0 -0.14628654268E+02 -0.70813161491E+02  0.64172921159E+03  0.64579012255E+03  0.00000000000E+00 0. -1.
         11    1    3    3    0    0 -0.53230409843E+01 -0.77107359624E+01 -0.16253066234E+03  0.16280051110E+03  0.00000000000E+00 0. -1.
        -12    1    3    3    0    0 -0.89952376510E+02 -0.11508830814E+02 -0.16420415888E+03  0.18758168626E+03  0.00000000000E+00 0.  1.
          5    1    4    4  501    0  0.53659180782E+02  0.28707477229E+02  0.86046515984E+02  0.10547465214E+03  0.41800000000E+01 0. -1.
         -5    1    4    4    0  501  0.31975782975E+02  0.56042687894E+02 -0.37648356840E+02  0.74820483399E+02  0.41800000000E+01 0. -1.
</event>
<event>
11    1  0.7577197E-009  0.1616111E+03  0.7561462E-02  0.1085572E+00
         22   -1    0    0    0    0  0.00000000000E+00  0.00000000000E+00  0.76583104638E+03  0.76583104638E+03  0.00000000000E+00 0.  1.
         22   -1    0    0    0    0 -0.00000000000E+00 -0.00000000000E+00 -0.26705022219E+03  0.26705022219E+03  0.00000000000E+00 0. -1.
        -24    2    1    2    0    0  0.26201213125E+02 -0.16004135474E+02 -0.20671148905E+03  0.22386606106E+03  0.80272894976E+02 0.  0.
         25    2    1    2    0    0 -0.51672084024E+02 -0.84270998139E+02  0.96741271371E+02  0.18648750332E+03  0.12508840838E+03 0.  0.
         24    2    1    2    0    0  0.25470870899E+02  0.10027513361E+03  0.60875104188E+03  0.62252770419E+03  0.79114118895E+02 0.  0.
        -11    1    5    5    0    0  0.48275605882E+02  0.86490215036E+02  0.53542363518E+03  0.54450854955E+03  0.00000000000E+00 0.  1.
         12    1    5    5    0    0 -0.22804734983E+02  0.13784918576E+02  0.73327406695E+02  0.78019154638E+02  0.00000000000E+00 0. -1.
         11    1    3    3    0    0  0.14124332778E+02  0.15927926296E+02 -0.17797062062E+03  0.17923932999E+03  0.00000000000E+00 0. -1.
        -12    1    3    3    0    0  0.12076880347E+02 -0.31932061770E+02 -0.28740868435E+02  0.44626731072E+02  0.00000000000E+00 0.  1.
          5    1    4    4  501    0  0.27560588431E+02 -0.52616372377E+01 -0.11630867413E+02  0.30659751106E+02  0.41800000000E+01 0. -1.
         -5    1    4    4    0  501 -0.79232672455E+02 -0.79009360901E+02  0.10837213878E+03  0.15582775221E+03  0.41800000000E+01 0. -1.
</event>
<event>
11    1  0.7577197E-009  0.1667985E+03  0.7561462E-02  0.1080852E+00
         22   -1    0    0    0    0  0.00000000000E+00  0.00000000000E+00  0.29050992911E+03  0.29050992911E+03  0.00000000000E+00 0. -1.
         22   -1    0    0    0    0 -0.00000000000E+00 -0.00000000000E+00 -0.13176362205E+04  0.13176362205E+04  0.00000000000E+00 0.  1.
        -24    2    1    2    0    0  0.10376745885E+03 -0.51110224516E+02 -0.94676860081E+03  0.95724645944E+03  0.81055906998E+02 0.  0.
         25    2    1    2    0    0 -0.88285778322E+02  0.30951280343E+02 -0.34186807289E+03  0.37586500484E+03  0.12509341386E+03 0.  0.
         24    2    1    2    0    0 -0.15481680533E+02  0.20158944173E+02  0.26151038232E+03  0.27503468533E+03  0.81303951985E+02 0.  0.
        -13    1    5    5    0    0  0.24463518114E+00  0.49233062544E+02  0.11983961753E+03  0.12955882148E+03  0.00000000000E+00 0.  1.
         14    1    5    5    0    0 -0.15726315714E+02 -0.29074118371E+02  0.14167076479E+03  0.14547586385E+03  0.00000000000E+00 0. -1.
         11    1    3    3    0    0 -0.10911165494E+02  0.57730623318E+01 -0.11893144736E+03  0.11957035984E+03  0.00000000000E+00 0. -1.
        -12    1    3    3    0    0  0.11467862435E+03 -0.56883286847E+02 -0.82783715345E+03  0.83767609960E+03  0.00000000000E+00 0.  1.
          5    1    4    4  501    0  0.23576696537E+02 -0.10880383617E+02 -0.12986393646E+03  0.13250040664E+03  0.41800000000E+01 0. -1.
         -5    1    4    4    0  501 -0.11186247486E+03  0.41831663959E+02 -0.21200413643E+03  0.24336459820E+03  0.41800000000E+01 0. -1.
</event>
<event>
11    1  0.8502278E-009  0.2175283E+03  0.7561462E-02  0.1042777E+00
         22   -1    0    0    0    0  0.00000000000E+00  0.00000000000E+00  0.23703672328E+04  0.23703672328E+04  0.00000000000E+00 0.  1.
         22   -1    0    0    0    0 -0.00000000000E+00 -0.00000000000E+00 -0.73601314857E+03  0.73601314857E+03  0.00000000000E+00 0. -1.
         24    2    1    2    0    0  0.10427416278E+03 -0.13631192660E+03 -0.60014372917E+03  0.62928944282E+03  0.79866543797E+02 0.  0.
         25    2    1    2    0    0 -0.20524348682E+03  0.16266083800E+03  0.57204175881E+02  0.29580935280E+03  0.12508964132E+03 0.  0.
        -24    2    1    2    0    0  0.10096932403E+03 -0.26348911399E+02  0.21772936376E+04  0.21812815858E+04  0.80577309657E+02 0.  0.
        -11    1    3    3    0    0  0.58265752200E+01 -0.59647552300E+02 -0.26444712231E+03  0.27115320387E+03  0.00000000000E+00 0.  1.
         12    1    3    3    0    0  0.98447587563E+02 -0.76664374299E+02 -0.33569660686E+03  0.35813623894E+03  0.00000000000E+00 0. -1.
         13    1    5    5    0    0  0.15900495168E+02 -0.10490211545E+02  0.81278954365E+02  0.83481367427E+02  0.00000000000E+00 0. -1.
        -14    1    5    5    0    0  0.85068828866E+02 -0.15858699854E+02  0.20960146832E+04  0.20978002184E+04  0.00000000000E+00 0.  1.
          5    1    4    4  501    0 -0.87849330860E+02  0.70787852748E+02 -0.37720035076E+02  0.11903234214E+03  0.41800000000E+01 0.  1.
         -5    1    4    4    0  501 -0.11739415596E+03  0.91872985250E+02  0.94924210957E+02  0.17677701066E+03  0.41800000000E+01 0.  1.
</event>
<event>
11    1  0.7577197E-009  0.1286671E+03  0.7561462E-02  0.1120918E+00
         22   -1    0    0    0    0  0.00000000000E+00  0.00000000000E+00  0.33481947086E+03  0.33481947086E+03  0.00000000000E+00 0.  1.
         22   -1    0    0    0    0 -0.00000000000E+00 -0.00000000000E+00 -0.19345605418E+03  0.19345605418E+03  0.00000000000E+00 0.  1.
         24    2    1    2    0    0  0.32833173268E+02 -0.10914316645E+02 -0.98200851752E+02  0.13021394303E+03  0.78199258949E+02 0.  0.
         25    2    1    2    0    0 -0.88003252766E+01  0.17858310491E+02 -0.17301817138E+02  0.12783822629E+03  0.12508754633E+03 0.  0.
        -24    2    1    2    0    0 -0.24032847991E+02 -0.69439938458E+01  0.25686608557E+03  0.27022335571E+03  0.80091692585E+02 0.  0.
        -11    1    3    3    0    0  0.50555777388E+02  0.14808982202E+01 -0.95957446508E+02  0.10847078513E+03  0.00000000000E+00 0.  1.
         12    1    3    3    0    0 -0.17722604120E+02 -0.12395214865E+02 -0.22434052439E+01  0.21743157899E+02  0.00000000000E+00 0. -1.
         13    1    5    5    0    0 -0.48076225403E+02  0.13161426880E+02  0.12255149489E+03  0.13230047432E+03  0.00000000000E+00 0. -1.
        -14    1    5    5    0    0  0.24043377411E+02 -0.20105420726E+02  0.13431459068E+03  0.13792288139E+03  0.00000000000E+00 0.  1.
          5    1    4    4  501    0 -0.57229005748E+02  0.26628447827E+02 -0.38537448194E+02  0.74073211392E+02  0.41800000000E+01 0. -1.
         -5    1    4    4    0  501  0.48428680471E+02 -0.87701373361E+01  0.21235631055E+02  0.53765014902E+02  0.41800000000E+01 0. -1.
</event>
<event>
11    1  0.7577197E-009  0.1436193E+03  0.7561462E-02  0.1103583E+00
         22   -1    0    0    0    0  0.00000000000E+00  0.00000000000E+00  0.33481969377E+03  0.33481969377E+03  0.00000000000E+00 0.  1.
         22   -1    0    0    0    0 -0.00000000000E+00 -0.00000000000E+00 -0.36663691502E+03  0.36663691502E+03  0.00000000000E+00 0. -1.
        -24    2    1    2    0    0 -0.26814291734E+02  0.65212979470E+02 -0.31935061481E+03  0.33702805848E+03  0.81433151070E+02 0.  0.
         25    2    1    2    0    0  0.28896262008E+02 -0.65635318217E+02  0.16772605554E+03  0.22118438155E+03  0.12509001551E+03 0.  0.
         24    2    1    2    0    0 -0.20819702738E+01  0.42233874729E+00  0.11980733802E+03  0.14324416875E+03  0.78489366584E+02 0.  0.
        -13    1    5    5    0    0  0.26430627237E+02  0.25269651802E+02  0.81920850480E+02  0.89711532713E+02  0.00000000000E+00 0.  1.
         14    1    5    5    0    0 -0.28512597511E+02 -0.24847313055E+02  0.37886487545E+02  0.53532636039E+02  0.00000000000E+00 0. -1.
         11    1    3    3    0    0 -0.14359108171E+02  0.41154395194E+02 -0.30138589626E+03  0.30452147165E+03  0.00000000000E+00 0. -1.
        -12    1    3    3    0    0 -0.12455183563E+02  0.24058584276E+02 -0.17964718548E+02  0.32506586832E+02  0.00000000000E+00 0.  1.
          5    1    4    4  501    0  0.45431163022E+02  0.16399030773E+02  0.22336259450E+02  0.53378831666E+02  0.41800000000E+01 0. -1.
         -5    1    4    4    0  501 -0.16534901014E+02 -0.82034348991E+02  0.14538979609E+03  0.16780554988E+03  0.41800000000E+01 0. -1.
</event>
<event>
11    1  0.7577197E-009  0.1618597E+03  0.7561462E-02  0.1085341E+00
         22   -1    0    0    0    0  0.00000000000E+00  0.00000000000E+00  0.35348840410E+03  0.35348840410E+03  0.00000000000E+00 0. -1.
         22   -1    0    0    0    0 -0.00000000000E+00 -0.00000000000E+00 -0.26502252593E+03  0.26502252593E+03  0.00000000000E+00 0.  1.
        -24    2    1    2    0    0  0.63942462540E+02  0.16729528525E+01 -0.18341109435E+03  0.21133676724E+03  0.83259608277E+02 0.  0.
         25    2    1    2    0    0  0.98656887504E+01  0.88871642323E+02  0.98257249918E+02  0.18247552464E+03  0.12508928534E+03 0.  0.
         24    2    1    2    0    0 -0.73808151291E+02 -0.90544595176E+02  0.17361972260E+03  0.22469863816E+03  0.81851713503E+02 0.  0.
        -13    1    5    5    0    0 -0.43596626609E+02 -0.87279058592E+02  0.79676135979E+02  0.12596263956E+03  0.00000000000E+00 0.  1.
         14    1    5    5    0    0 -0.30211524682E+02 -0.32655365844E+01  0.93943586618E+02  0.98735998599E+02  0.00000000000E+00 0. -1.
         11    1    3    3    0    0 -0.15729834701E+02  0.12203782961E+02 -0.15663678115E+02  0.25332011969E+02  0.00000000000E+00 0. -1.
        -12    1    3    3    0    0  0.79672297242E+02 -0.10530830109E+02 -0.16774741623E+03  0.18600475527E+03  0.00000000000E+00 0.  1.
          5    1    4    4  501    0 -0.28978192117E+02  0.49750779990E+02  0.11155932415E+03  0.12560983613E+03  0.41800000000E+01 0.  1.
         -5    1    4    4    0  501  0.38843880868E+02  0.39120862334E+02 -0.13302074229E+02  0.56865688507E+02  0.41800000000E+01 0.  1.
</event>
<event>
11    1  0.7577197E-009  0.1423786E+03  0.7561462E-02  0.1104931E+00
         22   -1    0    0    0    0  0.00000000000E+00  0.00000000000E+00  0.52070929737E+02  0.52070929737E+02  0.00000000000E+00 0.  1.
         22   -1    0    0    0    0 -0.00000000000E+00 -0.00000000000E+00 -0.11209562747E+04  0.11209562747E+04  0.00000000000E+00 0.  1.
         24    2    1    2    0    0  0.54691441571E+01  0.65521381132E+02 -0.78451205332E+03  0.79104440462E+03  0.77260114848E+02 0.  0.
         25    2    1    2    0    0 -0.92914469813E+01 -0.81579842064E+02 -0.25381939108E+03  0.29464105067E+03  0.12508982308E+03 0.  0.
        -24    2    1    2    0    0  0.38223028243E+01  0.16058460932E+02 -0.30553900547E+02  0.87341749129E+02  0.80140851854E+02 0.  0.
        -11    1    3    3    0    0  0.11088294897E+02  0.76876295150E+02 -0.75423128055E+03  0.75822011289E+03  0.00000000000E+00 0.  1.
         12    1    3    3    0    0 -0.56191507401E+01 -0.11354914017E+02 -0.30280772773E+02  0.32824291723E+02  0.00000000000E+00 0. -1.
         11    1    5    5    0    0 -0.18822714060E+02 -0.23960601045E+02 -0.27851123302E+02  0.41280625434E+02  0.00000000000E+00 0. -1.
        -12    1    5    5    0    0  0.22645016885E+02  0.40019061977E+02 -0.27027772446E+01  0.46061123695E+02  0.00000000000E+00 0.  1.
          5    1    4    4  501    0 -0.31703022114E+02 -0.65151994514E+02 -0.25635128370E+03  0.26642694507E+03  0.41800000000E+01 0.  1.
         -5    1    4    4    0  501  0.22411575132E+02 -0.16427847551E+02  0.25318926258E+01  0.28214105609E+02  0.41800000000E+01 0.  1.
</event>
<event>
11    1  0.1755454E-008  0.1752838E+03  0.7561462E-02  0.1073523E+00
         22   -1    0    0    0    0  0.00000000000E+00  0.00000000000E+00  0.49925646648E+03  0.49925646648E+03  0.00000000000E+00 0.  1.
         22   -1    0    0    0    0 -0.00000000000E+00 -0.00000000000E+00 -0.11786057428E+04  0.11786057428E+04  0.00000000000E+00 0.  1.
        -24    2    1    2    0    0  0.74396746689E+01  0.10152629852E+03 -0.83818712095E+03  0.84620792279E+03  0.56100452909E+02 0.  0.
         25    2    1    2    0    0 -0.10638999798E+03 -0.17047266932E+03 -0.28199826601E+03  0.36817098900E+03  0.12508833860E+03 0.  0.
         24    2    1    2    0    0  0.98950323313E+02  0.68946370806E+02  0.44083611063E+03  0.46348329750E+03  0.77042339629E+02 0.  0.
        -11    1    5    5    0    0  0.47772390382E+02  0.37919115137E+02  0.34604971268E+03  0.35138364250E+03  0.00000000000E+00 0.  1.
         12    1    5    5    0    0  0.51177932931E+02  0.31027255669E+02  0.94786397953E+02  0.11209965500E+03  0.00000000000E+00 0. -1.
         13    1    3    3    0    0 -0.15685646609E+02  0.15169686286E+02 -0.85933727465E+02  0.88660951989E+02  0.00000000000E+00 0. -1.
        -14    1    3    3    0    0  0.23125321278E+02  0.86356612230E+02 -0.75225339348E+03  0.75754697080E+03  0.00000000000E+00 0.  1.
          5    1    4    4  501    0 -0.66830323375E+02 -0.44109963271E+02 -0.34178052614E+02  0.87164170750E+02  0.41800000000E+01 0. -1.
         -5    1    4    4    0  501 -0.39559674608E+02 -0.12636270605E+03 -0.24782021340E+03  0.28100681825E+03  0.41800000000E+01 0. -1.
</event>
<event>
11    1  0.7577197E-009  0.1714438E+03  0.7561462E-02  0.1076782E+00
         22   -1    0    0    0    0  0.00000000000E+00  0.00000000000E+00  0.28660452111E+04  0.28660452111E+04  0.00000000000E+00 0.  1.
         22   -1    0    0    0    0 -0.00000000000E+00 -0.00000000000E+00 -0.22112903964E+03  0.22112903964E+03  0.00000000000E+00 0. -1.
        -24    2    1    2    0    0  0.24827446233E+02  0.62797395081E+02 -0.52789367973E+02  0.12304809248E+03  0.88284770924E+02 0.  0.
         25    2    1    2    0    0  0.79382733221E+02 -0.75731419273E+01 -0.89522327432E+02  0.17326563667E+03  0.12509101858E+03 0.  0.
         24    2    1    2    0    0 -0.10421017945E+03 -0.55224253154E+02  0.27872278669E+04  0.27908605216E+04  0.79710660868E+02 0.  0.
        -13    1    5    5    0    0 -0.11072452952E+03 -0.30052628051E+02  0.24164533929E+04  0.24191754963E+04  0.00000000000E+00 0.  1.
         14    1    5    5    0    0  0.65143500634E+01 -0.25171625103E+02  0.37077447399E+03  0.37168502529E+03  0.00000000000E+00 0. -1.
         11    1    3    3    0    0 -0.72856936264E+01 -0.61487436912E+01 -0.45673547776E+02  0.46657918374E+02  0.00000000000E+00 0. -1.
        -12    1    3    3    0    0  0.32113139859E+02  0.68946138772E+02 -0.71158201976E+01  0.76390174108E+02  0.00000000000E+00 0.  1.
          5    1    4    4  501    0 -0.18534696035E+02 -0.35886157969E+02 -0.52474094133E+01  0.40943363277E+02  0.41800000000E+01 0.  1.
         -5    1    4    4    0  501  0.97917429255E+02  0.28313016041E+02 -0.84274918019E+02  0.13232227340E+03  0.41800000000E+01 0.  1.
</event>
<event>
11    1  0.7577197E-009  0.1467369E+03  0.7561462E-02  0.1100260E+00
         22   -1    0    0    0    0  0.00000000000E+00  0.00000000000E+00  0.18690617198E+04  0.18690617198E+04  0.00000000000E+00 0.  1.
         22   -1    0    0    0    0 -0.00000000000E+00 -0.00000000000E+00 -0.14874047711E+03  0.14874047711E+03  0.00000000000E+00 0.  1.
        -24    2    1    2    0    0 -0.34324203193E+02 -0.53275993131E+01 -0.11794084170E+03  0.14845761309E+03  0.83205087011E+02 0.  0.
         25    2    1    2    0    0  0.70993638212E+02  0.69106444686E+02  0.46301999163E+03  0.48974567364E+03  0.12509002692E+03 0.  0.
         24    2    1    2    0    0 -0.36669435019E+02 -0.63778845373E+02  0.13752420927E+04  0.13795989101E+04  0.81178511380E+02 0.  0.
        -11    1    5    5    0    0 -0.25077348295E+02  0.81642097190E+01  0.68777942990E+03  0.68828487701E+03  0.00000000000E+00 0.  1.
         12    1    5    5    0    0 -0.11592086724E+02 -0.71943055092E+02  0.68746266280E+03  0.69131403312E+03  0.00000000000E+00 0. -1.
         11    1    3    3    0    0  0.22701959836E+02 -0.20216355523E+02 -0.30955950764E+02  0.43386068026E+02  0.00000000000E+00 0. -1.
        -12    1    3    3    0    0 -0.57026163029E+02  0.14888756210E+02 -0.86984890931E+02  0.10507154506E+03  0.00000000000E+00 0.  1.
          5    1    4    4  501    0  0.63845354564E+02 -0.19797803791E+02  0.24892341646E+03  0.25777610827E+03  0.41800000000E+01 0.  1.
         -5    1    4    4    0  501  0.71482836481E+01  0.88904248478E+02  0.21409657517E+03  0.23196956537E+03  0.41800000000E+01 0.  1.
</event>
<event>
11    1  0.7577197E-009  0.1962858E+03  0.7561462E-02  0.1057182E+00
         22   -1    0    0    0    0  0.00000000000E+00  0.00000000000E+00  0.96190793101E+02  0.96190793101E+02  0.00000000000E+00 0.  1.
         22   -1    0    0    0    0 -0.00000000000E+00 -0.00000000000E+00 -0.12457941589E+04  0.12457941589E+04  0.00000000000E+00 0. -1.
         24    2    1    2    0    0 -0.13778822180E+03  0.60118984221E+02 -0.91319141080E+03  0.92904589565E+03  0.81288603946E+02 0.  0.
         25    2    1    2    0    0  0.14226126043E+03 -0.61922311695E+02 -0.26672912955E+03  0.33296317732E+03  0.12508960787E+03 0.  0.
        -24    2    1    2    0    0 -0.44730386245E+01  0.18033274734E+01  0.30317174521E+02  0.79975879060E+02  0.73849509788E+02 0.  0.
        -11    1    3    3    0    0 -0.10109682887E+03  0.11616743833E+02 -0.42162876392E+03  0.43373532495E+03  0.00000000000E+00 0.  1.
         12    1    3    3    0    0 -0.36691392931E+02  0.48502240388E+02 -0.49156264688E+03  0.49531057069E+03  0.00000000000E+00 0. -1.
         11    1    5    5    0    0 -0.64186823309E+01  0.28575677381E+02 -0.10508678744E+02  0.31115930801E+02  0.00000000000E+00 0. -1.
        -12    1    5    5    0    0  0.19456437063E+01 -0.26772349908E+02  0.40825853266E+02  0.48859948259E+02  0.00000000000E+00 0.  1.
          5    1    4    4  501    0  0.10739443951E+02 -0.66486513326E+02 -0.96631932432E+02  0.11786006481E+03  0.41800000000E+01 0. -1.
         -5    1    4    4    0  501  0.13152181648E+03  0.45642016310E+01 -0.17009719712E+03  0.21510311251E+03  0.41800000000E+01 0. -1.
</event>
<event>
11    1  0.7577197E-009  0.1431141E+03  0.7561462E-02  0.1104130E+00
         22   -1    0    0    0    0  0.00000000000E+00  0.00000000000E+00  0.14606196231E+04  0.14606196231E+04  0.00000000000E+00 0. -1.
         22   -1    0    0    0    0 -0.00000000000E+00 -0.00000000000E+00 -0.42779911110E+03  0.42779911110E+03  0.00000000000E+00 0. -1.
        -24    2    1    2    0    0 -0.11466084684E+03 -0.59338829822E+02 -0.33803381865E+03  0.37035989820E+03  0.78939122887E+02 0.  0.
         25    2    1    2    0    0 -0.22408174002E+01  0.47408255978E+02 -0.58657710495E+01  0.13392251760E+03  0.12509304318E+03 0.  0.
         24    2    1    2    0    0  0.11690166424E+03  0.11930573844E+02  0.13767201017E+04  0.13841363184E+04  0.81650301848E+02 0.  0.
        -13    1    5    5    0    0 -0.61392959045E+01 -0.15528318851E+02  0.13332874399E+03  0.13437028546E+03  0.00000000000E+00 0.  1.
         14    1    5    5    0    0  0.12304096014E+03  0.27458892695E+02  0.12433913577E+04  0.12497660329E+04  0.00000000000E+00 0. -1.
         13    1    3    3    0    0 -0.21641515801E+02  0.99858825753E+01 -0.12998766926E+03  0.13215470940E+03  0.00000000000E+00 0. -1.
        -14    1    3    3    0    0 -0.93019331038E+02 -0.69324712397E+02 -0.20804614939E+03  0.23820518880E+03  0.00000000000E+00 0.  1.
          5    1    4    4  501    0 -0.19590049882E+01 -0.41663384236E+01  0.54249409073E+02  0.54604641388E+02  0.41800000000E+01 0.  1.
         -5    1    4    4    0  501 -0.28181241202E+00  0.51574594401E+02 -0.60115180122E+02  0.79317876213E+02  0.41800000000E+01 0.  1.
</event>
<event>
11    1  0.7577197E-009  0.7615688E+03  0.7561462E-02  0.8946189E-01
         22   -1    0    0    0    0  0.00000000000E+00  0.00000000000E+00  0.67400657272E+03  0.67400657272E+03  0.00000000000E+00 0.  1.
         22   -1    0    0    0    0 -0.00000000000E+00 -0.00000000000E+00 -0.37943599229E+04  0.37943599229E+04  0.00000000000E+00 0.  1.
         24    2    1    2    0    0 -0.43673281650E+03  0.53079561584E+03 -0.10534454979E+04  0.12604881433E+04  0.81261328589E+02 0.  0.
         25    2    1    2    0    0  0.92065000892E+03  0.58637442059E+02 -0.22364480518E+04  0.24224742044E+04  0.12508634698E+03 0.  0.
        -24    2    1    2    0    0 -0.48391719241E+03 -0.58943305790E+03  0.16954019946E+03  0.78540414795E+03  0.80676003411E+02 0.  0.
        -11    1    3    3    0    0 -0.33854692764E+03  0.44899556973E+03 -0.81882129133E+03  0.99331734656E+03  0.00000000000E+00 0.  1.
         12    1    3    3    0    0 -0.98185888866E+02  0.81800046114E+02 -0.23462420653E+03  0.26717079669E+03  0.00000000000E+00 0. -1.
         11    1    5    5    0    0 -0.29756058212E+03 -0.29939374016E+03  0.90101197510E+02  0.43162152109E+03  0.00000000000E+00 0. -1.
        -12    1    5    5    0    0 -0.18635661029E+03 -0.29003931774E+03  0.79439001954E+02  0.35378262686E+03  0.00000000000E+00 0.  1.
          5    1    4    4  501    0  0.68463484335E+03  0.92927993081E+02 -0.16006350413E+04  0.17433905152E+04  0.41800000000E+01 0.  1.
         -5    1    4    4    0  501  0.23601516557E+03 -0.34290551021E+02 -0.63581301051E+03  0.67908368925E+03  0.41800000000E+01 0.  1.
</event>
<event>
11    1  0.7577197E-009  0.1610441E+03  0.7561462E-02  0.1086099E+00
         22   -1    0    0    0    0  0.00000000000E+00  0.00000000000E+00  0.75687087558E+03  0.75687087558E+03  0.00000000000E+00 0. -1.
         22   -1    0    0    0    0 -0.00000000000E+00 -0.00000000000E+00 -0.24635955362E+03  0.24635955362E+03  0.00000000000E+00 0.  1.
        -24    2    1    2    0    0  0.56126384841E+02  0.39248915363E+01 -0.19206606973E+03  0.21561005465E+03  0.80204393135E+02 0.  0.
         25    2    1    2    0    0 -0.12607597749E+03 -0.65226612403E+02  0.22310330682E+03  0.29252652739E+03  0.12508805157E+03 0.  0.
         24    2    1    2    0    0  0.69949592654E+02  0.61301720867E+02  0.47947408487E+03  0.49509384716E+03  0.81065855563E+02 0.  0.
        -11    1    5    5    0    0  0.12433638622E+02 -0.16759378008E+02  0.40746517618E+02  0.45779371103E+02  0.00000000000E+00 0.  1.
         12    1    5    5    0    0  0.57515954032E+02  0.78061098875E+02  0.43872756726E+03  0.44931447606E+03  0.00000000000E+00 0. -1.
         11    1    3    3    0    0  0.33472604441E+02  0.35765135638E+02 -0.57761110618E+02  0.75735764835E+02  0.00000000000E+00 0. -1.
        -12    1    3    3    0    0  0.22653780399E+02 -0.31840244102E+02 -0.13430495911E+03  0.13987428982E+03  0.00000000000E+00 0.  1.
          5    1    4    4  501    0 -0.14472774071E+03 -0.44199010812E+02  0.21505125857E+03  0.26299085098E+03  0.41800000000E+01 0.  1.
         -5    1    4    4    0  501  0.18651763218E+02 -0.21027601591E+02  0.80520482519E+01  0.29535676408E+02  0.41800000000E+01 0.  1.
</event>
<event>
11    1  0.7577197E-009  0.1404596E+03  0.7561462E-02  0.1107046E+00
         22   -1    0    0    0    0  0.00000000000E+00  0.00000000000E+00  0.13658773554E+04  0.13658773554E+04  0.00000000000E+00 0. -1.
         22   -1    0    0    0    0 -0.00000000000E+00 -0.00000000000E+00 -0.88892814053E+02  0.88892814053E+02  0.00000000000E+00 0. -1.
         24    2    1    2    0    0  0.39251478685E+02  0.55540980033E+02 -0.32279501877E+02  0.10966024255E+03  0.79736588295E+02 0.  0.
         25    2    1    2    0    0 -0.54163048375E+02  0.13004679381E+01  0.28344749796E+03  0.31452382160E+03  0.12508966075E+03 0.  0.
        -24    2    1    2    0    0  0.14911569690E+02 -0.56841447971E+02  0.10258165453E+04  0.10305861053E+04  0.79717192581E+02 0.  0.
        -11    1    3    3    0    0  0.23068916930E+02  0.68555495011E+01  0.23665499626E+02  0.33752471907E+02  0.00000000000E+00 0.  1.
         12    1    3    3    0    0  0.16182561755E+02  0.48685430532E+02 -0.55945001503E+02  0.75907770644E+02  0.00000000000E+00 0. -1.
         11    1    5    5    0    0 -0.69184907537E+01 -0.66351016494E+02  0.52758830419E+03  0.53178918908E+03  0.00000000000E+00 0. -1.
        -12    1    5    5    0    0  0.21830060444E+02  0.95095685225E+01  0.49822824108E+03  0.49879691623E+03  0.00000000000E+00 0.  1.
          5    1    4    4  501    0 -0.59182513439E+02  0.33339120323E+02  0.27119832457E+03  0.27960699292E+03  0.41800000000E+01 0.  1.
         -5    1    4    4    0  501  0.50194650644E+01 -0.32038652385E+02  0.12249173395E+02  0.34916828679E+02  0.41800000000E+01 0.  1.
</event>
<event>
11    1  0.7577197E-009  0.1433348E+03  0.7561462E-02  0.1103891E+00
         22   -1    0    0    0    0  0.00000000000E+00  0.00000000000E+00  0.18961960178E+03  0.18961960178E+03  0.00000000000E+00 0.  1.
         22   -1    0    0    0    0 -0.00000000000E+00 -0.00000000000E+00 -0.35467742476E+04  0.35467742476E+04  0.00000000000E+00 0.  1.
        -24    2    1    2    0    0 -0.48285470725E+02  0.77601374727E+01 -0.33264672931E+04  0.33277967435E+04  0.80341815207E+02 0.  0.
         25    2    1    2    0    0 -0.26205833869E+01 -0.59500161514E+02 -0.17459448217E+03  0.22288239346E+03  0.12508473701E+03 0.  0.
         24    2    1    2    0    0  0.50906054112E+02  0.51740024041E+02  0.14390712949E+03  0.18571471243E+03  0.92261780073E+02 0.  0.
        -11    1    5    5    0    0  0.26286475362E+02  0.45760765669E+02  0.15054286890E+03  0.15952486276E+03  0.00000000000E+00 0.  1.
         12    1    5    5    0    0  0.24619578750E+02  0.59792583723E+01 -0.66357394070E+01  0.26189849675E+02  0.00000000000E+00 0. -1.
         11    1    3    3    0    0  0.43194846429E+01  0.34689806895E+02 -0.12292155441E+04  0.12297125251E+04  0.00000000000E+00 0. -1.
        -12    1    3    3    0    0 -0.52604955368E+02 -0.26929669423E+02 -0.20972517490E+04  0.20980842183E+04  0.00000000000E+00 0.  1.
          5    1    4    4  501    0  0.10355299444E+02 -0.62231204918E+02 -0.19110817304E+03  0.20129520931E+03  0.41800000000E+01 0.  1.
         -5    1    4    4    0  501 -0.12975882831E+02  0.27310434043E+01  0.16513690866E+02  0.21587184145E+02  0.41800000000E+01 0.  1.
</event>
<event>
11    1  0.7577197E-009  0.1410861E+03  0.7561462E-02  0.1106352E+00
         22   -1    0    0    0    0  0.00000000000E+00  0.00000000000E+00  0.24770624859E+04  0.24770624859E+04  0.00000000000E+00 0. -1.
         22   -1    0    0    0    0 -0.00000000000E+00 -0.00000000000E+00 -0.39042988225E+03  0.39042988225E+03  0.00000000000E+00 0.  1.
         24    2    1    2    0    0 -0.20851047358E+02 -0.66484264177E+02 -0.23153103936E+03  0.25418446803E+03  0.78410446006E+02 0.  0.
         25    2    1    2    0    0 -0.31035346551E+02  0.59531675198E+02 -0.11223011193E+03  0.18097037933E+03  0.12508983605E+03 0.  0.
        -24    2    1    2    0    0  0.51886393909E+02  0.69525889787E+01  0.24303937549E+04  0.24323375208E+04  0.81923590387E+02 0.  0.
        -13    1    3    3    0    0 -0.14287974324E-01 -0.62862749151E+02 -0.22246135867E+03  0.23117262281E+03  0.00000000000E+00 0.  1.
         14    1    3    3    0    0 -0.20836759384E+02 -0.36215150262E+01 -0.90696806864E+01  0.23011845221E+02  0.00000000000E+00 0. -1.
         11    1    5    5    0    0  0.54883685240E+02  0.16069866398E+02  0.23945008544E+04  0.23951836675E+04  0.00000000000E+00 0. -1.
        -12    1    5    5    0    0 -0.29972913309E+01 -0.91172774188E+01  0.35892900495E+02  0.37153853216E+02  0.00000000000E+00 0.  1.
          5    1    4    4  501    0 -0.16027827498E+02 -0.34993628652E+02 -0.82486430672E+01  0.39584817961E+02  0.41800000000E+01 0.  1.
         -5    1    4    4    0  501 -0.15007519053E+02  0.94525303851E+02 -0.10398146886E+03  0.14138556137E+03  0.41800000000E+01 0.  1.
</event>
<event>
11    1  0.7577197E-009  0.1815001E+03  0.7561462E-02  0.1068436E+00
         22   -1    0    0    0    0  0.00000000000E+00  0.00000000000E+00  0.11414458101E+03  0.11414458101E+03  0.00000000000E+00 0.  1.
         22   -1    0    0    0    0 -0.00000000000E+00 -0.00000000000E+00 -0.17322580011E+04  0.17322580011E+04  0.00000000000E+00 0.  1.
         24    2    1    2    0    0 -0.10334237170E+03  0.75367997463E+02 -0.12044025127E+04  0.12139331680E+04  0.81782289609E+02 0.  0.
         25    2    1    2    0    0  0.16605383402E+03 -0.16246320483E+02 -0.46052309913E+03  0.50553658862E+03  0.12509156198E+03 0.  0.
        -24    2    1    2    0    0 -0.62711462317E+02 -0.59121676979E+02  0.46812191693E+02  0.12693282556E+03  0.80575807275E+02 0.  0.
        -11    1    3    3    0    0 -0.28902521322E+02  0.87986326233E+01 -0.64358641908E+03  0.64429515791E+03  0.00000000000E+00 0.  1.
         12    1    3    3    0    0 -0.74439850381E+02  0.66569364839E+02 -0.56081609360E+03  0.56963801006E+03  0.00000000000E+00 0. -1.
         13    1    5    5    0    0 -0.80459804182E+01  0.19313967829E+02  0.16470445744E+02  0.26627856413E+02  0.00000000000E+00 0. -1.
        -14    1    5    5    0    0 -0.54665481899E+02 -0.78435644808E+02  0.30341745949E+02  0.10030496914E+03  0.00000000000E+00 0.  1.
          5    1    4    4  501    0  0.11781369513E+03  0.31007606320E+02 -0.18297405960E+03  0.21986022218E+03  0.41800000000E+01 0. -1.
         -5    1    4    4    0  501  0.48240138892E+02 -0.47253926803E+02 -0.27754903953E+03  0.28567636644E+03  0.41800000000E+01 0. -1.
</event>
<event>
11    1  0.7577197E-009  0.1419954E+03  0.7561462E-02  0.1105350E+00
         22   -1    0    0    0    0  0.00000000000E+00  0.00000000000E+00  0.84505661010E+03  0.84505661010E+03  0.00000000000E+00 0.  1.
         22   -1    0    0    0    0 -0.00000000000E+00 -0.00000000000E+00 -0.40852903334E+03  0.40852903334E+03  0.00000000000E+00 0.  1.
        -24    2    1    2    0    0  0.12371719539E+02  0.63295362896E+02 -0.33503770833E+03  0.35027860339E+03  0.79280966080E+02 0.  0.
         25    2    1    2    0    0  0.26622213217E+01 -0.10818506393E+03  0.46061558785E+02  0.17169482968E+03  0.12508537828E+03 0.  0.
         24    2    1    2    0    0 -0.15033940861E+02  0.44889701038E+02  0.72550372630E+03  0.73161221037E+03  0.81606769603E+02 0.  0.
        -13    1    5    5    0    0 -0.33697132097E+02  0.60967115897E+02  0.54633635760E+03  0.55075938627E+03  0.00000000000E+00 0.  1.
         14    1    5    5    0    0  0.18663191236E+02 -0.16077414859E+02  0.17916736870E+03  0.18085282410E+03  0.00000000000E+00 0. -1.
         13    1    3    3    0    0  0.42310755414E+01  0.95462159215E+01  0.41450624062E+00  0.10450074358E+02  0.00000000000E+00 0. -1.
        -14    1    3    3    0    0  0.81406439980E+01  0.53749146975E+02 -0.33545221457E+03  0.33982852903E+03  0.00000000000E+00 0.  1.
          5    1    4    4  501    0  0.16111351074E+02 -0.11046792286E+03 -0.11580301643E+02  0.11231346046E+03  0.41800000000E+01 0. -1.
         -5    1    4    4    0  501 -0.13449129753E+02  0.22828589294E+01  0.57641860427E+02  0.59381369212E+02  0.41800000000E+01 0. -1.
</event>
<event>
11    1  0.7577197E-009  0.1772179E+03  0.7561462E-02  0.1071916E+00
         22   -1    0    0    0    0  0.00000000000E+00  0.00000000000E+00  0.22171087109E+03  0.22171087109E+03  0.00000000000E+00 0. -1.
         22   -1    0    0    0    0 -0.00000000000E+00 -0.00000000000E+00 -0.20619360878E+03  0.20619360878E+03  0.00000000000E+00 0.  1.
        -24    2    1    2    0    0 -0.76203278651E+02 -0.95156570028E+02 -0.51233612297E+02  0.15386053195E+03  0.78654102027E+02 0.  0.
         25    2    1    2    0    0  0.82088579249E+02  0.10458335864E+03  0.28507540042E+02  0.18478677439E+03  0.12512896709E+03 0.  0.
         24    2    1    2    0    0 -0.58853005980E+01 -0.94267886112E+01  0.38243334571E+02  0.89257173528E+02  0.79879842767E+02 0.  0.
        -11    1    5    5    0    0 -0.20447957362E+02 -0.10307345570E+02 -0.19266368584E+02  0.29925796420E+02  0.00000000000E+00 0.  1.
         12    1    5    5    0    0  0.14562656764E+02  0.88055695851E+00  0.57509703155E+02  0.59331377108E+02  0.00000000000E+00 0. -1.
         11    1    3    3    0    0 -0.54686890995E+02 -0.94265566100E+01 -0.10248741968E+02  0.56431841439E+02  0.00000000000E+00 0. -1.
        -12    1    3    3    0    0 -0.21516387656E+02 -0.85730013418E+02 -0.40984870329E+02  0.97428690509E+02  0.00000000000E+00 0.  1.
          5    1    4    4  501    0  0.55054710843E+02  0.90160208138E+02 -0.37271961941E+02  0.11210065060E+03  0.41800000000E+01 0.  1.
         -5    1    4    4    0  501  0.27033868407E+02  0.14423150501E+02  0.65779501983E+02  0.72686123797E+02  0.41800000000E+01 0.  1.
</event>
<event>
11    1  0.7577197E-009  0.4452965E+03  0.7561462E-02  0.9524819E-01
         22   -1    0    0    0    0  0.00000000000E+00  0.00000000000E+00  0.44952467958E+03  0.44952467958E+03  0.00000000000E+00 0. -1.
         22   -1    0    0    0    0 -0.00000000000E+00 -0.00000000000E+00 -0.10474797337E+04  0.10474797337E+04  0.00000000000E+00 0. -1.
        -24    2    1    2    0    0  0.40535872533E+02 -0.35624843670E+03  0.72526065024E+01  0.36731480098E+03  0.79444679531E+02 0.  0.
         25    2    1    2    0    0 -0.41969292651E+03  0.35444544412E+03 -0.40241345340E+03  0.69235594127E+03  0.12508571668E+03 0.  0.
         24    2    1    2    0    0  0.37915705398E+03  0.18029925820E+01 -0.20279420718E+03  0.43733367097E+03  0.79824350534E+02 0.  0.
        -13    1    5    5    0    0  0.75286218050E+02 -0.39317687912E+01 -0.78897919375E+02  0.10912541004E+03  0.00000000000E+00 0.  1.
         14    1    5    5    0    0  0.30387083593E+03  0.57347613732E+01 -0.12389628781E+03  0.32820826094E+03  0.00000000000E+00 0. -1.
         13    1    3    3    0    0  0.49176155944E+02 -0.26198912377E+03 -0.23979303964E+02  0.26764080837E+03  0.00000000000E+00 0. -1.
        -14    1    3    3    0    0 -0.86402834110E+01 -0.94259312938E+02  0.31231910466E+02  0.99673992617E+02  0.00000000000E+00 0.  1.
          5    1    4    4  501    0 -0.12144918149E+03  0.41058113095E+02 -0.65631832692E+02  0.14408567659E+03  0.41800000000E+01 0. -1.
         -5    1    4    4    0  501 -0.29824374502E+03  0.31338733103E+03 -0.33678162070E+03  0.54827026468E+03  0.41800000000E+01 0. -1.
</event>
<event>
11    1  0.7577197E-009  0.1741760E+03  0.7561462E-02  0.1074454E+00
         22   -1    0    0    0    0  0.00000000000E+00  0.00000000000E+00  0.19327230677E+03  0.19327230677E+03  0.00000000000E+00 0.  1.
         22   -1    0    0    0    0 -0.00000000000E+00 -0.00000000000E+00 -0.32633527340E+03  0.32633527340E+03  0.00000000000E+00 0.  1.
         24    2    1    2    0    0  0.22821664426E+02 -0.91917861314E+02 -0.13470164198E+03  0.18356217119E+03  0.81122233346E+02 0.  0.
         25    2    1    2    0    0  0.92243745686E+02 -0.13058212162E+01 -0.44948319895E+02  0.16179555641E+03  0.12508731681E+03 0.  0.
        -24    2    1    2    0    0 -0.11506541011E+03  0.93223682530E+02  0.46586995249E+02  0.17424985257E+03  0.79132543273E+02 0.  0.
        -11    1    3    3    0    0  0.31459884184E+02 -0.10065430039E+03 -0.13495785061E+03  0.17127356463E+03  0.00000000000E+00 0.  1.
         12    1    3    3    0    0 -0.86382197581E+01  0.87364390729E+01  0.25620863117E+00  0.12288606558E+02  0.00000000000E+00 0. -1.
         13    1    5    5    0    0 -0.19715925406E+02 -0.70291985334E+01  0.27537148092E+02  0.34589331761E+02  0.00000000000E+00 0. -1.
        -14    1    5    5    0    0 -0.95349484705E+02  0.10025288106E+03  0.19049847156E+02  0.13966052081E+03  0.00000000000E+00 0.  1.
          5    1    4    4  501    0  0.78952331038E+02  0.11725966060E+02  0.29304968890E+02  0.85130619979E+02  0.41800000000E+01 0.  1.
         -5    1    4    4    0  501  0.13291414648E+02 -0.13031787276E+02 -0.74253288785E+02  0.76664936433E+02  0.41800000000E+01 0.  1.
</event>
<event>
11    1  0.7577197E-009  0.1308531E+03  0.7561462E-02  0.1118225E+00
         22   -1    0    0    0    0  0.00000000000E+00  0.00000000000E+00  0.50187827555E+03  0.50187827555E+03  0.00000000000E+00 0.  1.
         22   -1    0    0    0    0 -0.00000000000E+00 -0.00000000000E+00 -0.30092572481E+03  0.30092572481E+03  0.00000000000E+00 0.  1.
        -24    2    1    2    0    0 -0.28360368866E+02  0.30031821354E+01 -0.21299514675E+03  0.22987725597E+03  0.81628981676E+02 0.  0.
         25    2    1    2    0    0  0.56808191620E+02  0.20788189696E+02 -0.92638821589E+01  0.13925543270E+03  0.12508771545E+03 0.  0.
         24    2    1    2    0    0 -0.28447822753E+02 -0.23791371831E+02  0.42321157965E+03  0.43367131169E+03  0.87106012662E+02 0.  0.
        -13    1    5    5    0    0 -0.20135355641E+02 -0.48818426944E+02  0.37516393333E+03  0.37886230774E+03  0.00000000000E+00 0.  1.
         14    1    5    5    0    0 -0.83124671120E+01  0.25027055113E+02  0.48047646322E+02  0.54809003952E+02  0.00000000000E+00 0. -1.
         11    1    3    3    0    0  0.21828718771E+02  0.21312411994E+02 -0.52458215012E+02  0.60684233459E+02  0.00000000000E+00 0. -1.
        -12    1    3    3    0    0 -0.50189087637E+02 -0.18309229859E+02 -0.16053693174E+03  0.16919302251E+03  0.00000000000E+00 0.  1.
          5    1    4    4  501    0  0.22474440415E+02  0.18633091751E+02  0.57168647962E+02  0.64327438080E+02  0.41800000000E+01 0. -1.
         -5    1    4    4    0  501  0.34333751204E+02  0.21550979450E+01 -0.66432530121E+02  0.74927994616E+02  0.41800000000E+01 0. -1.
</event>
<event>
11    1  0.7577197E-009  0.1755913E+03  0.7561462E-02  0.1073266E+00
         22   -1    0    0    0    0  0.00000000000E+00  0.00000000000E+00  0.94653060976E+02  0.94653060976E+02  0.00000000000E+00 0.  1.
         22   -1    0    0    0    0 -0.00000000000E+00 -0.00000000000E+00 -0.83125299464E+03  0.83125299464E+03  0.00000000000E+00 0. -1.
         24    2    1    2    0    0  0.72581509970E+02 -0.90088827319E+02 -0.41337376547E+03  0.43685751747E+03  0.81132904515E+02 0.  0.
         25    2    1    2    0    0 -0.12727028679E+03  0.72046992657E+02 -0.33607750442E+03  0.38727608404E+03  0.12508469628E+03 0.  0.
        -24    2    1    2    0    0  0.54688776816E+02  0.18041834662E+02  0.12851336224E+02  0.10177245411E+03  0.82922285692E+02 0.  0.
        -13    1    3    3    0    0 -0.10332333138E+02 -0.34911754534E+02 -0.17073279226E+03  0.17457168747E+03  0.00000000000E+00 0.  1.
         14    1    3    3    0    0  0.82913843107E+02 -0.55177072785E+02 -0.24264097321E+03  0.26228583000E+03  0.00000000000E+00 0. -1.
         11    1    5    5    0    0 -0.17441510262E+02  0.18611843662E+02 -0.79208746190E+01  0.26708561538E+02  0.00000000000E+00 0. -1.
        -12    1    5    5    0    0  0.72130287078E+02 -0.57000899936E+00  0.20772210843E+02  0.75063892568E+02  0.00000000000E+00 0.  1.
          5    1    4    4  501    0 -0.46967939487E+02  0.84621092116E+02 -0.10783733259E+03  0.14495888821E+03  0.41800000000E+01 0. -1.
         -5    1    4    4    0  501 -0.80302347299E+02 -0.12574099459E+02 -0.22824017183E+03  0.24231719583E+03  0.41800000000E+01 0. -1.
</event>
<event>
11    1  0.7577197E-009  0.1399379E+03  0.7561462E-02  0.1107628E+00
         22   -1    0    0    0    0  0.00000000000E+00  0.00000000000E+00  0.37870024220E+03  0.37870024220E+03  0.00000000000E+00 0.  1.
         22   -1    0    0    0    0 -0.00000000000E+00 -0.00000000000E+00 -0.74159249552E+03  0.74159249552E+03  0.00000000000E+00 0. -1.
        -24    2    1    2    0    0  0.17904176028E+02 -0.12058257823E+02 -0.29383487557E+03  0.30526109738E+03  0.79871411491E+02 0.  0.
         25    2    1    2    0    0  0.21792677743E+01 -0.47660919816E+02 -0.42458387477E+03  0.44519153909E+03  0.12509087610E+03 0.  0.
         24    2    1    2    0    0 -0.20083443802E+02  0.59719177638E+02  0.35552649701E+03  0.36984010124E+03  0.80080493985E+02 0.  0.
        -11    1    5    5    0    0  0.28879234515E+02  0.38894354648E+02  0.18225352784E+03  0.18858189048E+03  0.00000000000E+00 0.  1.
         12    1    5    5    0    0 -0.48962678317E+02  0.20824822991E+02  0.17327296918E+03  0.18125821076E+03  0.00000000000E+00 0. -1.
         11    1    3    3    0    0  0.35635775363E+02 -0.16040206148E+02 -0.27921668995E+03  0.28193821424E+03  0.00000000000E+00 0. -1.
        -12    1    3    3    0    0 -0.17731599335E+02  0.39819483255E+01 -0.14618185613E+02  0.23322883142E+02  0.00000000000E+00 0.  1.
          5    1    4    4  501    0  0.48484732973E+02 -0.35693657381E+02 -0.97961806207E+02  0.11505995995E+03  0.41800000000E+01 0. -1.
         -5    1    4    4    0  501 -0.46305465199E+02 -0.11967262435E+02 -0.32662206856E+03  0.33013157914E+03  0.41800000000E+01 0. -1.
</event>
<event>
11    1  0.7577197E-009  0.1517182E+03  0.7561462E-02  0.1095136E+00
         22   -1    0    0    0    0  0.00000000000E+00  0.00000000000E+00  0.35462040293E+03  0.35462040293E+03  0.00000000000E+00 0. -1.
         22   -1    0    0    0    0 -0.00000000000E+00 -0.00000000000E+00 -0.33741655425E+03  0.33741655425E+03  0.00000000000E+00 0.  1.
         24    2    1    2    0    0  0.23392226186E+02 -0.80429308952E+02 -0.24305320434E+03  0.26965833474E+03  0.81392182486E+02 0.  0.
         25    2    1    2    0    0 -0.33842381560E+01  0.10241889623E+03  0.14619972112E+02  0.16236429043E+03  0.12508931149E+03 0.  0.
        -24    2    1    2    0    0 -0.20007988030E+02 -0.21989587275E+02  0.24563708090E+03  0.26001433201E+03  0.79912550989E+02 0.  0.
        -11    1    3    3    0    0  0.25963529840E+02 -0.44963109599E+02 -0.22272886304E+03  0.22870053026E+03  0.00000000000E+00 0.  1.
         12    1    3    3    0    0 -0.25713036538E+01 -0.35466199353E+02 -0.20324341299E+02  0.40957804485E+02  0.00000000000E+00 0. -1.
         13    1    5    5    0    0 -0.22827399174E+02 -0.44178731257E+02  0.22188110937E+03  0.22738530547E+03  0.00000000000E+00 0. -1.
        -14    1    5    5    0    0  0.28194111437E+01  0.22189143981E+02  0.23755971531E+02  0.32629026544E+02  0.00000000000E+00 0.  1.
          5    1    4    4  501    0  0.41505855887E+02  0.48912824757E+02  0.52320263066E+02  0.82885962780E+02  0.41800000000E+01 0.  1.
         -5    1    4    4    0  501 -0.44890094043E+02  0.53506071471E+02 -0.37700290954E+02  0.79478327646E+02  0.41800000000E+01 0.  1.
</event>
<event>
11    1  0.7577197E-009  0.1614205E+03  0.7561462E-02  0.1085749E+00
         22   -1    0    0    0    0  0.00000000000E+00  0.00000000000E+00  0.37631149451E+03  0.37631149451E+03  0.00000000000E+00 0.  1.
         22   -1    0    0    0    0 -0.00000000000E+00 -0.00000000000E+00 -0.12320398824E+04  0.12320398824E+04  0.00000000000E+00 0. -1.
        -24    2    1    2    0    0  0.18860837950E+02 -0.29227008814E+01 -0.11218749310E+04  0.11249548645E+04  0.80967974161E+02 0.  0.
         25    2    1    2    0    0  0.83863217332E+02  0.21460415902E+02 -0.33156865281E+02  0.15569153172E+03  0.12508751601E+03 0.  0.
         24    2    1    2    0    0 -0.10272405528E+03 -0.18537715021E+02  0.29930340844E+03  0.32770498069E+03  0.83139314758E+02 0.  0.
        -11    1    5    5    0    0 -0.86935396850E+02  0.19150908657E+02  0.23729902552E+03  0.25344693338E+03  0.00000000000E+00 0.  1.
         12    1    5    5    0    0 -0.15788658431E+02 -0.37688623678E+02  0.62004382917E+02  0.74258047313E+02  0.00000000000E+00 0. -1.
         13    1    3    3    0    0 -0.29910930314E+00  0.33271412657E+02 -0.76760466174E+03  0.76832544738E+03  0.00000000000E+00 0. -1.
        -14    1    3    3    0    0  0.19159947253E+02 -0.36194113538E+02 -0.35427026930E+03  0.35662941710E+03  0.00000000000E+00 0.  1.
          5    1    4    4  501    0  0.34837163915E+01  0.59744130220E+02  0.16322741290E+01  0.60013615909E+02  0.41800000000E+01 0. -1.
         -5    1    4    4    0  501  0.80379500941E+02 -0.38283714318E+02 -0.34789139410E+02  0.95677915813E+02  0.41800000000E+01 0. -1.
</event>
<event>
11    1  0.7577197E-009  0.1294063E+03  0.7561462E-02  0.1120001E+00
         22   -1    0    0    0    0  0.00000000000E+00  0.00000000000E+00  0.34063755578E+03  0.34063755578E+03  0.00000000000E+00 0. -1.
         22   -1    0    0    0    0 -0.00000000000E+00 -0.00000000000E+00 -0.77095959608E+03  0.77095959608E+03  0.00000000000E+00 0.  1.
         24    2    1    2    0    0 -0.60017159156E+01 -0.32691631770E+02 -0.66225551864E+03  0.67077158244E+03  0.10122934588E+03 0.  0.
         25    2    1    2    0    0 -0.19133190559E+02  0.35085164736E+02 -0.54822957512E+02  0.14230844491E+03  0.12509631912E+03 0.  0.
        -24    2    1    2    0    0  0.25134906474E+02 -0.23935329655E+01  0.28675643585E+03  0.29851712450E+03  0.79029915856E+02 0.  0.
        -11    1    3    3    0    0 -0.20470149681E+02  0.32997496505E+02 -0.27286730795E+03  0.27561645370E+03  0.00000000000E+00 0.  1.
         12    1    3    3    0    0  0.14468433765E+02 -0.65689128276E+02 -0.38938821069E+03  0.39515512875E+03  0.00000000000E+00 0. -1.
         11    1    5    5    0    0  0.14294108704E+02 -0.10554595389E+02  0.28414352001E+03  0.28469854407E+03  0.00000000000E+00 0. -1.
        -12    1    5    5    0    0  0.10840797770E+02  0.81610624236E+01  0.26129158306E+01  0.13818580438E+02  0.00000000000E+00 0.  1.
          5    1    4    4  501    0  0.27342700596E+02 -0.30210615492E+02 -0.45961261282E+02  0.61564718005E+02  0.41800000000E+01 0. -1.
         -5    1    4    4    0  501 -0.46475891155E+02  0.65295780228E+02 -0.88616962292E+01  0.80743726904E+02  0.41800000000E+01 0. -1.
</event>
<event>
11    1  0.7577197E-009  0.1596883E+03  0.7561462E-02  0.1087371E+00
         22   -1    0    0    0    0  0.00000000000E+00  0.00000000000E+00  0.17841144011E+04  0.17841144011E+04  0.00000000000E+00 0.  1.
         22   -1    0    0    0    0 -0.00000000000E+00 -0.00000000000E+00 -0.87504422447E+03  0.87504422447E+03  0.00000000000E+00 0. -1.
        -24    2    1    2    0    0 -0.54293697029E+02 -0.83442649281E+02 -0.79185961718E+03  0.80160140322E+03  0.74917788731E+02 0.  0.
         25    2    1    2    0    0  0.34913667008E+01  0.10878513314E+03  0.12528298883E+02  0.16628624378E+03  0.12509101392E+03 0.  0.
         24    2    1    2    0    0  0.50802330329E+02 -0.25342483858E+02  0.16884014949E+04  0.16912709786E+04  0.80466121019E+02 0.  0.
        -11    1    5    5    0    0  0.15649032256E+01 -0.13508150051E+02  0.12309524597E+04  0.12310275696E+04  0.00000000000E+00 0.  1.
         12    1    5    5    0    0  0.49237427103E+02 -0.11834333807E+02  0.45744903523E+03  0.46024340899E+03  0.00000000000E+00 0. -1.
         11    1    3    3    0    0 -0.34354648681E+02 -0.55314508471E+02 -0.70718319947E+03  0.71017463651E+03  0.00000000000E+00 0. -1.
        -12    1    3    3    0    0 -0.19939048348E+02 -0.28128140810E+02 -0.84676417713E+02  0.91426766710E+02  0.00000000000E+00 0.  1.
          5    1    4    4  501    0 -0.39156208931E+02  0.10219516992E+03  0.38092327692E+02  0.11595498817E+03  0.41800000000E+01 0. -1.
         -5    1    4    4    0  501  0.42647575631E+02  0.65899632213E+01 -0.25564028809E+02  0.50331255612E+02  0.41800000000E+01 0. -1.
</event>
<event>
11    1  0.7577197E-009  0.1518858E+03  0.7561462E-02  0.1094967E+00
         22   -1    0    0    0    0  0.00000000000E+00  0.00000000000E+00  0.47971381249E+03  0.47971381249E+03  0.00000000000E+00 0. -1.
         22   -1    0    0    0    0 -0.00000000000E+00 -0.00000000000E+00 -0.51929086146E+03  0.51929086146E+03  0.00000000000E+00 0.  1.
        -24    2    1    2    0    0  0.20196050549E+02  0.52597751915E+02 -0.46671472513E+03  0.47676223076E+03  0.79405201738E+02 0.  0.
         25    2    1    2    0    0  0.70750628116E+02 -0.45061785898E+02  0.12226428905E+03  0.19398989224E+03  0.12508919213E+03 0.  0.
         24    2    1    2    0    0 -0.90946678665E+02 -0.75359660168E+01  0.30487338711E+03  0.32825255096E+03  0.80460337456E+02 0.  0.
        -11    1    5    5    0    0 -0.11890139316E+02  0.11280505607E+02  0.43806879763E+01  0.16965130322E+02  0.00000000000E+00 0.  1.
         12    1    5    5    0    0 -0.79056539349E+02 -0.18816471624E+02  0.30049269913E+03  0.31128742064E+03  0.00000000000E+00 0. -1.
         13    1    3    3    0    0 -0.30165359588E+02  0.23934975080E+02 -0.21904235825E+03  0.22240140885E+03  0.00000000000E+00 0. -1.
        -14    1    3    3    0    0  0.50361410138E+02  0.28662776835E+02 -0.24767236687E+03  0.25436082190E+03  0.00000000000E+00 0.  1.
          5    1    4    4  501    0  0.52656222421E+02 -0.74059562637E+02  0.13002957346E+03  0.15869045010E+03  0.41800000000E+01 0. -1.
         -5    1    4    4    0  501  0.18094405695E+02  0.28997776739E+02 -0.77652844143E+01  0.35299442139E+02  0.41800000000E+01 0. -1.
</event>
<event>
11    1  0.7577197E-009  0.2675816E+03  0.7561462E-02  0.1014929E+00
         22   -1    0    0    0    0  0.00000000000E+00  0.00000000000E+00  0.44595385690E+03  0.44595385690E+03  0.00000000000E+00 0.  1.
         22   -1    0    0    0    0 -0.00000000000E+00 -0.00000000000E+00 -0.11248784765E+04  0.11248784765E+04  0.00000000000E+00 0. -1.
        -24    2    1    2    0    0  0.47829419216E+00  0.69246971070E+02 -0.84056278907E+03  0.84792828528E+03  0.87413973933E+02 0.  0.
         25    2    1    2    0    0  0.16435958786E+03 -0.22837913127E+03 -0.13794977855E+03  0.33740944420E+03  0.12507553682E+03 0.  0.
         24    2    1    2    0    0 -0.16483788205E+03  0.15913216020E+03  0.29958794803E+03  0.38549460392E+03  0.79740700280E+02 0.  0.
        -13    1    5    5    0    0 -0.99792530221E+02  0.43271720444E+02  0.15198139566E+03  0.18689391511E+03  0.00000000000E+00 0.  1.
         14    1    5    5    0    0 -0.65045351829E+02  0.11586043976E+03  0.14760655237E+03  0.19860068881E+03  0.00000000000E+00 0. -1.
         13    1    3    3    0    0  0.30073752708E+02  0.20765379720E+02 -0.58449019365E+03  0.58563164026E+03  0.00000000000E+00 0. -1.
        -14    1    3    3    0    0 -0.29595458516E+02  0.48481591350E+02 -0.25607259542E+03  0.26229664502E+03  0.00000000000E+00 0.  1.
          5    1    4    4  501    0  0.63678725693E+02 -0.10875854287E+03  0.40420672833E+01  0.12616343155E+03  0.41800000000E+01 0.  1.
         -5    1    4    4    0  501  0.10068086216E+03 -0.11962058840E+03 -0.14199184584E+03  0.21124601265E+03  0.41800000000E+01 0.  1.
</event>
<event>
11    1  0.7577197E-009  0.1519572E+03  0.7561462E-02  0.1094896E+00
         22   -1    0    0    0    0  0.00000000000E+00  0.00000000000E+00  0.36388748697E+04  0.36388748697E+04  0.00000000000E+00 0. -1.
         22   -1    0    0    0    0 -0.00000000000E+00 -0.00000000000E+00 -0.90266035262E+03  0.90266035262E+03  0.00000000000E+00 0. -1.
         24    2    1    2    0    0  0.55262846366E+01 -0.39308509963E+01 -0.78654199921E+03  0.79085688701E+03  0.82221090939E+02 0.  0.
         25    2    1    2    0    0 -0.27060711640E+02 -0.79616762516E+02 -0.62681072510E+02  0.16325049545E+03  0.12510274348E+03 0.  0.
        -24    2    1    2    0    0  0.21534427003E+02  0.83547613513E+02  0.35854375888E+04  0.35874278398E+04  0.82655113215E+02 0.  0.
        -13    1    3    3    0    0 -0.20298090100E+02 -0.23739749807E+02 -0.63921586790E+03  0.63997852617E+03  0.00000000000E+00 0.  1.
         14    1    3    3    0    0  0.25824374737E+02  0.19808898810E+02 -0.14732613131E+03  0.15087836084E+03  0.00000000000E+00 0. -1.
         11    1    5    5    0    0  0.31158272709E+02  0.93668224033E+02  0.34124192426E+04  0.34138467542E+04  0.00000000000E+00 0. -1.
        -12    1    5    5    0    0 -0.96238457059E+01 -0.10120610520E+02  0.17301834619E+03  0.17358108561E+03  0.00000000000E+00 0.  1.
          5    1    4    4  501    0 -0.46380848187E+02 -0.61222402620E+02  0.17293186283E+02  0.78840930695E+02  0.41800000000E+01 0.  1.
         -5    1    4    4    0  501  0.19320136547E+02 -0.18394359897E+02 -0.79974258793E+02  0.84409564752E+02  0.41800000000E+01 0.  1.
</event>
<event>
11    1  0.7577197E-009  0.1521682E+03  0.7561462E-02  0.1094684E+00
         22   -1    0    0    0    0  0.00000000000E+00  0.00000000000E+00  0.81355158069E+03  0.81355158069E+03  0.00000000000E+00 0.  1.
         22   -1    0    0    0    0 -0.00000000000E+00 -0.00000000000E+00 -0.13487703719E+03  0.13487703719E+03  0.00000000000E+00 0.  1.
         24    2    1    2    0    0 -0.81459989432E+02 -0.18092289179E+02 -0.61697719614E+02  0.13090184410E+03  0.79784856810E+02 0.  0.
         25    2    1    2    0    0  0.90162511097E+02  0.75175485289E+02  0.18223580503E+03  0.25027724548E+03  0.12509268153E+03 0.  0.
        -24    2    1    2    0    0 -0.87025216651E+01 -0.57083196110E+02  0.55813645809E+03  0.56724952830E+03  0.83195530862E+02 0.  0.
        -11    1    3    3    0    0 -0.77156508585E+02  0.16006847821E+02 -0.30537391546E+02  0.84509634223E+02  0.00000000000E+00 0.  1.
         12    1    3    3    0    0 -0.43034808468E+01 -0.34099137000E+02 -0.31160328068E+02  0.46392209872E+02  0.00000000000E+00 0. -1.
         11    1    5    5    0    0  0.19281605886E+02  0.99842232063E+01  0.59356743943E+02  0.63203544917E+02  0.00000000000E+00 0. -1.
        -12    1    5    5    0    0 -0.27984127551E+02 -0.67067419316E+02  0.49877971414E+03  0.50404598339E+03  0.00000000000E+00 0.  1.
          5    1    4    4  501    0  0.95131510878E+02 -0.41758379204E+00  0.11039636595E+03  0.14579097624E+03  0.41800000000E+01 0.  1.
         -5    1    4    4    0  501 -0.49689997809E+01  0.75593069081E+02  0.71839439078E+02  0.10448626924E+03  0.41800000000E+01 0.  1.
</event>
<event>
11    1  0.7577197E-009  0.1616690E+03  0.7561462E-02  0.1085518E+00
         22   -1    0    0    0    0  0.00000000000E+00  0.00000000000E+00  0.44916419605E+03  0.44916419605E+03  0.00000000000E+00 0.  1.
         22   -1    0    0    0    0 -0.00000000000E+00 -0.00000000000E+00 -0.35170706281E+03  0.35170706281E+03  0.00000000000E+00 0.  1.
        -24    2    1    2    0    0  0.37738210351E+02 -0.77295528377E+02 -0.20688905938E+03  0.24139722071E+03  0.89837431231E+02 0.  0.
         25    2    1    2    0    0  0.10596436070E+02  0.16230077677E+03 -0.25125801876E+02  0.20671678417E+03  0.12508675525E+03 0.  0.
         24    2    1    2    0    0 -0.48334646421E+02 -0.85005248389E+02  0.32947199449E+03  0.35275725398E+03  0.79522039628E+02 0.  0.
        -13    1    5    5    0    0 -0.68969760429E+02 -0.53563002790E+02  0.25055727047E+03  0.26533896982E+03  0.00000000000E+00 0.  1.
         14    1    5    5    0    0  0.20635114008E+02 -0.31442245600E+02  0.78914724024E+02  0.87418284164E+02  0.00000000000E+00 0. -1.
         11    1    3    3    0    0  0.27463564833E+02  0.15018400478E+02 -0.46497502002E+02  0.56051917351E+02  0.00000000000E+00 0. -1.
        -12    1    3    3    0    0  0.10274645518E+02 -0.92313928855E+02 -0.16039155737E+03  0.18534530336E+03  0.00000000000E+00 0.  1.
          5    1    4    4  501    0  0.32162966681E+02 -0.72425537552E+01  0.33507586029E+01  0.33400763372E+02  0.41800000000E+01 0.  1.
         -5    1    4    4    0  501 -0.21566530611E+02  0.16954333052E+03 -0.28476560479E+02  0.17331602079E+03  0.41800000000E+01 0.  1.
</event>
<event>
11    1  0.7577197E-009  0.1367305E+03  0.7561462E-02  0.1111265E+00
         22   -1    0    0    0    0  0.00000000000E+00  0.00000000000E+00  0.43237058795E+03  0.43237058795E+03  0.00000000000E+00 0. -1.
         22   -1    0    0    0    0 -0.00000000000E+00 -0.00000000000E+00 -0.10197121027E+04  0.10197121027E+04  0.00000000000E+00 0.  1.
        -24    2    1    2    0    0 -0.12065073375E+02 -0.43785783392E+02 -0.77112736429E+03  0.77680048293E+03  0.81968393256E+02 0.  0.
         25    2    1    2    0    0  0.64777897832E+02  0.58250830719E+02 -0.21579964026E+03  0.26420767070E+03  0.12508746218E+03 0.  0.
         24    2    1    2    0    0 -0.52712824457E+02 -0.14465047327E+02  0.39958548976E+03  0.41107453706E+03  0.79535098780E+02 0.  0.
        -13    1    5    5    0    0 -0.31854701490E+01 -0.14605496908E+02  0.91853678948E+01  0.17545333949E+02  0.00000000000E+00 0.  1.
         14    1    5    5    0    0 -0.49527354308E+02  0.14044958159E+00  0.39040012187E+03  0.39352920312E+03  0.00000000000E+00 0. -1.
         11    1    3    3    0    0  0.12145639954E+02 -0.42239689420E+00 -0.16253363234E+02  0.20294501852E+02  0.00000000000E+00 0. -1.
        -12    1    3    3    0    0 -0.24210713328E+02 -0.43363386497E+02 -0.75487400106E+03  0.75650598108E+03  0.00000000000E+00 0.  1.
          5    1    4    4  501    0  0.42904667635E+02 -0.21575675252E+02 -0.21133451622E+02  0.52634736106E+02  0.41800000000E+01 0. -1.
         -5    1    4    4    0  501  0.21873230197E+02  0.79826505971E+02 -0.19466618864E+03  0.21157293459E+03  0.41800000000E+01 0. -1.
</event>
<event>
11    1  0.7577197E-009  0.1435450E+03  0.7561462E-02  0.1103663E+00
         22   -1    0    0    0    0  0.00000000000E+00  0.00000000000E+00  0.22149054054E+03  0.22149054054E+03  0.00000000000E+00 0.  1.
         22   -1    0    0    0    0 -0.00000000000E+00 -0.00000000000E+00 -0.77149875554E+03  0.77149875554E+03  0.00000000000E+00 0. -1.
         24    2    1    2    0    0 -0.49438887343E+02  0.38624861072E+02 -0.48424996601E+03  0.49558988888E+03  0.84706699285E+02 0.  0.
         25    2    1    2    0    0  0.77904534714E+02 -0.67982379934E+02 -0.24679524915E+03  0.29537422698E+03  0.12508924196E+03 0.  0.
        -24    2    1    2    0    0 -0.28465647370E+02  0.29357518862E+02  0.18103700016E+03  0.20202518021E+03  0.79797374762E+02 0.  0.
        -13    1    3    3    0    0 -0.11881581606E+02 -0.14359349135E+02 -0.22148013673E+02  0.28946457446E+02  0.00000000000E+00 0.  1.
         14    1    3    3    0    0 -0.37557305738E+02  0.52984210207E+02 -0.46210195234E+03  0.46664343143E+03  0.00000000000E+00 0. -1.
         13    1    5    5    0    0 -0.12511154871E+01  0.11345412130E+02 -0.54891944572E+01  0.12665501260E+02  0.00000000000E+00 0. -1.
        -14    1    5    5    0    0 -0.27214531883E+02  0.18012106731E+02  0.18652619462E+03  0.18935967895E+03  0.00000000000E+00 0.  1.
          5    1    4    4  501    0  0.89706652470E+02 -0.95126991268E+02 -0.18330908952E+03  0.22520240378E+03  0.41800000000E+01 0.  1.
         -5    1    4    4    0  501 -0.11802117756E+02  0.27144611334E+02 -0.63486159624E+02  0.70171823204E+02  0.41800000000E+01 0.  1.
</event>
<event>
11    1  0.7577197E-009  0.1399887E+03  0.7561462E-02  0.1107571E+00
         22   -1    0    0    0    0  0.00000000000E+00  0.00000000000E+00  0.81968913243E+03  0.81968913243E+03  0.00000000000E+00 0.  1.
         22   -1    0    0    0    0 -0.00000000000E+00 -0.00000000000E+00 -0.80691391156E+03  0.80691391156E+03  0.00000000000E+00 0.  1.
         24    2    1    2    0    0  0.26816760040E+02  0.35160896446E+02 -0.78044204377E+03  0.78574496798E+03  0.79686534397E+02 0.  0.
         25    2    1    2    0    0  0.34467570493E+02 -0.57224192548E+02  0.25491812186E+03  0.29170865739E+03  0.12509224722E+03 0.  0.
        -24    2    1    2    0    0 -0.61284330533E+02  0.22063296102E+02  0.53829914278E+03  0.54914941863E+03  0.86928468590E+02 0.  0.
        -11    1    3    3    0    0  0.94207632163E+01  0.30006900874E+02 -0.74730092407E+03  0.74796245628E+03  0.00000000000E+00 0.  1.
         12    1    3    3    0    0  0.17395996824E+02  0.51539955717E+01 -0.33141119700E+02  0.37782511706E+02  0.00000000000E+00 0. -1.
         13    1    5    5    0    0 -0.21628284740E+02 -0.73730012764E+01  0.42426642249E+03  0.42488132590E+03  0.00000000000E+00 0. -1.
        -14    1    5    5    0    0 -0.39656045793E+02  0.29436297379E+02  0.11403272029E+03  0.12426809272E+03  0.00000000000E+00 0.  1.
          5    1    4    4  501    0  0.32849656283E+02 -0.93407008078E+02  0.14286389031E+03  0.17387217325E+03  0.41800000000E+01 0. -1.
         -5    1    4    4    0  501  0.16179142102E+01  0.36182815529E+02  0.11205423154E+03  0.11783648413E+03  0.41800000000E+01 0. -1.
</event>
<event>
11    1  0.7577197E-009  0.1273465E+03  0.7561462E-02  0.1122573E+00
         22   -1    0    0    0    0  0.00000000000E+00  0.00000000000E+00  0.10740959323E+04  0.10740959323E+04  0.00000000000E+00 0.  1.
         22   -1    0    0    0    0 -0.00000000000E+00 -0.00000000000E+00 -0.69700287375E+02  0.69700287375E+02  0.00000000000E+00 0.  1.
         24    2    1    2    0    0  0.24246332831E+02  0.42677307947E+01 -0.14339719881E+02  0.85359567575E+02  0.80464464383E+02 0.  0.
         25    2    1    2    0    0  0.13916207755E+01 -0.10303711988E+02  0.20538983410E+03  0.24070862641E+03  0.12509019061E+03 0.  0.
        -24    2    1    2    0    0 -0.25637953606E+02  0.60359811938E+01  0.81334553074E+03  0.81772802573E+03  0.80339491822E+02 0.  0.
        -13    1    3    3    0    0  0.24923435477E+02  0.37445270616E+02 -0.23750374812E+02  0.50866553169E+02  0.00000000000E+00 0.  1.
         14    1    3    3    0    0 -0.67710264611E+00 -0.33177539822E+02  0.94106549317E+01  0.34493014407E+02  0.00000000000E+00 0. -1.
         13    1    5    5    0    0  0.77621580793E+01 -0.21990608132E+01  0.70941169472E+01  0.10743065753E+02  0.00000000000E+00 0. -1.
        -14    1    5    5    0    0 -0.33400111686E+02  0.82350420070E+01  0.80625141380E+03  0.80698495998E+03  0.00000000000E+00 0.  1.
          5    1    4    4  501    0  0.35679232785E+02  0.22582093427E+02  0.15905867991E+02  0.45314761747E+02  0.41800000000E+01 0.  1.
         -5    1    4    4    0  501 -0.34287612010E+02 -0.32885805415E+02  0.18948396611E+03  0.19539386466E+03  0.41800000000E+01 0.  1.
</event>
<event>
11    1  0.7577197E-009  0.1578079E+03  0.7561462E-02  0.1089157E+00
         22   -1    0    0    0    0  0.00000000000E+00  0.00000000000E+00  0.67522078860E+03  0.67522078860E+03  0.00000000000E+00 0. -1.
         22   -1    0    0    0    0 -0.00000000000E+00 -0.00000000000E+00 -0.94973784064E+03  0.94973784064E+03  0.00000000000E+00 0.  1.
         24    2    1    2    0    0 -0.79146566130E+02  0.52946060833E+02 -0.89770603808E+03  0.90637247459E+03  0.81039913590E+02 0.  0.
         25    2    1    2    0    0  0.12201613200E+03 -0.83379012325E+02  0.18507335112E+03  0.26784160877E+03  0.12508791281E+03 0.  0.
        -24    2    1    2    0    0 -0.42869565866E+02  0.30432951491E+02  0.43811563492E+03  0.45074454588E+03  0.91985715523E+02 0.  0.
        -13    1    3    3    0    0 -0.80323237627E+02  0.59562496483E+02 -0.89190958372E+03  0.89749775433E+03  0.00000000000E+00 0.  1.
         14    1    3    3    0    0  0.11766714971E+01 -0.66164356494E+01 -0.57964543562E+01  0.88747202558E+01  0.00000000000E+00 0. -1.
         13    1    5    5    0    0 -0.21291387983E+02  0.62006271376E+02  0.31801061060E+03  0.32469808953E+03  0.00000000000E+00 0. -1.
        -14    1    5    5    0    0 -0.21578177884E+02 -0.31573319885E+02  0.12010502432E+03  0.12604645634E+03  0.00000000000E+00 0.  1.
          5    1    4    4  501    0  0.12265059976E+03 -0.92538757433E+02  0.19849800062E+03  0.25104883967E+03  0.41800000000E+01 0. -1.
         -5    1    4    4    0  501 -0.63446776286E+00  0.91597451088E+01 -0.13424649502E+02  0.16792769100E+02  0.41800000000E+01 0. -1.
</event>
<event>
11    1  0.7577197E-009  0.1514288E+03  0.7561462E-02  0.1095428E+00
         22   -1    0    0    0    0  0.00000000000E+00  0.00000000000E+00  0.54143882396E+03  0.54143882396E+03  0.00000000000E+00 0.  1.
         22   -1    0    0    0    0 -0.00000000000E+00 -0.00000000000E+00 -0.86786301299E+03  0.86786301299E+03  0.00000000000E+00 0.  1.
         24    2    1    2    0    0  0.29370084019E+02  0.58424443024E+02 -0.60179960114E+03  0.61053203508E+03  0.79439212947E+02 0.  0.
         25    2    1    2    0    0 -0.60247001397E+02 -0.13617262546E+03 -0.21779465228E+03  0.29198159162E+03  0.12508418838E+03 0.  0.
        -24    2    1    2    0    0  0.30876917379E+02  0.77748182437E+02  0.49317006438E+03  0.50678821025E+03  0.81359779690E+02 0.  0.
        -11    1    3    3    0    0  0.23545619509E+02 -0.73251679771E+01 -0.32650308215E+03  0.32743291975E+03  0.00000000000E+00 0.  1.
         12    1    3    3    0    0  0.58244645095E+01  0.65749611001E+02 -0.27529651899E+03  0.28309911533E+03  0.00000000000E+00 0. -1.
         11    1    5    5    0    0 -0.65505022383E+01  0.65216582940E+02  0.18846359825E+03  0.19953606099E+03  0.00000000000E+00 0. -1.
        -12    1    5    5    0    0  0.37427419617E+02  0.12531599497E+02  0.30470646613E+03  0.30725214926E+03  0.00000000000E+00 0.  1.
          5    1    4    4  501    0  0.26421017728E+02  0.64033343962E+01 -0.33427786568E+02  0.43289284864E+02  0.41800000000E+01 0.  1.
         -5    1    4    4    0  501 -0.86668019126E+02 -0.14257595986E+03 -0.18436686571E+03  0.24869230676E+03  0.41800000000E+01 0.  1.
</event>
<event>
11    1  0.7577197E-009  0.1516468E+03  0.7561462E-02  0.1095208E+00
         22   -1    0    0    0    0  0.00000000000E+00  0.00000000000E+00  0.20280204883E+03  0.20280204883E+03  0.00000000000E+00 0.  1.
         22   -1    0    0    0    0 -0.00000000000E+00 -0.00000000000E+00 -0.13219767775E+04  0.13219767775E+04  0.00000000000E+00 0. -1.
         24    2    1    2    0    0  0.54419465266E+02  0.28613099150E+02 -0.10415004446E+04  0.10460152960E+04  0.75130791750E+02 0.  0.
         25    2    1    2    0    0 -0.76617064892E+02  0.55079605164E+02 -0.23480450973E+03  0.28228634120E+03  0.12509389712E+03 0.  0.
        -24    2    1    2    0    0  0.22197599626E+02 -0.83692704314E+02  0.15713022558E+03  0.19647718914E+03  0.80101035423E+02 0.  0.
        -13    1    3    3    0    0  0.27559990784E+01 -0.15924274936E+01 -0.64643028288E+03  0.64643811922E+03  0.00000000000E+00 0.  1.
         14    1    3    3    0    0  0.51663466188E+02  0.30205526643E+02 -0.39507016168E+03  0.39957717681E+03  0.00000000000E+00 0. -1.
         13    1    5    5    0    0  0.24686922150E+02 -0.80900639477E+01  0.48266649309E+01  0.26423284320E+02  0.00000000000E+00 0. -1.
        -14    1    5    5    0    0 -0.24893225240E+01 -0.75602640366E+02  0.15230356065E+03  0.17005390482E+03  0.00000000000E+00 0.  1.
          5    1    4    4  501    0 -0.36778863600E+01  0.60373722967E+02 -0.36224767421E+02  0.70627327910E+02  0.41800000000E+01 0.  1.
         -5    1    4    4    0  501 -0.72939178532E+02 -0.52941178036E+01 -0.19857974231E+03  0.21165901329E+03  0.41800000000E+01 0.  1.
</event>
<event>
11    1  0.9488074E-009  0.1759504E+03  0.7561462E-02  0.1072966E+00
         22   -1    0    0    0    0  0.00000000000E+00  0.00000000000E+00  0.38579007523E+03  0.38579007523E+03  0.00000000000E+00 0. -1.
         22   -1    0    0    0    0 -0.00000000000E+00 -0.00000000000E+00 -0.15662769302E+04  0.15662769302E+04  0.00000000000E+00 0.  1.
        -24    2    1    2    0    0  0.23361633768E+02  0.16314591714E+02 -0.11003139418E+04  0.11035250864E+04  0.79151208930E+02 0.  0.
         25    2    1    2    0    0 -0.14073534118E+03  0.21071365614E+02 -0.42956461756E+03  0.46949274476E+03  0.12508892046E+03 0.  0.
         24    2    1    2    0    0  0.11737370742E+03 -0.37385957328E+02  0.34939170444E+03  0.37904917425E+03  0.80183641570E+02 0.  0.
        -11    1    5    5    0    0 -0.18886587888E+01 -0.23720442868E+02  0.92214720176E+02  0.95235398141E+02  0.00000000000E+00 0.  1.
         12    1    5    5    0    0  0.11926236620E+03 -0.13665514460E+02  0.25717698426E+03  0.28381377611E+03  0.00000000000E+00 0. -1.
         11    1    3    3    0    0 -0.32756252483E+01 -0.93457035780E+01 -0.17719992678E+02  0.20299508286E+02  0.00000000000E+00 0. -1.
        -12    1    3    3    0    0  0.26637259016E+02  0.25660295292E+02 -0.10825939491E+04  0.10832255781E+04  0.00000000000E+00 0.  1.
          5    1    4    4  501    0 -0.11601546306E+03 -0.39430016708E+02 -0.30595061556E+03  0.32960213205E+03  0.41800000000E+01 0.  1.
         -5    1    4    4    0  501 -0.24719878119E+02  0.60501382322E+02 -0.12361400200E+03  0.13989061272E+03  0.41800000000E+01 0.  1.
</event>
<event>
11    1  0.7577197E-009  0.1997512E+03  0.7561462E-02  0.1054700E+00
         22   -1    0    0    0    0  0.00000000000E+00  0.00000000000E+00  0.52713988320E+03  0.52713988320E+03  0.00000000000E+00 0.  1.
         22   -1    0    0    0    0 -0.00000000000E+00 -0.00000000000E+00 -0.58259466050E+03  0.58259466050E+03  0.00000000000E+00 0. -1.
        -24    2    1    2    0    0  0.76522767199E+01  0.21943137205E+02 -0.47379431715E+03  0.48095027209E+03  0.79322447338E+02 0.  0.
         25    2    1    2    0    0 -0.81446067266E+02 -0.15438929830E+03  0.47354972047E+02  0.21990321402E+03  0.12508162477E+03 0.  0.
         24    2    1    2    0    0  0.73793790546E+02  0.13244616110E+03  0.37098456780E+03  0.40888105760E+03  0.81034934440E+02 0.  0.
        -13    1    5    5    0    0  0.66943307869E+02  0.79580887276E+02  0.31434976929E+03  0.33110466856E+03  0.00000000000E+00 0.  1.
         14    1    5    5    0    0  0.68504826772E+01  0.52865273822E+02  0.56634798514E+02  0.77776389039E+02  0.00000000000E+00 0. -1.
         13    1    3    3    0    0 -0.11477242055E+02 -0.10926559828E+02 -0.37113114906E+03  0.37146930775E+03  0.00000000000E+00 0. -1.
        -14    1    3    3    0    0  0.19129518775E+02  0.32869697033E+02 -0.10266316809E+03  0.10948096434E+03  0.00000000000E+00 0.  1.
          5    1    4    4  501    0 -0.21187929495E+02 -0.12578067120E+03  0.74489517269E+02  0.14776963892E+03  0.41800000000E+01 0. -1.
         -5    1    4    4    0  501 -0.60258137771E+02 -0.28608627108E+02 -0.27134545223E+02  0.72133575103E+02  0.41800000000E+01 0. -1.
</event>
<event>
11    1  0.7577197E-009  0.1440583E+03  0.7561462E-02  0.1103109E+00
         22   -1    0    0    0    0  0.00000000000E+00  0.00000000000E+00  0.10614004984E+04  0.10614004984E+04  0.00000000000E+00 0. -1.
         22   -1    0    0    0    0 -0.00000000000E+00 -0.00000000000E+00 -0.65406631045E+03  0.65406631045E+03  0.00000000000E+00 0.  1.
        -24    2    1    2    0    0  0.54220804785E+02 -0.50665472290E+02 -0.59627007649E+03  0.60581869474E+03  0.77274840815E+02 0.  0.
         25    2    1    2    0    0 -0.29974790417E+02  0.34358392748E+01  0.30967782522E+02  0.13234881375E+03  0.12508761687E+03 0.  0.
         24    2    1    2    0    0 -0.24246014368E+02  0.47229633015E+02  0.97263648197E+03  0.97729930040E+03  0.79206622553E+02 0.  0.
        -13    1    5    5    0    0 -0.21245584764E+02 -0.15852528490E+02  0.15705175321E+03  0.15927313244E+03  0.00000000000E+00 0.  1.
         14    1    5    5    0    0 -0.30004296041E+01  0.63082161506E+02  0.81558472876E+03  0.81802616796E+03  0.00000000000E+00 0. -1.
         13    1    3    3    0    0  0.34391245829E+02 -0.54261060112E+02 -0.22471451069E+03  0.23371699072E+03  0.00000000000E+00 0. -1.
        -14    1    3    3    0    0  0.19829558957E+02  0.35955878219E+01 -0.37155556580E+03  0.37210170402E+03  0.00000000000E+00 0.  1.
          5    1    4    4  501    0 -0.71544225685E+02 -0.27411328463E+02  0.17573306831E+02  0.78716266870E+02  0.41800000000E+01 0.  1.
         -5    1    4    4    0  501  0.41569435268E+02  0.30847167738E+02  0.13394475692E+02  0.53632546882E+02  0.41800000000E+01 0.  1.
</event>
<event>
11    1  0.7577197E-009  0.1618675E+03  0.7561462E-02  0.1085334E+00
         22   -1    0    0    0    0  0.00000000000E+00  0.00000000000E+00  0.27254401112E+02  0.27254401112E+02  0.00000000000E+00 0. -1.
         22   -1    0    0    0    0 -0.00000000000E+00 -0.00000000000E+00 -0.21160281727E+04  0.21160281727E+04  0.00000000000E+00 0. -1.
         24    2    1    2    0    0  0.72483243759E+02  0.26442009286E+02 -0.61245292245E+03  0.62248538804E+03  0.80227648743E+02 0.  0.
         25    2    1    2    0    0 -0.13638283651E+03 -0.18171449855E+02 -0.13096412431E+04  0.13227767610E+04  0.12509074380E+03 0.  0.
        -24    2    1    2    0    0  0.63899592753E+02 -0.82705594305E+01 -0.16667960605E+03  0.19802042477E+03  0.85313758821E+02 0.  0.
        -11    1    3    3    0    0 -0.89414967379E+01  0.15755940686E+02 -0.36945368310E+02  0.41148028754E+02  0.00000000000E+00 0.  1.
         12    1    3    3    0    0  0.81424740497E+02  0.10686068600E+02 -0.57550755414E+03  0.58133735928E+03  0.00000000000E+00 0. -1.
         11    1    5    5    0    0  0.22398019043E+02 -0.21932862185E+02 -0.65348326673E+01  0.32022269418E+02  0.00000000000E+00 0. -1.
        -12    1    5    5    0    0  0.41501573710E+02  0.13662302754E+02 -0.16014477339E+03  0.16599815535E+03  0.00000000000E+00 0.  1.
          5    1    4    4  501    0  0.21286235061E+02 -0.17996551263E+02 -0.20878110359E+03  0.21067510835E+03  0.41800000000E+01 0. -1.
         -5    1    4    4    0  501 -0.15766907157E+03 -0.17489859285E+00 -0.11008601395E+04  0.11121016527E+04  0.41800000000E+01 0. -1.
</event>
<event>
11    1  0.7577197E-009  0.1571226E+03  0.7561462E-02  0.1089815E+00
         22   -1    0    0    0    0  0.00000000000E+00  0.00000000000E+00  0.89309985474E+03  0.89309985474E+03  0.00000000000E+00 0. -1.
         22   -1    0    0    0    0 -0.00000000000E+00 -0.00000000000E+00 -0.10701813185E+04  0.10701813185E+04  0.00000000000E+00 0. -1.
        -24    2    1    2    0    0 -0.94578552787E+02 -0.91055258820E+01 -0.10265837036E+04  0.10340053309E+04  0.79151187429E+02 0.  0.
         25    2    1    2    0    0  0.10050536272E+03 -0.22951907284E+02  0.13936424972E+03  0.21377211154E+03  0.12509198052E+03 0.  0.
         24    2    1    2    0    0 -0.59268099336E+01  0.32057433166E+02  0.71013799011E+03  0.71550373086E+03  0.81159212541E+02 0.  0.
        -13    1    5    5    0    0  0.11641016515E+02 -0.12504197999E+02  0.38030675157E+02  0.41691731627E+02  0.00000000000E+00 0.  1.
         14    1    5    5    0    0 -0.17567826449E+02  0.44561631165E+02  0.67210731495E+03  0.67381199923E+03  0.00000000000E+00 0. -1.
         11    1    3    3    0    0 -0.60463691241E+02 -0.85143764229E+00 -0.91580391135E+03  0.91779811884E+03  0.00000000000E+00 0. -1.
        -12    1    3    3    0    0 -0.34114861546E+02 -0.82540882397E+01 -0.11077979226E+03  0.11620721201E+03  0.00000000000E+00 0.  1.
          5    1    4    4  501    0 -0.21087957943E+02 -0.50970185512E+01 -0.64618554077E+01  0.23019764196E+02  0.41800000000E+01 0.  1.
         -5    1    4    4    0  501  0.12159332066E+03 -0.17854888732E+02  0.14582610513E+03  0.19075234735E+03  0.41800000000E+01 0.  1.
</event>
<event>
11    1  0.7577197E-009  0.7471211E+03  0.7561462E-02  0.8965608E-01
         22   -1    0    0    0    0  0.00000000000E+00  0.00000000000E+00  0.50611464505E+03  0.50611464505E+03  0.00000000000E+00 0. -1.
         22   -1    0    0    0    0 -0.00000000000E+00 -0.00000000000E+00 -0.27572306937E+03  0.27572306937E+03  0.00000000000E+00 0. -1.
        -24    2    1    2    0    0  0.54670294464E+01 -0.20338803579E+03 -0.11390360523E+03  0.24757938998E+03  0.83216233669E+02 0.  0.
         25    2    1    2    0    0 -0.35384058818E+02  0.25131972980E+03  0.33145262617E+03  0.43580640150E+03  0.12511090274E+03 0.  0.
         24    2    1    2    0    0  0.29917029371E+02 -0.47931694015E+02  0.12842554741E+02  0.98451922935E+02  0.79595062533E+02 0.  0.
        -11    1    5    5    0    0  0.24538491348E+02 -0.31416423422E+02 -0.31513990089E+02  0.50815950149E+02  0.00000000000E+00 0.  1.
         12    1    5    5    0    0  0.53785380233E+01 -0.16515270593E+02  0.44356544829E+02  0.47635972786E+02  0.00000000000E+00 0. -1.
         11    1    3    3    0    0  0.23418941826E+02 -0.19722719250E+03 -0.11315513151E+03  0.22858498657E+03  0.00000000000E+00 0. -1.
        -12    1    3    3    0    0 -0.17951912380E+02 -0.61608432923E+01 -0.74847371858E+00  0.18994403414E+02  0.00000000000E+00 0.  1.
          5    1    4    4  501    0  0.35436173456E+02  0.70132303136E+02  0.15175341865E+03  0.17094102727E+03  0.41800000000E+01 0.  1.
         -5    1    4    4    0  501 -0.70820232273E+02  0.18118742667E+03  0.17969920752E+03  0.26486537423E+03  0.41800000000E+01 0.  1.
</event>
<event>
11    1  0.7577197E-009  0.1548097E+03  0.7561462E-02  0.1092063E+00
         22   -1    0    0    0    0  0.00000000000E+00  0.00000000000E+00  0.10737161503E+04  0.10737161503E+04  0.00000000000E+00 0.  1.
         22   -1    0    0    0    0 -0.00000000000E+00 -0.00000000000E+00 -0.45326195947E+03  0.45326195947E+03  0.00000000000E+00 0.  1.
         24    2    1    2    0    0 -0.75119478836E+02  0.50662329279E+02 -0.41723915970E+03  0.43433791305E+03  0.79695035054E+02 0.  0.
         25    2    1    2    0    0  0.86342769924E+02 -0.69410084049E+02  0.24871656342E+03  0.29963365062E+03  0.12509021536E+03 0.  0.
        -24    2    1    2    0    0 -0.11223291088E+02  0.18747754770E+02  0.78897678711E+03  0.79300654611E+03  0.76795644339E+02 0.  0.
        -13    1    3    3    0    0 -0.29588054327E+02  0.59799770825E+02 -0.31584365355E+03  0.32281369091E+03  0.00000000000E+00 0.  1.
         14    1    3    3    0    0 -0.45531424509E+02 -0.91374415458E+01 -0.10139550615E+03  0.11152422214E+03  0.00000000000E+00 0. -1.
         13    1    5    5    0    0  0.99009778423E+01 -0.22268352150E+02  0.12050566598E+03  0.12294520895E+03  0.00000000000E+00 0. -1.
        -14    1    5    5    0    0 -0.21124268930E+02  0.41016106919E+02  0.66847112113E+03  0.67006133715E+03  0.00000000000E+00 0.  1.
          5    1    4    4  501    0  0.10650950043E+03 -0.61965501731E+02  0.13099358101E+03  0.17989104411E+03  0.41800000000E+01 0.  1.
         -5    1    4    4    0  501 -0.20166730507E+02 -0.74445823179E+01  0.11772298241E+03  0.11974260651E+03  0.41800000000E+01 0.  1.
</event>
<event>
11    1  0.7577197E-009  0.1457463E+03  0.7561462E-02  0.1101306E+00
         22   -1    0    0    0    0  0.00000000000E+00  0.00000000000E+00  0.13806383682E+04  0.13806383682E+04  0.00000000000E+00 0.  1.
         22   -1    0    0    0    0 -0.00000000000E+00 -0.00000000000E+00 -0.24020007067E+03  0.24020007067E+03  0.00000000000E+00 0.  1.
         24    2    1    2    0    0  0.20859311830E+01  0.27116205424E+02 -0.19748079472E+03  0.21464670120E+03  0.79592099776E+02 0.  0.
         25    2    1    2    0    0  0.72722592774E+02 -0.20735305597E+02  0.13653667378E+03  0.20002065814E+03  0.12508985569E+03 0.  0.
        -24    2    1    2    0    0 -0.74808523957E+02 -0.63808998267E+01  0.12013824184E+04  0.12061710795E+04  0.76758885974E+02 0.  0.
        -11    1    3    3    0    0 -0.61129865347E+01  0.43744038175E+01 -0.18881688684E+03  0.18896645408E+03  0.00000000000E+00 0.  1.
         12    1    3    3    0    0  0.81989177177E+01  0.22741801606E+02 -0.86639078777E+01  0.25680247113E+02  0.00000000000E+00 0. -1.
         11    1    5    5    0    0 -0.82626348141E+02 -0.21712954067E+01  0.72348221661E+03  0.72818839986E+03  0.00000000000E+00 0. -1.
        -12    1    5    5    0    0  0.78178241836E+01 -0.42096044201E+01  0.47790020183E+03  0.47798267966E+03  0.00000000000E+00 0.  1.
          5    1    4    4  501    0  0.31550575109E+02 -0.62834794771E+02  0.26702453535E+02  0.75326911847E+02  0.41800000000E+01 0. -1.
         -5    1    4    4    0  501  0.41172017665E+02  0.42099489174E+02  0.10983422025E+03  0.12469374630E+03  0.41800000000E+01 0. -1.
</event>
<event>
11    1  0.7577197E-009  0.1550704E+03  0.7561462E-02  0.1091808E+00
         22   -1    0    0    0    0  0.00000000000E+00  0.00000000000E+00  0.72775312604E+02  0.72775312604E+02  0.00000000000E+00 0.  1.
         22   -1    0    0    0    0 -0.00000000000E+00 -0.00000000000E+00 -0.68922637728E+03  0.68922637728E+03  0.00000000000E+00 0.  1.
         24    2    1    2    0    0 -0.13925327928E+02 -0.95591428989E+02 -0.33883871118E+03  0.36144014413E+03  0.80595716631E+02 0.  0.
         25    2    1    2    0    0  0.74779132016E+02  0.63566445840E+02 -0.23899351619E+03  0.28705085759E+03  0.12509069687E+03 0.  0.
        -24    2    1    2    0    0 -0.60853804088E+02  0.32024983149E+02 -0.38618837301E+02  0.11351068816E+03  0.81636246322E+02 0.  0.
        -13    1    3    3    0    0 -0.44480676006E+02 -0.79776659197E+02 -0.24099456636E+03  0.25772315943E+03  0.00000000000E+00 0.  1.
         14    1    3    3    0    0  0.30555348078E+02 -0.15814769793E+02 -0.97844144822E+02  0.10371698470E+03  0.00000000000E+00 0. -1.
         13    1    5    5    0    0 -0.52162518323E+02  0.15674269346E+02 -0.62751469413E+02  0.83092466270E+02  0.00000000000E+00 0. -1.
        -14    1    5    5    0    0 -0.86912857648E+01  0.16350713803E+02  0.24132632112E+02  0.30418221887E+02  0.00000000000E+00 0.  1.
          5    1    4    4  501    0  0.67931974784E+02  0.50302694823E+02 -0.25261519372E+03  0.26641513246E+03  0.41800000000E+01 0. -1.
         -5    1    4    4    0  501  0.68471572320E+01  0.13263751017E+02  0.13621677530E+02  0.20635725137E+02  0.41800000000E+01 0. -1.
</event>
<event>
11    1  0.7577197E-009  0.1667461E+03  0.7561462E-02  0.1080899E+00
         22   -1    0    0    0    0  0.00000000000E+00  0.00000000000E+00  0.13539515420E+04  0.13539515420E+04  0.00000000000E+00 0. -1.
         22   -1    0    0    0    0 -0.00000000000E+00 -0.00000000000E+00 -0.55495867131E+03  0.55495867131E+03  0.00000000000E+00 0. -1.
         24    2    1    2    0    0 -0.66205382239E+02  0.87730270553E+02 -0.52551953976E+03  0.54282102457E+03  0.80025777298E+02 0.  0.
         25    2    1    2    0    0  0.13758868616E+03 -0.62632876909E+02  0.54986328825E+03  0.58382403002E+03  0.12508932180E+03 0.  0.
        -24    2    1    2    0    0 -0.71383303926E+02 -0.25097393643E+02  0.77464912215E+03  0.78226515868E+03  0.78307475992E+02 0.  0.
        -13    1    3    3    0    0 -0.35858930695E+02  0.17370726617E+01 -0.25093289142E+03  0.25348805954E+03  0.00000000000E+00 0.  1.
         14    1    3    3    0    0 -0.30346451544E+02  0.85993197891E+02 -0.27458664834E+03  0.28933296502E+03  0.00000000000E+00 0. -1.
         11    1    5    5    0    0 -0.34081998573E+02 -0.10811739682E+02  0.65792428060E+03  0.65889516264E+03  0.00000000000E+00 0. -1.
        -12    1    5    5    0    0 -0.37301305353E+02 -0.14285653961E+02  0.11672484155E+03  0.12336999605E+03  0.00000000000E+00 0.  1.
          5    1    4    4  501    0 -0.59392766734E+01  0.25357818311E+02  0.53073469175E+02  0.59266849816E+02  0.41800000000E+01 0.  1.
         -5    1    4    4    0  501  0.14352796284E+03 -0.87990695220E+02  0.49678981908E+03  0.52455718020E+03  0.41800000000E+01 0.  1.
</event>
<event>
11    1  0.7577197E-009  0.1908195E+03  0.7561462E-02  0.1061212E+00
         22   -1    0    0    0    0  0.00000000000E+00  0.00000000000E+00  0.43831337016E+03  0.43831337016E+03  0.00000000000E+00 0.  1.
         22   -1    0    0    0    0 -0.00000000000E+00 -0.00000000000E+00 -0.64734484127E+03  0.64734484127E+03  0.00000000000E+00 0. -1.
        -24    2    1    2    0    0  0.97566878084E+02  0.51039153322E+02 -0.49605985177E+03  0.51386598363E+03  0.76541372658E+02 0.  0.
         25    2    1    2    0    0  0.31448738788E+02  0.43152883537E+02 -0.83962062958E+02  0.15984098578E+03  0.12509323799E+03 0.  0.
         24    2    1    2    0    0 -0.12901561687E+03 -0.94192036859E+02  0.37099044361E+03  0.41195124201E+03  0.80949041637E+02 0.  0.
        -13    1    5    5    0    0 -0.25967876135E+02 -0.42219837619E+02  0.19716705534E+03  0.20330197488E+03  0.00000000000E+00 0.  1.
         14    1    5    5    0    0 -0.10304774074E+03 -0.51972199240E+02  0.17382338827E+03  0.20864926713E+03  0.00000000000E+00 0. -1.
         13    1    3    3    0    0  0.90899085336E+02  0.67419020533E+02 -0.38093801563E+03  0.39739368364E+03  0.00000000000E+00 0. -1.
        -14    1    3    3    0    0  0.66677927475E+01 -0.16379867211E+02 -0.11512183614E+03  0.11647229999E+03  0.00000000000E+00 0.  1.
          5    1    4    4  501    0 -0.11892791960E+02  0.75228691243E+01  0.29636538708E+02  0.33073084027E+02  0.41800000000E+01 0. -1.
         -5    1    4    4    0  501  0.43341530748E+02  0.35630014413E+02 -0.11359860167E+03  0.12676790175E+03  0.41800000000E+01 0. -1.
</event>
<event>
11    1  0.7577197E-009  0.1444826E+03  0.7561462E-02  0.1102654E+00
         22   -1    0    0    0    0  0.00000000000E+00  0.00000000000E+00  0.70314110533E+03  0.70314110533E+03  0.00000000000E+00 0.  1.
         22   -1    0    0    0    0 -0.00000000000E+00 -0.00000000000E+00 -0.35637817872E+03  0.35637817872E+03  0.00000000000E+00 0.  1.
         24    2    1    2    0    0 -0.23800201669E+02  0.32798621729E+02 -0.26076041685E+03  0.27600253791E+03  0.80865361869E+02 0.  0.
         25    2    1    2    0    0 -0.94872896928E+01 -0.95916630662E+02 -0.87948342356E+01  0.15816156937E+03  0.12509086383E+03 0.  0.
        -24    2    1    2    0    0  0.33287491362E+02  0.63118008934E+02  0.61631817770E+03  0.62535517677E+03  0.78288318552E+02 0.  0.
        -13    1    3    3    0    0 -0.34439924994E+02  0.58491814733E+01 -0.23389781399E+03  0.23649209024E+03  0.00000000000E+00 0.  1.
         14    1    3    3    0    0  0.10639723325E+02  0.26949440255E+02 -0.26862602859E+02  0.39510447667E+02  0.00000000000E+00 0. -1.
         11    1    5    5    0    0 -0.21243519497E+02  0.40884238294E+02  0.22940024177E+03  0.23398136461E+03  0.00000000000E+00 0. -1.
        -12    1    5    5    0    0  0.54531010858E+02  0.22233770640E+02  0.38691793592E+03  0.39137381216E+03  0.00000000000E+00 0.  1.
          5    1    4    4  501    0 -0.46787484003E+02 -0.19411126522E+02 -0.42764454535E+02  0.66423877212E+02  0.41800000000E+01 0. -1.
         -5    1    4    4    0  501  0.37300194310E+02 -0.76505504140E+02  0.33969620300E+02  0.91737692159E+02  0.41800000000E+01 0. -1.
</event>
<event>
11    1  0.7577197E-009  0.1338235E+03  0.7561462E-02  0.1114658E+00
         22   -1    0    0    0    0  0.00000000000E+00  0.00000000000E+00  0.43837000383E+03  0.43837000383E+03  0.00000000000E+00 0.  1.
         22   -1    0    0    0    0 -0.00000000000E+00 -0.00000000000E+00 -0.10754364584E+03  0.10754364584E+03  0.00000000000E+00 0.  1.
        -24    2    1    2    0    0 -0.48956481979E+02  0.17557902474E+01 -0.34749808875E+02  0.10043413740E+03  0.80496253397E+02 0.  0.
         25    2    1    2    0    0  0.39328157661E+02  0.38728965556E+02  0.11442842133E+03  0.17829773631E+03  0.12509829098E+03 0.  0.
         24    2    1    2    0    0  0.96283243177E+01 -0.40484755803E+02  0.25114774554E+03  0.26718177597E+03  0.81112213869E+02 0.  0.
        -13    1    5    5    0    0  0.36984771176E+02 -0.49036358081E+02  0.18931256405E+03  0.19902684397E+03  0.00000000000E+00 0.  1.
         14    1    5    5    0    0 -0.27356446858E+02  0.85516022774E+01  0.61835181494E+02  0.68154932005E+02  0.00000000000E+00 0. -1.
         13    1    3    3    0    0  0.12982797268E+02  0.22808889528E+02  0.23825692468E+00  0.26246051756E+02  0.00000000000E+00 0. -1.
        -14    1    3    3    0    0 -0.61939279247E+02 -0.21053099281E+02 -0.34988065800E+02  0.74188085643E+02  0.00000000000E+00 0.  1.
          5    1    4    4  501    0 -0.12870687248E+02 -0.18445707847E+02 -0.15048148182E+02  0.27382802850E+02  0.41800000000E+01 0. -1.
         -5    1    4    4    0  501  0.52198844909E+02  0.57174673403E+02  0.12947656951E+03  0.15091493346E+03  0.41800000000E+01 0. -1.
</event>
<event>
11    1  0.7577197E-009  0.1461692E+03  0.7561462E-02  0.1100859E+00
         22   -1    0    0    0    0  0.00000000000E+00  0.00000000000E+00  0.89935653173E+03  0.89935653173E+03  0.00000000000E+00 0.  1.
         22   -1    0    0    0    0 -0.00000000000E+00 -0.00000000000E+00 -0.33788438025E+03  0.33788438025E+03  0.00000000000E+00 0. -1.
         24    2    1    2    0    0 -0.16513424916E+02 -0.63964212033E+01 -0.26767033879E+03  0.28021603346E+03  0.80993874676E+02 0.  0.
         25    2    1    2    0    0  0.82428865323E+02  0.41256077732E+02  0.40289047319E+02  0.16052149682E+03  0.12508941530E+03 0.  0.
        -24    2    1    2    0    0 -0.65915440407E+02 -0.34859656529E+02  0.78885344295E+03  0.79650338169E+03  0.81042221456E+02 0.  0.
        -13    1    3    3    0    0  0.18949218293E+02 -0.24706653775E+02 -0.49891416987E+02  0.58810246587E+02  0.00000000000E+00 0.  1.
         14    1    3    3    0    0 -0.35462643209E+02  0.18310232572E+02 -0.21777892180E+03  0.22140578688E+03  0.00000000000E+00 0. -1.
         11    1    5    5    0    0 -0.64376903898E+02 -0.44514332193E+02  0.40321840512E+03  0.41074443850E+03  0.00000000000E+00 0. -1.
        -12    1    5    5    0    0 -0.15385365087E+01  0.96546756644E+01  0.38563503783E+03  0.38575894320E+03  0.00000000000E+00 0.  1.
          5    1    4    4  501    0  0.10148005653E+03  0.86521623594E+00  0.52080693521E+02  0.11414386321E+03  0.41800000000E+01 0. -1.
         -5    1    4    4    0  501 -0.19051191205E+02  0.40390861496E+02 -0.11791646202E+02  0.46377633606E+02  0.41800000000E+01 0. -1.
</event>
<event>
11    1  0.7577197E-009  0.1485253E+03  0.7561462E-02  0.1098395E+00
         22   -1    0    0    0    0  0.00000000000E+00  0.00000000000E+00  0.11587628355E+04  0.11587628355E+04  0.00000000000E+00 0.  1.
         22   -1    0    0    0    0 -0.00000000000E+00 -0.00000000000E+00 -0.83206581238E+03  0.83206581238E+03  0.00000000000E+00 0.  1.
         24    2    1    2    0    0  0.51112387633E+02 -0.64232517781E+02 -0.72935942479E+03  0.73850263499E+03  0.81747653480E+02 0.  0.
         25    2    1    2    0    0 -0.43561815909E+02  0.39967305579E+02 -0.46892949753E+02  0.14607908319E+03  0.12508050403E+03 0.  0.
        -24    2    1    2    0    0 -0.75505717240E+01  0.24265212201E+02  0.11029493976E+04  0.11062469297E+04  0.81480574584E+02 0.  0.
        -13    1    3    3    0    0  0.73344878648E+02 -0.53372568414E+02 -0.59672636546E+03  0.60358135949E+03  0.00000000000E+00 0.  1.
         14    1    3    3    0    0 -0.22232491015E+02 -0.10859949367E+02 -0.13263305933E+03  0.13492127550E+03  0.00000000000E+00 0. -1.
         11    1    5    5    0    0 -0.38092683407E+02  0.30918056922E+02  0.47671601242E+03  0.47923390455E+03  0.00000000000E+00 0. -1.
        -12    1    5    5    0    0  0.30542111683E+02 -0.66528447201E+01  0.62623338520E+03  0.62701302512E+03  0.00000000000E+00 0.  1.
          5    1    4    4  501    0 -0.31213667234E+02  0.67874606803E+02  0.15576298032E+02  0.76428716667E+02  0.41800000000E+01 0.  1.
         -5    1    4    4    0  501 -0.12348148675E+02 -0.27907301224E+02 -0.62469247785E+02  0.69650366519E+02  0.41800000000E+01 0.  1.
</event>
<event>
11    1  0.7577197E-009  0.1886786E+03  0.7561462E-02  0.1062831E+00
         22   -1    0    0    0    0  0.00000000000E+00  0.00000000000E+00  0.63826864792E+03  0.63826864792E+03  0.00000000000E+00 0.  1.
         22   -1    0    0    0    0 -0.00000000000E+00 -0.00000000000E+00 -0.18781935597E+03  0.18781935597E+03  0.00000000000E+00 0. -1.
        -24    2    1    2    0    0 -0.24589867451E+02 -0.13714735426E+03 -0.70017211681E+02  0.18200472341E+03  0.93857610494E+02 0.  0.
         25    2    1    2    0    0  0.30736776773E+02  0.14355333453E+03  0.10247244022E+03  0.21840422648E+03  0.12508995098E+03 0.  0.
         24    2    1    2    0    0 -0.61469093219E+01 -0.64059802707E+01  0.41799406341E+03  0.42567905401E+03  0.80029987484E+02 0.  0.
        -11    1    5    5    0    0  0.22664850736E+02 -0.25212707770E+02  0.32057366063E+03  0.32236136242E+03  0.00000000000E+00 0.  1.
         12    1    5    5    0    0 -0.28811760058E+02  0.18806727499E+02  0.97420402779E+02  0.10331769158E+03  0.00000000000E+00 0. -1.
         11    1    3    3    0    0 -0.24080053926E+01 -0.11762135709E+03 -0.13746821138E+02  0.11844643188E+03  0.00000000000E+00 0. -1.
        -12    1    3    3    0    0 -0.22181862058E+02 -0.19525997175E+02 -0.56270390543E+02  0.63558291527E+02  0.00000000000E+00 0.  1.
          5    1    4    4  501    0  0.34447730772E+02  0.96195969106E+02 -0.33665208529E+01  0.10231870059E+03  0.41800000000E+01 0. -1.
         -5    1    4    4    0  501 -0.37109539990E+01  0.47357365429E+02  0.10583896107E+03  0.11608552589E+03  0.41800000000E+01 0. -1.
</event>
<event>
11    1  0.7577197E-009  0.1495567E+03  0.7561462E-02  0.1097333E+00
         22   -1    0    0    0    0  0.00000000000E+00  0.00000000000E+00  0.11352960011E+04  0.11352960011E+04  0.00000000000E+00 0. -1.
         22   -1    0    0    0    0 -0.00000000000E+00 -0.00000000000E+00 -0.54127340237E+03  0.54127340237E+03  0.00000000000E+00 0.  1.
        -24    2    1    2    0    0  0.22624803091E+02  0.80546020163E+02 -0.50472347415E+03  0.51820611584E+03  0.82415108200E+02 0.  0.
         25    2    1    2    0    0 -0.18467013145E+02 -0.39158326430E+02  0.12897905689E+03  0.18481647709E+03  0.12508848063E+03 0.  0.
         24    2    1    2    0    0 -0.41577899463E+01 -0.41387693734E+02  0.96976701599E+03  0.97354681053E+03  0.74933961550E+02 0.  0.
        -11    1    5    5    0    0 -0.42263005353E+01 -0.22598242846E+02  0.71961242458E+02  0.75544441305E+02  0.00000000000E+00 0.  1.
         12    1    5    5    0    0  0.68510589051E-01 -0.18789450888E+02  0.89780577353E+03  0.89800236923E+03  0.00000000000E+00 0. -1.
         13    1    3    3    0    0  0.35480530446E+02  0.73676660515E+01 -0.92585152124E+02  0.99424146653E+02  0.00000000000E+00 0. -1.
        -14    1    3    3    0    0 -0.12855727354E+02  0.73178354112E+02 -0.41213832203E+03  0.41878196919E+03  0.00000000000E+00 0.  1.
          5    1    4    4  501    0 -0.44154644249E+02  0.24576292457E+02  0.17210574359E+02  0.53547203750E+02  0.41800000000E+01 0.  1.
         -5    1    4    4    0  501  0.25687631104E+02 -0.63734618886E+02  0.11176848253E+03  0.13126927334E+03  0.41800000000E+01 0.  1.
</event>
<event>
11    1  0.7577197E-009  0.2707986E+03  0.7561462E-02  0.1013368E+00
         22   -1    0    0    0    0  0.00000000000E+00  0.00000000000E+00  0.66602996357E+03  0.66602996357E+03  0.00000000000E+00 0. -1.
         22   -1    0    0    0    0 -0.00000000000E+00 -0.00000000000E+00 -0.44576713492E+03  0.44576713492E+03  0.00000000000E+00 0.  1.
        -24    2    1    2    0    0 -0.22963317370E+01 -0.26898455563E+02 -0.16794339674E+03  0.18834024554E+03  0.80859529610E+02 0.  0.
         25    2    1    2    0    0 -0.21676949891E+03  0.12309875819E+03 -0.15885197366E+03  0.32097394274E+03  0.12509197599E+03 0.  0.
         24    2    1    2    0    0  0.21906583065E+03 -0.96200302625E+02  0.54705819905E+03  0.60248291022E+03  0.80427902938E+02 0.  0.
        -11    1    5    5    0    0  0.53474601618E+02 -0.62642863736E+02  0.20641458044E+03  0.22224005132E+03  0.00000000000E+00 0.  1.
         12    1    5    5    0    0  0.16559122903E+03 -0.33557438889E+02  0.34064361862E+03  0.38024285889E+03  0.00000000000E+00 0. -1.
         11    1    3    3    0    0 -0.24526530827E+02 -0.28929341626E+02 -0.29340494458E+02  0.47951247495E+02  0.00000000000E+00 0. -1.
        -12    1    3    3    0    0  0.22230199090E+02  0.20308860629E+01 -0.13860290228E+03  0.14038899804E+03  0.00000000000E+00 0.  1.
          5    1    4    4  501    0 -0.17701227760E+03  0.40612064828E+02 -0.74290939990E+02  0.19626334959E+03  0.41800000000E+01 0.  1.
         -5    1    4    4    0  501 -0.39757221317E+02  0.82486693360E+02 -0.84561033666E+02  0.12471059315E+03  0.41800000000E+01 0.  1.
</event>
<event>
11    1  0.7577197E-009  0.1726776E+03  0.7561462E-02  0.1075725E+00
         22   -1    0    0    0    0  0.00000000000E+00  0.00000000000E+00  0.74261205934E+02  0.74261205934E+02  0.00000000000E+00 0. -1.
         22   -1    0    0    0    0 -0.00000000000E+00 -0.00000000000E+00 -0.88419871402E+03  0.88419871402E+03  0.00000000000E+00 0.  1.
        -24    2    1    2    0    0 -0.99428446585E+02  0.23241380939E+02 -0.37988861276E+03  0.40134060701E+03  0.79578558384E+02 0.  0.
         25    2    1    2    0    0 -0.24633521989E+02 -0.87228757640E+02 -0.33667660199E+03  0.37042512711E+03  0.12509186187E+03 0.  0.
         24    2    1    2    0    0  0.12406196857E+03  0.63987376701E+02 -0.93372293343E+02  0.18669418583E+03  0.81551072555E+02 0.  0.
        -13    1    5    5    0    0  0.94118665415E+02  0.37045961785E+02 -0.10396014433E+03  0.14504633078E+03  0.00000000000E+00 0.  1.
         14    1    5    5    0    0  0.29943303159E+02  0.26941414916E+02  0.10587850985E+02  0.41647855050E+02  0.00000000000E+00 0. -1.
         11    1    3    3    0    0 -0.45344463183E+02  0.29118443469E+02 -0.79356557207E+02  0.95924278799E+02  0.00000000000E+00 0. -1.
        -12    1    3    3    0    0 -0.54083983403E+02 -0.58770625293E+01 -0.30053205555E+03  0.30541632821E+03  0.00000000000E+00 0.  1.
          5    1    4    4  501    0  0.39136476035E+02 -0.28709446138E+02 -0.21861083747E+03  0.22397336161E+03  0.41800000000E+01 0.  1.
         -5    1    4    4    0  501 -0.63769998025E+02 -0.58519311502E+02 -0.11806576452E+03  0.14645176550E+03  0.41800000000E+01 0.  1.
</event>
<event>
11    1  0.7577197E-009  0.1637717E+03  0.7561462E-02  0.1083583E+00
         22   -1    0    0    0    0  0.00000000000E+00  0.00000000000E+00  0.10173310497E+04  0.10173310497E+04  0.00000000000E+00 0.  1.
         22   -1    0    0    0    0 -0.00000000000E+00 -0.00000000000E+00 -0.31582341423E+04  0.31582341423E+04  0.00000000000E+00 0. -1.
        -24    2    1    2    0    0 -0.23083595031E+02  0.10456245038E+03 -0.30663822348E+04  0.30693087556E+04  0.80560960438E+02 0.  0.
         25    2    1    2    0    0  0.39577432836E+01 -0.56024537331E+02 -0.34530994106E+02  0.14140006309E+03  0.12508867165E+03 0.  0.
         24    2    1    2    0    0  0.19125851747E+02 -0.48537913050E+02  0.96001013627E+03  0.96485637337E+03  0.81281192645E+02 0.  0.
        -11    1    5    5    0    0  0.24296674995E+02 -0.63239553344E+02  0.90894266423E+03  0.91146384260E+03  0.00000000000E+00 0.  1.
         12    1    5    5    0    0 -0.51708232474E+01  0.14701640294E+02  0.51067472041E+02  0.53392530761E+02  0.00000000000E+00 0. -1.
         13    1    3    3    0    0 -0.14198135818E+01  0.10916707760E+03 -0.27411312063E+04  0.27433045323E+04  0.00000000000E+00 0. -1.
        -14    1    3    3    0    0 -0.21663781449E+02 -0.46046272213E+01 -0.32525102854E+03  0.32600422327E+03  0.00000000000E+00 0.  1.
          5    1    4    4  501    0 -0.50151450883E+02 -0.36513058195E+02 -0.52092803767E+02  0.81114142101E+02  0.41800000000E+01 0. -1.
         -5    1    4    4    0  501  0.54109194167E+02 -0.19511479136E+02  0.17561809661E+02  0.60285920994E+02  0.41800000000E+01 0. -1.
</event>
<event>
11    1  0.7577197E-009  0.2243928E+03  0.7561462E-02  0.1038500E+00
         22   -1    0    0    0    0  0.00000000000E+00  0.00000000000E+00  0.42554640980E+03  0.42554640980E+03  0.00000000000E+00 0.  1.
         22   -1    0    0    0    0 -0.00000000000E+00 -0.00000000000E+00 -0.65057802578E+03  0.65057802578E+03  0.00000000000E+00 0. -1.
         24    2    1    2    0    0  0.96777980889E+02  0.63679192474E+02 -0.46224700533E+03  0.48308536297E+03  0.79234820865E+02 0.  0.
         25    2    1    2    0    0 -0.26270122462E+03 -0.52536178342E+02  0.15066410501E+02  0.29605157477E+03  0.12509018644E+03 0.  0.
        -24    2    1    2    0    0  0.16592324373E+03 -0.11143014132E+02  0.22214897885E+03  0.29698749784E+03  0.10581453346E+03 0.  0.
        -11    1    3    3    0    0  0.37609007479E+02 -0.16192556562E+02 -0.13698008480E+03  0.14296915739E+03  0.00000000000E+00 0.  1.
         12    1    3    3    0    0  0.59168973409E+02  0.79871749036E+02 -0.32526692053E+03  0.34011620558E+03  0.00000000000E+00 0. -1.
         13    1    5    5    0    0  0.34931153808E+02  0.15341903237E+01 -0.41431165844E+01  0.35209439947E+02  0.00000000000E+00 0. -1.
        -14    1    5    5    0    0  0.13099208992E+03 -0.12677204456E+02  0.22629209544E+03  0.26177805789E+03  0.00000000000E+00 0.  1.
          5    1    4    4  501    0 -0.61988472917E+02  0.40428668259E+02  0.96341640654E+01  0.74748495029E+02  0.41800000000E+01 0.  1.
         -5    1    4    4    0  501 -0.20071275170E+03 -0.92964846601E+02  0.54322464358E+01  0.22130307974E+03  0.41800000000E+01 0.  1.
</event>
<event>
11    1  0.7577197E-009  0.1417650E+03  0.7561462E-02  0.1105603E+00
         22   -1    0    0    0    0  0.00000000000E+00  0.00000000000E+00  0.14025871720E+03  0.14025871720E+03  0.00000000000E+00 0.  1.
         22   -1    0    0    0    0 -0.00000000000E+00 -0.00000000000E+00 -0.82568887925E+03  0.82568887925E+03  0.00000000000E+00 0. -1.
         24    2    1    2    0    0 -0.28490818824E+02 -0.56482651344E+02 -0.67427054504E+03  0.68306444197E+03  0.89074392017E+02 0.  0.
         25    2    1    2    0    0  0.48137441409E+02  0.11580652628E+03 -0.30655184648E+02  0.17976574323E+03  0.12509043648E+03 0.  0.
        -24    2    1    2    0    0 -0.19646622585E+02 -0.59323874937E+02  0.19495567630E+02  0.10311741125E+03  0.79673153753E+02 0.  0.
        -11    1    3    3    0    0  0.32021264391E+02 -0.21497500843E+02 -0.20194286632E+03  0.20559286265E+03  0.00000000000E+00 0.  1.
         12    1    3    3    0    0 -0.60512083215E+02 -0.34985150501E+02 -0.47232767871E+03  0.47747157931E+03  0.00000000000E+00 0. -1.
         13    1    5    5    0    0 -0.10309934914E+02 -0.32222634327E+02 -0.30459035645E+02  0.45523024651E+02  0.00000000000E+00 0. -1.
        -14    1    5    5    0    0 -0.93366876704E+01 -0.27101240609E+02  0.49954603275E+02  0.57594386598E+02  0.00000000000E+00 0.  1.
          5    1    4    4  501    0  0.42537805295E+02  0.17409295796E+02  0.37832331109E+02  0.59676680006E+02  0.41800000000E+01 0. -1.
         -5    1    4    4    0  501  0.55996361144E+01  0.98397230485E+02 -0.68487515757E+02  0.12008906323E+03  0.41800000000E+01 0. -1.
</event>
<event>
11    1  0.7577197E-009  0.1335652E+03  0.7561462E-02  0.1114964E+00
         22   -1    0    0    0    0  0.00000000000E+00  0.00000000000E+00  0.17846426808E+03  0.17846426808E+03  0.00000000000E+00 0.  1.
         22   -1    0    0    0    0 -0.00000000000E+00 -0.00000000000E+00 -0.88246571171E+03  0.88246571171E+03  0.00000000000E+00 0.  1.
         24    2    1    2    0    0  0.11926913051E+02 -0.85426130502E+01 -0.78162315968E+03  0.78582944353E+03  0.79861900024E+02 0.  0.
         25    2    1    2    0    0 -0.56332847150E+02  0.12232890957E+02 -0.22754780634E+02  0.13960142995E+03  0.12509095057E+03 0.  0.
        -24    2    1    2    0    0  0.44405934098E+02 -0.36902779070E+01  0.10037649668E+03  0.13549910631E+03  0.79366627689E+02 0.  0.
        -13    1    3    3    0    0  0.45985364727E+02 -0.25733178351E+01 -0.49141833522E+03  0.49357193591E+03  0.00000000000E+00 0.  1.
         14    1    3    3    0    0 -0.34058451675E+02 -0.59692952150E+01 -0.29020482447E+03  0.29225750762E+03  0.00000000000E+00 0. -1.
         11    1    5    5    0    0  0.39736991707E+02 -0.12806369867E+02  0.79412778508E+01  0.42498182467E+02  0.00000000000E+00 0. -1.
        -12    1    5    5    0    0  0.46689423917E+01  0.91160919603E+01  0.92435218828E+02  0.93000923842E+02  0.00000000000E+00 0.  1.
          5    1    4    4  501    0 -0.80986728360E+01  0.65244260886E+02 -0.13012631588E+02  0.67150599856E+02  0.41800000000E+01 0.  1.
         -5    1    4    4    0  501 -0.48234174314E+02 -0.53011369929E+02 -0.97421490459E+01  0.72450830095E+02  0.41800000000E+01 0.  1.
</event>
<event>
11    1  0.7577197E-009  0.1361201E+03  0.7561462E-02  0.1111970E+00
         22   -1    0    0    0    0  0.00000000000E+00  0.00000000000E+00  0.61903711039E+03  0.61903711039E+03  0.00000000000E+00 0. -1.
         22   -1    0    0    0    0 -0.00000000000E+00 -0.00000000000E+00 -0.64141525490E+03  0.64141525490E+03  0.00000000000E+00 0.  1.
         24    2    1    2    0    0 -0.40402207839E+00 -0.17375902503E+02 -0.56209287657E+03  0.56792730647E+03  0.79315435592E+02 0.  0.
         25    2    1    2    0    0  0.52679675377E+02  0.43661425212E+01 -0.85110552641E+01  0.13606816904E+03  0.12509155513E+03 0.  0.
        -24    2    1    2    0    0 -0.52275653299E+02  0.13009759982E+02  0.54822578732E+03  0.55645688978E+03  0.78681373383E+02 0.  0.
        -13    1    3    3    0    0 -0.12987217728E+02 -0.19463812563E+02 -0.54951735670E+03  0.55001530264E+03  0.00000000000E+00 0.  1.
         14    1    3    3    0    0  0.12583195650E+02  0.20879100597E+01 -0.12575519865E+02  0.17912003826E+02  0.00000000000E+00 0. -1.
         13    1    5    5    0    0 -0.67353070403E+02  0.28447890291E+02  0.44877031978E+03  0.45468727546E+03  0.00000000000E+00 0. -1.
        -14    1    5    5    0    0  0.15077417104E+02 -0.15438130309E+02  0.99455467546E+02  0.10176961432E+03  0.00000000000E+00 0.  1.
          5    1    4    4  501    0  0.14799673201E+02  0.62834205196E+02  0.53632919263E+01  0.64910746181E+02  0.41800000000E+01 0. -1.
         -5    1    4    4    0  501  0.37880002177E+02 -0.58468062675E+02 -0.13874347190E+02  0.71157422858E+02  0.41800000000E+01 0. -1.
</event>
<event>
11    1  0.7577197E-009  0.1263451E+03  0.7561462E-02  0.1123843E+00
         22   -1    0    0    0    0  0.00000000000E+00  0.00000000000E+00  0.94007997016E+02  0.94007997016E+02  0.00000000000E+00 0. -1.
         22   -1    0    0    0    0 -0.00000000000E+00 -0.00000000000E+00 -0.16568322185E+04  0.16568322185E+04  0.00000000000E+00 0.  1.
        -24    2    1    2    0    0  0.18739689022E+00 -0.64528176644E+01 -0.12070746728E+04  0.12097172993E+04  0.79655537192E+02 0.  0.
         25    2    1    2    0    0 -0.17931248322E+02  0.53418875117E+01 -0.41882468000E+03  0.43750593345E+03  0.12508902349E+03 0.  0.
         24    2    1    2    0    0  0.17743851432E+02  0.11109301527E+01  0.63075131289E+02  0.10361698276E+03  0.80261625330E+02 0.  0.
        -13    1    5    5    0    0  0.32783457874E+02 -0.30285164523E+02  0.21953065567E+02  0.49738148218E+02  0.00000000000E+00 0.  1.
         14    1    5    5    0    0 -0.15039606442E+02  0.31396094676E+02  0.41122065723E+02  0.53878834547E+02  0.00000000000E+00 0. -1.
         11    1    3    3    0    0 -0.22235303512E+02  0.26795031333E+02 -0.35610570189E+03  0.35780393143E+03  0.00000000000E+00 0. -1.
        -12    1    3    3    0    0  0.22422700402E+02 -0.33247848998E+02 -0.85096897088E+03  0.85191336787E+03  0.00000000000E+00 0.  1.
          5    1    4    4  501    0  0.53569219211E+02 -0.27406734555E+01 -0.20038296534E+03  0.20748006588E+03  0.41800000000E+01 0. -1.
         -5    1    4    4    0  501 -0.71500467533E+02  0.80825609672E+01 -0.21844171466E+03  0.23002586757E+03  0.41800000000E+01 0. -1.
</event>
<event>
11    1  0.7577197E-009  0.3185063E+03  0.7561462E-02  0.9926495E-01
         22   -1    0    0    0    0  0.00000000000E+00  0.00000000000E+00  0.16071211848E+04  0.16071211848E+04  0.00000000000E+00 0.  1.
         22   -1    0    0    0    0 -0.00000000000E+00 -0.00000000000E+00 -0.23126648901E+04  0.23126648901E+04  0.00000000000E+00 0. -1.
        -24    2    1    2    0    0 -0.25493215788E+02  0.40982012125E+00 -0.22231509357E+04  0.22247641062E+04  0.80778542845E+02 0.  0.
         25    2    1    2    0    0 -0.23007653240E+03  0.15191955289E+03  0.25634203044E+03  0.39670076310E+03  0.12508196340E+03 0.  0.
         24    2    1    2    0    0  0.25556974819E+03 -0.15232937301E+03  0.12612652000E+04  0.12983212057E+04  0.79548188450E+02 0.  0.
        -11    1    5    5    0    0  0.25776674136E+03 -0.13592356190E+03  0.11961527359E+04  0.12311377970E+04  0.00000000000E+00 0.  1.
         12    1    5    5    0    0 -0.21969931784E+01 -0.16405811114E+02  0.65112464115E+02  0.67183408669E+02  0.00000000000E+00 0. -1.
         13    1    3    3    0    0 -0.66142129941E+01  0.17003890853E+02 -0.20175433872E+04  0.20176258819E+04  0.00000000000E+00 0. -1.
        -14    1    3    3    0    0 -0.18879002793E+02 -0.16594070732E+02 -0.20560754852E+03  0.20713822424E+03  0.00000000000E+00 0.  1.
          5    1    4    4  501    0 -0.17284112734E+03  0.12926832745E+03  0.11985026561E+03  0.24691276668E+03  0.41800000000E+01 0.  1.
         -5    1    4    4    0  501 -0.57235405054E+02  0.22651225438E+02  0.13649176483E+03  0.14978799642E+03  0.41800000000E+01 0.  1.
</event>
<event>
11    1  0.7577197E-009  0.1368320E+03  0.7561462E-02  0.1111148E+00
         22   -1    0    0    0    0  0.00000000000E+00  0.00000000000E+00  0.12066127813E+04  0.12066127813E+04  0.00000000000E+00 0.  1.
         22   -1    0    0    0    0 -0.00000000000E+00 -0.00000000000E+00 -0.30905645647E+03  0.30905645647E+03  0.00000000000E+00 0. -1.
        -24    2    1    2    0    0  0.40033775653E+02 -0.13682501231E+02 -0.27335720864E+03  0.28807756705E+03  0.80464943223E+02 0.  0.
         25    2    1    2    0    0 -0.76660634199E+02 -0.25944726889E+02  0.18721478836E+03  0.23926484699E+03  0.12509319859E+03 0.  0.
         24    2    1    2    0    0  0.36626858547E+02  0.39627228120E+02  0.98369874512E+03  0.98832682372E+03  0.78834290601E+02 0.  0.
        -13    1    5    5    0    0  0.43221000230E+02  0.54651956852E+02  0.91685219305E+03  0.91949596799E+03  0.00000000000E+00 0.  1.
         14    1    5    5    0    0 -0.65941416835E+01 -0.15024728733E+02  0.66846552066E+02  0.68830855734E+02  0.00000000000E+00 0. -1.
         11    1    3    3    0    0  0.51347180891E+02 -0.35725275936E+02 -0.22764226877E+03  0.23608013651E+03  0.00000000000E+00 0. -1.
        -12    1    3    3    0    0 -0.11313405238E+02  0.22042774705E+02 -0.45714939876E+02  0.51997430539E+02  0.00000000000E+00 0.  1.
          5    1    4    4  501    0 -0.25398397113E+02  0.18833712149E+02  0.16423495077E+03  0.16730325383E+03  0.41800000000E+01 0. -1.
         -5    1    4    4    0  501 -0.51262237087E+02 -0.44778439038E+02  0.22979837594E+02  0.71961593157E+02  0.41800000000E+01 0. -1.
</event>
<event>
11    1  0.7577197E-009  0.2360088E+03  0.7561462E-02  0.1031628E+00
         22   -1    0    0    0    0  0.00000000000E+00  0.00000000000E+00  0.38684190266E+03  0.38684190266E+03  0.00000000000E+00 0.  1.
         22   -1    0    0    0    0 -0.00000000000E+00 -0.00000000000E+00 -0.42359177161E+03  0.42359177161E+03  0.00000000000E+00 0. -1.
        -24    2    1    2    0    0 -0.15960233624E+02 -0.20043447462E+03 -0.28515975062E+03  0.35838798001E+03  0.81836136072E+02 0.  0.
         25    2    1    2    0    0 -0.18496933857E+01  0.19707641390E+03  0.51561065343E+02  0.23904926996E+03  0.12507388109E+03 0.  0.
         24    2    1    2    0    0  0.17809927010E+02  0.33580607236E+01  0.19684881633E+03  0.21299642430E+03  0.79306684467E+02 0.  0.
        -13    1    5    5    0    0  0.16839489352E+02 -0.32596176783E+02  0.14710743729E+03  0.15161357871E+03  0.00000000000E+00 0.  1.
         14    1    5    5    0    0  0.97043765796E+00  0.35954237506E+02  0.49741379038E+02  0.61382845588E+02  0.00000000000E+00 0. -1.
         11    1    3    3    0    0 -0.41439402880E+02 -0.16868309732E+03 -0.25101832829E+03  0.30525630636E+03  0.00000000000E+00 0. -1.
        -12    1    3    3    0    0  0.25479169256E+02 -0.31751377300E+02 -0.34141422332E+02  0.53131673653E+02  0.00000000000E+00 0.  1.
          5    1    4    4  501    0  0.18964806931E+02  0.17894278614E+03 -0.47705540824E+00  0.17999412378E+03  0.41800000000E+01 0. -1.
         -5    1    4    4    0  501 -0.20814500316E+02  0.18133627755E+02  0.52038120751E+02  0.59055146179E+02  0.41800000000E+01 0. -1.
</event>
<event>
11    1  0.7577197E-009  0.1444446E+03  0.7561462E-02  0.1102694E+00
         22   -1    0    0    0    0  0.00000000000E+00  0.00000000000E+00  0.78195817355E+03  0.78195817355E+03  0.00000000000E+00 0. -1.
         22   -1    0    0    0    0 -0.00000000000E+00 -0.00000000000E+00 -0.72744518232E+03  0.72744518232E+03  0.00000000000E+00 0. -1.
         24    2    1    2    0    0  0.79565862639E+01 -0.69705586684E+02 -0.68835887953E+03  0.69645899634E+03  0.79341102088E+02 0.  0.
         25    2    1    2    0    0 -0.76557081001E+02  0.40456528153E+02  0.16582579321E+03  0.22504029642E+03  0.12508886441E+03 0.  0.
        -24    2    1    2    0    0  0.68600494737E+02  0.29249058531E+02  0.57704607755E+03  0.58790406310E+03  0.84187151596E+02 0.  0.
        -11    1    3    3    0    0  0.12619028810E+02 -0.23958885432E+02 -0.53745098247E+02  0.60181422921E+02  0.00000000000E+00 0.  1.
         12    1    3    3    0    0 -0.46624425464E+01 -0.45746701252E+02 -0.63461378128E+03  0.63627757342E+03  0.00000000000E+00 0. -1.
         11    1    5    5    0    0  0.76602676399E+02 -0.52274964012E+01  0.41416925484E+03  0.42122614877E+03  0.00000000000E+00 0. -1.
        -12    1    5    5    0    0 -0.80021816614E+01  0.34476554932E+02  0.16287682270E+03  0.16667791433E+03  0.00000000000E+00 0.  1.
          5    1    4    4  501    0 -0.49555616746E+02  0.62740026600E+02  0.17155860231E+03  0.18931956190E+03  0.41800000000E+01 0.  1.
         -5    1    4    4    0  501 -0.27001464255E+02 -0.22283498446E+02 -0.57328091042E+01  0.35720734527E+02  0.41800000000E+01 0.  1.
</event>
<event>
11    1  0.8439336E-009  0.1523804E+03  0.7561462E-02  0.1094471E+00
         22   -1    0    0    0    0  0.00000000000E+00  0.00000000000E+00  0.16270485759E+04  0.16270485759E+04  0.00000000000E+00 0. -1.
         22   -1    0    0    0    0 -0.00000000000E+00 -0.00000000000E+00 -0.28487988184E+03  0.28487988184E+03  0.00000000000E+00 0. -1.
         24    2    1    2    0    0 -0.33718641425E+02 -0.41170100607E+02 -0.23686028320E+03  0.25584667271E+03  0.80763867030E+02 0.  0.
         25    2    1    2    0    0  0.11842467852E+03  0.32774221210E+02  0.17676794004E+03  0.24898466519E+03  0.12509158572E+03 0.  0.
        -24    2    1    2    0    0 -0.84706037091E+02  0.83958793969E+01  0.14022610372E+04  0.14070971198E+04  0.79628416138E+02 0.  0.
        -11    1    3    3    0    0 -0.26461860636E+02 -0.26597181710E+02 -0.29182166822E+02  0.47531452783E+02  0.00000000000E+00 0.  1.
         12    1    3    3    0    0 -0.72567807892E+01 -0.14572918898E+02 -0.20767811638E+03  0.20831521993E+03  0.00000000000E+00 0. -1.
         11    1    5    5    0    0 -0.75528167947E+02  0.76105816396E+01  0.13882833330E+04  0.13903571620E+04  0.00000000000E+00 0. -1.
        -12    1    5    5    0    0 -0.91778691447E+01  0.78529775725E+00  0.13977704157E+02  0.16739957829E+02  0.00000000000E+00 0.  1.
          5    1    4    4  501    0 -0.35523372239E+01  0.16234511252E+02 -0.13853336064E+02  0.22035557071E+02  0.41800000000E+01 0.  1.
         -5    1    4    4    0  501  0.12197701574E+03  0.16539709958E+02  0.19062127610E+03  0.22694910812E+03  0.41800000000E+01 0.  1.
</event>
<event>
11    1  0.7577197E-009  0.1681692E+03  0.7561462E-02  0.1079636E+00
         22   -1    0    0    0    0  0.00000000000E+00  0.00000000000E+00  0.21548286885E+04  0.21548286885E+04  0.00000000000E+00 0.  1.
         22   -1    0    0    0    0 -0.00000000000E+00 -0.00000000000E+00 -0.33023973768E+03  0.33023973768E+03  0.00000000000E+00 0. -1.
        -24    2    1    2    0    0  0.66179171435E+01  0.32312076585E+02 -0.31195867364E+03  0.32344781874E+03  0.78818844611E+02 0.  0.
         25    2    1    2    0    0  0.28348852331E+02  0.84352041528E+02  0.64921103143E+03  0.66711392153E+03  0.12508835526E+03 0.  0.
         24    2    1    2    0    0 -0.34966769474E+02 -0.11666411811E+03  0.14873365930E+04  0.14945066859E+04  0.80912927415E+02 0.  0.
        -13    1    5    5    0    0 -0.16177913899E+01 -0.49256143273E+02  0.10171709948E+04  0.10183641871E+04  0.00000000000E+00 0.  1.
         14    1    5    5    0    0 -0.33348978084E+02 -0.67407974840E+02  0.47016559822E+03  0.47614249880E+03  0.00000000000E+00 0. -1.
         13    1    3    3    0    0  0.39375152837E+02  0.34716114179E+02 -0.19950983672E+03  0.20630023314E+03  0.00000000000E+00 0. -1.
        -14    1    3    3    0    0 -0.32757235694E+02 -0.24040375937E+01 -0.11244883692E+03  0.11714758560E+03  0.00000000000E+00 0.  1.
          5    1    4    4  501    0 -0.44162397288E+02  0.62027625729E+02  0.28236624467E+03  0.29248232804E+03  0.41800000000E+01 0.  1.
         -5    1    4    4    0  501  0.72511249618E+02  0.22324415799E+02  0.36684478677E+03  0.37463159349E+03  0.41800000000E+01 0.  1.
</event>
<event>
11    1  0.7577197E-009  0.1271332E+03  0.7561462E-02  0.1122842E+00
         22   -1    0    0    0    0  0.00000000000E+00  0.00000000000E+00  0.38595486062E+03  0.38595486062E+03  0.00000000000E+00 0.  1.
         22   -1    0    0    0    0 -0.00000000000E+00 -0.00000000000E+00 -0.28981258853E+03  0.28981258853E+03  0.00000000000E+00 0. -1.
         24    2    1    2    0    0  0.73517654856E+01 -0.23937535682E+02 -0.22031336943E+03  0.23606433805E+03  0.81002079475E+02 0.  0.
         25    2    1    2    0    0  0.29811542787E+01  0.31098542526E+01  0.12607430563E+02  0.12579771670E+03  0.12509020644E+03 0.  0.
        -24    2    1    2    0    0 -0.10332919764E+02  0.20827681429E+02  0.30384821096E+03  0.31390539441E+03  0.75314671813E+02 0.  0.
        -11    1    3    3    0    0 -0.44192016159E+01 -0.46652138651E+02 -0.74419670097E+02  0.87944520471E+02  0.00000000000E+00 0.  1.
         12    1    3    3    0    0  0.11770967102E+02  0.22714602969E+02 -0.14589369933E+03  0.14811981758E+03  0.00000000000E+00 0. -1.
         11    1    5    5    0    0  0.31107011453E+02  0.20566929779E+02  0.13646410431E+03  0.14146765188E+03  0.00000000000E+00 0. -1.
        -12    1    5    5    0    0 -0.41439931217E+02  0.26075165035E+00  0.16738410665E+03  0.17243774253E+03  0.00000000000E+00 0.  1.
          5    1    4    4  501    0  0.22138045469E+02 -0.56581311362E+02 -0.32838119433E+01  0.60990111277E+02  0.41800000000E+01 0.  1.
         -5    1    4    4    0  501 -0.19156891190E+02  0.59691165615E+02  0.15891242506E+02  0.64807605425E+02  0.41800000000E+01 0.  1.
</event>
<event>
11    1  0.7577197E-009  0.1508305E+03  0.7561462E-02  0.1096033E+00
         22   -1    0    0    0    0  0.00000000000E+00  0.00000000000E+00  0.77610913306E+03  0.77610913306E+03  0.00000000000E+00 0. -1.
         22   -1    0    0    0    0 -0.00000000000E+00 -0.00000000000E+00 -0.92224754134E+03  0.92224754134E+03  0.00000000000E+00 0.  1.
         24    2    1    2    0    0  0.13839159761E+01 -0.82620375754E+02 -0.78538004261E+03  0.79358457517E+03  0.78272759632E+02 0.  0.
         25    2    1    2    0    0 -0.27743985040E+02  0.10460850279E+03 -0.77139241973E+02  0.18251312110E+03  0.12509160307E+03 0.  0.
        -24    2    1    2    0    0  0.26360069064E+02 -0.21988127036E+02  0.71638087630E+03  0.72225897814E+03  0.85312019134E+02 0.  0.
        -13    1    3    3    0    0 -0.20751232895E+02 -0.65940890697E+02 -0.70843936014E+03  0.71180414562E+03  0.00000000000E+00 0.  1.
         14    1    3    3    0    0  0.22135148871E+02 -0.16679485057E+02 -0.76940682472E+02  0.81780429545E+02  0.00000000000E+00 0. -1.
         13    1    5    5    0    0  0.37044448277E+02  0.19421470311E+02  0.49644186424E+03  0.49820077201E+03  0.00000000000E+00 0. -1.
        -14    1    5    5    0    0 -0.10684379213E+02 -0.41409597347E+02  0.21993901206E+03  0.22405820614E+03  0.00000000000E+00 0.  1.
          5    1    4    4  501    0 -0.56391986884E+02  0.29585023502E+02 -0.79643575321E+02  0.10205832298E+03  0.41800000000E+01 0.  1.
         -5    1    4    4    0  501  0.28648001844E+02  0.75023479289E+02  0.25043333483E+01  0.80454798115E+02  0.41800000000E+01 0.  1.
</event>
<event>
11    1  0.7577197E-009  0.1882633E+03  0.7561462E-02  0.1063148E+00
         22   -1    0    0    0    0  0.00000000000E+00  0.00000000000E+00  0.17350302179E+03  0.17350302179E+03  0.00000000000E+00 0.  1.
         22   -1    0    0    0    0 -0.00000000000E+00 -0.00000000000E+00 -0.82707088592E+03  0.82707088592E+03  0.00000000000E+00 0.  1.
         24    2    1    2    0    0 -0.47793842641E+02 -0.70730235821E+01 -0.57659268189E+03  0.58385754562E+03  0.78078381859E+02 0.  0.
         25    2    1    2    0    0 -0.72554392526E+01  0.13892472581E+03 -0.14902528681E+03  0.23918242859E+03  0.12508787790E+03 0.  0.
        -24    2    1    2    0    0  0.55049281893E+02 -0.13185170223E+03  0.72050104560E+02  0.17753393350E+03  0.76888134062E+02 0.  0.
        -13    1    3    3    0    0  0.21596922856E+01 -0.25809323567E+02 -0.35456996119E+03  0.35551461690E+03  0.00000000000E+00 0.  1.
         14    1    3    3    0    0 -0.49953534926E+02  0.18736299985E+02 -0.22202272070E+03  0.22834292872E+03  0.00000000000E+00 0. -1.
         11    1    5    5    0    0  0.26059999412E+02 -0.99058551514E+02  0.11862003072E+02  0.10311366211E+03  0.00000000000E+00 0. -1.
        -12    1    5    5    0    0  0.28989282481E+02 -0.32793150713E+02  0.60188101489E+02  0.74420271387E+02  0.00000000000E+00 0.  1.
          5    1    4    4  501    0  0.49312470325E+02  0.18068506656E+02 -0.31954457668E+02  0.61617776877E+02  0.41800000000E+01 0. -1.
         -5    1    4    4    0  501 -0.56567909578E+02  0.12085621915E+03 -0.11707082914E+03  0.17756465171E+03  0.41800000000E+01 0. -1.
</event>
<event>
11    1  0.7577197E-009  0.1587401E+03  0.7561462E-02  0.1088268E+00
         22   -1    0    0    0    0  0.00000000000E+00  0.00000000000E+00  0.13911396080E+04  0.13911396080E+04  0.00000000000E+00 0.  1.
         22   -1    0    0    0    0 -0.00000000000E+00 -0.00000000000E+00 -0.44903852516E+03  0.44903852516E+03  0.00000000000E+00 0.  1.
        -24    2    1    2    0    0 -0.16296552673E+02  0.16993787555E+01 -0.41541181790E+03  0.42324958735E+03  0.79402576942E+02 0.  0.
         25    2    1    2    0    0  0.10707718181E+03  0.29394806020E+02  0.24098505923E+03  0.29334486755E+03  0.12509130690E+03 0.  0.
         24    2    1    2    0    0 -0.90780629137E+02 -0.31094184776E+02  0.11165278415E+04  0.11235836783E+04  0.81227398260E+02 0.  0.
        -11    1    5    5    0    0 -0.10627615181E+03 -0.28248650673E+02  0.97573502849E+03  0.98191214094E+03  0.00000000000E+00 0.  1.
         12    1    5    5    0    0  0.15495522673E+02 -0.28455341029E+01  0.14079281302E+03  0.14167153732E+03  0.00000000000E+00 0. -1.
         13    1    3    3    0    0 -0.47291985484E+02  0.11025195524E+02 -0.23661684770E+03  0.24154837909E+03  0.00000000000E+00 0. -1.
        -14    1    3    3    0    0  0.30995432810E+02 -0.93258167685E+01 -0.17879497020E+03  0.18170120826E+03  0.00000000000E+00 0.  1.
          5    1    4    4  501    0  0.10299493908E+03 -0.19562143303E+01  0.83521027763E+02  0.13268390531E+03  0.41800000000E+01 0. -1.
         -5    1    4    4    0  501  0.40822427351E+01  0.31351020350E+02  0.15746403147E+03  0.16066096224E+03  0.41800000000E+01 0. -1.
</event>
<event>
11    1  0.7577197E-009  0.2285352E+03  0.7561462E-02  0.1035999E+00
         22   -1    0    0    0    0  0.00000000000E+00  0.00000000000E+00  0.50069909427E+03  0.50069909427E+03  0.00000000000E+00 0.  1.
         22   -1    0    0    0    0 -0.00000000000E+00 -0.00000000000E+00 -0.13785967724E+04  0.13785967724E+04  0.00000000000E+00 0. -1.
         24    2    1    2    0    0 -0.22090599413E+03 -0.50004721208E+02 -0.10567960571E+04  0.10836418535E+04  0.78497324451E+02 0.  0.
         25    2    1    2    0    0  0.70686365396E+02  0.12879101891E+03 -0.25687326962E+03  0.32126968993E+03  0.12508656290E+03 0.  0.
        -24    2    1    2    0    0  0.15021962873E+03 -0.78786297699E+02  0.43577164861E+03  0.47438432323E+03  0.79814402417E+02 0.  0.
        -13    1    3    3    0    0 -0.16088823721E+03 -0.24523607057E+02 -0.88599721170E+03  0.90082045454E+03  0.00000000000E+00 0.  1.
         14    1    3    3    0    0 -0.60017756924E+02 -0.25481114151E+02 -0.17079884541E+03  0.18282139896E+03  0.00000000000E+00 0. -1.
         13    1    5    5    0    0  0.51725931256E+02 -0.17724678225E+02  0.24619119122E+03  0.25219008470E+03  0.00000000000E+00 0. -1.
        -14    1    5    5    0    0  0.98493697478E+02 -0.61061619474E+02  0.18958045738E+03  0.22219423853E+03  0.00000000000E+00 0.  1.
          5    1    4    4  501    0  0.33280610967E+02  0.78154955524E+02 -0.24191299468E+03  0.25642770041E+03  0.41800000000E+01 0. -1.
         -5    1    4    4    0  501  0.37405754429E+02  0.50636063383E+02 -0.14960274938E+02  0.64841989525E+02  0.41800000000E+01 0. -1.
</event>
<event>
11    1  0.7577197E-009  0.1444051E+03  0.7561462E-02  0.1102737E+00
         22   -1    0    0    0    0  0.00000000000E+00  0.00000000000E+00  0.64671511353E+03  0.64671511353E+03  0.00000000000E+00 0. -1.
         22   -1    0    0    0    0 -0.00000000000E+00 -0.00000000000E+00 -0.98064366138E+02  0.98064366138E+02  0.00000000000E+00 0. -1.
         24    2    1    2    0    0  0.17871271513E+01 -0.11194609704E+02 -0.34198311034E+02  0.87651987700E+02  0.79905152276E+02 0.  0.
         25    2    1    2    0    0  0.70665964842E+02  0.97967389645E+01  0.13821444298E+03  0.19960168255E+03  0.12509174532E+03 0.  0.
        -24    2    1    2    0    0 -0.72453091994E+02  0.13978707391E+01  0.44463461545E+03  0.45752580942E+03  0.79865639998E+02 0.  0.
        -11    1    3    3    0    0 -0.20879388581E+02  0.14276518351E+02  0.13771112766E+02  0.28799503304E+02  0.00000000000E+00 0.  1.
         12    1    3    3    0    0  0.22666515733E+02 -0.25471128055E+02 -0.47969423800E+02  0.58852484396E+02  0.00000000000E+00 0. -1.
         11    1    5    5    0    0 -0.78300465081E+02 -0.13734373406E+02  0.42342736050E+03  0.43082516810E+03  0.00000000000E+00 0. -1.
        -12    1    5    5    0    0  0.58473730877E+01  0.15132244145E+02  0.21207254947E+02  0.26700641327E+02  0.00000000000E+00 0.  1.
          5    1    4    4  501    0  0.63407915907E+02  0.60368586648E+02  0.60492482083E+02  0.10649761895E+03  0.41800000000E+01 0. -1.
         -5    1    4    4    0  501  0.72580489352E+01 -0.50571847684E+02  0.77721960899E+02  0.93104063599E+02  0.41800000000E+01 0. -1.
</event>
<event>
11    1  0.7577197E-009  0.1586259E+03  0.7561462E-02  0.1088377E+00
         22   -1    0    0    0    0  0.00000000000E+00  0.00000000000E+00  0.21965478832E+03  0.21965478832E+03  0.00000000000E+00 0.  1.
         22   -1    0    0    0    0 -0.00000000000E+00 -0.00000000000E+00 -0.15343648810E+04  0.15343648810E+04  0.00000000000E+00 0.  1.
         24    2    1    2    0    0 -0.66988777356E+02  0.32696275759E+02 -0.13518722657E+04  0.13563555382E+04  0.81149125414E+02 0.  0.
         25    2    1    2    0    0  0.62165483475E+02  0.69060176515E+02 -0.11781401162E+03  0.19534931760E+03  0.12508940498E+03 0.  0.
        -24    2    1    2    0    0  0.48232938812E+01 -0.10175645227E+03  0.15497618457E+03  0.20231481357E+03  0.80845694172E+02 0.  0.
        -13    1    3    3    0    0 -0.58458254737E+02 -0.16114486595E+02 -0.74246505183E+03  0.74493717682E+03  0.00000000000E+00 0.  1.
         14    1    3    3    0    0 -0.85305226189E+01  0.48810762354E+02 -0.60940721384E+03  0.61141836137E+03  0.00000000000E+00 0. -1.
         13    1    5    5    0    0  0.10882674590E+02 -0.93134170240E+02  0.70834320588E+02  0.11751556172E+03  0.00000000000E+00 0. -1.
        -14    1    5    5    0    0 -0.60593807086E+01 -0.86222820339E+01  0.84141863977E+02  0.84799251858E+02  0.00000000000E+00 0.  1.
          5    1    4    4  501    0  0.86171040242E+02  0.13420632754E+02 -0.98468095500E+02  0.13160167093E+03  0.41800000000E+01 0. -1.
         -5    1    4    4    0  501 -0.24005556767E+02  0.55639543761E+02 -0.19345916117E+02  0.63747646671E+02  0.41800000000E+01 0. -1.
</event>
<event>
11    1  0.7577197E-009  0.1629531E+03  0.7561462E-02  0.1084332E+00
         22   -1    0    0    0    0  0.00000000000E+00  0.00000000000E+00  0.74080364792E+02  0.74080364792E+02  0.00000000000E+00 0.  1.
         22   -1    0    0    0    0 -0.00000000000E+00 -0.00000000000E+00 -0.16822347371E+04  0.16822347371E+04  0.00000000000E+00 0.  1.
         24    2    1    2    0    0 -0.35914339711E+02  0.20474284567E+02 -0.77304130777E+03  0.77828544915E+03  0.80164460423E+02 0.  0.
         25    2    1    2    0    0 -0.11182333415E+02  0.75644006784E+02 -0.83076580183E+03  0.84360294853E+03  0.12508819663E+03 0.  0.
        -24    2    1    2    0    0  0.47096673126E+02 -0.96118291351E+02 -0.43472627328E+01  0.13442670424E+03  0.81208482113E+02 0.  0.
        -13    1    3    3    0    0 -0.14656318840E+02  0.15044524298E+02 -0.72679549471E+03  0.72709891798E+03  0.00000000000E+00 0.  1.
         14    1    3    3    0    0 -0.21258020872E+02  0.54297602691E+01 -0.46245813064E+02  0.51186531177E+02  0.00000000000E+00 0. -1.
         11    1    5    5    0    0 -0.15761981234E+02  0.37350993035E+01  0.16561517703E+01  0.16282931491E+02  0.00000000000E+00 0. -1.
        -12    1    5    5    0    0  0.62858654360E+02 -0.99853390655E+02 -0.60034145031E+01  0.11814377275E+03  0.00000000000E+00 0.  1.
          5    1    4    4  501    0  0.32323832415E+02  0.32314976456E+02 -0.66824821985E+03  0.66982254634E+03  0.41800000000E+01 0. -1.
         -5    1    4    4    0  501 -0.43506165830E+02  0.43329030328E+02 -0.16251758198E+03  0.17378040219E+03  0.41800000000E+01 0. -1.
</event>
<event>
11    1  0.7577197E-009  0.2270197E+03  0.7561462E-02  0.1036907E+00
         22   -1    0    0    0    0  0.00000000000E+00  0.00000000000E+00  0.16424472654E+04  0.16424472654E+04  0.00000000000E+00 0. -1.
         22   -1    0    0    0    0 -0.00000000000E+00 -0.00000000000E+00 -0.19628870107E+04  0.19628870107E+04  0.00000000000E+00 0. -1.
         24    2    1    2    0    0  0.41499419881E+02  0.28238329402E+02 -0.19294886372E+04  0.19317408819E+04  0.78592803294E+02 0.  0.
         25    2    1    2    0    0 -0.15912002814E+03  0.11777073487E+03  0.60090276807E+03  0.64491927082E+03  0.12509036674E+03 0.  0.
        -24    2    1    2    0    0  0.11762060826E+03 -0.14600906427E+03  0.10081461238E+04  0.10286741234E+04  0.81600188482E+02 0.  0.
        -11    1    3    3    0    0 -0.20926963783E+01 -0.16880213904E+02 -0.99656600528E+03  0.99671115368E+03  0.00000000000E+00 0.  1.
         12    1    3    3    0    0  0.43592116259E+02  0.45118543306E+02 -0.93292263188E+03  0.93502972820E+03  0.00000000000E+00 0. -1.
         13    1    5    5    0    0  0.10965750001E+03 -0.80919455290E+02  0.75318963632E+03  0.76541972395E+03  0.00000000000E+00 0. -1.
        -14    1    5    5    0    0  0.79631082527E+01 -0.65089608980E+02  0.25495648751E+03  0.26325439942E+03  0.00000000000E+00 0.  1.
          5    1    4    4  501    0 -0.37577912822E+02  0.78749264074E+01  0.24671506908E+02  0.45828698990E+02  0.41800000000E+01 0.  1.
         -5    1    4    4    0  501 -0.12154211532E+03  0.10989580846E+03  0.57623126116E+03  0.59909057183E+03  0.41800000000E+01 0.  1.
</event>
<event>
11    1  0.7577197E-009  0.1864943E+03  0.7561462E-02  0.1064508E+00
         22   -1    0    0    0    0  0.00000000000E+00  0.00000000000E+00  0.82728989996E+03  0.82728989996E+03  0.00000000000E+00 0. -1.
         22   -1    0    0    0    0 -0.00000000000E+00 -0.00000000000E+00 -0.24034721568E+03  0.24034721568E+03  0.00000000000E+00 0.  1.
         24    2    1    2    0    0 -0.11776995790E+03 -0.69224800965E+02 -0.97738763783E+02  0.18640066594E+03  0.80811547848E+02 0.  0.
         25    2    1    2    0    0  0.11412555455E+03  0.85401110161E+02 -0.21425022404E+01  0.18965523143E+03  0.12508606906E+03 0.  0.
        -24    2    1    2    0    0  0.36444033452E+01 -0.16176309196E+02  0.68682395031E+03  0.69158121828E+03  0.79262147930E+02 0.  0.
        -11    1    3    3    0    0 -0.11275966848E+03 -0.82616332400E+02 -0.10007051204E+03  0.17191366611E+03  0.00000000000E+00 0.  1.
         12    1    3    3    0    0 -0.50102894163E+01  0.13391531435E+02  0.23317482549E+01  0.14486999832E+02  0.00000000000E+00 0. -1.
         13    1    5    5    0    0 -0.19943332431E+02  0.81847030101E+01  0.55652067143E+03  0.55693804288E+03  0.00000000000E+00 0. -1.
        -14    1    5    5    0    0  0.23587735776E+02 -0.24361012206E+02  0.13030327888E+03  0.13464317540E+03  0.00000000000E+00 0.  1.
          5    1    4    4  501    0  0.72360100781E+02 -0.14144191824E+02 -0.27298919536E+02  0.78732113875E+02  0.41800000000E+01 0. -1.
         -5    1    4    4    0  501  0.41765453771E+02  0.99545301985E+02  0.25156417295E+02  0.11092311755E+03  0.41800000000E+01 0. -1.
</event>
<event>
11    1  0.7577197E-009  0.1674206E+03  0.7561462E-02  0.1080298E+00
         22   -1    0    0    0    0  0.00000000000E+00  0.00000000000E+00  0.14309596081E+03  0.14309596081E+03  0.00000000000E+00 0. -1.
         22   -1    0    0    0    0 -0.00000000000E+00 -0.00000000000E+00 -0.11578999598E+04  0.11578999598E+04  0.00000000000E+00 0.  1.
         24    2    1    2    0    0  0.71079246947E+02  0.81903887516E+02 -0.95781700548E+03  0.96719304226E+03  0.79299803758E+02 0.  0.
         25    2    1    2    0    0 -0.59072382204E+02 -0.14704248977E+03 -0.91452215804E+02  0.22163413510E+03  0.12508853636E+03 0.  0.
        -24    2    1    2    0    0 -0.12006864743E+02  0.65138602255E+02  0.34465222338E+02  0.11216874320E+03  0.83706469852E+02 0.  0.
        -11    1    3    3    0    0  0.85071209626E+02  0.61859302125E+02 -0.85814151034E+03  0.86456378350E+03  0.00000000000E+00 0.  1.
         12    1    3    3    0    0 -0.13991962679E+02  0.20044585391E+02 -0.99675495136E+02  0.10262925876E+03  0.00000000000E+00 0. -1.
         11    1    5    5    0    0  0.17729326328E+02  0.55933857057E+02  0.50262970296E+02  0.77261190518E+02  0.00000000000E+00 0. -1.
        -12    1    5    5    0    0 -0.29736191071E+02  0.92047451986E+01 -0.15797747958E+02  0.34907552680E+02  0.00000000000E+00 0.  1.
          5    1    4    4  501    0 -0.50639123917E+02 -0.47753036771E+02  0.19540128025E+02  0.72415208314E+02  0.41800000000E+01 0.  1.
         -5    1    4    4    0  501 -0.84332582871E+01 -0.99289453001E+02 -0.11099234383E+03  0.14921892679E+03  0.41800000000E+01 0.  1.
</event>
<event>
11    1  0.7577197E-009  0.1489591E+03  0.7561462E-02  0.1097947E+00
         22   -1    0    0    0    0  0.00000000000E+00  0.00000000000E+00  0.32579633555E+03  0.32579633555E+03  0.00000000000E+00 0.  1.
         22   -1    0    0    0    0 -0.00000000000E+00 -0.00000000000E+00 -0.33410166192E+03  0.33410166192E+03  0.00000000000E+00 0.  1.
        -24    2    1    2    0    0 -0.65863240687E+02 -0.43130169675E+02 -0.21898773737E+03  0.24651212207E+03  0.81329079646E+02 0.  0.
         25    2    1    2    0    0  0.53338820290E+02  0.82948742951E+02 -0.21699968499E+02  0.16076240328E+03  0.12509251764E+03 0.  0.
         24    2    1    2    0    0  0.12524420397E+02 -0.39818573275E+02  0.23238237950E+03  0.25262347212E+03  0.89859159123E+02 0.  0.
        -11    1    5    5    0    0  0.29280477103E+02 -0.27941125127E+02  0.22807465359E+03  0.23163786483E+03  0.00000000000E+00 0.  1.
         12    1    5    5    0    0 -0.16756056706E+02 -0.11877448148E+02  0.43077259152E+01  0.20985607292E+02  0.00000000000E+00 0. -1.
         13    1    3    3    0    0  0.14077768643E+02 -0.28351419609E+02 -0.68831463324E+02  0.75761183380E+02  0.00000000000E+00 0. -1.
        -14    1    3    3    0    0 -0.79941009329E+02 -0.14778750066E+02 -0.15015627405E+03  0.17075093869E+03  0.00000000000E+00 0.  1.
          5    1    4    4  501    0 -0.12817611920E+02 -0.10297732632E+02  0.30584098044E+02  0.34974189424E+02  0.41800000000E+01 0. -1.
         -5    1    4    4    0  501  0.66156432210E+02  0.93246475583E+02 -0.52284066543E+02  0.12578821386E+03  0.41800000000E+01 0. -1.
</event>
<event>
11    1  0.7577197E-009  0.1391791E+03  0.7561462E-02  0.1108478E+00
         22   -1    0    0    0    0  0.00000000000E+00  0.00000000000E+00  0.50277389287E+03  0.50277389287E+03  0.00000000000E+00 0.  1.
         22   -1    0    0    0    0 -0.00000000000E+00 -0.00000000000E+00 -0.77428564211E+03  0.77428564211E+03  0.00000000000E+00 0.  1.
         24    2    1    2    0    0 -0.60290746101E+02 -0.68083363946E+01 -0.70595938879E+03  0.71628115555E+03  0.10487472366E+03 0.  0.
         25    2    1    2    0    0  0.59461297328E+02  0.72393324139E+02  0.58502509913E+02  0.16686974255E+03  0.12508608257E+03 0.  0.
        -24    2    1    2    0    0  0.82944877243E+00 -0.65584987745E+02  0.37594512963E+03  0.39390863689E+03  0.97607351754E+02 0.  0.
        -11    1    3    3    0    0 -0.84104928591E+02 -0.14991708021E+02 -0.64003310522E+03  0.64570950597E+03  0.00000000000E+00 0.  1.
         12    1    3    3    0    0  0.23814182491E+02  0.81833716263E+01 -0.65926283571E+02  0.70571649580E+02  0.00000000000E+00 0. -1.
         13    1    5    5    0    0 -0.17894745284E+01 -0.61874312715E+02  0.97907937023E+02  0.11583435123E+03  0.00000000000E+00 0. -1.
        -14    1    5    5    0    0  0.26189233008E+01 -0.37106750295E+01  0.27803719261E+03  0.27807428566E+03  0.00000000000E+00 0.  1.
          5    1    4    4  501    0 -0.35371223561E+02  0.63393392856E+01 -0.22327307817E+01  0.36245939987E+02  0.41800000000E+01 0.  1.
         -5    1    4    4    0  501  0.94832520890E+02  0.66053984854E+02  0.60735240694E+02  0.13062380256E+03  0.41800000000E+01 0.  1.
</event>
<event>
11    1  0.7577197E-009  0.2653951E+03  0.7561462E-02  0.1016003E+00
         22   -1    0    0    0    0  0.00000000000E+00  0.00000000000E+00  0.25268279870E+04  0.25268279870E+04  0.00000000000E+00 0. -1.
         22   -1    0    0    0    0 -0.00000000000E+00 -0.00000000000E+00 -0.42255343178E+03  0.42255343178E+03  0.00000000000E+00 0. -1.
        -24    2    1    2    0    0 -0.20822062646E+02 -0.19954444969E+01 -0.30158282036E+03  0.31245346649E+03  0.78977408763E+02 0.  0.
         25    2    1    2    0    0 -0.21376077967E+03 -0.14996753851E+02  0.31524563599E+02  0.25011790544E+03  0.12508635001E+03 0.  0.
         24    2    1    2    0    0  0.23458284232E+03  0.16992198348E+02  0.23743328120E+04  0.23868100469E+04  0.63937883341E+02 0.  0.
        -11    1    5    5    0    0  0.16460102819E+02 -0.14996196750E+02  0.28902163277E+03  0.28987812113E+03  0.00000000000E+00 0.  1.
         12    1    5    5    0    0  0.21812273950E+03  0.31988395098E+02  0.20853111793E+04  0.20969319258E+04  0.00000000000E+00 0. -1.
         11    1    3    3    0    0  0.13020688194E+01 -0.24602002488E+02 -0.25475502025E+03  0.25594349817E+03  0.00000000000E+00 0. -1.
        -12    1    3    3    0    0 -0.22124131465E+02  0.22606557991E+02 -0.46827800108E+02  0.56509968327E+02  0.00000000000E+00 0.  1.
          5    1    4    4  501    0 -0.16049176526E+03 -0.13775426537E+02 -0.34888461968E+02  0.16486978580E+03  0.41800000000E+01 0.  1.
         -5    1    4    4    0  501 -0.53269014415E+02 -0.12213273142E+01  0.66413025567E+02  0.85248119640E+02  0.41800000000E+01 0.  1.
</event>
<event>
11    1  0.7577197E-009  0.1435350E+03  0.7561462E-02  0.1103674E+00
         22   -1    0    0    0    0  0.00000000000E+00  0.00000000000E+00  0.32778189781E+03  0.32778189781E+03  0.00000000000E+00 0.  1.
         22   -1    0    0    0    0 -0.00000000000E+00 -0.00000000000E+00 -0.22619325253E+03  0.22619325253E+03  0.00000000000E+00 0. -1.
         24    2    1    2    0    0 -0.46397335930E+02  0.50344402199E+02 -0.16253535458E+03  0.19390330100E+03  0.80582113621E+02 0.  0.
         25    2    1    2    0    0  0.47224279489E+02 -0.83905840489E+02  0.15903428282E+03  0.22407421290E+03  0.12508807751E+03 0.  0.
        -24    2    1    2    0    0 -0.82694355898E+00  0.33561438290E+02  0.10508971704E+03  0.13599763644E+03  0.79526439088E+02 0.  0.
        -13    1    3    3    0    0 -0.66976709340E+02  0.21671147895E+02 -0.10543141526E+03  0.12677263730E+03  0.00000000000E+00 0.  1.
         14    1    3    3    0    0  0.20579373410E+02  0.28673254304E+02 -0.57103939321E+02  0.67130663697E+02  0.00000000000E+00 0. -1.
         11    1    5    5    0    0 -0.37735516099E+02  0.21824697875E+01  0.43185760066E+02  0.57391133654E+02  0.00000000000E+00 0. -1.
        -12    1    5    5    0    0  0.36908572540E+02  0.31378968502E+02  0.61903956974E+02  0.78606502786E+02  0.00000000000E+00 0.  1.
          5    1    4    4  501    0 -0.24351377559E+02 -0.55511050655E+02  0.18063478783E+02  0.63389494394E+02  0.41800000000E+01 0. -1.
         -5    1    4    4    0  501  0.71575657048E+02 -0.28394789834E+02  0.14097080404E+03  0.16068471851E+03  0.41800000000E+01 0. -1.
</event>
<event>
11    1  0.7577197E-009  0.1487128E+03  0.7561462E-02  0.1098201E+00
         22   -1    0    0    0    0  0.00000000000E+00  0.00000000000E+00  0.45944834082E+03  0.45944834082E+03  0.00000000000E+00 0.  1.
         22   -1    0    0    0    0 -0.00000000000E+00 -0.00000000000E+00 -0.11888572825E+04  0.11888572825E+04  0.00000000000E+00 0. -1.
        -24    2    1    2    0    0  0.55935398936E+02  0.58608186774E+02 -0.11447329570E+04  0.11505425854E+04  0.82286143452E+02 0.  0.
         25    2    1    2    0    0 -0.49751224560E+02 -0.26078751741E+02  0.96904652709E+02  0.16791016036E+03  0.12509206449E+03 0.  0.
         24    2    1    2    0    0 -0.61841743763E+01 -0.32529435033E+02  0.31841936261E+03  0.32985287763E+03  0.79470889274E+02 0.  0.
        -11    1    5    5    0    0 -0.37082884049E+02 -0.37101610932E+02  0.15986895709E+03  0.16825502449E+03  0.00000000000E+00 0.  1.
         12    1    5    5    0    0  0.30898709673E+02  0.45721758990E+01  0.15855040552E+03  0.16159785315E+03  0.00000000000E+00 0. -1.
         13    1    3    3    0    0  0.18891027167E+02  0.34356458416E+02 -0.95126827741E+03  0.95207592804E+03  0.00000000000E+00 0. -1.
        -14    1    3    3    0    0  0.37044371770E+02  0.24251728358E+02 -0.19346467963E+03  0.19846665733E+03  0.00000000000E+00 0.  1.
          5    1    4    4  501    0 -0.82834502858E+02 -0.43900783217E+01  0.26741084823E+02  0.87254717173E+02  0.41800000000E+01 0.  1.
         -5    1    4    4    0  501  0.33083278298E+02 -0.21688673419E+02  0.70163567887E+02  0.80655443190E+02  0.41800000000E+01 0.  1.
</event>
<event>
11    1  0.7577197E-009  0.1373271E+03  0.7561462E-02  0.1110580E+00
         22   -1    0    0    0    0  0.00000000000E+00  0.00000000000E+00  0.11782956593E+03  0.11782956593E+03  0.00000000000E+00 0. -1.
         22   -1    0    0    0    0 -0.00000000000E+00 -0.00000000000E+00 -0.13658592888E+04  0.13658592888E+04  0.00000000000E+00 0. -1.
        -24    2    1    2    0    0  0.16901361833E+00  0.44861016081E+02 -0.97340854055E+03  0.97775353126E+03  0.80406727049E+02 0.  0.
         25    2    1    2    0    0 -0.11390655054E+02 -0.97652268182E+02 -0.34895444725E+03  0.38351157239E+03  0.12508480082E+03 0.  0.
         24    2    1    2    0    0  0.11221641436E+02  0.52791252101E+02  0.74333264956E+02  0.12242375105E+03  0.80927739423E+02 0.  0.
        -13    1    5    5    0    0  0.58453794215E+01  0.25832310720E+02 -0.13967588420E+02  0.29942783171E+02  0.00000000000E+00 0.  1.
         14    1    5    5    0    0  0.53762620143E+01  0.26958941381E+02  0.88300853376E+02  0.92480967883E+02  0.00000000000E+00 0. -1.
         13    1    3    3    0    0 -0.13167388637E+02  0.52641961439E+02 -0.93169824315E+03  0.93327711454E+03  0.00000000000E+00 0. -1.
        -14    1    3    3    0    0  0.13336402255E+02 -0.77809453581E+01 -0.41710297397E+02  0.44476416725E+02  0.00000000000E+00 0.  1.
          5    1    4    4  501    0  0.35687099192E+02 -0.10508987917E+03 -0.25231903325E+03  0.27568064621E+03  0.41800000000E+01 0. -1.
         -5    1    4    4    0  501 -0.47077754246E+02  0.74376109862E+01 -0.96635413997E+02  0.10783092618E+03  0.41800000000E+01 0. -1.
</event>
<event>
11    1  0.7577197E-009  0.1616645E+03  0.7561462E-02  0.1085522E+00
         22   -1    0    0    0    0  0.00000000000E+00  0.00000000000E+00  0.41648709000E+03  0.41648709000E+03  0.00000000000E+00 0. -1.
         22   -1    0    0    0    0 -0.00000000000E+00 -0.00000000000E+00 -0.36148731749E+03  0.36148731749E+03  0.00000000000E+00 0. -1.
         24    2    1    2    0    0 -0.43697362390E+02  0.88417757276E+02 -0.27387251067E+03  0.30196639876E+03  0.80314348629E+02 0.  0.
         25    2    1    2    0    0  0.12739412426E+03 -0.26823975394E+02  0.86422143671E+02  0.20016214770E+03  0.12508920778E+03 0.  0.
        -24    2    1    2    0    0 -0.83696761873E+02 -0.61593781882E+02  0.24245013951E+03  0.27584586103E+03  0.80684118537E+02 0.  0.
        -11    1    3    3    0    0 -0.14354962515E+02  0.37279807975E+02 -0.27158883668E+02  0.48305838089E+02  0.00000000000E+00 0.  1.
         12    1    3    3    0    0 -0.29342399875E+02  0.51137949301E+02 -0.24671362700E+03  0.25366056067E+03  0.00000000000E+00 0. -1.
         13    1    5    5    0    0 -0.88275522589E+02 -0.31923776816E+02  0.21720330980E+03  0.23661989182E+03  0.00000000000E+00 0. -1.
        -14    1    5    5    0    0  0.45787607159E+01 -0.29670005065E+02  0.25246829704E+02  0.39225969209E+02  0.00000000000E+00 0.  1.
          5    1    4    4  501    0  0.15051099355E+03 -0.34495966783E+02  0.65504299640E+02  0.16778503084E+03  0.41800000000E+01 0.  1.
         -5    1    4    4    0  501 -0.23116869284E+02  0.76719913887E+01  0.20917844031E+02  0.32377116862E+02  0.41800000000E+01 0.  1.
</event>
<event>
11    1  0.7577197E-009  0.1285648E+03  0.7561462E-02  0.1121045E+00
         22   -1    0    0    0    0  0.00000000000E+00  0.00000000000E+00  0.28889674091E+03  0.28889674091E+03  0.00000000000E+00 0.  1.
         22   -1    0    0    0    0 -0.00000000000E+00 -0.00000000000E+00 -0.26628571764E+03  0.26628571764E+03  0.00000000000E+00 0.  1.
        -24    2    1    2    0    0 -0.14527717751E+02 -0.62191072179E+00 -0.18608044849E+03  0.20324322349E+03  0.80439003148E+02 0.  0.
         25    2    1    2    0    0  0.41234131397E+02 -0.83477381860E+01  0.51304131953E+01  0.13206686287E+03  0.12508156061E+03 0.  0.
         24    2    1    2    0    0 -0.26706413646E+02  0.89696489078E+01  0.20356105857E+03  0.21987237218E+03  0.78186113561E+02 0.  0.
        -11    1    5    5    0    0 -0.13135920648E+02 -0.54034998333E+01  0.19910249483E+03  0.19960850100E+03  0.00000000000E+00 0.  1.
         12    1    5    5    0    0 -0.13570492998E+02  0.14373148741E+02  0.44585637346E+01  0.20263871188E+02  0.00000000000E+00 0. -1.
         13    1    3    3    0    0 -0.17345507665E+02  0.36680122569E+02 -0.12692097833E+03  0.13324876273E+03  0.00000000000E+00 0. -1.
        -14    1    3    3    0    0  0.28177899149E+01 -0.37302033291E+02 -0.59159470163E+02  0.69994460764E+02  0.00000000000E+00 0.  1.
          5    1    4    4  501    0 -0.72524203533E+01  0.66461137756E-01  0.58648210953E+02  0.59242611911E+02  0.41800000000E+01 0. -1.
         -5    1    4    4    0  501  0.48486551750E+02 -0.84141993237E+01 -0.53517797757E+02  0.72824250959E+02  0.41800000000E+01 0. -1.
</event>
<event>
11    1  0.7577197E-009  0.2007045E+03  0.7561462E-02  0.1054027E+00
         22   -1    0    0    0    0  0.00000000000E+00  0.00000000000E+00  0.22382459513E+04  0.22382459513E+04  0.00000000000E+00 0.  1.
         22   -1    0    0    0    0 -0.00000000000E+00 -0.00000000000E+00 -0.22701946002E+03  0.22701946002E+03  0.00000000000E+00 0. -1.
         24    2    1    2    0    0 -0.40258953832E+01 -0.87885145268E+02 -0.18067707594E+03  0.22291401969E+03  0.96469932168E+02 0.  0.
         25    2    1    2    0    0  0.12600710899E+03  0.16928387486E+03  0.71316523728E+03  0.75417960316E+03  0.12508955332E+03 0.  0.
        -24    2    1    2    0    0 -0.12198121361E+03 -0.81398729591E+02  0.14787383299E+04  0.14881717885E+04  0.80517413782E+02 0.  0.
        -11    1    3    3    0    0 -0.41934521243E+02 -0.62762721935E+02 -0.68743870170E+02  0.10209497060E+03  0.00000000000E+00 0.  1.
         12    1    3    3    0    0  0.37908625859E+02 -0.25122423334E+02 -0.11193320577E+03  0.12081904909E+03  0.00000000000E+00 0. -1.
         13    1    5    5    0    0  0.78812419138E+01 -0.97327185990E+01  0.42840765728E+02  0.44633742769E+02  0.00000000000E+00 0. -1.
        -14    1    5    5    0    0 -0.12986245552E+03 -0.71666010992E+02  0.14358975642E+04  0.14435380457E+04  0.00000000000E+00 0.  1.
          5    1    4    4  501    0  0.68801900310E+02  0.10047681601E+03  0.20741187437E+03  0.24055446384E+03  0.41800000000E+01 0. -1.
         -5    1    4    4    0  501  0.57205208678E+02  0.68807058847E+02  0.50575336291E+03  0.51362513932E+03  0.41800000000E+01 0. -1.
</event>
<event>
11    1  0.7577197E-009  0.1343929E+03  0.7561462E-02  0.1113986E+00
         22   -1    0    0    0    0  0.00000000000E+00  0.00000000000E+00  0.59691643067E+03  0.59691643067E+03  0.00000000000E+00 0.  1.
         22   -1    0    0    0    0 -0.00000000000E+00 -0.00000000000E+00 -0.13266761820E+04  0.13266761820E+04  0.00000000000E+00 0.  1.
        -24    2    1    2    0    0  0.40285297232E+02  0.29418289784E+02 -0.12589804097E+04  0.12627178211E+04  0.83284349711E+02 0.  0.
         25    2    1    2    0    0  0.97403170899E+01 -0.45785466389E+02  0.11268470732E+02  0.13403902566E+03  0.12509316231E+03 0.  0.
         24    2    1    2    0    0 -0.50025614322E+02  0.16367176605E+02  0.51795218765E+03  0.52683576585E+03  0.80690823068E+02 0.  0.
        -13    1    5    5    0    0 -0.16935633753E+02  0.47750915617E+02  0.28254358462E+03  0.28705024445E+03  0.00000000000E+00 0.  1.
         14    1    5    5    0    0 -0.33089980569E+02 -0.31383739012E+02  0.23540860304E+03  0.23978552140E+03  0.00000000000E+00 0. -1.
         11    1    3    3    0    0  0.27260285080E+02 -0.25964781918E+02 -0.36733775301E+03  0.36926185537E+03  0.00000000000E+00 0. -1.
        -12    1    3    3    0    0  0.13025012152E+02  0.55383071702E+02 -0.89164265665E+03  0.89345596575E+03  0.00000000000E+00 0.  1.
          5    1    4    4  501    0 -0.22223133585E+02 -0.68904973047E+02 -0.28451850671E+02  0.77902138505E+02  0.41800000000E+01 0.  1.
         -5    1    4    4    0  501  0.31963450675E+02  0.23119506658E+02  0.39720321403E+02  0.56136887156E+02  0.41800000000E+01 0.  1.
</event>
<event>
11    1  0.7577197E-009  0.4637647E+04  0.7561462E-02  0.7432542E-01
         22   -1    0    0    0    0  0.00000000000E+00  0.00000000000E+00  0.25794812502E+04  0.25794812502E+04  0.00000000000E+00 0.  1.
         22   -1    0    0    0    0 -0.00000000000E+00 -0.00000000000E+00 -0.20845056401E+04  0.20845056401E+04  0.00000000000E+00 0.  1.
         24    2    1    2    0    0  0.23546675423E+03  0.39875770192E+03  0.21647870473E+02  0.47041245644E+03  0.79793180714E+02 0.  0.
         25    2    1    2    0    0 -0.74303277531E+03 -0.20894147663E+04 -0.34232967649E+03  0.22473518906E+04  0.12509652948E+03 0.  0.
        -24    2    1    2    0    0  0.50756602108E+03  0.16906570644E+04  0.81565741612E+03  0.19462225432E+04  0.80873926071E+02 0.  0.
        -13    1    3    3    0    0  0.12662852465E+03  0.14015568894E+03 -0.14306739818E+01  0.18889268706E+03  0.00000000000E+00 0.  1.
         14    1    3    3    0    0  0.10883822958E+03  0.25860201298E+03  0.23078544454E+02  0.28151976938E+03  0.00000000000E+00 0. -1.
         13    1    5    5    0    0  0.11027832928E+03  0.32755587703E+03  0.19317649858E+03  0.39594358448E+03  0.00000000000E+00 0. -1.
        -14    1    5    5    0    0  0.39728769180E+03  0.13631011874E+04  0.62248091754E+03  0.15502789587E+04  0.00000000000E+00 0.  1.
          5    1    4    4  501    0 -0.40365784464E+03 -0.12145515795E+04 -0.14117177878E+03  0.12876420847E+04  0.41800000000E+01 0. -1.
         -5    1    4    4    0  501 -0.33937493067E+03 -0.87486318683E+03 -0.20115789771E+03  0.95970980585E+03  0.41800000000E+01 0. -1.
</event>
<event>
11    1  0.1336598E-008  0.1701073E+03  0.7561462E-02  0.1077938E+00
         22   -1    0    0    0    0  0.00000000000E+00  0.00000000000E+00  0.50626038085E+03  0.50626038085E+03  0.00000000000E+00 0.  1.
         22   -1    0    0    0    0 -0.00000000000E+00 -0.00000000000E+00 -0.71703240216E+03  0.71703240216E+03  0.00000000000E+00 0.  1.
        -24    2    1    2    0    0 -0.43241121379E+02  0.29564705104E+02 -0.44934563337E+03  0.45930685939E+03  0.79419308033E+02 0.  0.
         25    2    1    2    0    0  0.66352076316E+02  0.84192233091E+02 -0.22522021583E+03  0.27903889089E+03  0.12509047472E+03 0.  0.
         24    2    1    2    0    0 -0.23110954937E+02 -0.11375693820E+03  0.46379382789E+03  0.48494703273E+03  0.81204387391E+02 0.  0.
        -11    1    5    5    0    0 -0.18098049864E+02 -0.10824671620E+03  0.46466228000E+03  0.47744730121E+03  0.00000000000E+00 0.  1.
         12    1    5    5    0    0 -0.50129050730E+01 -0.55102219980E+01 -0.86845210835E+00  0.74997315154E+01  0.00000000000E+00 0. -1.
         11    1    3    3    0    0  0.16867154467E+02 -0.22858739572E+01 -0.20389165754E+03  0.20460091431E+03  0.00000000000E+00 0. -1.
        -12    1    3    3    0    0 -0.60108275846E+02  0.31850579061E+02 -0.24545397583E+03  0.25470594508E+03  0.00000000000E+00 0.  1.
          5    1    4    4  501    0  0.30674391367E+02 -0.12416211964E+02 -0.14400069818E+03  0.14781324055E+03  0.41800000000E+01 0.  1.
         -5    1    4    4    0  501  0.35677684949E+02  0.96608445056E+02 -0.81219517649E+02  0.13122565034E+03  0.41800000000E+01 0.  1.
</event>
<event>
11    1  0.7577197E-009  0.1351813E+03  0.7561462E-02  0.1113062E+00
         22   -1    0    0    0    0  0.00000000000E+00  0.00000000000E+00  0.89816660066E+03  0.89816660066E+03  0.00000000000E+00 0.  1.
         22   -1    0    0    0    0 -0.00000000000E+00 -0.00000000000E+00 -0.43859817869E+03  0.43859817869E+03  0.00000000000E+00 0. -1.
        -24    2    1    2    0    0  0.16070449298E+01  0.53111089012E+02 -0.33626146768E+03  0.34948370658E+03  0.79017188935E+02 0.  0.
         25    2    1    2    0    0 -0.26412928410E+02 -0.36222940335E+02 -0.46224056689E+02  0.14069083651E+03  0.12508998308E+03 0.  0.
         24    2    1    2    0    0  0.24805883480E+02 -0.16888148677E+02  0.84205394634E+03  0.84659023625E+03  0.82217018668E+02 0.  0.
        -13    1    5    5    0    0 -0.11125571272E+02 -0.10150715616E+02  0.69140667255E+03  0.69157067766E+03  0.00000000000E+00 0.  1.
         14    1    5    5    0    0  0.35931454753E+02 -0.67374330607E+01  0.15064727379E+03  0.15501955859E+03  0.00000000000E+00 0. -1.
         11    1    3    3    0    0  0.13898273655E+02  0.36015623037E+02 -0.32140395496E+03  0.32371405495E+03  0.00000000000E+00 0. -1.
        -12    1    3    3    0    0 -0.12291228725E+02  0.17095465975E+02 -0.14857512725E+02  0.25769651625E+02  0.00000000000E+00 0.  1.
          5    1    4    4  501    0 -0.69719193818E+02 -0.80313270254E+01  0.13646224000E+01  0.70317869669E+02  0.41800000000E+01 0. -1.
         -5    1    4    4    0  501  0.43306265408E+02 -0.28191613310E+02 -0.47588679089E+02  0.70372966842E+02  0.41800000000E+01 0. -1.
</event>
<event>
11    1  0.7577197E-009  0.1428601E+03  0.7561462E-02  0.1104406E+00
         22   -1    0    0    0    0  0.00000000000E+00  0.00000000000E+00  0.16655708400E+04  0.16655708400E+04  0.00000000000E+00 0.  1.
         22   -1    0    0    0    0 -0.00000000000E+00 -0.00000000000E+00 -0.22538231972E+04  0.22538231972E+04  0.00000000000E+00 0. -1.
        -24    2    1    2    0    0  0.88663619181E+01  0.33707629807E+02 -0.20504198408E+04  0.20522849829E+04  0.80232852981E+02 0.  0.
         25    2    1    2    0    0 -0.10259435392E+02  0.35590903313E+02 -0.17947671522E+03  0.22187770916E+03  0.12508340459E+03 0.  0.
         24    2    1    2    0    0  0.13930734741E+01 -0.69298533120E+02  0.16416441989E+04  0.16452313451E+04  0.83583944824E+02 0.  0.
        -11    1    5    5    0    0  0.32683169392E+02 -0.17862365064E+02  0.10196734865E+04  0.10203535038E+04  0.00000000000E+00 0.  1.
         12    1    5    5    0    0 -0.31290095918E+02 -0.51436168057E+02  0.62197071243E+03  0.62487784135E+03  0.00000000000E+00 0. -1.
         11    1    3    3    0    0 -0.10555484956E+02  0.41387486354E+02 -0.18934672143E+04  0.18939488995E+04  0.00000000000E+00 0. -1.
        -12    1    3    3    0    0  0.19421846874E+02 -0.76798565463E+01 -0.15695262655E+03  0.15833608342E+03  0.00000000000E+00 0.  1.
          5    1    4    4  501    0 -0.58039066890E+02 -0.14804143124E+02 -0.95755329701E+02  0.11302323436E+03  0.41800000000E+01 0. -1.
         -5    1    4    4    0  501  0.47779631497E+02  0.50395046437E+02 -0.83721385521E+02  0.10885447480E+03  0.41800000000E+01 0. -1.
</event>
<event>
11    1  0.7577197E-009  0.1546812E+03  0.7561462E-02  0.1092189E+00
         22   -1    0    0    0    0  0.00000000000E+00  0.00000000000E+00  0.51876650555E+03  0.51876650555E+03  0.00000000000E+00 0.  1.
         22   -1    0    0    0    0 -0.00000000000E+00 -0.00000000000E+00 -0.44854952786E+03  0.44854952786E+03  0.00000000000E+00 0. -1.
        -24    2    1    2    0    0 -0.83759004119E+02  0.48918675848E+02 -0.39033181343E+03  0.41022212158E+03  0.80713424171E+02 0.  0.
         25    2    1    2    0    0 -0.23510163713E+02 -0.47835631212E+01  0.78102470433E+02  0.14942497049E+03  0.12510881522E+03 0.  0.
         24    2    1    2    0    0  0.10726916783E+03 -0.44135112726E+02  0.38244632068E+03  0.40766894134E+03  0.80462382429E+02 0.  0.
        -11    1    5    5    0    0  0.42046895585E+02 -0.11451155623E+02  0.27091116454E+03  0.27439374896E+03  0.00000000000E+00 0.  1.
         12    1    5    5    0    0  0.65222272247E+02 -0.32683957103E+02  0.11153515614E+03  0.13327519238E+03  0.00000000000E+00 0. -1.
         11    1    3    3    0    0 -0.91539792873E+02  0.55483201726E+02 -0.38299929921E+03  0.39767622829E+03  0.00000000000E+00 0. -1.
        -12    1    3    3    0    0  0.77807887534E+01 -0.65645258785E+01 -0.73325142185E+01  0.12545893288E+02  0.00000000000E+00 0.  1.
          5    1    4    4  501    0  0.29379816148E+02 -0.28722943373E+02  0.81239622947E+02  0.91134679511E+02  0.41800000000E+01 0. -1.
         -5    1    4    4    0  501 -0.52889979862E+02  0.23939380252E+02 -0.31371525149E+01  0.58290290980E+02  0.41800000000E+01 0. -1.
</event>
<event>
11    1  0.9982699E-009  0.1735989E+03  0.7561462E-02  0.1074942E+00
         22   -1    0    0    0    0  0.00000000000E+00  0.00000000000E+00  0.43320109335E+03  0.43320109335E+03  0.00000000000E+00 0. -1.
         22   -1    0    0    0    0 -0.00000000000E+00 -0.00000000000E+00 -0.75714894362E+03  0.75714894362E+03  0.00000000000E+00 0. -1.
         24    2    1    2    0    0 -0.11107202701E+03  0.41434852844E+02 -0.61111012260E+03  0.62779988738E+03  0.81383502290E+02 0.  0.
         25    2    1    2    0    0  0.99357625560E+02 -0.11960381185E+03 -0.50880717599E+02  0.20594413778E+03  0.12508849226E+03 0.  0.
        -24    2    1    2    0    0  0.11714401449E+02  0.78168959010E+02  0.33804298993E+03  0.35660601181E+03  0.81530186238E+02 0.  0.
        -11    1    3    3    0    0  0.10367016308E+02 -0.75321145489E+01 -0.50327402916E+02  0.51933180732E+02  0.00000000000E+00 0.  1.
         12    1    3    3    0    0 -0.12143904332E+03  0.48966967392E+02 -0.56078271968E+03  0.57586670665E+03  0.00000000000E+00 0. -1.
         13    1    5    5    0    0 -0.68904548370E+01  0.82958712696E+02  0.31851019410E+03  0.32920870299E+03  0.00000000000E+00 0. -1.
        -14    1    5    5    0    0  0.18604856286E+02 -0.47897536861E+01  0.19532795828E+02  0.27397308822E+02  0.00000000000E+00 0.  1.
          5    1    4    4  501    0 -0.24291027257E+02 -0.13015554951E+02 -0.30593125943E+02  0.41386838860E+02  0.41800000000E+01 0.  1.
         -5    1    4    4    0  501  0.12364865282E+03 -0.10658825690E+03 -0.20287591656E+02  0.16455729892E+03  0.41800000000E+01 0.  1.
</event>
<event>
11    1  0.7577197E-009  0.1381115E+03  0.7561462E-02  0.1109686E+00
         22   -1    0    0    0    0  0.00000000000E+00  0.00000000000E+00  0.48327446307E+03  0.48327446307E+03  0.00000000000E+00 0. -1.
         22   -1    0    0    0    0 -0.00000000000E+00 -0.00000000000E+00 -0.14068008995E+03  0.14068008995E+03  0.00000000000E+00 0. -1.
        -24    2    1    2    0    0  0.62187052574E+01 -0.11438018965E+02 -0.87172671874E+02  0.11917952047E+03  0.80219591160E+02 0.  0.
         25    2    1    2    0    0  0.38739025094E+01  0.66854193493E+02  0.14192804525E+03  0.20068541062E+03  0.12508626502E+03 0.  0.
         24    2    1    2    0    0 -0.10092607767E+02 -0.55416174528E+02  0.28783899974E+03  0.30408962194E+03  0.80289446802E+02 0.  0.
        -13    1    5    5    0    0 -0.40287567371E+02 -0.87031884767E+01  0.99223824651E+02  0.10744394330E+03  0.00000000000E+00 0.  1.
         14    1    5    5    0    0  0.30194959604E+02 -0.46712986051E+02  0.18861517509E+03  0.19664567863E+03  0.00000000000E+00 0. -1.
         11    1    3    3    0    0  0.12432680840E+02 -0.11600045116E+02 -0.10183977284E+03  0.10324956141E+03  0.00000000000E+00 0. -1.
        -12    1    3    3    0    0 -0.62139755821E+01  0.16202615109E+00  0.14667100966E+02  0.15929959063E+02  0.00000000000E+00 0.  1.
          5    1    4    4  501    0  0.45301659033E+02  0.73483507076E+02  0.13132079053E+03  0.15720906001E+03  0.41800000000E+01 0.  1.
         -5    1    4    4    0  501 -0.41427756524E+02 -0.66293135836E+01  0.10607254718E+02  0.43476350604E+02  0.41800000000E+01 0.  1.
</event>
<event>
11    1  0.7577197E-009  0.3539004E+03  0.7561462E-02  0.9796514E-01
         22   -1    0    0    0    0  0.00000000000E+00  0.00000000000E+00  0.16540069706E+04  0.16540069706E+04  0.00000000000E+00 0.  1.
         22   -1    0    0    0    0 -0.00000000000E+00 -0.00000000000E+00 -0.44299566760E+03  0.44299566760E+03  0.00000000000E+00 0. -1.
        -24    2    1    2    0    0 -0.86945645489E+02 -0.29165420105E+03 -0.21913684416E+03  0.39124645500E+03  0.11149490489E+03 0.  0.
         25    2    1    2    0    0  0.20401051329E+03  0.44605573185E+03  0.37381588622E+03  0.62926262006E+03  0.12508845972E+03 0.  0.
         24    2    1    2    0    0 -0.11706486780E+03 -0.15440153080E+03  0.10563322609E+04  0.10764935631E+04  0.73868328783E+02 0.  0.
        -13    1    5    5    0    0 -0.12674307175E+03 -0.14773329756E+03  0.10162534425E+04  0.10347270137E+04  0.00000000000E+00 0.  1.
         14    1    5    5    0    0  0.96782039533E+01 -0.66682332401E+01  0.40078818366E+02  0.41766549390E+02  0.00000000000E+00 0. -1.
         11    1    3    3    0    0 -0.50460783746E+02 -0.13269171561E+03 -0.16879855011E+03  0.22055913631E+03  0.00000000000E+00 0. -1.
        -12    1    3    3    0    0 -0.36484861743E+02 -0.15896248544E+03 -0.50338294052E+02  0.17068731869E+03  0.00000000000E+00 0.  1.
          5    1    4    4  501    0  0.11866101759E+03  0.38018262629E+03  0.29555772461E+03  0.49597490602E+03  0.41800000000E+01 0. -1.
         -5    1    4    4    0  501  0.85349495703E+02  0.65873105561E+02  0.78258161618E+02  0.13328771404E+03  0.41800000000E+01 0. -1.
</event>
<event>
11    1  0.7577197E-009  0.1432127E+03  0.7561462E-02  0.1104023E+00
         22   -1    0    0    0    0  0.00000000000E+00  0.00000000000E+00  0.48082711172E+03  0.48082711172E+03  0.00000000000E+00 0. -1.
         22   -1    0    0    0    0 -0.00000000000E+00 -0.00000000000E+00 -0.45526589074E+03  0.45526589074E+03  0.00000000000E+00 0.  1.
         24    2    1    2    0    0 -0.35197763665E+02  0.29159978972E+02 -0.41448229323E+03  0.42451384068E+03  0.79543966421E+02 0.  0.
         25    2    1    2    0    0  0.27760167754E+02  0.49868118941E+02  0.17080709767E+03  0.21927075028E+03  0.12508853310E+03 0.  0.
        -24    2    1    2    0    0  0.74375959116E+01 -0.79028097913E+02  0.26923641653E+03  0.29230841150E+03  0.81579417472E+02 0.  0.
        -11    1    3    3    0    0  0.50834579937E+01  0.44981667180E+02 -0.26710638867E+03  0.27091514317E+03  0.00000000000E+00 0.  1.
         12    1    3    3    0    0 -0.40281221659E+02 -0.15821688208E+02 -0.14737590455E+03  0.15359869752E+03  0.00000000000E+00 0. -1.
         11    1    5    5    0    0 -0.11984273726E+01 -0.31498043358E+02  0.22373757259E+03  0.22594703882E+03  0.00000000000E+00 0. -1.
        -12    1    5    5    0    0  0.86360232842E+01 -0.47530054555E+02  0.45498843946E+02  0.66361372685E+02  0.00000000000E+00 0.  1.
          5    1    4    4  501    0 -0.37619584200E+02  0.60214415241E+02  0.91210641935E+02  0.11566271015E+03  0.41800000000E+01 0.  1.
         -5    1    4    4    0  501  0.65379751954E+02 -0.10346296300E+02  0.79596455731E+02  0.10360804012E+03  0.41800000000E+01 0.  1.
</event>
<event>
11    1  0.7577197E-009  0.1443918E+03  0.7561462E-02  0.1102751E+00
         22   -1    0    0    0    0  0.00000000000E+00  0.00000000000E+00  0.14052289428E+03  0.14052289428E+03  0.00000000000E+00 0. -1.
         22   -1    0    0    0    0 -0.00000000000E+00 -0.00000000000E+00 -0.19637706291E+04  0.19637706291E+04  0.00000000000E+00 0.  1.
        -24    2    1    2    0    0  0.10482776164E+02 -0.21699738912E+02 -0.11085386922E+04  0.11117094798E+04  0.80368950175E+02 0.  0.
         25    2    1    2    0    0  0.40989797644E+02 -0.29680861948E+02 -0.82601832195E+03  0.83696622741E+03  0.12508029647E+03 0.  0.
         24    2    1    2    0    0 -0.51472573807E+02  0.51380600860E+02  0.11130927932E+03  0.15561781615E+03  0.80856397659E+02 0.  0.
        -11    1    5    5    0    0 -0.46296728001E+02  0.55307115507E+02  0.37070911575E+02  0.81095724514E+02  0.00000000000E+00 0.  1.
         12    1    5    5    0    0 -0.51758458063E+01 -0.39265146470E+01  0.74238367742E+02  0.74522091638E+02  0.00000000000E+00 0. -1.
         11    1    3    3    0    0  0.45416988783E+02 -0.10356413309E+02 -0.55345153992E+03  0.55540846700E+03  0.00000000000E+00 0. -1.
        -12    1    3    3    0    0 -0.34934212619E+02 -0.11343325603E+02 -0.55508715223E+03  0.55630101278E+03  0.00000000000E+00 0.  1.
          5    1    4    4  501    0  0.60950869833E+01 -0.39531372059E+02 -0.76361246428E+03  0.76467074448E+03  0.41800000000E+01 0. -1.
         -5    1    4    4    0  501  0.34894710660E+02  0.98505101103E+01 -0.62405857666E+02  0.72295482933E+02  0.41800000000E+01 0. -1.
</event>
<event>
11    1  0.7577197E-009  0.1274356E+03  0.7561462E-02  0.1122461E+00
         22   -1    0    0    0    0  0.00000000000E+00  0.00000000000E+00  0.17410343649E+03  0.17410343649E+03  0.00000000000E+00 0.  1.
         22   -1    0    0    0    0 -0.00000000000E+00 -0.00000000000E+00 -0.46001082035E+03  0.46001082035E+03  0.00000000000E+00 0.  1.
         24    2    1    2    0    0  0.21733567270E+02  0.18543443096E+02 -0.33958187068E+03  0.35021796714E+03  0.80750048830E+02 0.  0.
         25    2    1    2    0    0 -0.23782184361E+01  0.13704642809E+02 -0.61942018389E+02  0.14027562662E+03  0.12508782764E+03 0.  0.
        -24    2    1    2    0    0 -0.19355348834E+02 -0.32248085905E+02  0.11561650520E+03  0.14362066308E+03  0.76453580795E+02 0.  0.
        -11    1    3    3    0    0 -0.29313452936E+01  0.47456454009E+02 -0.18011638839E+03  0.18628639558E+03  0.00000000000E+00 0.  1.
         12    1    3    3    0    0  0.24664912564E+02 -0.28913010914E+02 -0.15946548229E+03  0.16393157156E+03  0.00000000000E+00 0. -1.
         13    1    5    5    0    0  0.29095640344E+02 -0.19702440520E+02  0.49072363141E+02  0.60355938181E+02  0.00000000000E+00 0. -1.
        -14    1    5    5    0    0 -0.48450989178E+02 -0.12545645385E+02  0.66544142061E+02  0.83264724902E+02  0.00000000000E+00 0.  1.
          5    1    4    4  501    0  0.67613575401E+01  0.11159396105E+02  0.37691338128E+02  0.40104332024E+02  0.41800000000E+01 0.  1.
         -5    1    4    4    0  501 -0.91395759763E+01  0.25452467048E+01 -0.99633356517E+02  0.10017129459E+03  0.41800000000E+01 0.  1.
</event>
<event>
11    1  0.7577197E-009  0.2141685E+03  0.7561462E-02  0.1044933E+00
         22   -1    0    0    0    0  0.00000000000E+00  0.00000000000E+00  0.54295468490E+03  0.54295468490E+03  0.00000000000E+00 0. -1.
         22   -1    0    0    0    0 -0.00000000000E+00 -0.00000000000E+00 -0.71797030091E+03  0.71797030091E+03  0.00000000000E+00 0.  1.
        -24    2    1    2    0    0 -0.16845377134E+03  0.99210981907E+01 -0.56856568422E+03  0.59825816040E+03  0.78554363001E+02 0.  0.
         25    2    1    2    0    0  0.21633616398E+03  0.11757600080E+02 -0.71676344667E+01  0.25028438354E+03  0.12510523831E+03 0.  0.
         24    2    1    2    0    0 -0.47882392646E+02 -0.21678698271E+02  0.40071770268E+03  0.41238244188E+03  0.81987265129E+02 0.  0.
        -13    1    5    5    0    0 -0.29487554063E+02  0.17112526110E+02  0.60320922176E+02  0.69289018226E+02  0.00000000000E+00 0.  1.
         14    1    5    5    0    0 -0.18394838583E+02 -0.38791224381E+02  0.34039678050E+03  0.34309342365E+03  0.00000000000E+00 0. -1.
         11    1    3    3    0    0 -0.73743030181E+02  0.38432184677E+02 -0.19877629922E+03  0.21546945131E+03  0.00000000000E+00 0. -1.
        -12    1    3    3    0    0 -0.94710741157E+02 -0.28511086487E+02 -0.36978938501E+03  0.38278870909E+03  0.00000000000E+00 0.  1.
          5    1    4    4  501    0  0.12364894624E+03 -0.42961580174E+01  0.57053321980E+02  0.13630874084E+03  0.41800000000E+01 0. -1.
         -5    1    4    4    0  501  0.92687217745E+02  0.16053758098E+02 -0.64220956446E+02  0.11397564270E+03  0.41800000000E+01 0. -1.
</event>
<event>
11    1  0.7577197E-009  0.1308348E+03  0.7561462E-02  0.1118247E+00
         22   -1    0    0    0    0  0.00000000000E+00  0.00000000000E+00  0.22540360760E+03  0.22540360760E+03  0.00000000000E+00 0. -1.
         22   -1    0    0    0    0 -0.00000000000E+00 -0.00000000000E+00 -0.17065254887E+03  0.17065254887E+03  0.00000000000E+00 0. -1.
        -24    2    1    2    0    0 -0.97679593420E+01  0.11613396987E+00 -0.20225045717E+02  0.84937353855E+02  0.81913827214E+02 0.  0.
         25    2    1    2    0    0  0.24677318578E+02  0.34744207633E+02 -0.63273758893E+02  0.14651665742E+03  0.12508969710E+03 0.  0.
         24    2    1    2    0    0 -0.14909359236E+02 -0.34860341602E+02  0.13824986334E+03  0.16460214519E+03  0.80890723074E+02 0.  0.
        -13    1    5    5    0    0  0.90663746705E+01  0.22632053167E+02  0.22603062453E+02  0.33246163876E+02  0.00000000000E+00 0.  1.
         14    1    5    5    0    0 -0.23975733906E+02 -0.57492394769E+02  0.11564680089E+03  0.13135598132E+03  0.00000000000E+00 0. -1.
         11    1    3    3    0    0  0.17381744143E+02 -0.24874631571E+02 -0.33978911247E+02  0.45556983381E+02  0.00000000000E+00 0. -1.
        -12    1    3    3    0    0 -0.27149703485E+02  0.24990765541E+02  0.13753865530E+02  0.39380370474E+02  0.00000000000E+00 0.  1.
          5    1    4    4  501    0  0.15608311507E+02  0.53557356842E+02  0.20878410136E+02  0.59710889039E+02  0.41800000000E+01 0. -1.
         -5    1    4    4    0  501  0.90690070708E+01 -0.18813149209E+02 -0.84152169028E+02  0.86805768383E+02  0.41800000000E+01 0. -1.
</event>
<event>
11    1  0.7577197E-009  0.3291002E+03  0.7561462E-02  0.9885759E-01
         22   -1    0    0    0    0  0.00000000000E+00  0.00000000000E+00  0.21261840178E+03  0.21261840178E+03  0.00000000000E+00 0.  1.
         22   -1    0    0    0    0 -0.00000000000E+00 -0.00000000000E+00 -0.21095517279E+04  0.21095517279E+04  0.00000000000E+00 0. -1.
        -24    2    1    2    0    0 -0.89287627994E+02  0.15671801746E+03 -0.14677491752E+04  0.14811016299E+04  0.82713840147E+02 0.  0.
         25    2    1    2    0    0 -0.10068216104E+02 -0.40609697411E+03 -0.34745291956E+03  0.54898695028E+03  0.12508804462E+03 0.  0.
         24    2    1    2    0    0  0.99355844098E+02  0.24937895665E+03 -0.81731231412E+02  0.29208154953E+03  0.81056706161E+02 0.  0.
        -11    1    5    5    0    0  0.42404388522E+02  0.20159730886E+03 -0.57299734521E+02  0.21382905949E+03  0.00000000000E+00 0.  1.
         12    1    5    5    0    0  0.56951455576E+02  0.47781647785E+02 -0.24431496892E+02  0.78252490042E+02  0.00000000000E+00 0. -1.
         13    1    3    3    0    0 -0.40339331592E+02  0.14093211709E+03 -0.10434804856E+04  0.10537270269E+04  0.00000000000E+00 0. -1.
        -14    1    3    3    0    0 -0.48948296402E+02  0.15785900367E+02 -0.42426868951E+03  0.42737460298E+03  0.00000000000E+00 0.  1.
          5    1    4    4  501    0 -0.12676412669E+02 -0.34091560038E+03 -0.34249817859E+03  0.48343211805E+03  0.41800000000E+01 0.  1.
         -5    1    4    4    0  501  0.26081965645E+01 -0.65181373728E+02 -0.49547409655E+01  0.65554832228E+02  0.41800000000E+01 0.  1.
</event>
<event>
11    1  0.7577197E-009  0.1301028E+03  0.7561462E-02  0.1119143E+00
         22   -1    0    0    0    0  0.00000000000E+00  0.00000000000E+00  0.38513565873E+03  0.38513565873E+03  0.00000000000E+00 0. -1.
         22   -1    0    0    0    0 -0.00000000000E+00 -0.00000000000E+00 -0.97551745665E+03  0.97551745665E+03  0.00000000000E+00 0.  1.
        -24    2    1    2    0    0 -0.33913908374E+01  0.36342895174E+02 -0.90398571719E+03  0.90858376353E+03  0.83677780278E+02 0.  0.
         25    2    1    2    0    0  0.22086337351E+02 -0.12888281508E+02  0.99523069675E+00  0.12768205254E+03  0.12509117459E+03 0.  0.
         24    2    1    2    0    0 -0.18694946513E+02 -0.23454613666E+02  0.31260868857E+03  0.32438729930E+03  0.81260739910E+02 0.  0.
        -11    1    5    5    0    0  0.21493487769E+02 -0.38182210562E+02  0.15903024497E+03  0.16495596392E+03  0.00000000000E+00 0.  1.
         12    1    5    5    0    0 -0.40188434282E+02  0.14727596896E+02  0.15357844360E+03  0.15943133538E+03  0.00000000000E+00 0. -1.
         13    1    3    3    0    0 -0.22174575889E+01  0.62621199275E+02 -0.53391161770E+03  0.53757599206E+03  0.00000000000E+00 0. -1.
        -14    1    3    3    0    0 -0.11739332485E+01 -0.26278304101E+02 -0.37007409949E+03  0.37100777148E+03  0.00000000000E+00 0.  1.
          5    1    4    4  501    0  0.11068679000E+02 -0.27446297897E+02  0.59319873729E+02  0.66423901890E+02  0.41800000000E+01 0.  1.
         -5    1    4    4    0  501  0.11017658350E+02  0.14558016389E+02 -0.58324643032E+02  0.61258150654E+02  0.41800000000E+01 0.  1.
</event>
<event>
11    1  0.7577197E-009  0.2377491E+03  0.7561462E-02  0.1030636E+00
         22   -1    0    0    0    0  0.00000000000E+00  0.00000000000E+00  0.63829096009E+03  0.63829096009E+03  0.00000000000E+00 0.  1.
         22   -1    0    0    0    0 -0.00000000000E+00 -0.00000000000E+00 -0.39754036218E+03  0.39754036218E+03  0.00000000000E+00 0.  1.
         24    2    1    2    0    0 -0.15367131358E+03 -0.12753034289E+03 -0.21181250985E+03  0.30209476675E+03  0.80733188908E+02 0.  0.
         25    2    1    2    0    0  0.20915326850E+03  0.67824526581E+02 -0.14024659480E+02  0.25335733748E+03  0.12509193920E+03 0.  0.
        -24    2    1    2    0    0 -0.55481954914E+02  0.59705816310E+02  0.46658776724E+03  0.48037921803E+03  0.80106284166E+02 0.  0.
        -13    1    3    3    0    0 -0.12781582450E+03 -0.80689606921E+02 -0.10953972884E+03  0.18667257392E+03  0.00000000000E+00 0.  1.
         14    1    3    3    0    0 -0.25855489080E+02 -0.46840735970E+02 -0.10227278102E+03  0.11542219284E+03  0.00000000000E+00 0. -1.
         13    1    5    5    0    0  0.32932295356E+01  0.24276101546E+02  0.31464479034E+02  0.39877160229E+02  0.00000000000E+00 0. -1.
        -14    1    5    5    0    0 -0.58775184450E+02  0.35429714764E+02  0.43512328820E+03  0.44050205781E+03  0.00000000000E+00 0.  1.
          5    1    4    4  501    0  0.14315186059E+03  0.42227475065E+02  0.50362147370E+02  0.15757358005E+03  0.41800000000E+01 0. -1.
         -5    1    4    4    0  501  0.66001407908E+02  0.25597051516E+02 -0.64386806850E+02  0.95783757435E+02  0.41800000000E+01 0. -1.
</event>
<event>
11    1  0.7577197E-009  0.2736034E+03  0.7561462E-02  0.1012026E+00
         22   -1    0    0    0    0  0.00000000000E+00  0.00000000000E+00  0.48225194282E+03  0.48225194282E+03  0.00000000000E+00 0. -1.
         22   -1    0    0    0    0 -0.00000000000E+00 -0.00000000000E+00 -0.13360812815E+04  0.13360812815E+04  0.00000000000E+00 0.  1.
         24    2    1    2    0    0 -0.46902547810E+02  0.91234623800E+02 -0.85966459585E+03  0.86947161191E+03  0.80212598723E+02 0.  0.
         25    2    1    2    0    0  0.25786069528E+03 -0.19823123622E+03 -0.36318919825E+03  0.50333164661E+03  0.12509433068E+03 0.  0.
        -24    2    1    2    0    0 -0.21095814747E+03  0.10699661242E+03  0.36902445543E+03  0.44552996580E+03  0.79789013470E+02 0.  0.
        -11    1    3    3    0    0 -0.15376085064E+02  0.96963828215E+02 -0.65082253141E+03  0.65818566937E+03  0.00000000000E+00 0.  1.
         12    1    3    3    0    0 -0.31526462746E+02 -0.57292044151E+01 -0.20884206444E+03  0.21128594254E+03  0.00000000000E+00 0. -1.
         11    1    5    5    0    0 -0.18053345126E+03  0.99848959035E+02  0.25884013617E+03  0.33099902981E+03  0.00000000000E+00 0. -1.
        -12    1    5    5    0    0 -0.30424696206E+02  0.71476533886E+01  0.11018431926E+03  0.11453093599E+03  0.00000000000E+00 0.  1.
          5    1    4    4  501    0  0.30595375706E+02 -0.36360145238E+02 -0.13396298672E+03  0.14220299359E+03  0.41800000000E+01 0.  1.
         -5    1    4    4    0  501  0.22726531957E+03 -0.16187109098E+03 -0.22922621154E+03  0.36112865302E+03  0.41800000000E+01 0.  1.
</event>
<event>
11    1  0.7577197E-009  0.1863267E+03  0.7561462E-02  0.1064637E+00
         22   -1    0    0    0    0  0.00000000000E+00  0.00000000000E+00  0.49439915347E+03  0.49439915347E+03  0.00000000000E+00 0.  1.
         22   -1    0    0    0    0 -0.00000000000E+00 -0.00000000000E+00 -0.97997800957E+03  0.97997800957E+03  0.00000000000E+00 0. -1.
         24    2    1    2    0    0  0.27063598764E+02  0.95139951582E+02 -0.71895108483E+03  0.73009039443E+03  0.79732508392E+02 0.  0.
         25    2    1    2    0    0  0.30353011392E+02 -0.21606242135E+03 -0.17548349742E+03  0.30666942663E+03  0.12508958447E+03 0.  0.
        -24    2    1    2    0    0 -0.57416610157E+02  0.12092246977E+03  0.40885572614E+03  0.43761734198E+03  0.80168712006E+02 0.  0.
        -11    1    3    3    0    0 -0.15033002367E+02  0.25398600925E+02 -0.68903557479E+02  0.74958524014E+02  0.00000000000E+00 0.  1.
         12    1    3    3    0    0  0.42096601131E+02  0.69741350657E+02 -0.65004752735E+03  0.65513187042E+03  0.00000000000E+00 0. -1.
         11    1    5    5    0    0 -0.58748384517E+02  0.75122454195E+02  0.17483523029E+03  0.19915349245E+03  0.00000000000E+00 0. -1.
        -12    1    5    5    0    0  0.13317743601E+01  0.45800015575E+02  0.23402049586E+03  0.23846384952E+03  0.00000000000E+00 0.  1.
          5    1    4    4  501    0  0.68145449185E+02 -0.16516651628E+03 -0.16307279381E+03  0.24193798549E+03  0.41800000000E+01 0.  1.
         -5    1    4    4    0  501 -0.37792437792E+02 -0.50895905072E+02 -0.12410703610E+02  0.64731441136E+02  0.41800000000E+01 0.  1.
</event>
<event>
11    1  0.7577197E-009  0.1777308E+03  0.7561462E-02  0.1071493E+00
         22   -1    0    0    0    0  0.00000000000E+00  0.00000000000E+00  0.62839757627E+03  0.62839757627E+03  0.00000000000E+00 0. -1.
         22   -1    0    0    0    0 -0.00000000000E+00 -0.00000000000E+00 -0.11882571061E+03  0.11882571061E+03  0.00000000000E+00 0.  1.
         24    2    1    2    0    0  0.63439828653E+02  0.10807249041E+03 -0.23320728203E+02  0.15034080117E+03  0.79713393409E+02 0.  0.
         25    2    1    2    0    0 -0.71195587303E+02 -0.11229677483E+03  0.43149124567E+03  0.46852129457E+03  0.12509249013E+03 0.  0.
        -24    2    1    2    0    0  0.77557586495E+01  0.42242844215E+01  0.10140134819E+03  0.12836119115E+03  0.78207196650E+02 0.  0.
        -11    1    3    3    0    0  0.50993702560E+02  0.49006025225E+02 -0.47628568254E+02  0.85266809035E+02  0.00000000000E+00 0.  1.
         12    1    3    3    0    0  0.12446126093E+02  0.59066465183E+02  0.24307840050E+02  0.65073992131E+02  0.00000000000E+00 0. -1.
         13    1    5    5    0    0 -0.29983196432E+02 -0.11815530847E+01  0.78134092663E+02  0.83697817010E+02  0.00000000000E+00 0. -1.
        -14    1    5    5    0    0  0.37738955082E+02  0.54058375062E+01  0.23267255524E+02  0.44663374138E+02  0.00000000000E+00 0.  1.
          5    1    4    4  501    0 -0.36906072700E+02 -0.57094793063E+02  0.58195484083E+02  0.89588282519E+02  0.41800000000E+01 0. -1.
         -5    1    4    4    0  501 -0.34289514603E+02 -0.55201981767E+02  0.37329576159E+03  0.37893301205E+03  0.41800000000E+01 0. -1.
</event>
<event>
11    1  0.7577197E-009  0.1834245E+03  0.7561462E-02  0.1066906E+00
         22   -1    0    0    0    0  0.00000000000E+00  0.00000000000E+00  0.13473377393E+04  0.13473377393E+04  0.00000000000E+00 0.  1.
         22   -1    0    0    0    0 -0.00000000000E+00 -0.00000000000E+00 -0.29950202240E+03  0.29950202240E+03  0.00000000000E+00 0. -1.
        -24    2    1    2    0    0 -0.12847733474E+03 -0.35868144247E+02 -0.25647163283E+03  0.30009645066E+03  0.80543354413E+02 0.  0.
         25    2    1    2    0    0  0.14668629155E+03  0.39263725028E+02  0.48647844608E+03  0.52475443385E+03  0.12508968426E+03 0.  0.
         24    2    1    2    0    0 -0.18208956817E+02 -0.33955807813E+01  0.81782890364E+03  0.82198887717E+03  0.80489145150E+02 0.  0.
        -13    1    5    5    0    0 -0.26584790008E+02 -0.35977447179E+02  0.58951429492E+03  0.59120912686E+03  0.00000000000E+00 0.  1.
         14    1    5    5    0    0  0.83758331905E+01  0.32581866398E+02  0.22831460872E+03  0.23077975032E+03  0.00000000000E+00 0. -1.
         11    1    3    3    0    0 -0.93689043122E+02 -0.23926440567E+02 -0.24194248301E+03  0.26054995000E+03  0.00000000000E+00 0. -1.
        -12    1    3    3    0    0 -0.34788291616E+02 -0.11941703679E+02 -0.14529149823E+02  0.39546500666E+02  0.00000000000E+00 0.  1.
          5    1    4    4  501    0  0.12418059787E+03  0.75994893104E+02  0.42728243816E+03  0.45142418968E+03  0.41800000000E+01 0.  1.
         -5    1    4    4    0  501  0.22505693688E+02 -0.36731168076E+02  0.59196007924E+02  0.73330244175E+02  0.41800000000E+01 0.  1.
</event>
<event>
11    1  0.7577197E-009  0.1398919E+03  0.7561462E-02  0.1107679E+00
         22   -1    0    0    0    0  0.00000000000E+00  0.00000000000E+00  0.30073263020E+03  0.30073263020E+03  0.00000000000E+00 0.  1.
         22   -1    0    0    0    0 -0.00000000000E+00 -0.00000000000E+00 -0.25204948742E+03  0.25204948742E+03  0.00000000000E+00 0. -1.
         24    2    1    2    0    0 -0.78944676519E+00 -0.70388500986E+02 -0.17872751184E+03  0.21946032274E+03  0.10613267862E+03 0.  0.
         25    2    1    2    0    0 -0.35140142722E+02  0.17002908373E+02  0.80026261965E+02  0.15354421567E+03  0.12509074722E+03 0.  0.
        -24    2    1    2    0    0  0.35929589487E+02  0.53385592613E+02  0.14738439265E+03  0.17977757920E+03  0.80354600921E+02 0.  0.
        -11    1    3    3    0    0  0.77291797184E+01  0.11023117965E+02 -0.11483287910E+03  0.11561937326E+03  0.00000000000E+00 0.  1.
         12    1    3    3    0    0 -0.85186264836E+01 -0.81411618951E+02 -0.63894632732E+02  0.10384094948E+03  0.00000000000E+00 0. -1.
         13    1    5    5    0    0 -0.22203394634E+02  0.21002782667E+02  0.21436944072E+02  0.37331624451E+02  0.00000000000E+00 0. -1.
        -14    1    5    5    0    0  0.58132984122E+02  0.32382809947E+02  0.12594744858E+03  0.14244595475E+03  0.00000000000E+00 0.  1.
          5    1    4    4  501    0 -0.70591407700E+02  0.26814110627E+02  0.87628280561E+02  0.11575116122E+03  0.41800000000E+01 0.  1.
         -5    1    4    4    0  501  0.35451264978E+02 -0.98112022546E+01 -0.76020185956E+01  0.37793054454E+02  0.41800000000E+01 0.  1.
</event>
<event>
11    1  0.7577197E-009  0.1473339E+03  0.7561462E-02  0.1099635E+00
         22   -1    0    0    0    0  0.00000000000E+00  0.00000000000E+00  0.38015315245E+03  0.38015315245E+03  0.00000000000E+00 0. -1.
         22   -1    0    0    0    0 -0.00000000000E+00 -0.00000000000E+00 -0.64891555129E+03  0.64891555129E+03  0.00000000000E+00 0. -1.
        -24    2    1    2    0    0 -0.13490764180E+02 -0.10575150416E+02 -0.58220239249E+03  0.58821664541E+03  0.82130150295E+02 0.  0.
         25    2    1    2    0    0 -0.11143721155E+02  0.83316328954E+02  0.55427806705E+02  0.16057870892E+03  0.12508991490E+03 0.  0.
         24    2    1    2    0    0  0.24634485336E+02 -0.72741178538E+02  0.25801218695E+03  0.28027334942E+03  0.78004646385E+02 0.  0.
        -13    1    5    5    0    0  0.14461086288E+02 -0.50157207592E+02  0.55271033323E+02  0.76024703976E+02  0.00000000000E+00 0.  1.
         14    1    5    5    0    0  0.10173399047E+02 -0.22583970946E+02  0.20274115362E+03  0.20424864544E+03  0.00000000000E+00 0. -1.
         13    1    3    3    0    0  0.11350034292E+02 -0.40763781529E+02 -0.37301509690E+03  0.37540747419E+03  0.00000000000E+00 0. -1.
        -14    1    3    3    0    0 -0.24840798472E+02  0.30188631113E+02 -0.20918729559E+03  0.21280917121E+03  0.00000000000E+00 0.  1.
          5    1    4    4  501    0 -0.26246803040E+02  0.68767699621E+02  0.92193672152E+02  0.11804675669E+03  0.41800000000E+01 0.  1.
         -5    1    4    4    0  501  0.15103081885E+02  0.14548629333E+02 -0.36765865447E+02  0.42531952224E+02  0.41800000000E+01 0.  1.
</event>
<event>
11    1  0.7577197E-009  0.1357416E+03  0.7561462E-02  0.1112409E+00
         22   -1    0    0    0    0  0.00000000000E+00  0.00000000000E+00  0.22615910434E+04  0.22615910434E+04  0.00000000000E+00 0.  1.
         22   -1    0    0    0    0 -0.00000000000E+00 -0.00000000000E+00 -0.83577864707E+02  0.83577864707E+02  0.00000000000E+00 0. -1.
         24    2    1    2    0    0 -0.58092523129E+02  0.22681127589E+01 -0.17819627864E+02  0.99198158199E+02  0.78376334909E+02 0.  0.
         25    2    1    2    0    0  0.29213743652E+02 -0.10800239832E+02  0.14725285261E+03  0.19570920382E+03  0.12509437182E+03 0.  0.
        -24    2    1    2    0    0  0.28878779477E+02  0.85321270729E+01  0.20485799539E+04  0.20502615460E+04  0.77367942686E+02 0.  0.
        -13    1    3    3    0    0 -0.29689196134E+02 -0.19020283494E+02  0.25263697599E+02  0.43375960711E+02  0.00000000000E+00 0.  1.
         14    1    3    3    0    0 -0.28403326995E+02  0.21288396253E+02 -0.43083325462E+02  0.55822197487E+02  0.00000000000E+00 0. -1.
         13    1    5    5    0    0 -0.24274242997E+02 -0.44241564987E+01  0.39015304751E+03  0.39093249100E+03  0.00000000000E+00 0. -1.
        -14    1    5    5    0    0  0.53153022474E+02  0.12956283572E+02  0.16584269064E+04  0.16593290550E+04  0.00000000000E+00 0.  1.
          5    1    4    4  501    0  0.72780930073E+02  0.17028369115E+02  0.68886199793E+02  0.10173401623E+03  0.41800000000E+01 0. -1.
         -5    1    4    4    0  501 -0.43567186421E+02 -0.27828608947E+02  0.78366652821E+02  0.93975187592E+02  0.41800000000E+01 0. -1.
</event>
<event>
11    1  0.7577197E-009  0.1906253E+03  0.7561462E-02  0.1061358E+00
         22   -1    0    0    0    0  0.00000000000E+00  0.00000000000E+00  0.12855620162E+04  0.12855620162E+04  0.00000000000E+00 0. -1.
         22   -1    0    0    0    0 -0.00000000000E+00 -0.00000000000E+00 -0.20472004139E+04  0.20472004139E+04  0.00000000000E+00 0. -1.
         24    2    1    2    0    0  0.88762807955E+01 -0.14337079380E+03 -0.20101892987E+04  0.20169136895E+04  0.80285995830E+02 0.  0.
         25    2    1    2    0    0 -0.20336802033E+02  0.16251170988E+03  0.30170607768E+03  0.36537292780E+03  0.12508867933E+03 0.  0.
        -24    2    1    2    0    0  0.11460521237E+02 -0.19140916085E+02  0.94684482332E+03  0.95047581288E+03  0.79946439607E+02 0.  0.
        -13    1    3    3    0    0 -0.29208517334E+02 -0.33878014149E+02 -0.38375349546E+03  0.38635165666E+03  0.00000000000E+00 0.  1.
         14    1    3    3    0    0  0.38084798129E+02 -0.10949277965E+03 -0.16264358033E+04  0.16305620328E+04  0.00000000000E+00 0. -1.
         11    1    5    5    0    0  0.19466054265E+02 -0.40415657247E+02  0.84204766718E+03  0.84324173665E+03  0.00000000000E+00 0. -1.
        -12    1    5    5    0    0 -0.80055330280E+01  0.21274741161E+02  0.10479715614E+03  0.10723407623E+03  0.00000000000E+00 0.  1.
          5    1    4    4  501    0  0.20938158123E+02  0.15733443437E+03  0.26870561633E+03  0.31211009492E+03  0.41800000000E+01 0.  1.
         -5    1    4    4    0  501 -0.41274960156E+02  0.51772755167E+01  0.33000461353E+02  0.53262832887E+02  0.41800000000E+01 0.  1.
</event>
<event>
11    1  0.7577197E-009  0.1873201E+03  0.7561462E-02  0.1063871E+00
         22   -1    0    0    0    0  0.00000000000E+00  0.00000000000E+00  0.36640408833E+03  0.36640408833E+03  0.00000000000E+00 0.  1.
         22   -1    0    0    0    0 -0.00000000000E+00 -0.00000000000E+00 -0.72053143061E+03  0.72053143061E+03  0.00000000000E+00 0. -1.
        -24    2    1    2    0    0  0.23444073996E+02  0.12975141733E+03 -0.43507619473E+03  0.46214716290E+03  0.83088206425E+02 0.  0.
         25    2    1    2    0    0 -0.41708243701E+02 -0.15633169500E+03 -0.22709158328E+03  0.30560952948E+03  0.12508965129E+03 0.  0.
         24    2    1    2    0    0  0.18264169705E+02  0.26580277672E+02  0.30804043574E+03  0.31917882656E+03  0.77111103073E+02 0.  0.
        -11    1    5    5    0    0  0.46833487529E+02  0.15693962121E+02  0.23244756849E+03  0.23763742992E+03  0.00000000000E+00 0.  1.
         12    1    5    5    0    0 -0.28569317824E+02  0.10886315551E+02  0.75592867249E+02  0.81541396641E+02  0.00000000000E+00 0. -1.
         11    1    3    3    0    0  0.33200854238E+02  0.13456999906E+03 -0.35109677628E+03  0.37746566424E+03  0.00000000000E+00 0. -1.
        -12    1    3    3    0    0 -0.97567802414E+01 -0.48185817310E+01 -0.83979418453E+02  0.84681498654E+02  0.00000000000E+00 0.  1.
          5    1    4    4  501    0  0.42037847453E+02 -0.37478610268E+02 -0.86585375708E+02  0.10337469000E+03  0.41800000000E+01 0. -1.
         -5    1    4    4    0  501 -0.83746091154E+02 -0.11885308473E+03 -0.14050620758E+03  0.20223483948E+03  0.41800000000E+01 0. -1.
</event>
<event>
11    1  0.7577197E-009  0.1457524E+03  0.7561462E-02  0.1101300E+00
         22   -1    0    0    0    0  0.00000000000E+00  0.00000000000E+00  0.50308349286E+03  0.50308349286E+03  0.00000000000E+00 0.  1.
         22   -1    0    0    0    0 -0.00000000000E+00 -0.00000000000E+00 -0.23279067863E+04  0.23279067863E+04  0.00000000000E+00 0. -1.
        -24    2    1    2    0    0  0.70056802341E+02  0.25345704151E+02 -0.22259622265E+04  0.22286294953E+04  0.79569047753E+02 0.  0.
         25    2    1    2    0    0 -0.80302349391E+02 -0.39104888920E+02 -0.35613631311E+02  0.15777731881E+03  0.12509073483E+03 0.  0.
         24    2    1    2    0    0  0.10245547050E+02  0.13759184769E+02  0.43675256441E+03  0.44458346499E+03  0.81285720908E+02 0.  0.
        -11    1    5    5    0    0 -0.31827412332E+02  0.22613796005E+02  0.24311629871E+03  0.24623140060E+03  0.00000000000E+00 0.  1.
         12    1    5    5    0    0  0.42072959383E+02 -0.88546112358E+01  0.19363626571E+03  0.19835206439E+03  0.00000000000E+00 0. -1.
         13    1    3    3    0    0  0.87516337685E+02  0.23284657352E+02 -0.17484368726E+04  0.17507806208E+04  0.00000000000E+00 0. -1.
        -14    1    3    3    0    0 -0.17459535344E+02  0.20610467989E+01 -0.47752535386E+03  0.47784887451E+03  0.00000000000E+00 0.  1.
          5    1    4    4  501    0  0.53277124002E+01  0.37338417386E+02 -0.15893884108E+01  0.37980791037E+02  0.41800000000E+01 0. -1.
         -5    1    4    4    0  501 -0.85630061792E+02 -0.76443306306E+02 -0.34024242901E+02  0.11979652777E+03  0.41800000000E+01 0. -1.
</event>
<event>
11    1  0.7577197E-009  0.2175872E+03  0.7561462E-02  0.1042739E+00
         22   -1    0    0    0    0  0.00000000000E+00  0.00000000000E+00  0.58099609099E+03  0.58099609099E+03  0.00000000000E+00 0.  1.
         22   -1    0    0    0    0 -0.00000000000E+00 -0.00000000000E+00 -0.12069392985E+04  0.12069392985E+04  0.00000000000E+00 0. -1.
        -24    2    1    2    0    0  0.36838564139E+02 -0.97595119086E+01 -0.89477740582E+03  0.89858705480E+03  0.73346855487E+02 0.  0.
         25    2    1    2    0    0 -0.20281805294E+03 -0.49482557903E+02 -0.24182023680E+03  0.34308286956E+03  0.12508054334E+03 0.  0.
         24    2    1    2    0    0  0.16597948880E+03  0.59242069811E+02  0.51065443513E+03  0.54626546510E+03  0.81112222908E+02 0.  0.
        -11    1    5    5    0    0  0.15824243762E+03  0.26776675076E+02  0.41470564194E+03  0.44467789336E+03  0.00000000000E+00 0.  1.
         12    1    5    5    0    0  0.77370511845E+01  0.32465394736E+02  0.95948793196E+02  0.10158757174E+03  0.00000000000E+00 0. -1.
         11    1    3    3    0    0 -0.26245526034E+01 -0.14739680277E+02 -0.67955599862E+03  0.67972089987E+03  0.00000000000E+00 0. -1.
        -12    1    3    3    0    0  0.39463116742E+02  0.49801683685E+01 -0.21522140720E+03  0.21886615494E+03  0.00000000000E+00 0.  1.
          5    1    4    4  501    0 -0.65164734381E+02 -0.26056842715E+02 -0.80651433975E+01  0.70766663036E+02  0.41800000000E+01 0. -1.
         -5    1    4    4    0  501 -0.13765331856E+03 -0.23425715188E+02 -0.23375509340E+03  0.27231620652E+03  0.41800000000E+01 0. -1.
</event>
<event>
11    1  0.7577197E-009  0.1455815E+03  0.7561462E-02  0.1101481E+00
         22   -1    0    0    0    0  0.00000000000E+00  0.00000000000E+00  0.37425284871E+03  0.37425284871E+03  0.00000000000E+00 0. -1.
         22   -1    0    0    0    0 -0.00000000000E+00 -0.00000000000E+00 -0.35307049278E+03  0.35307049278E+03  0.00000000000E+00 0.  1.
        -24    2    1    2    0    0  0.71691651237E+02  0.19951879658E+02 -0.30465538993E+03  0.32339723470E+03  0.78949948935E+02 0.  0.
         25    2    1    2    0    0 -0.79729580594E+02  0.43326623088E+01  0.16281232672E+03  0.22029449930E+03  0.12508490998E+03 0.  0.
         24    2    1    2    0    0  0.80379293567E+01 -0.24284541967E+02  0.16302541914E+03  0.18363160749E+03  0.80553911753E+02 0.  0.
        -11    1    5    5    0    0  0.11867904220E+02 -0.35236811908E+02  0.24291769132E+02  0.44413625292E+02  0.00000000000E+00 0.  1.
         12    1    5    5    0    0 -0.38299748629E+01  0.10952269942E+02  0.13873365001E+03  0.13921798220E+03  0.00000000000E+00 0. -1.
         13    1    3    3    0    0  0.40310151231E+02 -0.23648053390E+02 -0.20420699389E+03  0.20948659879E+03  0.00000000000E+00 0. -1.
        -14    1    3    3    0    0  0.31381500006E+02  0.43599933048E+02 -0.10044839605E+03  0.11391063591E+03  0.00000000000E+00 0.  1.
          5    1    4    4  501    0 -0.94696711394E+02  0.30742858354E+02  0.67966219626E+02  0.12062118346E+03  0.41800000000E+01 0. -1.
         -5    1    4    4    0  501  0.14967130800E+02 -0.26410196045E+02  0.94846107093E+02  0.99673315839E+02  0.41800000000E+01 0. -1.
</event>
<event>
11    1  0.7577197E-009  0.1579307E+03  0.7561462E-02  0.1089040E+00
         22   -1    0    0    0    0  0.00000000000E+00  0.00000000000E+00  0.18508795736E+03  0.18508795736E+03  0.00000000000E+00 0. -1.
         22   -1    0    0    0    0 -0.00000000000E+00 -0.00000000000E+00 -0.65866529836E+03  0.65866529836E+03  0.00000000000E+00 0.  1.
         24    2    1    2    0    0  0.79646772179E+02 -0.19667353497E+02 -0.28223506480E+03  0.30367084557E+03  0.76347478914E+02 0.  0.
         25    2    1    2    0    0 -0.12239091064E+03  0.32857754787E+02 -0.32808547638E+03  0.37329202385E+03  0.12509071991E+03 0.  0.
        -24    2    1    2    0    0  0.42744138458E+02 -0.13190401290E+02  0.13674320016E+03  0.16679038630E+03  0.84375838436E+02 0.  0.
        -11    1    3    3    0    0  0.41810427636E+02 -0.24770148715E+02 -0.24694152773E+03  0.25167794946E+03  0.00000000000E+00 0.  1.
         12    1    3    3    0    0  0.37836344543E+02  0.51027952182E+01 -0.35293537070E+02  0.51992896114E+02  0.00000000000E+00 0. -1.
         13    1    5    5    0    0  0.55160461480E+02  0.20819211325E+02  0.77809900063E+02  0.97624262449E+02  0.00000000000E+00 0. -1.
        -14    1    5    5    0    0 -0.12416323022E+02 -0.34009612615E+02  0.58933300101E+02  0.69166123850E+02  0.00000000000E+00 0.  1.
          5    1    4    4  501    0  0.22495739049E+02  0.21729422107E+02 -0.76043293261E+02  0.82330315865E+02  0.41800000000E+01 0.  1.
         -5    1    4    4    0  501 -0.14488664969E+03  0.11128332680E+02 -0.25204218311E+03  0.29096170799E+03  0.41800000000E+01 0.  1.
</event>
<event>
11    1  0.7577197E-009  0.1691466E+03  0.7561462E-02  0.1078777E+00
         22   -1    0    0    0    0  0.00000000000E+00  0.00000000000E+00  0.14664885535E+04  0.14664885535E+04  0.00000000000E+00 0. -1.
         22   -1    0    0    0    0 -0.00000000000E+00 -0.00000000000E+00 -0.16552050014E+03  0.16552050014E+03  0.00000000000E+00 0. -1.
        -24    2    1    2    0    0 -0.40598550155E+02 -0.42220467549E+02 -0.11366290239E+03  0.15205204741E+03  0.82278548781E+02 0.  0.
         25    2    1    2    0    0  0.13631716938E+03 -0.15909180769E+02  0.27410036528E+03  0.33108020276E+03  0.12509043814E+03 0.  0.
         24    2    1    2    0    0 -0.95718619229E+02  0.58129648318E+02  0.11405305904E+04  0.11488768034E+04  0.81035619790E+02 0.  0.
        -13    1    5    5    0    0  0.52714897581E+01 -0.41348540546E+00  0.32412565028E+03  0.32416877817E+03  0.00000000000E+00 0.  1.
         14    1    5    5    0    0 -0.10099010899E+03  0.58543133723E+02  0.81640494014E+03  0.82470802525E+03  0.00000000000E+00 0. -1.
         13    1    3    3    0    0 -0.20338476197E+02 -0.23603071916E+02 -0.11986370043E+03  0.12384694303E+03  0.00000000000E+00 0. -1.
        -14    1    3    3    0    0 -0.20260073959E+02 -0.18617395632E+02  0.62007980418E+01  0.28205104384E+02  0.00000000000E+00 0.  1.
          5    1    4    4  501    0  0.63593129537E+02 -0.12964006375E+02  0.22008866506E+02  0.68658678916E+02  0.41800000000E+01 0.  1.
         -5    1    4    4    0  501  0.72724039847E+02 -0.29451743938E+01  0.25209149877E+03  0.26242152385E+03  0.41800000000E+01 0.  1.
</event>
<event>
11    1  0.7577197E-009  0.1461041E+03  0.7561462E-02  0.1100927E+00
         22   -1    0    0    0    0  0.00000000000E+00  0.00000000000E+00  0.82701892986E+03  0.82701892986E+03  0.00000000000E+00 0.  1.
         22   -1    0    0    0    0 -0.00000000000E+00 -0.00000000000E+00 -0.12384344713E+04  0.12384344713E+04  0.00000000000E+00 0.  1.
         24    2    1    2    0    0  0.72946297503E+02  0.12216557067E+02 -0.10795097015E+04  0.10850923109E+04  0.81324787671E+02 0.  0.
         25    2    1    2    0    0 -0.93191162150E+02 -0.40107092585E+02 -0.11148614213E+03  0.19587808542E+03  0.12508354361E+03 0.  0.
        -24    2    1    2    0    0  0.20244864647E+02  0.27890535518E+02  0.77958030214E+03  0.78448300484E+03  0.80500937084E+02 0.  0.
        -13    1    3    3    0    0  0.80185436500E+02  0.83264429876E+01 -0.10675013920E+04  0.10705411042E+04  0.00000000000E+00 0.  1.
         14    1    3    3    0    0 -0.72391389970E+01  0.38901140795E+01 -0.12008309512E+02  0.14551206765E+02  0.00000000000E+00 0. -1.
         13    1    5    5    0    0  0.89211977604E+01  0.74995819971E+01  0.12658688914E+02  0.17206798210E+02  0.00000000000E+00 0. -1.
        -14    1    5    5    0    0  0.11323666887E+02  0.20390953521E+02  0.76692161323E+03  0.76727620663E+03  0.00000000000E+00 0.  1.
          5    1    4    4  501    0 -0.11259968607E+03 -0.43789995496E+02 -0.49400676069E+02  0.13059154722E+03  0.41800000000E+01 0. -1.
         -5    1    4    4    0  501  0.19408523918E+02  0.36829029101E+01 -0.62085466061E+02  0.65286538203E+02  0.41800000000E+01 0. -1.
</event>
<event>
11    1  0.7577197E-009  0.1549581E+03  0.7561462E-02  0.1091918E+00
         22   -1    0    0    0    0  0.00000000000E+00  0.00000000000E+00  0.19689054559E+03  0.19689054559E+03  0.00000000000E+00 0.  1.
         22   -1    0    0    0    0 -0.00000000000E+00 -0.00000000000E+00 -0.15257001836E+04  0.15257001836E+04  0.00000000000E+00 0. -1.
        -24    2    1    2    0    0 -0.15655721705E+02  0.90926186352E+02 -0.14487245813E+04  0.14538736402E+04  0.80205836784E+02 0.  0.
         25    2    1    2    0    0  0.24916745092E+02 -0.60318580156E+02  0.35775290431E+02  0.14554479707E+03  0.12507694132E+03 0.  0.
         24    2    1    2    0    0 -0.92610233874E+01 -0.30607606196E+02  0.84139652798E+02  0.12317229196E+03  0.84079368594E+02 0.  0.
        -13    1    5    5    0    0  0.93660146554E+01 -0.13026074209E+02  0.94271685895E+02  0.95627148871E+02  0.00000000000E+00 0.  1.
         14    1    5    5    0    0 -0.18627038043E+02 -0.17581531987E+02 -0.10132033096E+02  0.27545143092E+02  0.00000000000E+00 0. -1.
         11    1    3    3    0    0  0.21793555450E+02  0.80044706469E+02 -0.10313572029E+04  0.10346882594E+04  0.00000000000E+00 0. -1.
        -12    1    3    3    0    0 -0.37449277155E+02  0.10881479883E+02 -0.41736737833E+03  0.41918538078E+03  0.00000000000E+00 0.  1.
          5    1    4    4  501    0  0.57350155431E+02  0.13273932034E+02  0.25765946939E+02  0.64394052685E+02  0.41800000000E+01 0.  1.
         -5    1    4    4    0  501 -0.32433410338E+02 -0.73592512190E+02  0.10009343492E+02  0.81150744382E+02  0.41800000000E+01 0.  1.
</event>
<event>
11    1  0.7577197E-009  0.1336792E+03  0.7561462E-02  0.1114829E+00
         22   -1    0    0    0    0  0.00000000000E+00  0.00000000000E+00  0.31749769856E+04  0.31749769856E+04  0.00000000000E+00 0.  1.
         22   -1    0    0    0    0 -0.00000000000E+00 -0.00000000000E+00 -0.22728333342E+03  0.22728333342E+03  0.00000000000E+00 0.  1.
        -24    2    1    2    0    0 -0.32316083912E+02  0.33617898314E+02 -0.20500077711E+03  0.22525959551E+03  0.80883090850E+02 0.  0.
         25    2    1    2    0    0  0.77924785365E+02 -0.21842969266E+02  0.47730796643E+03  0.50002321178E+03  0.12510367711E+03 0.  0.
         24    2    1    2    0    0 -0.45608701453E+02 -0.11774929048E+02  0.26753864629E+04  0.26769775117E+04  0.79354079795E+02 0.  0.
        -13    1    5    5    0    0 -0.63098852510E+02  0.10491804103E+02  0.18467971446E+04  0.18479045529E+04  0.00000000000E+00 0.  1.
         14    1    5    5    0    0  0.17490151058E+02 -0.22266733150E+02  0.82858931827E+03  0.82907295887E+03  0.00000000000E+00 0. -1.
         13    1    3    3    0    0  0.26790359139E+02  0.12299143720E+02 -0.50558091134E+02  0.58524463758E+02  0.00000000000E+00 0. -1.
        -14    1    3    3    0    0 -0.59106443051E+02  0.21318754595E+02 -0.15444268598E+03  0.16673513175E+03  0.00000000000E+00 0.  1.
          5    1    4    4  501    0  0.67399224479E+02  0.41318198020E+02  0.32968777269E+03  0.33905950630E+03  0.41800000000E+01 0. -1.
         -5    1    4    4    0  501  0.10525560886E+02 -0.63161167286E+02  0.14762019373E+03  0.16096370548E+03  0.41800000000E+01 0. -1.
</event>
<event>
11    1  0.7577197E-009  0.1433878E+03  0.7561462E-02  0.1103833E+00
         22   -1    0    0    0    0  0.00000000000E+00  0.00000000000E+00  0.19711935604E+04  0.19711935604E+04  0.00000000000E+00 0.  1.
         22   -1    0    0    0    0 -0.00000000000E+00 -0.00000000000E+00 -0.55662188841E+03  0.55662188841E+03  0.00000000000E+00 0. -1.
         24    2    1    2    0    0 -0.13847009098E+02  0.69489711129E+02 -0.53545760469E+03  0.54606297459E+03  0.80307945984E+02 0.  0.
         25    2    1    2    0    0  0.47696522193E+02 -0.15607765024E+02  0.29642160300E+03  0.32562632397E+03  0.12509266796E+03 0.  0.
        -24    2    1    2    0    0 -0.33849513096E+02 -0.53881946105E+02  0.16536076737E+04  0.16561261503E+04  0.65470859365E+02 0.  0.
        -11    1    3    3    0    0 -0.50278353352E+01 -0.16833626503E+02 -0.14615379289E+03  0.14720591457E+03  0.00000000000E+00 0.  1.
         12    1    3    3    0    0 -0.88191737625E+01  0.86323337632E+02 -0.38930381180E+03  0.39885706002E+03  0.00000000000E+00 0. -1.
         11    1    5    5    0    0  0.39550521827E+00  0.11304526046E+01 -0.50616852842E-01  0.11987116145E+01  0.00000000000E+00 0. -1.
        -12    1    5    5    0    0 -0.34245018314E+02 -0.55012398710E+02  0.16536582905E+04  0.16549274386E+04  0.00000000000E+00 0.  1.
          5    1    4    4  501    0 -0.15590725579E+02 -0.51882125699E+02  0.18137453361E+03  0.18933837311E+03  0.41800000000E+01 0. -1.
         -5    1    4    4    0  501  0.63287247772E+02  0.36274360675E+02  0.11504706939E+03  0.13628795085E+03  0.41800000000E+01 0. -1.
</event>
<event>
11    1  0.7577197E-009  0.1313544E+03  0.7561462E-02  0.1117616E+00
         22   -1    0    0    0    0  0.00000000000E+00  0.00000000000E+00  0.27358534707E+03  0.27358534707E+03  0.00000000000E+00 0.  1.
         22   -1    0    0    0    0 -0.00000000000E+00 -0.00000000000E+00 -0.63806859436E+03  0.63806859436E+03  0.00000000000E+00 0. -1.
        -24    2    1    2    0    0 -0.47143196812E+01  0.29216595010E+02 -0.54608080428E+03  0.55270892463E+03  0.80044214812E+02 0.  0.
         25    2    1    2    0    0  0.29229775039E+02  0.51927169018E+01 -0.27183865543E+02  0.13140653966E+03  0.12508945624E+03 0.  0.
         24    2    1    2    0    0 -0.24515455358E+02 -0.34409311912E+02  0.20878142253E+03  0.22753847714E+03  0.79994174080E+02 0.  0.
        -11    1    5    5    0    0 -0.42659276474E+01 -0.43269058993E+02  0.46124741877E+02  0.63386918351E+02  0.00000000000E+00 0.  1.
         12    1    5    5    0    0 -0.20249527710E+02  0.88597470809E+01  0.16265668066E+03  0.16415155879E+03  0.00000000000E+00 0. -1.
         11    1    3    3    0    0  0.13478878610E+02  0.49438102475E+02 -0.44816768318E+03  0.45108766154E+03  0.00000000000E+00 0. -1.
        -12    1    3    3    0    0 -0.18193198292E+02 -0.20221507465E+02 -0.97913121101E+02  0.10162126309E+03  0.00000000000E+00 0.  1.
          5    1    4    4  501    0 -0.34576138435E+02  0.35706510965E+02 -0.33793017352E+02  0.60248690410E+02  0.41800000000E+01 0. -1.
         -5    1    4    4    0  501  0.63805913474E+02 -0.30513794063E+02  0.66091518082E+01  0.71157849251E+02  0.41800000000E+01 0. -1.
</event>
<event>
11    1  0.7577197E-009  0.1440135E+03  0.7561462E-02  0.1103158E+00
         22   -1    0    0    0    0  0.00000000000E+00  0.00000000000E+00  0.23070536549E+04  0.23070536549E+04  0.00000000000E+00 0.  1.
         22   -1    0    0    0    0 -0.00000000000E+00 -0.00000000000E+00 -0.46846486340E+02  0.46846486340E+02  0.00000000000E+00 0.  1.
         24    2    1    2    0    0  0.15390412777E+01  0.24745384286E+02  0.40495392794E+02  0.93847109505E+02  0.80948751895E+02 0.  0.
         25    2    1    2    0    0 -0.49115118000E+02 -0.76086229022E+02  0.30081510428E+03  0.33812129611E+03  0.12503949319E+03 0.  0.
        -24    2    1    2    0    0  0.47576076722E+02  0.51340844736E+02  0.19188966715E+04  0.19219317356E+04  0.82205809747E+02 0.  0.
        -11    1    3    3    0    0  0.76615446952E+01 -0.13228391097E+02 -0.18139474364E+02  0.23721933486E+02  0.00000000000E+00 0.  1.
         12    1    3    3    0    0 -0.61225034175E+01  0.37973775383E+02  0.58634867158E+02  0.70125176018E+02  0.00000000000E+00 0. -1.
         13    1    5    5    0    0  0.17124175551E+02  0.46727219686E+02  0.45542514612E+03  0.45813615244E+03  0.00000000000E+00 0. -1.
        -14    1    5    5    0    0  0.30451901171E+02  0.46136250496E+01  0.14634715254E+04  0.14637955832E+04  0.00000000000E+00 0.  1.
          5    1    4    4  501    0 -0.29255185868E+02 -0.32223255615E+02  0.12068394286E+02  0.45357718674E+02  0.41800000000E+01 0. -1.
         -5    1    4    4    0  501 -0.19859932131E+02 -0.43862973406E+02  0.28874670999E+03  0.29276357743E+03  0.41800000000E+01 0. -1.
</event>
<event>
11    1  0.7577197E-009  0.1276508E+03  0.7561462E-02  0.1122189E+00
         22   -1    0    0    0    0  0.00000000000E+00  0.00000000000E+00  0.32588421058E+03  0.32588421058E+03  0.00000000000E+00 0. -1.
         22   -1    0    0    0    0 -0.00000000000E+00 -0.00000000000E+00 -0.80483835446E+03  0.80483835446E+03  0.00000000000E+00 0. -1.
         24    2    1    2    0    0  0.65169722495E+01  0.29903618311E+02 -0.69350362610E+03  0.69846010210E+03  0.77217468836E+02 0.  0.
         25    2    1    2    0    0 -0.28191325742E+02 -0.15039491432E+02 -0.58080460592E+02  0.14157034945E+03  0.12509151367E+03 0.  0.
        -24    2    1    2    0    0  0.21674353492E+02 -0.14864126878E+02  0.27262994281E+03  0.29069211348E+03  0.97386340197E+02 0.  0.
        -13    1    3    3    0    0 -0.15766816669E+02  0.15484077917E+02 -0.53208029026E+02  0.57614612119E+02  0.00000000000E+00 0.  1.
         14    1    3    3    0    0  0.22283788919E+02  0.14419540394E+02 -0.64029559707E+03  0.64084548998E+03  0.00000000000E+00 0. -1.
         13    1    5    5    0    0  0.50198991679E+02 -0.33707396510E+02  0.21814526129E+03  0.22637023296E+03  0.00000000000E+00 0. -1.
        -14    1    5    5    0    0 -0.28524638187E+02  0.18843269632E+02  0.54484681519E+02  0.64321880526E+02  0.00000000000E+00 0.  1.
          5    1    4    4  501    0  0.13039508509E+02 -0.62661924599E+02 -0.41164134258E+02  0.76213541617E+02  0.41800000000E+01 0. -1.
         -5    1    4    4    0  501 -0.41230834251E+02  0.47622433167E+02 -0.16916326334E+02  0.65356807835E+02  0.41800000000E+01 0. -1.
</event>
<event>
11    1  0.7577197E-009  0.4663856E+03  0.7561462E-02  0.9471938E-01
         22   -1    0    0    0    0  0.00000000000E+00  0.00000000000E+00  0.28470362530E+03  0.28470362530E+03  0.00000000000E+00 0.  1.
         22   -1    0    0    0    0 -0.00000000000E+00 -0.00000000000E+00 -0.12198989559E+04  0.12198989559E+04  0.00000000000E+00 0.  1.
        -24    2    1    2    0    0 -0.59662872462E+02 -0.45421436655E+03 -0.84944556460E+03  0.96852631312E+03  0.81333282577E+02 0.  0.
         25    2    1    2    0    0  0.48862006692E+02  0.41892106150E+03 -0.73772978820E+02  0.44606305817E+03  0.12508975974E+03 0.  0.
         24    2    1    2    0    0  0.10800865770E+02  0.35293305045E+02 -0.11976787160E+02  0.90013209902E+02  0.81219815586E+02 0.  0.
        -13    1    5    5    0    0  0.44766267397E+02  0.10801383971E+02  0.13444075197E+01  0.46070554848E+02  0.00000000000E+00 0.  1.
         14    1    5    5    0    0 -0.33965401627E+02  0.24491921074E+02 -0.13321194680E+02  0.43942655055E+02  0.00000000000E+00 0. -1.
         13    1    3    3    0    0 -0.90778243070E+01 -0.15515154512E+03 -0.36840614695E+03  0.39984684312E+03  0.00000000000E+00 0. -1.
        -14    1    3    3    0    0 -0.50585048155E+02 -0.29906282143E+03 -0.48103941765E+03  0.56867946999E+03  0.00000000000E+00 0.  1.
          5    1    4    4  501    0  0.11047454698E+02  0.32239358774E+03 -0.70129189692E+01  0.32268610925E+03  0.41800000000E+01 0.  1.
         -5    1    4    4    0  501  0.37814551994E+02  0.96527473760E+02 -0.66760059851E+02  0.12337694892E+03  0.41800000000E+01 0.  1.
</event>
<event>
11    1  0.7577197E-009  0.1516972E+03  0.7561462E-02  0.1095157E+00
         22   -1    0    0    0    0  0.00000000000E+00  0.00000000000E+00  0.23919283972E+03  0.23919283972E+03  0.00000000000E+00 0. -1.
         22   -1    0    0    0    0 -0.00000000000E+00 -0.00000000000E+00 -0.11623621492E+04  0.11623621492E+04  0.00000000000E+00 0. -1.
        -24    2    1    2    0    0 -0.27853229985E+02 -0.21664258975E+02 -0.97658036772E+03  0.98070907575E+03  0.82679707955E+02 0.  0.
         25    2    1    2    0    0 -0.60532931114E+02  0.25052388837E+02 -0.13544682481E+03  0.19566846372E+03  0.12509375447E+03 0.  0.
         24    2    1    2    0    0  0.88386161099E+02 -0.33881298620E+01  0.18885788309E+03  0.22517744942E+03  0.84935215448E+02 0.  0.
        -11    1    5    5    0    0  0.35132084638E+02 -0.17502839711E+02  0.13721207450E+02  0.41579854531E+02  0.00000000000E+00 0.  1.
         12    1    5    5    0    0  0.53254076462E+02  0.14114709849E+02  0.17513667564E+03  0.18359759489E+03  0.00000000000E+00 0. -1.
         13    1    3    3    0    0 -0.57920553267E+01  0.25754023000E+01 -0.84778589016E+03  0.84780958720E+03  0.00000000000E+00 0. -1.
        -14    1    3    3    0    0 -0.22061174658E+02 -0.24239661275E+02 -0.12879447756E+03  0.13289948855E+03  0.00000000000E+00 0.  1.
          5    1    4    4  501    0 -0.88124852464E+02  0.49753368816E+02 -0.81015453019E+02  0.12970105381E+03  0.41800000000E+01 0. -1.
         -5    1    4    4    0  501  0.27591921350E+02 -0.24700979979E+02 -0.54431371792E+02  0.65967409915E+02  0.41800000000E+01 0. -1.
</event>
<event>
11    1  0.7577197E-009  0.1609297E+03  0.7561462E-02  0.1086206E+00
         22   -1    0    0    0    0  0.00000000000E+00  0.00000000000E+00  0.26158883837E+03  0.26158883837E+03  0.00000000000E+00 0. -1.
         22   -1    0    0    0    0 -0.00000000000E+00 -0.00000000000E+00 -0.83302661471E+03  0.83302661471E+03  0.00000000000E+00 0.  1.
         24    2    1    2    0    0  0.73838972397E+02  0.56749011944E+02 -0.53727021517E+03  0.55120124089E+03  0.80565995643E+02 0.  0.
         25    2    1    2    0    0 -0.77761631570E+02 -0.12615282630E+03 -0.24269625971E+03  0.31066100259E+03  0.12508947647E+03 0.  0.
        -24    2    1    2    0    0  0.39226591726E+01  0.69403814359E+02  0.20852869853E+03  0.23275320960E+03  0.76534709552E+02 0.  0.
        -11    1    3    3    0    0  0.64693291670E+02  0.14479699001E+02 -0.18968774541E+03  0.20093860861E+03  0.00000000000E+00 0.  1.
         12    1    3    3    0    0  0.91456807271E+01  0.42269312943E+02 -0.34758246976E+03  0.35026263228E+03  0.00000000000E+00 0. -1.
         11    1    5    5    0    0 -0.14345739844E+02  0.80659489322E+02  0.16400038990E+03  0.18332452470E+03  0.00000000000E+00 0. -1.
        -12    1    5    5    0    0  0.18268399016E+02 -0.11255674963E+02  0.44528308632E+02  0.49428684902E+02  0.00000000000E+00 0.  1.
          5    1    4    4  501    0 -0.80009000408E+02 -0.12260655838E+03 -0.12424805522E+03  0.19206472849E+03  0.41800000000E+01 0. -1.
         -5    1    4    4    0  501  0.22473688382E+01 -0.35462679234E+01 -0.11844820449E+03  0.11859627410E+03  0.41800000000E+01 0. -1.
</event>
<event>
11    1  0.9387424E-009  0.2192514E+03  0.7561462E-02  0.1041687E+00
         22   -1    0    0    0    0  0.00000000000E+00  0.00000000000E+00  0.85226060093E+03  0.85226060093E+03  0.00000000000E+00 0. -1.
         22   -1    0    0    0    0 -0.00000000000E+00 -0.00000000000E+00 -0.77541281456E+03  0.77541281456E+03  0.00000000000E+00 0.  1.
         24    2    1    2    0    0  0.39520648727E+02  0.34566758777E+02 -0.60729047140E+03  0.61544348876E+03  0.84924841597E+02 0.  0.
         25    2    1    2    0    0  0.11076524037E+03 -0.13554785157E+03 -0.75046887099E+02  0.22786397798E+03  0.12509116139E+03 0.  0.
        -24    2    1    2    0    0 -0.15028588909E+03  0.10098109280E+03  0.75918514487E+03  0.78436594874E+03  0.78005306245E+02 0.  0.
        -11    1    3    3    0    0  0.24369306064E+02  0.13628074276E+01 -0.52326278446E+03  0.52383171145E+03  0.00000000000E+00 0.  1.
         12    1    3    3    0    0  0.15151342663E+02  0.33203951349E+02 -0.84027686940E+02  0.91611777311E+02  0.00000000000E+00 0. -1.
         11    1    5    5    0    0 -0.13013383199E+03  0.66464877101E+02  0.68163880846E+03  0.69712542581E+03  0.00000000000E+00 0. -1.
        -12    1    5    5    0    0 -0.20152057105E+02  0.34516215696E+02  0.77546336409E+02  0.87240522935E+02  0.00000000000E+00 0.  1.
          5    1    4    4  501    0 -0.96108832818E+01 -0.81788965166E+02 -0.38438484324E+02  0.90976883753E+02  0.41800000000E+01 0.  1.
         -5    1    4    4    0  501  0.12037612365E+03 -0.53758886408E+02 -0.36608402775E+02  0.13688709423E+03  0.41800000000E+01 0.  1.
</event>
<event>
11    1  0.7577197E-009  0.2964694E+03  0.7561462E-02  0.1001697E+00
         22   -1    0    0    0    0  0.00000000000E+00  0.00000000000E+00  0.25909081362E+03  0.25909081362E+03  0.00000000000E+00 0.  1.
         22   -1    0    0    0    0 -0.00000000000E+00 -0.00000000000E+00 -0.87744715690E+03  0.87744715690E+03  0.00000000000E+00 0.  1.
        -24    2    1    2    0    0  0.40990802555E+02 -0.38534359589E+02 -0.14724487358E+03  0.17662988925E+03  0.79698947422E+02 0.  0.
         25    2    1    2    0    0 -0.28013211070E+03  0.14489641849E+03 -0.57422179677E+03  0.66696967963E+03  0.12509560391E+03 0.  0.
         24    2    1    2    0    0  0.23914130815E+03 -0.10636205890E+03  0.10311032707E+03  0.29293840164E+03  0.81729522026E+02 0.  0.
        -11    1    5    5    0    0  0.21811481688E+03 -0.64693957627E+02  0.84515302569E+02  0.24269779123E+03  0.00000000000E+00 0.  1.
         12    1    5    5    0    0  0.21026491261E+02 -0.41668101270E+02  0.18595024498E+02  0.50240610409E+02  0.00000000000E+00 0. -1.
         13    1    3    3    0    0 -0.52040951673E+01 -0.41303711177E+02 -0.32212684638E+02  0.52637783151E+02  0.00000000000E+00 0. -1.
        -14    1    3    3    0    0  0.46194897722E+02  0.27693515879E+01 -0.11503218894E+03  0.12399210610E+03  0.00000000000E+00 0.  1.
          5    1    4    4  501    0 -0.28744466688E+03  0.14605971743E+03 -0.57410991406E+03  0.65846605334E+03  0.41800000000E+01 0. -1.
         -5    1    4    4    0  501  0.73125561806E+01 -0.11632989466E+01 -0.11188271064E+00  0.85036262897E+01  0.41800000000E+01 0. -1.
</event>
<event>
11    1  0.7577197E-009  0.1393940E+03  0.7561462E-02  0.1108237E+00
         22   -1    0    0    0    0  0.00000000000E+00  0.00000000000E+00  0.11597240329E+04  0.11597240329E+04  0.00000000000E+00 0. -1.
         22   -1    0    0    0    0 -0.00000000000E+00 -0.00000000000E+00 -0.44886885299E+03  0.44886885299E+03  0.00000000000E+00 0.  1.
         24    2    1    2    0    0 -0.19682019986E+02  0.40924714115E+02 -0.40344997576E+03  0.41379098325E+03  0.79930474421E+02 0.  0.
         25    2    1    2    0    0  0.79956208822E+02 -0.35130124159E+02  0.11550171503E+03  0.19135158406E+03  0.12509061354E+03 0.  0.
        -24    2    1    2    0    0 -0.60274188837E+02 -0.57945899556E+01  0.99880344061E+03  0.10034503186E+04  0.75084443962E+02 0.  0.
        -11    1    3    3    0    0 -0.38989256157E+02  0.12423618895E+02 -0.33164880869E+03  0.33416379323E+03  0.00000000000E+00 0.  1.
         12    1    3    3    0    0  0.19307236171E+02  0.28501095219E+02 -0.71801167071E+02  0.79627190017E+02  0.00000000000E+00 0. -1.
         13    1    5    5    0    0 -0.49522445114E+02 -0.11048561458E+02  0.97898616776E+03  0.98030018870E+03  0.00000000000E+00 0. -1.
        -14    1    5    5    0    0 -0.10751743723E+02  0.52539715019E+01  0.19817272846E+02  0.23150129863E+02  0.00000000000E+00 0.  1.
          5    1    4    4  501    0  0.74438021534E+02  0.24057438540E+02  0.23595401171E+02  0.81816836626E+02  0.41800000000E+01 0. -1.
         -5    1    4    4    0  501  0.55181872880E+01 -0.59187562699E+02  0.91906313858E+02  0.10953474744E+03  0.41800000000E+01 0. -1.
</event>
<event>
11    1  0.7577197E-009  0.1496726E+03  0.7561462E-02  0.1097214E+00
         22   -1    0    0    0    0  0.00000000000E+00  0.00000000000E+00  0.82892448312E+03  0.82892448312E+03  0.00000000000E+00 0. -1.
         22   -1    0    0    0    0 -0.00000000000E+00 -0.00000000000E+00 -0.70910257154E+03  0.70910257154E+03  0.00000000000E+00 0. -1.
         24    2    1    2    0    0 -0.76979956526E+02  0.19278852543E+02 -0.60233402676E+03  0.61274117238E+03  0.79673563258E+02 0.  0.
         25    2    1    2    0    0  0.12652529894E+03 -0.13630921045E+02 -0.17939579764E+02  0.17933930270E+03  0.12508518573E+03 0.  0.
        -24    2    1    2    0    0 -0.49545342415E+02 -0.56479314979E+01  0.74009551811E+03  0.74594657958E+03  0.78792661992E+02 0.  0.
        -11    1    3    3    0    0  0.62664968990E+01 -0.25447814669E+01 -0.32435757454E+01  0.75010452416E+01  0.00000000000E+00 0.  1.
         12    1    3    3    0    0 -0.83246453425E+02  0.21823634009E+02 -0.59909045101E+03  0.60524012714E+03  0.00000000000E+00 0. -1.
         11    1    5    5    0    0 -0.57829030140E+02  0.86372348950E+01  0.70193945961E+03  0.70437050159E+03  0.00000000000E+00 0. -1.
        -12    1    5    5    0    0  0.82836877243E+01 -0.14285166393E+02  0.38156058500E+02  0.41576077995E+02  0.00000000000E+00 0.  1.
          5    1    4    4  501    0  0.83983641481E+02 -0.51235061050E+02 -0.53649672766E+02  0.11213404169E+03  0.41800000000E+01 0.  1.
         -5    1    4    4    0  501  0.42541657461E+02  0.37604140005E+02  0.35710093002E+02  0.67205261009E+02  0.41800000000E+01 0.  1.
</event>
<event>
11    1  0.7577197E-009  0.1298362E+03  0.7561462E-02  0.1119470E+00
         22   -1    0    0    0    0  0.00000000000E+00  0.00000000000E+00  0.45427015808E+03  0.45427015808E+03  0.00000000000E+00 0.  1.
         22   -1    0    0    0    0 -0.00000000000E+00 -0.00000000000E+00 -0.72339893712E+03  0.72339893712E+03  0.00000000000E+00 0. -1.
         24    2    1    2    0    0 -0.18243822165E+02 -0.29214616119E+02 -0.67876186733E+03  0.68447420360E+03  0.81246120034E+02 0.  0.
         25    2    1    2    0    0  0.27846076814E+02  0.41849177479E+02  0.86764052120E+02  0.16031572494E+03  0.12508546388E+03 0.  0.
        -24    2    1    2    0    0 -0.96022546494E+01 -0.12634561360E+02  0.32286903616E+03  0.33287916665E+03  0.79449919084E+02 0.  0.
        -11    1    3    3    0    0  0.95865407477E+01 -0.51276690197E+01 -0.10224183534E+02  0.14924097360E+02  0.00000000000E+00 0.  1.
         12    1    3    3    0    0 -0.27830362912E+02 -0.24086947100E+02 -0.66853768379E+03  0.66955010624E+03  0.00000000000E+00 0. -1.
         11    1    5    5    0    0 -0.20046814012E+02  0.20565131643E+01  0.16678960559E+02  0.26158970235E+02  0.00000000000E+00 0. -1.
        -12    1    5    5    0    0  0.10444559363E+02 -0.14691074524E+02  0.30619007560E+03  0.30672019642E+03  0.00000000000E+00 0.  1.
          5    1    4    4  501    0 -0.47305144245E+02  0.31816442006E+02  0.24806908847E+02  0.62313062679E+02  0.41800000000E+01 0.  1.
         -5    1    4    4    0  501  0.75151221059E+02  0.10032735473E+02  0.61957143273E+02  0.98002662261E+02  0.41800000000E+01 0.  1.
</event>
<event>
11    1  0.7577197E-009  0.1984305E+03  0.7561462E-02  0.1055639E+00
         22   -1    0    0    0    0  0.00000000000E+00  0.00000000000E+00  0.93295722466E+03  0.93295722466E+03  0.00000000000E+00 0. -1.
         22   -1    0    0    0    0 -0.00000000000E+00 -0.00000000000E+00 -0.17780531129E+03  0.17780531129E+03  0.00000000000E+00 0. -1.
         24    2    1    2    0    0  0.15132494342E+03  0.31943185331E+02 -0.66667447911E+02  0.19957485570E+03  0.10707926422E+03 0.  0.
         25    2    1    2    0    0 -0.13491762239E+03 -0.85128550175E+02  0.21106208849E+03  0.29265028703E+03  0.12508936971E+03 0.  0.
        -24    2    1    2    0    0 -0.16407321024E+02  0.53185364844E+02  0.61075727280E+03  0.61853739322E+03  0.80412544516E+02 0.  0.
        -13    1    3    3    0    0  0.36549631437E+02 -0.23124184722E+02  0.17830670780E+02  0.46781794511E+02  0.00000000000E+00 0.  1.
         14    1    3    3    0    0  0.11477531198E+03  0.55067370053E+02 -0.84498118691E+02  0.15279306119E+03  0.00000000000E+00 0. -1.
         13    1    5    5    0    0 -0.89908136602E+01  0.72298252167E+02  0.53924884378E+03  0.54414813012E+03  0.00000000000E+00 0. -1.
        -14    1    5    5    0    0 -0.74165073637E+01 -0.19112887323E+02  0.71508429022E+02  0.74389263099E+02  0.00000000000E+00 0.  1.
          5    1    4    4  501    0 -0.99691584790E+02 -0.39826883648E+02  0.44243196911E+02  0.11618745893E+03  0.41800000000E+01 0. -1.
         -5    1    4    4    0  501 -0.35226037603E+02 -0.45301666527E+02  0.16681889158E+03  0.17646282810E+03  0.41800000000E+01 0. -1.
</event>
<event>
11    1  0.7577197E-009  0.1403876E+03  0.7561462E-02  0.1107126E+00
         22   -1    0    0    0    0  0.00000000000E+00  0.00000000000E+00  0.30353285408E+03  0.30353285408E+03  0.00000000000E+00 0. -1.
         22   -1    0    0    0    0 -0.00000000000E+00 -0.00000000000E+00 -0.71130224698E+03  0.71130224698E+03  0.00000000000E+00 0.  1.
        -24    2    1    2    0    0  0.29539958216E+02 -0.15013530311E+01 -0.55032590363E+03  0.55685939270E+03  0.79742835661E+02 0.  0.
         25    2    1    2    0    0 -0.14510304129E+02  0.63750567414E+02 -0.11430827817E+03  0.18162832762E+03  0.12509109947E+03 0.  0.
         24    2    1    2    0    0 -0.15029654086E+02 -0.62249214383E+02  0.25686478891E+03  0.27634738073E+03  0.79293756774E+02 0.  0.
        -11    1    5    5    0    0 -0.62622891740E+01 -0.15828161697E+02  0.19975109136E+01  0.17138757781E+02  0.00000000000E+00 0.  1.
         12    1    5    5    0    0 -0.87673649123E+01 -0.46421052685E+02  0.25486727800E+03  0.25920862295E+03  0.00000000000E+00 0. -1.
         13    1    3    3    0    0  0.45664056181E+02 -0.19392972516E+02 -0.21413918384E+03  0.21981101761E+03  0.00000000000E+00 0. -1.
        -14    1    3    3    0    0 -0.16124097965E+02  0.17891619485E+02 -0.33618671980E+03  0.33704837509E+03  0.00000000000E+00 0.  1.
          5    1    4    4  501    0 -0.20889423840E+01  0.98981784969E+02 -0.60873336323E+02  0.11629614315E+03  0.41800000000E+01 0.  1.
         -5    1    4    4    0  501 -0.12421361745E+02 -0.35231217556E+02 -0.53434941849E+02  0.65332184476E+02  0.41800000000E+01 0.  1.
</event>
<event>
11    1  0.7577197E-009  0.2013686E+03  0.7561462E-02  0.1053560E+00
         22   -1    0    0    0    0  0.00000000000E+00  0.00000000000E+00  0.95156421605E+03  0.95156421605E+03  0.00000000000E+00 0.  1.
         22   -1    0    0    0    0 -0.00000000000E+00 -0.00000000000E+00 -0.30703029434E+03  0.30703029434E+03  0.00000000000E+00 0.  1.
        -24    2    1    2    0    0 -0.13644934425E+03  0.14988117495E+02 -0.19537371028E+03  0.25139095949E+03  0.78634983506E+02 0.  0.
         25    2    1    2    0    0  0.25969253178E+03 -0.84293148547E+02  0.23651530338E+03  0.38227266262E+03  0.12508938363E+03 0.  0.
         24    2    1    2    0    0 -0.12324318753E+03  0.69305031052E+02  0.60339232861E+03  0.62493088828E+03  0.80400511803E+02 0.  0.
        -11    1    5    5    0    0 -0.12198091958E+03  0.37388221424E+02  0.42633616055E+03  0.44501656782E+03  0.00000000000E+00 0.  1.
         12    1    5    5    0    0 -0.12622679446E+01  0.31916809628E+02  0.17705616807E+03  0.17991432046E+03  0.00000000000E+00 0. -1.
         13    1    3    3    0    0  0.87678573604E+01 -0.45648151903E+01 -0.23751046381E+02  0.25725960907E+02  0.00000000000E+00 0. -1.
        -14    1    3    3    0    0 -0.14521720161E+03  0.19552932685E+02 -0.17162266390E+03  0.22566499858E+03  0.00000000000E+00 0.  1.
          5    1    4    4  501    0  0.16111518346E+03 -0.46022941554E+02  0.63058739845E+02  0.17908124012E+03  0.41800000000E+01 0. -1.
         -5    1    4    4    0  501  0.98577348318E+02 -0.38270206993E+02  0.17345656353E+03  0.20319142250E+03  0.41800000000E+01 0. -1.
</event>
<event>
11    1  0.7577197E-009  0.1418240E+03  0.7561462E-02  0.1105539E+00
         22   -1    0    0    0    0  0.00000000000E+00  0.00000000000E+00  0.18696453700E+03  0.18696453700E+03  0.00000000000E+00 0. -1.
         22   -1    0    0    0    0 -0.00000000000E+00 -0.00000000000E+00 -0.98642096769E+03  0.98642096769E+03  0.00000000000E+00 0. -1.
        -24    2    1    2    0    0  0.64569278495E+02 -0.22138560288E+02 -0.86792032413E+03  0.87419874509E+03  0.79236666445E+02 0.  0.
         25    2    1    2    0    0 -0.38191577432E+02  0.30484248948E+02 -0.57883318798E+02  0.14625720847E+03  0.12511117622E+03 0.  0.
         24    2    1    2    0    0 -0.26377701063E+02 -0.83456886594E+01  0.12634721223E+03  0.15292955112E+03  0.81598994684E+02 0.  0.
        -13    1    5    5    0    0  0.20641573685E+02 -0.27018733030E+00  0.32330247728E+01  0.20894975822E+02  0.00000000000E+00 0.  1.
         14    1    5    5    0    0 -0.47019274748E+02 -0.80755013291E+01  0.12311418746E+03  0.13203457530E+03  0.00000000000E+00 0. -1.
         13    1    3    3    0    0 -0.33035782426E+01  0.19366724207E+02 -0.31157867412E+03  0.31219745963E+03  0.00000000000E+00 0. -1.
        -14    1    3    3    0    0  0.67872856737E+02 -0.41505284495E+02 -0.55634165001E+03  0.56200128546E+03  0.00000000000E+00 0.  1.
          5    1    4    4  501    0 -0.34830340229E+02  0.72046535407E+02 -0.65704926132E+02  0.10362656794E+03  0.41800000000E+01 0.  1.
         -5    1    4    4    0  501 -0.33612372036E+01 -0.41562286459E+02  0.78216073340E+01  0.42630640536E+02  0.41800000000E+01 0.  1.
</event>
<event>
11    1  0.7577197E-009  0.2354997E+03  0.7561462E-02  0.1031920E+00
         22   -1    0    0    0    0  0.00000000000E+00  0.00000000000E+00  0.43997150135E+03  0.43997150135E+03  0.00000000000E+00 0.  1.
         22   -1    0    0    0    0 -0.00000000000E+00 -0.00000000000E+00 -0.74722201680E+03  0.74722201680E+03  0.00000000000E+00 0.  1.
         24    2    1    2    0    0 -0.58135453372E+02 -0.16258727632E+02 -0.44758228559E+03  0.45852453866E+03  0.79188212634E+02 0.  0.
         25    2    1    2    0    0  0.22858319560E+03  0.10763742218E+03 -0.18817646059E+03  0.33896023800E+03  0.12509025005E+03 0.  0.
        -24    2    1    2    0    0 -0.17044774223E+03 -0.91378694551E+02  0.32850823073E+03  0.38970874149E+03  0.80949038819E+02 0.  0.
        -11    1    3    3    0    0 -0.44047206030E+02 -0.17131098639E+02 -0.43994377494E+03  0.44247503433E+03  0.00000000000E+00 0.  1.
         12    1    3    3    0    0 -0.14088247342E+02  0.87237100682E+00 -0.76385106505E+01  0.16049504332E+02  0.00000000000E+00 0. -1.
         13    1    5    5    0    0  0.33548711687E+01 -0.23500277555E+00  0.43719942816E+02  0.43849102462E+02  0.00000000000E+00 0. -1.
        -14    1    5    5    0    0 -0.17380261339E+03 -0.91143691775E+02  0.28478828791E+03  0.34585963902E+03  0.00000000000E+00 0.  1.
          5    1    4    4  501    0  0.20110573634E+02  0.56729918237E+02 -0.75175021262E+02  0.96392297497E+02  0.41800000000E+01 0.  1.
         -5    1    4    4    0  501  0.20847262196E+03  0.50907503945E+02 -0.11300143933E+03  0.24256794050E+03  0.41800000000E+01 0.  1.
</event>
<event>
11    1  0.7577197E-009  0.2931304E+03  0.7561462E-02  0.1003141E+00
         22   -1    0    0    0    0  0.00000000000E+00  0.00000000000E+00  0.22317729365E+03  0.22317729365E+03  0.00000000000E+00 0. -1.
         22   -1    0    0    0    0 -0.00000000000E+00 -0.00000000000E+00 -0.59352573545E+03  0.59352573545E+03  0.00000000000E+00 0. -1.
         24    2    1    2    0    0  0.64722829870E+02 -0.20326794881E+02 -0.17742051587E+03  0.20650064317E+03  0.81007733481E+02 0.  0.
         25    2    1    2    0    0  0.23223684639E+03 -0.35840349746E+02 -0.81882797287E+02  0.27849662369E+03  0.12504836433E+03 0.  0.
        -24    2    1    2    0    0 -0.29695967626E+03  0.56167144627E+02 -0.11104512864E+03  0.33170576224E+03  0.79736407280E+02 0.  0.
        -11    1    3    3    0    0  0.67874525536E+02  0.15410787392E+02 -0.11120764683E+03  0.13119292777E+03  0.00000000000E+00 0.  1.
         12    1    3    3    0    0 -0.31516956664E+01 -0.35737582272E+02 -0.66212869040E+02  0.75307715400E+02  0.00000000000E+00 0. -1.
         13    1    5    5    0    0 -0.30079137435E+03  0.51956970207E+02 -0.10362951360E+03  0.32235702835E+03  0.00000000000E+00 0. -1.
        -14    1    5    5    0    0  0.38316980887E+01  0.42101744200E+01 -0.74156150416E+01  0.93487338894E+01  0.00000000000E+00 0.  1.
          5    1    4    4  501    0  0.13164457193E+03 -0.16524164815E+01  0.17595018214E+02  0.13289123698E+03  0.41800000000E+01 0. -1.
         -5    1    4    4    0  501  0.10059227446E+03 -0.34187933265E+02 -0.99477815502E+02  0.14560538671E+03  0.41800000000E+01 0. -1.
</event>
<event>
11    1  0.7577197E-009  0.1469791E+03  0.7561462E-02  0.1100006E+00
         22   -1    0    0    0    0  0.00000000000E+00  0.00000000000E+00  0.97911629710E+03  0.97911629710E+03  0.00000000000E+00 0. -1.
         22   -1    0    0    0    0 -0.00000000000E+00 -0.00000000000E+00 -0.50802124929E+03  0.50802124929E+03  0.00000000000E+00 0. -1.
        -24    2    1    2    0    0  0.19875360338E+02  0.53836048877E+02 -0.48199469235E+03  0.49338312761E+03  0.88400662031E+02 0.  0.
         25    2    1    2    0    0 -0.36137098935E+02  0.34530148646E+02  0.28850351530E+03  0.31840142095E+03  0.12508783089E+03 0.  0.
         24    2    1    2    0    0  0.16261738597E+02 -0.88366197523E+02  0.66458622486E+03  0.67535299783E+03  0.79710679262E+02 0.  0.
        -13    1    5    5    0    0  0.10313508129E+02  0.12753488276E+02  0.54491693810E+02  0.56906630610E+02  0.00000000000E+00 0.  1.
         14    1    5    5    0    0  0.59482304682E+01 -0.10111968580E+03  0.61009453105E+03  0.61844636722E+03  0.00000000000E+00 0. -1.
         11    1    3    3    0    0  0.52955878597E+02  0.16400917824E+02 -0.25327042211E+03  0.25926670033E+03  0.00000000000E+00 0. -1.
        -12    1    3    3    0    0 -0.33080518260E+02  0.37435131053E+02 -0.22872427024E+03  0.23411642728E+03  0.00000000000E+00 0.  1.
          5    1    4    4  501    0 -0.58769772612E+02 -0.76832494947E+01  0.58342226156E+02  0.83271881500E+02  0.41800000000E+01 0.  1.
         -5    1    4    4    0  501  0.22632673678E+02  0.42213398140E+02  0.23016128914E+03  0.23512953945E+03  0.41800000000E+01 0.  1.
</event>
<event>
11    1  0.7577197E-009  0.1339532E+03  0.7561462E-02  0.1114505E+00
         22   -1    0    0    0    0  0.00000000000E+00  0.00000000000E+00  0.46473794649E+03  0.46473794649E+03  0.00000000000E+00 0.  1.
         22   -1    0    0    0    0 -0.00000000000E+00 -0.00000000000E+00 -0.56541751277E+03  0.56541751277E+03  0.00000000000E+00 0. -1.
        -24    2    1    2    0    0 -0.43348336283E+02 -0.35367008102E+02 -0.52419018100E+03  0.53328401927E+03  0.80539405456E+02 0.  0.
         25    2    1    2    0    0 -0.11496845740E+02  0.43040439743E+02  0.12511662978E+03  0.18244564943E+03  0.12509031550E+03 0.  0.
         24    2    1    2    0    0  0.54845182023E+02 -0.76734316409E+01  0.29839398494E+03  0.31442579056E+03  0.82205425479E+02 0.  0.
        -11    1    5    5    0    0  0.98862173818E+01 -0.34858023318E+02  0.19619902911E+03  0.19951661110E+03  0.00000000000E+00 0.  1.
         12    1    5    5    0    0  0.44958964641E+02  0.27184591677E+02  0.10219495583E+03  0.11490917946E+03  0.00000000000E+00 0. -1.
         13    1    3    3    0    0 -0.28573515999E+02 -0.59904811146E+02 -0.42070525589E+03  0.42590837577E+03  0.00000000000E+00 0. -1.
        -14    1    3    3    0    0 -0.14774820285E+02  0.24537803044E+02 -0.10348492510E+03  0.10737564350E+03  0.00000000000E+00 0.  1.
          5    1    4    4  501    0 -0.24529635188E+02 -0.13272233503E+02 -0.14186599803E+02  0.31568769355E+02  0.41800000000E+01 0. -1.
         -5    1    4    4    0  501  0.13032789449E+02  0.56312673246E+02  0.13930322958E+03  0.15087688007E+03  0.41800000000E+01 0. -1.
</event>
<event>
11    1  0.7577197E-009  0.1374963E+03  0.7561462E-02  0.1110387E+00
         22   -1    0    0    0    0  0.00000000000E+00  0.00000000000E+00  0.47895534024E+03  0.47895534024E+03  0.00000000000E+00 0. -1.
         22   -1    0    0    0    0 -0.00000000000E+00 -0.00000000000E+00 -0.68025972724E+03  0.68025972724E+03  0.00000000000E+00 0.  1.
        -24    2    1    2    0    0  0.16093663646E+02 -0.50768977009E+02 -0.50780855697E+03  0.51689528318E+03  0.80465571581E+02 0.  0.
         25    2    1    2    0    0 -0.51771246175E+01  0.89697245727E+02 -0.12704566328E+03  0.19965204724E+03  0.12509172994E+03 0.  0.
         24    2    1    2    0    0 -0.10916539028E+02 -0.38928268718E+02  0.43354983325E+03  0.44266773706E+03  0.79716288156E+02 0.  0.
        -13    1    5    5    0    0  0.75411180950E+01 -0.14150973759E+02  0.12102826884E+02  0.20089722224E+02  0.00000000000E+00 0.  1.
         14    1    5    5    0    0 -0.18457657123E+02 -0.24777294958E+02  0.42144700636E+03  0.42257801484E+03  0.00000000000E+00 0. -1.
         11    1    3    3    0    0  0.10177246442E+02 -0.50331781936E+02 -0.14134575345E+03  0.15038446275E+03  0.00000000000E+00 0. -1.
        -12    1    3    3    0    0  0.59164172039E+01 -0.43719507330E+00 -0.36646280352E+03  0.36651082043E+03  0.00000000000E+00 0.  1.
          5    1    4    4  501    0  0.59214704863E+02  0.53468100776E+02 -0.69888758697E+02  0.10614673836E+03  0.41800000000E+01 0.  1.
         -5    1    4    4    0  501 -0.64391829480E+02  0.36229144951E+02 -0.57156904581E+02  0.93505308881E+02  0.41800000000E+01 0.  1.
</event>
<event>
11    1  0.7577197E-009  0.1410016E+03  0.7561462E-02  0.1106445E+00
         22   -1    0    0    0    0  0.00000000000E+00  0.00000000000E+00  0.10061393490E+04  0.10061393490E+04  0.00000000000E+00 0. -1.
         22   -1    0    0    0    0 -0.00000000000E+00 -0.00000000000E+00 -0.47671718397E+02  0.47671718397E+02  0.00000000000E+00 0.  1.
         24    2    1    2    0    0  0.47734570107E+02 -0.35747172775E+02  0.56271094863E+02  0.11559838807E+03  0.81486818945E+02 0.  0.
         25    2    1    2    0    0 -0.82120058276E+02  0.44959256696E+02  0.42664662381E+03  0.45435693569E+03  0.12509134529E+03 0.  0.
        -24    2    1    2    0    0  0.34385488169E+02 -0.92120839214E+01  0.47554991189E+03  0.48385574360E+03  0.81862308973E+02 0.  0.
        -11    1    3    3    0    0  0.14834655694E+02 -0.55611504137E+02  0.50821245353E+02  0.76782194428E+02  0.00000000000E+00 0.  1.
         12    1    3    3    0    0  0.32899914414E+02  0.19864331362E+02  0.54498495100E+01  0.38816193639E+02  0.00000000000E+00 0. -1.
         13    1    5    5    0    0  0.30317073684E+02  0.27301760949E+02  0.36691702294E+03  0.36917829410E+03  0.00000000000E+00 0. -1.
        -14    1    5    5    0    0  0.40684144855E+01 -0.36513844870E+02  0.10863288895E+03  0.11467744951E+03  0.00000000000E+00 0.  1.
          5    1    4    4  501    0  0.33298348995E+02  0.12287924851E+02  0.11360435686E+03  0.11909322164E+03  0.41800000000E+01 0. -1.
         -5    1    4    4    0  501 -0.11541840727E+03  0.32671331845E+02  0.31304226695E+03  0.33526371405E+03  0.41800000000E+01 0. -1.
</event>
<event>
11    1  0.7577197E-009  0.1488477E+03  0.7561462E-02  0.1098062E+00
         22   -1    0    0    0    0  0.00000000000E+00  0.00000000000E+00  0.22199279930E+03  0.22199279930E+03  0.00000000000E+00 0.  1.
         22   -1    0    0    0    0 -0.00000000000E+00 -0.00000000000E+00 -0.30113899450E+03  0.30113899450E+03  0.00000000000E+00 0. -1.
        -24    2    1    2    0    0 -0.52995671958E+02 -0.31052351007E+02 -0.17819659406E+03  0.20512165729E+03  0.80920197766E+02 0.  0.
         25    2    1    2    0    0  0.11394791659E+03  0.60192338294E+02  0.76788212912E+01  0.17976106853E+03  0.12509129537E+03 0.  0.
         24    2    1    2    0    0 -0.60952244635E+02 -0.29139987286E+02  0.91371577564E+02  0.13824906797E+03  0.78738330078E+02 0.  0.
        -13    1    5    5    0    0 -0.72957034378E+02 -0.42564116629E+02  0.66292408267E+02  0.10737372250E+03  0.00000000000E+00 0.  1.
         14    1    5    5    0    0  0.12004789743E+02  0.13424129343E+02  0.25079169297E+02  0.30875345472E+02  0.00000000000E+00 0. -1.
         13    1    3    3    0    0 -0.33730417615E+02 -0.29341955730E+02 -0.18021321523E+03  0.18567577758E+03  0.00000000000E+00 0. -1.
        -14    1    3    3    0    0 -0.19265254343E+02 -0.17103952774E+01  0.20166211634E+01  0.19445879713E+02  0.00000000000E+00 0.  1.
          5    1    4    4  501    0  0.55976311110E+02 -0.23674453932E+02 -0.33736727740E+02  0.69638110062E+02  0.41800000000E+01 0.  1.
         -5    1    4    4    0  501  0.57971605483E+02  0.83866792225E+02  0.41415549031E+02  0.11012295847E+03  0.41800000000E+01 0.  1.
</event>
<event>
11    1  0.7577197E-009  0.1717034E+03  0.7561462E-02  0.1076559E+00
         22   -1    0    0    0    0  0.00000000000E+00  0.00000000000E+00  0.27929688990E+03  0.27929688990E+03  0.00000000000E+00 0.  1.
         22   -1    0    0    0    0 -0.00000000000E+00 -0.00000000000E+00 -0.75279311471E+03  0.75279311471E+03  0.00000000000E+00 0. -1.
         24    2    1    2    0    0 -0.20289780825E+02  0.10969820686E+03 -0.58112644174E+03  0.59904374512E+03  0.93274302399E+02 0.  0.
         25    2    1    2    0    0 -0.17756945028E+02 -0.17791193909E+03 -0.64547136731E+02  0.22755653659E+03  0.12509067638E+03 0.  0.
        -24    2    1    2    0    0  0.38046725853E+02  0.68213732237E+02  0.17217735366E+03  0.20548972289E+03  0.80500425385E+02 0.  0.
        -13    1    3    3    0    0  0.16452120159E+02  0.34886994623E+02 -0.60235383473E+02  0.71526750756E+02  0.00000000000E+00 0.  1.
         14    1    3    3    0    0 -0.36741900984E+02  0.74811212235E+02 -0.52089105826E+03  0.52751699436E+03  0.00000000000E+00 0. -1.
         11    1    5    5    0    0 -0.22071260557E+02  0.91419075976E+01  0.18492047081E+02  0.30210442273E+02  0.00000000000E+00 0. -1.
        -12    1    5    5    0    0  0.60117986410E+02  0.59071824639E+02  0.15368530658E+03  0.17527928062E+03  0.00000000000E+00 0.  1.
          5    1    4    4  501    0  0.45830654615E+02 -0.24647496107E+02 -0.16763561224E+02  0.54830988972E+02  0.41800000000E+01 0. -1.
         -5    1    4    4    0  501 -0.63587599643E+02 -0.15326444299E+03 -0.47783575507E+02  0.17272554762E+03  0.41800000000E+01 0. -1.
</event>
<event>
11    1  0.7577197E-009  0.1469008E+03  0.7561462E-02  0.1100088E+00
         22   -1    0    0    0    0  0.00000000000E+00  0.00000000000E+00  0.10503919950E+04  0.10503919950E+04  0.00000000000E+00 0. -1.
         22   -1    0    0    0    0 -0.00000000000E+00 -0.00000000000E+00 -0.39383506805E+03  0.39383506805E+03  0.00000000000E+00 0. -1.
        -24    2    1    2    0    0 -0.19088614445E+02  0.47650082994E+02 -0.28338388986E+03  0.29931788301E+03  0.81546676476E+02 0.  0.
         25    2    1    2    0    0  0.76222852123E+02  0.48172699621E+01 -0.45191169692E+02  0.15337391568E+03  0.12509271329E+03 0.  0.
         24    2    1    2    0    0 -0.57134237678E+02 -0.52467352956E+02  0.98513198653E+03  0.99153526440E+03  0.81486228431E+02 0.  0.
        -11    1    5    5    0    0 -0.51487791459E+02 -0.40276375866E+02  0.33796726237E+03  0.34423109905E+03  0.00000000000E+00 0.  1.
         12    1    5    5    0    0 -0.56464462188E+01 -0.12190977090E+02  0.64716472417E+03  0.64730416535E+03  0.00000000000E+00 0. -1.
         13    1    3    3    0    0 -0.49236881227E+02  0.18844098031E+02 -0.12788949617E+03  0.13832965602E+03  0.00000000000E+00 0. -1.
        -14    1    3    3    0    0  0.30148266782E+02  0.28805984963E+02 -0.15549439369E+03  0.16098822699E+03  0.00000000000E+00 0.  1.
          5    1    4    4  501    0  0.89277275890E+02 -0.23550716273E+00  0.15709529536E+02  0.90745518744E+02  0.41800000000E+01 0. -1.
         -5    1    4    4    0  501 -0.13054423767E+02  0.50527771249E+01 -0.60900699228E+02  0.62628396938E+02  0.41800000000E+01 0. -1.
</event>
<event>
11    1  0.7577197E-009  0.2713201E+03  0.7561462E-02  0.1013117E+00
         22   -1    0    0    0    0  0.00000000000E+00  0.00000000000E+00  0.51167727440E+03  0.51167727440E+03  0.00000000000E+00 0. -1.
         22   -1    0    0    0    0 -0.00000000000E+00 -0.00000000000E+00 -0.27426874045E+03  0.27426874045E+03  0.00000000000E+00 0. -1.
        -24    2    1    2    0    0  0.23394752773E+03  0.38864514488E+02 -0.11006780358E+03  0.27405135651E+03  0.82142123196E+02 0.  0.
         25    2    1    2    0    0 -0.25036453864E+03 -0.37495751137E+02  0.20993372709E+03  0.35186336816E+03  0.12508927419E+03 0.  0.
         24    2    1    2    0    0  0.16417010914E+02 -0.13687633510E+01  0.13754261045E+03  0.16003129019E+03  0.80128973469E+02 0.  0.
        -13    1    5    5    0    0 -0.90243934799E+01  0.34539661410E+02  0.79878059259E+02  0.87492469613E+02  0.00000000000E+00 0.  1.
         14    1    5    5    0    0  0.25441404394E+02 -0.35908424761E+02  0.57664551192E+02  0.72538820575E+02  0.00000000000E+00 0. -1.
         11    1    3    3    0    0  0.19863262385E+03  0.34623921662E+02 -0.12302439182E+03  0.23619639326E+03  0.00000000000E+00 0. -1.
        -12    1    3    3    0    0  0.35314903880E+02  0.42405928263E+01  0.12956588239E+02  0.37854963246E+02  0.00000000000E+00 0.  1.
          5    1    4    4  501    0 -0.11325623004E+03 -0.46023722764E+02  0.16868868512E+03  0.20837106706E+03  0.41800000000E+01 0.  1.
         -5    1    4    4    0  501 -0.13710830860E+03  0.85279716271E+01  0.41245041969E+02  0.14349230110E+03  0.41800000000E+01 0.  1.
</event>
<event>
11    1  0.7577197E-009  0.1554701E+03  0.7561462E-02  0.1091417E+00
         22   -1    0    0    0    0  0.00000000000E+00  0.00000000000E+00  0.53594036288E+03  0.53594036288E+03  0.00000000000E+00 0. -1.
         22   -1    0    0    0    0 -0.00000000000E+00 -0.00000000000E+00 -0.10668078712E+04  0.10668078712E+04  0.00000000000E+00 0. -1.
         24    2    1    2    0    0  0.84259941317E+02  0.39681540090E+02 -0.95047738112E+03  0.95889961074E+03  0.86063053121E+02 0.  0.
         25    2    1    2    0    0 -0.93396673015E+02  0.96289495075E+01 -0.50471671202E+02  0.16435079178E+03  0.12509251763E+03 0.  0.
        -24    2    1    2    0    0  0.91367316985E+01 -0.49310489597E+02  0.47008154401E+03  0.47949783155E+03  0.80165504982E+02 0.  0.
        -11    1    3    3    0    0  0.34360507682E+02 -0.28344387490E+01 -0.97675407212E+02  0.10358167649E+03  0.00000000000E+00 0.  1.
         12    1    3    3    0    0  0.49899433635E+02  0.42515978839E+02 -0.85280197391E+03  0.85531793425E+03  0.00000000000E+00 0. -1.
         13    1    5    5    0    0  0.42032582830E+02 -0.23835459562E+02  0.32484484558E+03  0.32841900196E+03  0.00000000000E+00 0. -1.
        -14    1    5    5    0    0 -0.32895851132E+02 -0.25475030035E+02  0.14523669843E+03  0.15107882958E+03  0.00000000000E+00 0.  1.
          5    1    4    4  501    0 -0.89304000928E+02 -0.44337579076E+02 -0.18937344125E+02  0.10157322926E+03  0.41800000000E+01 0. -1.
         -5    1    4    4    0  501 -0.40926720875E+01  0.53966528583E+02 -0.31534327077E+02  0.62777562523E+02  0.41800000000E+01 0. -1.
</event>
<event>
11    1  0.7577197E-009  0.3045752E+03  0.7561462E-02  0.9982733E-01
         22   -1    0    0    0    0  0.00000000000E+00  0.00000000000E+00  0.43510438742E+03  0.43510438742E+03  0.00000000000E+00 0. -1.
         22   -1    0    0    0    0 -0.00000000000E+00 -0.00000000000E+00 -0.24427333113E+04  0.24427333113E+04  0.00000000000E+00 0.  1.
        -24    2    1    2    0    0  0.45606225764E+02 -0.42192327210E+02 -0.18574635763E+04  0.18603530323E+04  0.82959914705E+02 0.  0.
         25    2    1    2    0    0  0.21186469801E+03  0.15221229981E+03 -0.49049982456E+03  0.56946680636E+03  0.12508849335E+03 0.  0.
         24    2    1    2    0    0 -0.25747092378E+03 -0.11001997260E+03  0.34033447692E+03  0.44801786006E+03  0.80602579289E+02 0.  0.
        -13    1    5    5    0    0 -0.84709160999E+02 -0.19307339415E+02  0.56705514310E+02  0.10374936465E+03  0.00000000000E+00 0.  1.
         14    1    5    5    0    0 -0.17276176278E+03 -0.90712633190E+02  0.28362896261E+03  0.34426849541E+03  0.00000000000E+00 0. -1.
         11    1    3    3    0    0  0.20133060730E+02  0.82805732430E+01 -0.11928183745E+03  0.12125207121E+03  0.00000000000E+00 0. -1.
        -12    1    3    3    0    0  0.25473165034E+02 -0.50472900453E+02 -0.17381817388E+04  0.17391009611E+04  0.00000000000E+00 0.  1.
          5    1    4    4  501    0  0.60319574561E+02  0.11698302736E+03 -0.25827468015E+03  0.28990819680E+03  0.41800000000E+01 0.  1.
         -5    1    4    4    0  501  0.15154512345E+03  0.35229272451E+02 -0.23222514441E+03  0.27955860956E+03  0.41800000000E+01 0.  1.
</event>
<event>
11    1  0.7577197E-009  0.1435599E+03  0.7561462E-02  0.1103647E+00
         22   -1    0    0    0    0  0.00000000000E+00  0.00000000000E+00  0.54720654254E+03  0.54720654254E+03  0.00000000000E+00 0. -1.
         22   -1    0    0    0    0 -0.00000000000E+00 -0.00000000000E+00 -0.41015798968E+03  0.41015798968E+03  0.00000000000E+00 0.  1.
        -24    2    1    2    0    0  0.19280407060E+00  0.70289519472E+02 -0.36746976676E+03  0.38288592730E+03  0.81406081579E+02 0.  0.
         25    2    1    2    0    0  0.41218167864E+02 -0.75501727694E+02  0.16546323739E+03  0.22453632563E+03  0.12505610881E+03 0.  0.
         24    2    1    2    0    0 -0.41410971935E+02  0.52122082220E+01  0.33905508222E+03  0.34994227929E+03  0.75889487701E+02 0.  0.
        -13    1    5    5    0    0 -0.87301030549E+01 -0.27676024678E+02  0.55576147406E+02  0.62696771861E+02  0.00000000000E+00 0.  1.
         14    1    5    5    0    0 -0.32680868880E+02  0.32888232900E+02  0.28347893482E+03  0.28724550743E+03  0.00000000000E+00 0. -1.
         11    1    3    3    0    0  0.50592030115E+01 -0.14137869289E+02 -0.12888562193E+03  0.12975738293E+03  0.00000000000E+00 0. -1.
        -12    1    3    3    0    0 -0.48663989409E+01  0.84427388761E+02 -0.23858414483E+03  0.25312854437E+03  0.00000000000E+00 0.  1.
          5    1    4    4  501    0  0.11880564959E+02  0.24790623903E+02 -0.11403319419E+01  0.27829761303E+02  0.41800000000E+01 0. -1.
         -5    1    4    4    0  501  0.29337602905E+02 -0.10029235160E+03  0.16660356934E+03  0.19670656433E+03  0.41800000000E+01 0. -1.
</event>
<event>
11    1  0.7577197E-009  0.1506590E+03  0.7561462E-02  0.1096207E+00
         22   -1    0    0    0    0  0.00000000000E+00  0.00000000000E+00  0.29121750489E+03  0.29121750489E+03  0.00000000000E+00 0. -1.
         22   -1    0    0    0    0 -0.00000000000E+00 -0.00000000000E+00 -0.18220627943E+03  0.18220627943E+03  0.00000000000E+00 0. -1.
         24    2    1    2    0    0  0.23425315208E+02 -0.78151486058E+02 -0.86375663045E+02  0.15109895889E+03  0.93347415855E+02 0.  0.
         25    2    1    2    0    0 -0.32161312270E+02  0.87187348458E+02  0.64968240312E+02  0.16880809026E+03  0.12505724829E+03 0.  0.
        -24    2    1    2    0    0  0.87359970614E+01 -0.90358623996E+01  0.13041864820E+03  0.15351673517E+03  0.80002498240E+02 0.  0.
        -13    1    3    3    0    0 -0.25289735693E+02 -0.51083086677E+02 -0.12151184658E+02  0.58281247108E+02  0.00000000000E+00 0.  1.
         14    1    3    3    0    0  0.48715050902E+02 -0.27068399381E+02 -0.74224478388E+02  0.92817711787E+02  0.00000000000E+00 0. -1.
         11    1    5    5    0    0  0.17233962551E+02  0.90407504904E+00  0.13754518345E+03  0.13862360660E+03  0.00000000000E+00 0. -1.
        -12    1    5    5    0    0 -0.84979654892E+01 -0.99399374486E+01 -0.71265352483E+01  0.14893128569E+02  0.00000000000E+00 0.  1.
          5    1    4    4  501    0 -0.56276207072E+02  0.42904781611E+02  0.88180214520E+02  0.11314174473E+03  0.41800000000E+01 0. -1.
         -5    1    4    4    0  501  0.24114894803E+02  0.44282566846E+02 -0.23211974208E+02  0.55666345528E+02  0.41800000000E+01 0. -1.
</event>
<event>
11    1  0.7577197E-009  0.1335455E+03  0.7561462E-02  0.1114988E+00
         22   -1    0    0    0    0  0.00000000000E+00  0.00000000000E+00  0.10350282457E+04  0.10350282457E+04  0.00000000000E+00 0. -1.
         22   -1    0    0    0    0 -0.00000000000E+00 -0.00000000000E+00 -0.46931131750E+03  0.46931131750E+03  0.00000000000E+00 0. -1.
         24    2    1    2    0    0 -0.26346338681E+02  0.36975259759E+02 -0.41732501578E+03  0.42715156550E+03  0.78974627072E+02 0.  0.
         25    2    1    2    0    0  0.53368369186E+02 -0.63404838529E+02  0.80334082280E+02  0.17019249943E+03  0.12507424078E+03 0.  0.
        -24    2    1    2    0    0 -0.27022030505E+02  0.26429578770E+02  0.90270786166E+03  0.90699549824E+03  0.79565303729E+02 0.  0.
        -11    1    3    3    0    0 -0.88532654465E+01  0.53826795952E+02 -0.16773320007E+03  0.17638064145E+03  0.00000000000E+00 0.  1.
         12    1    3    3    0    0 -0.17493073234E+02 -0.16851536194E+02 -0.24959181571E+03  0.25077092406E+03  0.00000000000E+00 0. -1.
         11    1    5    5    0    0 -0.16990767616E+02 -0.20341234731E+02  0.59516506311E+03  0.59575490293E+03  0.00000000000E+00 0. -1.
        -12    1    5    5    0    0 -0.10031262889E+02  0.46770813501E+02  0.30754279855E+03  0.31124059532E+03  0.00000000000E+00 0.  1.
          5    1    4    4  501    0  0.28901796907E+02  0.64370025069E+00 -0.28942480552E+02  0.41120162876E+02  0.41800000000E+01 0. -1.
         -5    1    4    4    0  501  0.24466572279E+02 -0.64048538780E+02  0.10927656283E+03  0.12907233655E+03  0.41800000000E+01 0. -1.
</event>
<event>
11    1  0.7577197E-009  0.1334682E+03  0.7561462E-02  0.1115080E+00
         22   -1    0    0    0    0  0.00000000000E+00  0.00000000000E+00  0.45356528612E+03  0.45356528612E+03  0.00000000000E+00 0.  1.
         22   -1    0    0    0    0 -0.00000000000E+00 -0.00000000000E+00 -0.10715641208E+04  0.10715641208E+04  0.00000000000E+00 0. -1.
        -24    2    1    2    0    0 -0.18687940473E+02  0.33031968240E+02 -0.95532198607E+03  0.95949927186E+03  0.80983983579E+02 0.  0.
         25    2    1    2    0    0  0.50345353409E+00 -0.74680935308E+02 -0.59966215692E+02  0.15754589730E+03  0.12508903697E+03 0.  0.
         24    2    1    2    0    0  0.18184486938E+02  0.41648967068E+02  0.39728936708E+03  0.40808423774E+03  0.81416164680E+02 0.  0.
        -11    1    5    5    0    0  0.33325668439E+01  0.23034029150E+02  0.37417243987E+03  0.37489556847E+03  0.00000000000E+00 0.  1.
         12    1    5    5    0    0  0.14851920095E+02  0.18614937917E+02  0.23116927218E+02  0.33188669274E+02  0.00000000000E+00 0. -1.
         11    1    3    3    0    0 -0.38024066618E+01  0.66500617981E+01 -0.84664434957E+03  0.84667900427E+03  0.00000000000E+00 0. -1.
        -12    1    3    3    0    0 -0.14885533811E+02  0.26381906442E+02 -0.10867763650E+03  0.11282026760E+03  0.00000000000E+00 0.  1.
          5    1    4    4  501    0  0.29456991092E+02 -0.26671195334E+02 -0.86571937571E+02  0.95347992950E+02  0.41800000000E+01 0.  1.
         -5    1    4    4    0  501 -0.28953537558E+02 -0.48009739974E+02  0.26605721879E+02  0.62197904355E+02  0.41800000000E+01 0.  1.
</event>
<event>
11    1  0.7577197E-009  0.1630596E+03  0.7561462E-02  0.1084234E+00
         22   -1    0    0    0    0  0.00000000000E+00  0.00000000000E+00  0.15467065974E+04  0.15467065974E+04  0.00000000000E+00 0.  1.
         22   -1    0    0    0    0 -0.00000000000E+00 -0.00000000000E+00 -0.25242674171E+02  0.25242674171E+02  0.00000000000E+00 0.  1.
        -24    2    1    2    0    0 -0.91181519075E+02  0.11745177300E+02  0.39490749344E+03  0.41393174768E+03  0.83279918040E+02 0.  0.
         25    2    1    2    0    0  0.12550045675E+03 -0.11531308098E+02  0.67140339998E+03  0.69448795208E+03  0.12509058467E+03 0.  0.
         24    2    1    2    0    0 -0.34318937676E+02 -0.21386920182E+00  0.45515302985E+03  0.46352957186E+03  0.80731333305E+02 0.  0.
        -11    1    5    5    0    0 -0.28902032418E+02  0.29805515196E+02  0.11976238112E+03  0.12675458234E+03  0.00000000000E+00 0.  1.
         12    1    5    5    0    0 -0.54169052580E+01 -0.30019384398E+02  0.33539064873E+03  0.33677498951E+03  0.00000000000E+00 0. -1.
         13    1    3    3    0    0  0.15658808290E+02 -0.86897721855E+00  0.67670117003E+02  0.69463646130E+02  0.00000000000E+00 0. -1.
        -14    1    3    3    0    0 -0.10684032737E+03  0.12614154519E+02  0.32723737644E+03  0.34446810155E+03  0.00000000000E+00 0.  1.
          5    1    4    4  501    0  0.97546198051E+02 -0.63747196270E+02  0.39902411089E+03  0.41571225537E+03  0.41800000000E+01 0. -1.
         -5    1    4    4    0  501  0.27954258700E+02  0.52215888172E+02  0.27237928908E+03  0.27877569671E+03  0.41800000000E+01 0. -1.
</event>
<event>
11    1  0.7577197E-009  0.1977354E+03  0.7561462E-02  0.1056137E+00
         22   -1    0    0    0    0  0.00000000000E+00  0.00000000000E+00  0.20433022852E+04  0.20433022852E+04  0.00000000000E+00 0.  1.
         22   -1    0    0    0    0 -0.00000000000E+00 -0.00000000000E+00 -0.96376440100E+03  0.96376440100E+03  0.00000000000E+00 0. -1.
        -24    2    1    2    0    0  0.13566176078E+03  0.72103505880E+02 -0.72562789083E+03  0.74606177014E+03  0.80431958891E+02 0.  0.
         25    2    1    2    0    0 -0.15343861412E+03 -0.29818407302E+02 -0.18284629388E+03  0.27115819301E+03  0.12514572598E+03 0.  0.
         24    2    1    2    0    0  0.17776853341E+02 -0.42285098579E+02  0.19880120689E+04  0.19898467231E+04  0.72069057487E+02 0.  0.
        -13    1    5    5    0    0  0.44880233524E+02 -0.22687491360E+02  0.13793273686E+04  0.13802438000E+04  0.00000000000E+00 0.  1.
         14    1    5    5    0    0 -0.27103380183E+02 -0.19597607219E+02  0.60868470035E+03  0.60960292311E+03  0.00000000000E+00 0. -1.
         13    1    3    3    0    0  0.10063422577E+03  0.85948049444E+02 -0.49535086979E+03  0.51272487632E+03  0.00000000000E+00 0. -1.
        -14    1    3    3    0    0  0.35027535014E+02 -0.13844543563E+02 -0.23027702104E+03  0.23333689381E+03  0.00000000000E+00 0.  1.
          5    1    4    4  501    0  0.19070697964E+02  0.84025603765E+00 -0.25365545467E+01  0.19705432247E+02  0.41800000000E+01 0.  1.
         -5    1    4    4    0  501 -0.17250931208E+03 -0.30658663339E+02 -0.18030973934E+03  0.25145276076E+03  0.41800000000E+01 0.  1.
</event>
<event>
11    1  0.7577197E-009  0.1454432E+03  0.7561462E-02  0.1101628E+00
         22   -1    0    0    0    0  0.00000000000E+00  0.00000000000E+00  0.81613586045E+02  0.81613586045E+02  0.00000000000E+00 0.  1.
         22   -1    0    0    0    0 -0.00000000000E+00 -0.00000000000E+00 -0.17487768121E+04  0.17487768121E+04  0.00000000000E+00 0.  1.
         24    2    1    2    0    0  0.80582024699E+02 -0.15728564360E+02 -0.12180375020E+04  0.12234627801E+04  0.80653379801E+02 0.  0.
         25    2    1    2    0    0 -0.37597970981E+02  0.41866354192E+02 -0.48674225646E+03  0.50569807218E+03  0.12508443928E+03 0.  0.
        -24    2    1    2    0    0 -0.42984053718E+02 -0.26137789832E+02  0.37616532410E+02  0.10122954582E+03  0.79382646115E+02 0.  0.
        -13    1    3    3    0    0  0.62817916671E+02 -0.45702966288E+01 -0.11607101058E+04  0.11624177080E+04  0.00000000000E+00 0.  1.
         14    1    3    3    0    0  0.17764108027E+02 -0.11158267731E+02 -0.57327396240E+02  0.61045072139E+02  0.00000000000E+00 0. -1.
         11    1    5    5    0    0  0.72503993202E+01  0.22187206861E+02  0.34302474135E+01  0.23592520762E+02  0.00000000000E+00 0. -1.
        -12    1    5    5    0    0 -0.50234453038E+02 -0.48324996693E+02  0.34186284997E+02  0.77637025054E+02  0.00000000000E+00 0.  1.
          5    1    4    4  501    0  0.39969803748E+02  0.32048479669E+02 -0.11759505790E+03  0.12833845996E+03  0.41800000000E+01 0. -1.
         -5    1    4    4    0  501 -0.77567774730E+02  0.98178745230E+01 -0.36914719856E+03  0.37735961222E+03  0.41800000000E+01 0. -1.
</event>
<event>
11    1  0.7577197E-009  0.1862935E+03  0.7561462E-02  0.1064663E+00
         22   -1    0    0    0    0  0.00000000000E+00  0.00000000000E+00  0.45292508313E+03  0.45292508313E+03  0.00000000000E+00 0.  1.
         22   -1    0    0    0    0 -0.00000000000E+00 -0.00000000000E+00 -0.12033067106E+04  0.12033067106E+04  0.00000000000E+00 0.  1.
         24    2    1    2    0    0 -0.12667106700E+03  0.35002829493E+02 -0.96049942733E+03  0.97259759969E+03  0.78206033790E+02 0.  0.
         25    2    1    2    0    0  0.19689543355E+03 -0.13040183407E+03 -0.14260847595E+03  0.30291575133E+03  0.12509326482E+03 0.  0.
        -24    2    1    2    0    0 -0.70224366551E+02  0.95399004580E+02  0.35272627577E+03  0.38071844276E+03  0.80611880686E+02 0.  0.
        -11    1    3    3    0    0 -0.77050637855E+02  0.58375540373E+02 -0.54695561788E+03  0.55543222128E+03  0.00000000000E+00 0.  1.
         12    1    3    3    0    0 -0.49620429149E+02 -0.23372710880E+02 -0.41354380945E+03  0.41716537841E+03  0.00000000000E+00 0. -1.
         13    1    5    5    0    0  0.90537747426E+01 -0.40385696027E+01  0.64478898520E+01  0.11826079869E+02  0.00000000000E+00 0. -1.
        -14    1    5    5    0    0 -0.79278141293E+02  0.99437574183E+02  0.34627838592E+03  0.36889236289E+03  0.00000000000E+00 0.  1.
          5    1    4    4  501    0  0.11286635119E+03 -0.96713756557E+02 -0.19381974257E+02  0.14995164975E+03  0.41800000000E+01 0. -1.
         -5    1    4    4    0  501  0.84029082367E+02 -0.33688077516E+02 -0.12322650169E+03  0.15296410157E+03  0.41800000000E+01 0. -1.
</event>
<event>
11    1  0.7577197E-009  0.1318547E+03  0.7561462E-02  0.1117011E+00
         22   -1    0    0    0    0  0.00000000000E+00  0.00000000000E+00  0.49967800228E+03  0.49967800228E+03  0.00000000000E+00 0.  1.
         22   -1    0    0    0    0 -0.00000000000E+00 -0.00000000000E+00 -0.22034254688E+03  0.22034254688E+03  0.00000000000E+00 0. -1.
         24    2    1    2    0    0  0.28440445318E+02 -0.31464763125E+02 -0.15774561897E+03  0.18220333579E+03  0.80718554379E+02 0.  0.
         25    2    1    2    0    0 -0.31335036006E+02  0.20393784099E+02  0.45398048490E+02  0.13822548539E+03  0.12509001197E+03 0.  0.
        -24    2    1    2    0    0  0.28945906887E+01  0.11070979026E+02  0.39168302588E+03  0.39959172798E+03  0.78275226464E+02 0.  0.
        -13    1    3    3    0    0  0.16768539964E+01 -0.16101810550E+02  0.46961798886E+01  0.16856282149E+02  0.00000000000E+00 0.  1.
         14    1    3    3    0    0  0.26763591321E+02 -0.15362952575E+02 -0.16244179885E+03  0.16534705364E+03  0.00000000000E+00 0. -1.
         13    1    5    5    0    0  0.74988951934E+01  0.41054816343E+02  0.14002765641E+03  0.14611459864E+03  0.00000000000E+00 0. -1.
        -14    1    5    5    0    0 -0.46043045047E+01 -0.29983837317E+02  0.25165536947E+03  0.25347712935E+03  0.00000000000E+00 0.  1.
          5    1    4    4  501    0 -0.75358058011E+02  0.28496863389E+02  0.10586892969E+02  0.81366226612E+02  0.41800000000E+01 0. -1.
         -5    1    4    4    0  501  0.44023022005E+02 -0.81030792903E+01  0.34811155521E+02  0.56859258781E+02  0.41800000000E+01 0. -1.
</event>
<event>
11    1  0.7577197E-009  0.1432724E+03  0.7561462E-02  0.1103958E+00
         22   -1    0    0    0    0  0.00000000000E+00  0.00000000000E+00  0.20617568888E+04  0.20617568888E+04  0.00000000000E+00 0.  1.
         22   -1    0    0    0    0 -0.00000000000E+00 -0.00000000000E+00 -0.76619379134E+03  0.76619379134E+03  0.00000000000E+00 0.  1.
         24    2    1    2    0    0 -0.40463214892E+02 -0.58620878598E+02 -0.69204290505E+03  0.70039132371E+03  0.80937906607E+02 0.  0.
         25    2    1    2    0    0  0.59934451594E+02  0.14398811432E+02  0.17321533414E+01  0.13946310576E+03  0.12508994066E+03 0.  0.
        -24    2    1    2    0    0 -0.19471236702E+02  0.44222067166E+02  0.19858738491E+04  0.19880962506E+04  0.80604198718E+02 0.  0.
        -13    1    3    3    0    0 -0.54580148516E+02 -0.63202341949E+02 -0.65767749226E+03  0.66295792662E+03  0.00000000000E+00 0.  1.
         14    1    3    3    0    0  0.14116933624E+02  0.45814633502E+01 -0.34365412794E+02  0.37433397093E+02  0.00000000000E+00 0. -1.
         11    1    5    5    0    0 -0.44778423036E+02  0.57059943800E+01  0.12219672294E+04  0.12228007095E+04  0.00000000000E+00 0. -1.
        -12    1    5    5    0    0  0.25307186335E+02  0.38516072786E+02  0.76390661973E+03  0.76529554109E+03  0.00000000000E+00 0.  1.
          5    1    4    4  501    0 -0.15767338129E+02  0.20988081284E+00  0.47190662354E+02  0.49930792253E+02  0.41800000000E+01 0.  1.
         -5    1    4    4    0  501  0.75701789723E+02  0.14188930619E+02 -0.45458509013E+02  0.89532313502E+02  0.41800000000E+01 0.  1.
</event>
<event>
11    1  0.7577197E-009  0.1396260E+03  0.7561462E-02  0.1107977E+00
         22   -1    0    0    0    0  0.00000000000E+00  0.00000000000E+00  0.68037909476E+03  0.68037909476E+03  0.00000000000E+00 0.  1.
         22   -1    0    0    0    0 -0.00000000000E+00 -0.00000000000E+00 -0.10935436905E+04  0.10935436905E+04  0.00000000000E+00 0. -1.
         24    2    1    2    0    0  0.31971265303E+02 -0.31763940814E+02 -0.87610014728E+03  0.88108416071E+03  0.82016586407E+02 0.  0.
         25    2    1    2    0    0 -0.64175615627E+02  0.83901733062E+02 -0.17934812770E+03  0.24283025771E+03  0.12507107059E+03 0.  0.
        -24    2    1    2    0    0  0.32204350324E+02 -0.52137792247E+02  0.64228367919E+03  0.65000836688E+03  0.78911867861E+02 0.  0.
        -11    1    3    3    0    0  0.28013435985E+02  0.11234559151E+02 -0.11949389010E+03  0.12324673499E+03  0.00000000000E+00 0.  1.
         12    1    3    3    0    0  0.39578293185E+01 -0.42998499965E+02 -0.75660625718E+03  0.75783742572E+03  0.00000000000E+00 0. -1.
         11    1    5    5    0    0  0.25053292252E+02  0.71519735375E+01  0.71318943393E+02  0.75928979084E+02  0.00000000000E+00 0. -1.
        -12    1    5    5    0    0  0.71510580722E+01 -0.59289765785E+02  0.57096473580E+03  0.57407938779E+03  0.00000000000E+00 0.  1.
          5    1    4    4  501    0 -0.85861334432E+02  0.10157453414E+03 -0.16201403384E+03  0.20965584728E+03  0.41800000000E+01 0.  1.
         -5    1    4    4    0  501  0.21685718805E+02 -0.17672801074E+02 -0.17334093857E+02  0.33174410436E+02  0.41800000000E+01 0.  1.
</event>
<event>
11    1  0.7577197E-009  0.1296505E+03  0.7561462E-02  0.1119699E+00
         22   -1    0    0    0    0  0.00000000000E+00  0.00000000000E+00  0.29037364663E+03  0.29037364663E+03  0.00000000000E+00 0.  1.
         22   -1    0    0    0    0 -0.00000000000E+00 -0.00000000000E+00 -0.13453037010E+04  0.13453037010E+04  0.00000000000E+00 0.  1.
        -24    2    1    2    0    0 -0.30864203437E+02 -0.13153020593E+02 -0.12541926964E+04  0.12571567979E+04  0.79487696130E+02 0.  0.
         25    2    1    2    0    0  0.44440598104E+02  0.36795312709E+02 -0.23694052763E+02  0.13977520803E+03  0.12508732489E+03 0.  0.
         24    2    1    2    0    0 -0.13576394667E+02 -0.23642292116E+02  0.22295669478E+03  0.23874534168E+03  0.80909665423E+02 0.  0.
        -11    1    5    5    0    0 -0.23076832371E+02 -0.51216909860E+02  0.15012411135E+03  0.16029023943E+03  0.00000000000E+00 0.  1.
         12    1    5    5    0    0  0.95004377039E+01  0.27574617743E+02  0.72832583433E+02  0.78455102255E+02  0.00000000000E+00 0. -1.
         11    1    3    3    0    0  0.25527239934E+02 -0.12166598261E+02 -0.54038584284E+03  0.54112523988E+03  0.00000000000E+00 0. -1.
        -12    1    3    3    0    0 -0.56391443371E+02 -0.98642233167E+00 -0.71380685352E+03  0.71603155800E+03  0.00000000000E+00 0.  1.
          5    1    4    4  501    0  0.60326402302E+02  0.12360778437E+01  0.34496355283E+02  0.69629545675E+02  0.41800000000E+01 0. -1.
         -5    1    4    4    0  501 -0.15885804198E+02  0.35559234865E+02 -0.58190408046E+02  0.70145662359E+02  0.41800000000E+01 0. -1.
</event>
<event>
11    1  0.7577197E-009  0.2217658E+03  0.7561462E-02  0.1040117E+00
         22   -1    0    0    0    0  0.00000000000E+00  0.00000000000E+00  0.10605849427E+04  0.10605849427E+04  0.00000000000E+00 0. -1.
         22   -1    0    0    0    0 -0.00000000000E+00 -0.00000000000E+00 -0.90975556347E+02  0.90975556347E+02  0.00000000000E+00 0. -1.
         24    2    1    2    0    0 -0.91712965013E+01  0.48385813239E+02  0.12078664110E+02  0.99961130057E+02  0.86145422358E+02 0.  0.
         25    2    1    2    0    0 -0.17137659725E+03 -0.76893603750E+02  0.39699984977E+03  0.45666075673E+03  0.12509037387E+03 0.  0.
        -24    2    1    2    0    0  0.18054789375E+03  0.28507790511E+02  0.56053087245E+03  0.59493861223E+03  0.79667165771E+02 0.  0.
        -13    1    3    3    0    0 -0.16659013390E+02  0.70214697251E+00  0.40604051202E+02  0.43894244629E+02  0.00000000000E+00 0.  1.
         14    1    3    3    0    0  0.74877168890E+01  0.47683666267E+02 -0.28525387092E+02  0.56066885428E+02  0.00000000000E+00 0. -1.
         13    1    5    5    0    0  0.16145456634E+03 -0.12361633271E+01  0.49223154306E+03  0.51803571023E+03  0.00000000000E+00 0. -1.
        -14    1    5    5    0    0  0.19093327409E+02  0.29743953838E+02  0.68299329387E+02  0.76902902001E+02  0.00000000000E+00 0.  1.
          5    1    4    4  501    0  0.81737472982E+01 -0.18473474572E+02  0.45399010590E+01  0.21122559250E+02  0.41800000000E+01 0.  1.
         -5    1    4    4    0  501 -0.17955034455E+03 -0.58420129178E+02  0.39245994871E+03  0.43553819748E+03  0.41800000000E+01 0.  1.
</event>
<event>
11    1  0.7577197E-009  0.1906449E+03  0.7561462E-02  0.1061344E+00
         22   -1    0    0    0    0  0.00000000000E+00  0.00000000000E+00  0.57916329659E+03  0.57916329659E+03  0.00000000000E+00 0. -1.
         22   -1    0    0    0    0 -0.00000000000E+00 -0.00000000000E+00 -0.24326577790E+03  0.24326577790E+03  0.00000000000E+00 0.  1.
         24    2    1    2    0    0  0.12694978755E+03  0.30108653296E+00 -0.13125858571E+03  0.19338506246E+03  0.63660245427E+02 0.  0.
         25    2    1    2    0    0 -0.15132699978E+03  0.13281138062E+03  0.16641076936E+03  0.28962850854E+03  0.12511356887E+03 0.  0.
        -24    2    1    2    0    0  0.24377212231E+02 -0.13311246715E+03  0.30074533505E+03  0.33941550350E+03  0.80261759734E+02 0.  0.
        -13    1    3    3    0    0  0.12618525228E+03 -0.12180543890E+02 -0.12864114285E+03  0.18060904511E+03  0.00000000000E+00 0.  1.
         14    1    3    3    0    0  0.76453526735E+00  0.12481630423E+02 -0.26174428665E+01  0.12776017351E+02  0.00000000000E+00 0. -1.
         13    1    5    5    0    0  0.44029626296E+02 -0.77838835280E+02  0.12183671526E+03  0.15113463354E+03  0.00000000000E+00 0. -1.
        -14    1    5    5    0    0 -0.19652414065E+02 -0.55273631873E+02  0.17890861979E+03  0.18828086996E+03  0.00000000000E+00 0.  1.
          5    1    4    4  501    0 -0.12131882046E+03  0.25567893975E+02  0.10413185575E+03  0.16196570372E+03  0.41800000000E+01 0. -1.
         -5    1    4    4    0  501 -0.30008179326E+02  0.10724348664E+03  0.62278913610E+02  0.12766280482E+03  0.41800000000E+01 0. -1.
</event>
<event>
11    1  0.7577197E-009  0.2235336E+03  0.7561462E-02  0.1039026E+00
         22   -1    0    0    0    0  0.00000000000E+00  0.00000000000E+00  0.40601625463E+03  0.40601625463E+03  0.00000000000E+00 0. -1.
         22   -1    0    0    0    0 -0.00000000000E+00 -0.00000000000E+00 -0.37939979824E+03  0.37939979824E+03  0.00000000000E+00 0.  1.
         24    2    1    2    0    0  0.62870470784E+02  0.20315199439E+03 -0.20763493187E+03  0.31017943954E+03  0.88744525802E+02 0.  0.
         25    2    1    2    0    0 -0.12191127973E+03 -0.14247652731E+02  0.26434033839E+02  0.17727455355E+03  0.12514852560E+03 0.  0.
        -24    2    1    2    0    0  0.59040808943E+02 -0.18890434166E+03  0.20781735442E+03  0.29796205978E+03  0.80141555084E+02 0.  0.
        -11    1    3    3    0    0  0.11823997893E+02  0.15893487497E+03 -0.16934152303E+03  0.23254387292E+03  0.00000000000E+00 0.  1.
         12    1    3    3    0    0  0.51046472892E+02  0.44217119416E+02 -0.38293408833E+02  0.77635566618E+02  0.00000000000E+00 0. -1.
         13    1    5    5    0    0  0.70184013030E+02 -0.15145317683E+03  0.19533517459E+03  0.25694297206E+03  0.00000000000E+00 0. -1.
        -14    1    5    5    0    0 -0.11143204087E+02 -0.37451164826E+02  0.12482179830E+02  0.41019087721E+02  0.00000000000E+00 0.  1.
          5    1    4    4  501    0 -0.12429978578E+03  0.32057317228E+02  0.23985845206E+02  0.13065566005E+03  0.41800000000E+01 0.  1.
         -5    1    4    4    0  501  0.23885060494E+01 -0.46304969959E+02  0.24481886333E+01  0.46618893505E+02  0.41800000000E+01 0.  1.
</event>
<event>
11    1  0.7577197E-009  0.1575398E+03  0.7561462E-02  0.1089414E+00
         22   -1    0    0    0    0  0.00000000000E+00  0.00000000000E+00  0.29212962328E+03  0.29212962328E+03  0.00000000000E+00 0. -1.
         22   -1    0    0    0    0 -0.00000000000E+00 -0.00000000000E+00 -0.72337864055E+03  0.72337864055E+03  0.00000000000E+00 0. -1.
         24    2    1    2    0    0 -0.49664570179E+02 -0.29227776854E+02 -0.64747624091E+03  0.65510502770E+03  0.81340532983E+02 0.  0.
         25    2    1    2    0    0  0.11837582010E+03 -0.90878050286E+01  0.16187854685E+03  0.23652947836E+03  0.12508440037E+03 0.  0.
        -24    2    1    2    0    0 -0.68711249923E+02  0.38315581883E+02  0.54348676795E+02  0.12387375778E+03  0.78750298512E+02 0.  0.
        -11    1    3    3    0    0 -0.94108535274E+01 -0.17526342283E+02 -0.28756091460E+02  0.34966407222E+02  0.00000000000E+00 0.  1.
         12    1    3    3    0    0 -0.40253716651E+02 -0.11701434571E+02 -0.61872014945E+03  0.62013862048E+03  0.00000000000E+00 0. -1.
         13    1    5    5    0    0 -0.31208832418E+02 -0.35960111145E+01 -0.14812118146E+02  0.34732137291E+02  0.00000000000E+00 0. -1.
        -14    1    5    5    0    0 -0.37502417505E+02  0.41911592997E+02  0.69160794941E+02  0.89141620488E+02  0.00000000000E+00 0.  1.
          5    1    4    4  501    0 -0.22374772183E+02 -0.19191539953E+02  0.17192728324E+02  0.34380342395E+02  0.41800000000E+01 0.  1.
         -5    1    4    4    0  501  0.14075059228E+03  0.10103734924E+02  0.14468581852E+03  0.20214913596E+03  0.41800000000E+01 0.  1.
</event>
<event>
11    1  0.7577197E-009  0.1721209E+03  0.7561462E-02  0.1076201E+00
         22   -1    0    0    0    0  0.00000000000E+00  0.00000000000E+00  0.14553171330E+03  0.14553171330E+03  0.00000000000E+00 0. -1.
         22   -1    0    0    0    0 -0.00000000000E+00 -0.00000000000E+00 -0.16920127270E+04  0.16920127270E+04  0.00000000000E+00 0.  1.
         24    2    1    2    0    0 -0.10340536571E+03 -0.27235431022E+02 -0.11464357791E+04  0.11541931887E+04  0.80077980380E+02 0.  0.
         25    2    1    2    0    0  0.20914763066E+03 -0.75776932807E+01 -0.47081571392E+03  0.53020286309E+03  0.12508991449E+03 0.  0.
        -24    2    1    2    0    0 -0.10574226496E+03  0.34813124302E+02  0.70770479318E+02  0.15314838848E+03  0.77798379987E+02 0.  0.
        -11    1    3    3    0    0 -0.71826728402E+02 -0.28920827623E+02 -0.10467876708E+04  0.10496475222E+04  0.00000000000E+00 0.  1.
         12    1    3    3    0    0 -0.31578637304E+02  0.16853966009E+01 -0.99648108316E+02  0.10454566651E+03  0.00000000000E+00 0. -1.
         11    1    5    5    0    0 -0.51976572427E+02  0.22168469125E+02  0.79184163147E+02  0.97278655408E+02  0.00000000000E+00 0. -1.
        -12    1    5    5    0    0 -0.53765692529E+02  0.12644655177E+02 -0.84136838296E+01  0.55869733070E+02  0.00000000000E+00 0.  1.
          5    1    4    4  501    0  0.81297611077E+02 -0.61777249684E+02 -0.23922662954E+03  0.26013954491E+03  0.41800000000E+01 0. -1.
         -5    1    4    4    0  501  0.12785001959E+03  0.54199556403E+02 -0.23158908438E+03  0.27006331818E+03  0.41800000000E+01 0. -1.
</event>
<event>
11    1  0.7577197E-009  0.1416661E+03  0.7561462E-02  0.1105712E+00
         22   -1    0    0    0    0  0.00000000000E+00  0.00000000000E+00  0.63040815603E+03  0.63040815603E+03  0.00000000000E+00 0. -1.
         22   -1    0    0    0    0 -0.00000000000E+00 -0.00000000000E+00 -0.24741892345E+04  0.24741892345E+04  0.00000000000E+00 0.  1.
         24    2    1    2    0    0  0.33586704572E+00 -0.75070173853E+01 -0.14681308490E+04  0.14703707483E+04  0.80780440938E+02 0.  0.
         25    2    1    2    0    0 -0.11645111942E+02  0.72997391496E+02 -0.99532822600E+03  0.10058780345E+04  0.12509242570E+03 0.  0.
        -24    2    1    2    0    0  0.11309244896E+02 -0.65490374111E+02  0.61967799652E+03  0.62834860774E+03  0.80026654015E+02 0.  0.
        -13    1    3    3    0    0 -0.37964603643E+02  0.95801209070E+01 -0.68720498837E+03  0.68831953763E+03  0.00000000000E+00 0.  1.
         14    1    3    3    0    0  0.38300470689E+02 -0.17087138292E+02 -0.78092586061E+03  0.78205121067E+03  0.00000000000E+00 0. -1.
         11    1    5    5    0    0  0.20501257194E+02 -0.62756127439E+02  0.61327298699E+03  0.61681633381E+03  0.00000000000E+00 0. -1.
        -12    1    5    5    0    0 -0.91920122982E+01 -0.27342466720E+01  0.64050095301E+01  0.11532273932E+02  0.00000000000E+00 0.  1.
          5    1    4    4  501    0  0.45075388300E+02 -0.83118070418E+01 -0.32765904105E+03  0.33087580199E+03  0.41800000000E+01 0.  1.
         -5    1    4    4    0  501 -0.56720500242E+02  0.81309198538E+02 -0.66766918495E+03  0.67500223247E+03  0.41800000000E+01 0.  1.
</event>
<event>
11    1  0.7577197E-009  0.1471800E+03  0.7561462E-02  0.1099796E+00
         22   -1    0    0    0    0  0.00000000000E+00  0.00000000000E+00  0.29033970347E+03  0.29033970347E+03  0.00000000000E+00 0.  1.
         22   -1    0    0    0    0 -0.00000000000E+00 -0.00000000000E+00 -0.61439345924E+03  0.61439345924E+03  0.00000000000E+00 0.  1.
        -24    2    1    2    0    0 -0.76066500650E+02 -0.12300743694E+02 -0.50697535740E+03  0.51912107450E+03  0.80779057714E+02 0.  0.
         25    2    1    2    0    0  0.83268063575E+02 -0.22827520785E+01 -0.34192482265E+02  0.15415073382E+03  0.12511811030E+03 0.  0.
         24    2    1    2    0    0 -0.72015629250E+01  0.14583495773E+02  0.21711408390E+03  0.23146135440E+03  0.78557573125E+02 0.  0.
        -11    1    5    5    0    0  0.23536029368E+02  0.31819015733E+02  0.15573408721E+03  0.16068447455E+03  0.00000000000E+00 0.  1.
         12    1    5    5    0    0 -0.30737592293E+02 -0.17235519960E+02  0.61379996685E+02  0.70776879850E+02  0.00000000000E+00 0. -1.
         11    1    3    3    0    0  0.39885985886E+01 -0.29488143110E+02 -0.13571286420E+03  0.13893682382E+03  0.00000000000E+00 0. -1.
        -12    1    3    3    0    0 -0.80055099238E+02  0.17187399416E+02 -0.37126249320E+03  0.38018425068E+03  0.00000000000E+00 0.  1.
          5    1    4    4  501    0  0.11408112487E+03 -0.15597101433E+02 -0.34670129381E+02  0.12032149806E+03  0.41800000000E+01 0. -1.
         -5    1    4    4    0  501 -0.30813061294E+02  0.13314349354E+02  0.47764711614E+00  0.33829235755E+02  0.41800000000E+01 0. -1.
</event>
<event>
11    1  0.7577197E-009  0.1464700E+03  0.7561462E-02  0.1100541E+00
         22   -1    0    0    0    0  0.00000000000E+00  0.00000000000E+00  0.93570106117E+03  0.93570106117E+03  0.00000000000E+00 0.  1.
         22   -1    0    0    0    0 -0.00000000000E+00 -0.00000000000E+00 -0.17950706973E+03  0.17950706973E+03  0.00000000000E+00 0. -1.
         24    2    1    2    0    0 -0.72041264659E+02 -0.12027343111E+02 -0.91879352284E+02  0.14394060895E+03  0.83321562233E+02 0.  0.
         25    2    1    2    0    0  0.72056578837E+02  0.83799467820E+02  0.62177844108E+02  0.17812430170E+03  0.12509069189E+03 0.  0.
        -24    2    1    2    0    0 -0.15314177758E-01 -0.71772124709E+02  0.78589549962E+03  0.79314322026E+03  0.79329650201E+02 0.  0.
        -13    1    3    3    0    0  0.13758465716E+02  0.14056215659E+02 -0.26308975628E+02  0.32848664754E+02  0.00000000000E+00 0.  1.
         14    1    3    3    0    0 -0.85799730375E+02 -0.26083558770E+02 -0.65570376656E+02  0.11109194420E+03  0.00000000000E+00 0. -1.
         11    1    5    5    0    0  0.15599844927E+02 -0.59948539069E+02  0.27575977562E+03  0.28263162659E+03  0.00000000000E+00 0. -1.
        -12    1    5    5    0    0 -0.15615159105E+02 -0.11823585640E+02  0.51013572399E+03  0.51051159367E+03  0.00000000000E+00 0.  1.
          5    1    4    4  501    0  0.40873948366E+02 -0.23011194942E+02 -0.61368492482E+01  0.47490294444E+02  0.41800000000E+01 0.  1.
         -5    1    4    4    0  501  0.31182630471E+02  0.10681066276E+03  0.68314693356E+02  0.13063400725E+03  0.41800000000E+01 0.  1.
</event>
<event>
11    1  0.7577197E-009  0.2999742E+03  0.7561462E-02  0.1000202E+00
         22   -1    0    0    0    0  0.00000000000E+00  0.00000000000E+00  0.30874349273E+03  0.30874349273E+03  0.00000000000E+00 0. -1.
         22   -1    0    0    0    0 -0.00000000000E+00 -0.00000000000E+00 -0.51436280575E+03  0.51436280575E+03  0.00000000000E+00 0.  1.
         24    2    1    2    0    0  0.56457706359E+02  0.11179514222E+02 -0.19603061805E+03  0.21971474407E+03  0.80833850620E+02 0.  0.
         25    2    1    2    0    0 -0.17683912010E+03  0.22605211151E+03 -0.64008498753E+02  0.31955690229E+03  0.12509154397E+03 0.  0.
        -24    2    1    2    0    0  0.12038141374E+03 -0.23723162574E+03  0.54419803780E+02  0.28383465211E+03  0.82644211344E+02 0.  0.
        -13    1    3    3    0    0  0.26965681404E+02 -0.24320977655E+02 -0.15073804785E+03  0.15505036922E+03  0.00000000000E+00 0.  1.
         14    1    3    3    0    0  0.29492024955E+02  0.35500491878E+02 -0.45292570201E+02  0.64664374851E+02  0.00000000000E+00 0. -1.
         13    1    5    5    0    0  0.43672952777E+02 -0.19854336606E+02  0.11951608549E+02  0.49440493861E+02  0.00000000000E+00 0. -1.
        -14    1    5    5    0    0  0.76708460966E+02 -0.21737728913E+03  0.42468195231E+02  0.23439415824E+03  0.00000000000E+00 0.  1.
          5    1    4    4  501    0 -0.15608365605E+03  0.14010926139E+03 -0.88544667905E+02  0.22770670484E+03  0.41800000000E+01 0.  1.
         -5    1    4    4    0  501 -0.20755464047E+02  0.85942850128E+02  0.24536169152E+02  0.91850197455E+02  0.41800000000E+01 0.  1.
</event>
<event>
11    1  0.7577197E-009  0.2065962E+03  0.7561462E-02  0.1049955E+00
         22   -1    0    0    0    0  0.00000000000E+00  0.00000000000E+00  0.82998633212E+03  0.82998633212E+03  0.00000000000E+00 0.  1.
         22   -1    0    0    0    0 -0.00000000000E+00 -0.00000000000E+00 -0.27255623758E+03  0.27255623758E+03  0.00000000000E+00 0. -1.
        -24    2    1    2    0    0  0.14607443638E+03  0.64200612254E+02 -0.14820280655E+03  0.23915497271E+03  0.98851249499E+02 0.  0.
         25    2    1    2    0    0 -0.12851479485E+03 -0.15616011555E+03  0.12298796543E+03  0.26772584700E+03  0.12509618431E+03 0.  0.
         24    2    1    2    0    0 -0.17559641526E+02  0.91959503292E+02  0.58264493566E+03  0.59566174998E+03  0.81073473399E+02 0.  0.
        -11    1    5    5    0    0 -0.47791481318E+02  0.75156136336E+02  0.43421824496E+03  0.44325833863E+03  0.00000000000E+00 0.  1.
         12    1    5    5    0    0  0.30231839792E+02  0.16803366956E+02  0.14842669070E+03  0.15240341135E+03  0.00000000000E+00 0. -1.
         11    1    3    3    0    0  0.90994986134E+02  0.78985716144E+02 -0.13434828585E+03  0.18046687443E+03  0.00000000000E+00 0. -1.
        -12    1    3    3    0    0  0.55079450243E+02 -0.14785103890E+02 -0.13854520700E+02  0.58688098281E+02  0.00000000000E+00 0.  1.
          5    1    4    4  501    0 -0.86184298067E+02 -0.14909147415E+03  0.13938988565E+03  0.22159199787E+03  0.41800000000E+01 0. -1.
         -5    1    4    4    0  501 -0.42330496783E+02 -0.70686413977E+01 -0.16401920218E+02  0.46133849134E+02  0.41800000000E+01 0. -1.
</event>
<event>
11    1  0.7577197E-009  0.1438763E+03  0.7561462E-02  0.1103305E+00
         22   -1    0    0    0    0  0.00000000000E+00  0.00000000000E+00  0.60424638589E+03  0.60424638589E+03  0.00000000000E+00 0. -1.
         22   -1    0    0    0    0 -0.00000000000E+00 -0.00000000000E+00 -0.11770242832E+04  0.11770242832E+04  0.00000000000E+00 0.  1.
        -24    2    1    2    0    0 -0.40861974611E+02 -0.10387866998E+02 -0.77940936444E+03  0.78400010226E+03  0.73481931149E+02 0.  0.
         25    2    1    2    0    0 -0.28182601305E+02  0.29243282819E+02 -0.37936040012E+03  0.40150480088E+03  0.12506943408E+03 0.  0.
         24    2    1    2    0    0  0.69044575916E+02 -0.18855415820E+02  0.58599186725E+03  0.59576576596E+03  0.80172933333E+02 0.  0.
        -13    1    5    5    0    0 -0.62190500702E+01  0.16149807554E+02  0.41205608867E+02  0.44692226057E+02  0.00000000000E+00 0.  1.
         14    1    5    5    0    0  0.75263625986E+02 -0.35005223374E+02  0.54478625838E+03  0.55107353990E+03  0.00000000000E+00 0. -1.
         11    1    3    3    0    0  0.76063687267E+01 -0.30914644618E+02 -0.26537353250E+03  0.26727641843E+03  0.00000000000E+00 0. -1.
        -12    1    3    3    0    0 -0.48468343338E+02  0.20526777619E+02 -0.51403583194E+03  0.51672368382E+03  0.00000000000E+00 0.  1.
          5    1    4    4  501    0  0.35000829596E+02 -0.13195640081E+02 -0.45486953910E+02  0.59039972608E+02  0.41800000000E+01 0. -1.
         -5    1    4    4    0  501 -0.63183430900E+02  0.42438922900E+02 -0.33387344621E+03  0.34246482827E+03  0.41800000000E+01 0. -1.
</event>
<event>
11    1  0.7577197E-009  0.2741439E+03  0.7561462E-02  0.1011770E+00
         22   -1    0    0    0    0  0.00000000000E+00  0.00000000000E+00  0.13974091733E+04  0.13974091733E+04  0.00000000000E+00 0.  1.
         22   -1    0    0    0    0 -0.00000000000E+00 -0.00000000000E+00 -0.51431294315E+03  0.51431294315E+03  0.00000000000E+00 0. -1.
        -24    2    1    2    0    0 -0.21688035274E+02 -0.24809336556E+03 -0.45097215693E+03  0.52183942879E+03  0.83185420653E+02 0.  0.
         25    2    1    2    0    0 -0.63794462129E+02  0.16924123449E+03  0.53516297574E+03  0.57858440806E+03  0.12509267683E+03 0.  0.
         24    2    1    2    0    0  0.85482497403E+02  0.78852131070E+02  0.79890541133E+03  0.81129827960E+03  0.80188068275E+02 0.  0.
        -11    1    5    5    0    0  0.81796880429E+02  0.22652830076E+02  0.46796329191E+03  0.47559806868E+03  0.00000000000E+00 0.  1.
         12    1    5    5    0    0  0.36856169740E+01  0.56199300995E+02  0.33094211943E+03  0.33570021092E+03  0.00000000000E+00 0. -1.
         13    1    3    3    0    0 -0.38494686480E+02 -0.16776036100E+03 -0.36175258758E+03  0.40061242396E+03  0.00000000000E+00 0. -1.
        -14    1    3    3    0    0  0.16806651206E+02 -0.80333004556E+02 -0.89219569350E+02  0.12122700483E+03  0.00000000000E+00 0.  1.
          5    1    4    4  501    0 -0.66736033316E+02  0.42749209943E+02  0.11472576251E+03  0.13950149130E+03  0.41800000000E+01 0. -1.
         -5    1    4    4    0  501  0.29415711868E+01  0.12649202454E+03  0.42043721323E+03  0.43908291676E+03  0.41800000000E+01 0. -1.
</event>
<event>
11    1  0.7577197E-009  0.1460996E+03  0.7561462E-02  0.1100932E+00
         22   -1    0    0    0    0  0.00000000000E+00  0.00000000000E+00  0.10077194796E+04  0.10077194796E+04  0.00000000000E+00 0. -1.
         22   -1    0    0    0    0 -0.00000000000E+00 -0.00000000000E+00 -0.30882145634E+03  0.30882145634E+03  0.00000000000E+00 0. -1.
        -24    2    1    2    0    0  0.29362839075E+02  0.68405278741E+02 -0.23931218804E+03  0.26318907197E+03  0.80353629522E+02 0.  0.
         25    2    1    2    0    0  0.18420284751E+02 -0.98944371939E+02  0.62762973402E+02  0.17239006228E+03  0.12509934897E+03 0.  0.
         24    2    1    2    0    0 -0.47783123826E+02  0.30539093198E+02  0.87544723793E+03  0.88096180174E+03  0.80436102431E+02 0.  0.
        -11    1    5    5    0    0 -0.15471955404E+02 -0.27229999260E+02  0.33983682297E+03  0.34127689712E+03  0.00000000000E+00 0.  1.
         12    1    5    5    0    0 -0.32311168422E+02  0.57769092457E+02  0.53561041496E+03  0.53968490461E+03  0.00000000000E+00 0. -1.
         11    1    3    3    0    0  0.19562389819E+02  0.86576285171E+02 -0.19902710752E+03  0.21792184328E+03  0.00000000000E+00 0. -1.
        -12    1    3    3    0    0  0.98004492558E+01 -0.18171006430E+02 -0.40285080525E+02  0.45267228689E+02  0.00000000000E+00 0.  1.
          5    1    4    4  501    0 -0.97890297312E+01  0.22276311076E+02  0.38164515903E+02  0.45453952660E+02  0.41800000000E+01 0. -1.
         -5    1    4    4    0  501  0.28209314482E+02 -0.12122068301E+03  0.24598457499E+02  0.12693610962E+03  0.41800000000E+01 0. -1.
</event>
<event>
11    1  0.7577197E-009  0.1397596E+03  0.7561462E-02  0.1107827E+00
         22   -1    0    0    0    0  0.00000000000E+00  0.00000000000E+00  0.26139689061E+04  0.26139689061E+04  0.00000000000E+00 0. -1.
         22   -1    0    0    0    0 -0.00000000000E+00 -0.00000000000E+00 -0.42277825691E+03  0.42277825691E+03  0.00000000000E+00 0.  1.
         24    2    1    2    0    0  0.55291018543E+02  0.34065268412E+02 -0.37683431775E+03  0.39111314397E+03  0.82145292665E+02 0.  0.
         25    2    1    2    0    0 -0.15758709482E+02 -0.19087052660E+02  0.69079344935E+02  0.14501708175E+03  0.12508135592E+03 0.  0.
        -24    2    1    2    0    0 -0.39532309062E+02 -0.14978215752E+02  0.24989456220E+04  0.25006169373E+04  0.81047485280E+02 0.  0.
        -13    1    3    3    0    0  0.29122571809E+02 -0.18662574601E+02 -0.23525724827E+03  0.23778643516E+03  0.00000000000E+00 0.  1.
         14    1    3    3    0    0  0.26168446735E+02  0.52727843012E+02 -0.14157706947E+03  0.15332670881E+03  0.00000000000E+00 0. -1.
         11    1    5    5    0    0 -0.61677529444E+02 -0.35798028634E+01  0.20904373492E+04  0.20913501006E+04  0.00000000000E+00 0. -1.
        -12    1    5    5    0    0  0.22145220382E+02 -0.11398412888E+02  0.40850827280E+03  0.40926683661E+03  0.00000000000E+00 0.  1.
          5    1    4    4  501    0 -0.65556599386E+02 -0.25799977074E+02  0.62305551719E+02  0.94142236617E+02  0.41800000000E+01 0. -1.
         -5    1    4    4    0  501  0.49797889905E+02  0.67129244141E+01  0.67737932161E+01  0.50874845137E+02  0.41800000000E+01 0. -1.
</event>
<event>
11    1  0.7577197E-009  0.1807011E+03  0.7561462E-02  0.1069077E+00
         22   -1    0    0    0    0  0.00000000000E+00  0.00000000000E+00  0.33653757040E+03  0.33653757040E+03  0.00000000000E+00 0. -1.
         22   -1    0    0    0    0 -0.00000000000E+00 -0.00000000000E+00 -0.18478363315E+04  0.18478363315E+04  0.00000000000E+00 0. -1.
         24    2    1    2    0    0 -0.90925563442E+02  0.94212045672E+02 -0.17687147723E+04  0.17753803443E+04  0.80498779500E+02 0.  0.
         25    2    1    2    0    0  0.10404386864E+03 -0.56518989660E+02  0.44784086450E+02  0.17796166726E+03  0.12508084514E+03 0.  0.
        -24    2    1    2    0    0 -0.13118305196E+02 -0.37693056011E+02  0.21263192478E+03  0.23103189033E+03  0.81058883000E+02 0.  0.
        -11    1    3    3    0    0 -0.24074486401E+02  0.53946342298E+02 -0.38898025715E+03  0.39344050274E+03  0.00000000000E+00 0.  1.
         12    1    3    3    0    0 -0.66851077041E+02  0.40265703373E+02 -0.13797345151E+04  0.13819398415E+04  0.00000000000E+00 0. -1.
         13    1    5    5    0    0 -0.25199414313E+02 -0.59591974590E+02  0.14035653705E+03  0.15455151701E+03  0.00000000000E+00 0. -1.
        -14    1    5    5    0    0  0.12081109117E+02  0.21898918579E+02  0.72275387729E+02  0.76480373324E+02  0.00000000000E+00 0.  1.
          5    1    4    4  501    0  0.69177940047E+02 -0.94179942369E+02  0.13492645206E+02  0.11770714850E+03  0.41800000000E+01 0.  1.
         -5    1    4    4    0  501  0.34865928591E+02  0.37660952708E+02  0.31291441244E+02  0.60254518757E+02  0.41800000000E+01 0.  1.
</event>
<event>
11    1  0.7577197E-009  0.2134424E+03  0.7561462E-02  0.1045405E+00
         22   -1    0    0    0    0  0.00000000000E+00  0.00000000000E+00  0.78345759404E+03  0.78345759404E+03  0.00000000000E+00 0.  1.
         22   -1    0    0    0    0 -0.00000000000E+00 -0.00000000000E+00 -0.78046699624E+03  0.78046699624E+03  0.00000000000E+00 0.  1.
         24    2    1    2    0    0 -0.11694837490E+03  0.10662785922E+02 -0.52247175046E+03  0.54139203653E+03  0.79611492844E+02 0.  0.
         25    2    1    2    0    0 -0.24964799214E+02 -0.11707105715E+03 -0.20397767423E+03  0.26755170156E+03  0.12509255694E+03 0.  0.
        -24    2    1    2    0    0  0.14191317411E+03  0.10640827122E+03  0.72944002250E+03  0.75498085219E+03  0.80319808208E+02 0.  0.
        -13    1    3    3    0    0 -0.94227478029E+02  0.34328547486E+01 -0.49936564140E+03  0.50818957676E+03  0.00000000000E+00 0.  1.
         14    1    3    3    0    0 -0.22720896871E+02  0.72299311731E+01 -0.23106109059E+02  0.33202459777E+02  0.00000000000E+00 0. -1.
         13    1    5    5    0    0  0.75851310871E+01  0.47334158565E+02  0.17382245330E+03  0.18031168030E+03  0.00000000000E+00 0. -1.
        -14    1    5    5    0    0  0.13432804303E+03  0.59074112660E+02  0.55561756919E+03  0.57466917189E+03  0.00000000000E+00 0.  1.
          5    1    4    4  501    0 -0.35507146400E+02 -0.11284448787E+03 -0.79739110682E+02  0.14272502955E+03  0.41800000000E+01 0.  1.
         -5    1    4    4    0  501  0.10542347186E+02 -0.42265692765E+01 -0.12423856355E+03  0.12482667201E+03  0.41800000000E+01 0.  1.
</event>
<event>
11    1  0.7577197E-009  0.1285711E+03  0.7561462E-02  0.1121037E+00
         22   -1    0    0    0    0  0.00000000000E+00  0.00000000000E+00  0.29302299016E+03  0.29302299016E+03  0.00000000000E+00 0. -1.
         22   -1    0    0    0    0 -0.00000000000E+00 -0.00000000000E+00 -0.12597827174E+04  0.12597827174E+04  0.00000000000E+00 0.  1.
        -24    2    1    2    0    0  0.47150648329E+01  0.39528865194E+01 -0.11478536106E+04  0.11506816219E+04  0.80389218262E+02 0.  0.
         25    2    1    2    0    0  0.20651013170E+02 -0.19668316904E+02 -0.63570310311E+02  0.14318478068E+03  0.12508952806E+03 0.  0.
         24    2    1    2    0    0 -0.25366078003E+02  0.15715430385E+02  0.24466419374E+03  0.25893930494E+03  0.79363614352E+02 0.  0.
        -13    1    5    5    0    0  0.66380307820E+01 -0.28666108073E+02  0.10134317126E+03  0.10552842066E+03  0.00000000000E+00 0.  1.
         14    1    5    5    0    0 -0.32004108785E+02  0.44381538458E+02  0.14332102247E+03  0.15341088429E+03  0.00000000000E+00 0. -1.
         13    1    3    3    0    0 -0.31968477453E+02 -0.68835173121E+01 -0.26656982084E+03  0.26856812123E+03  0.00000000000E+00 0. -1.
        -14    1    3    3    0    0  0.36683542286E+02  0.10836403831E+02 -0.88128378981E+03  0.88211350070E+03  0.00000000000E+00 0.  1.
          5    1    4    4  501    0  0.44597749741E+02 -0.55357750222E+02 -0.63410771433E+01  0.71492107613E+02  0.41800000000E+01 0.  1.
         -5    1    4    4    0  501 -0.23946736571E+02  0.35689433318E+02 -0.57229233168E+02  0.71692673070E+02  0.41800000000E+01 0.  1.
</event>
<event>
11    1  0.7577197E-009  0.1405533E+03  0.7561462E-02  0.1106942E+00
         22   -1    0    0    0    0  0.00000000000E+00  0.00000000000E+00  0.51537227527E+03  0.51537227527E+03  0.00000000000E+00 0. -1.
         22   -1    0    0    0    0 -0.00000000000E+00 -0.00000000000E+00 -0.22255430004E+03  0.22255430004E+03  0.00000000000E+00 0.  1.
        -24    2    1    2    0    0 -0.45645485689E+02  0.19039814425E+02 -0.17352965809E+03  0.19680194212E+03  0.78564860393E+02 0.  0.
         25    2    1    2    0    0  0.19364728991E+02  0.47259726780E+02  0.12815980375E+03  0.18622698311E+03  0.12508828658E+03 0.  0.
         24    2    1    2    0    0  0.26280756698E+02 -0.66299541204E+02  0.33818782958E+03  0.35489765007E+03  0.80591727960E+02 0.  0.
        -11    1    5    5    0    0  0.34866399072E+02 -0.42071177933E+02  0.89333200504E+02  0.10471900739E+03  0.00000000000E+00 0.  1.
         12    1    5    5    0    0 -0.85856423740E+01 -0.24228363272E+02  0.24885462907E+03  0.25017864268E+03  0.00000000000E+00 0. -1.
         13    1    3    3    0    0  0.16301186597E+02  0.22846945815E+02 -0.33970685572E+02  0.44064941799E+02  0.00000000000E+00 0. -1.
        -14    1    3    3    0    0 -0.61946672286E+02 -0.38071313902E+01 -0.13955897252E+03  0.15273700032E+03  0.00000000000E+00 0.  1.
          5    1    4    4  501    0 -0.10401177475E+02 -0.17619817755E+02  0.11065906545E+03  0.11261236006E+03  0.41800000000E+01 0. -1.
         -5    1    4    4    0  501  0.29765906466E+02  0.64879544535E+02  0.17500738295E+02  0.73614623056E+02  0.41800000000E+01 0. -1.
</event>
<event>
11    1  0.7577197E-009  0.1407368E+03  0.7561462E-02  0.1106738E+00
         22   -1    0    0    0    0  0.00000000000E+00  0.00000000000E+00  0.61833655362E+03  0.61833655362E+03  0.00000000000E+00 0.  1.
         22   -1    0    0    0    0 -0.00000000000E+00 -0.00000000000E+00 -0.92909926481E+03  0.92909926481E+03  0.00000000000E+00 0.  1.
         24    2    1    2    0    0  0.29137999367E+02  0.59758890018E+02 -0.86164257298E+03  0.86797984780E+03  0.80876106903E+02 0.  0.
         25    2    1    2    0    0  0.89989008094E+01 -0.28139949099E+02  0.82152247817E+01  0.12879264599E+03  0.12508884359E+03 0.  0.
        -24    2    1    2    0    0 -0.38136900176E+02 -0.31618940919E+02  0.54266463702E+03  0.55066332464E+03  0.79315876429E+02 0.  0.
        -11    1    3    3    0    0  0.48931432486E+02  0.67547921792E+02 -0.69253182278E+03  0.69753661724E+03  0.00000000000E+00 0.  1.
         12    1    3    3    0    0 -0.19793433120E+02 -0.77890317743E+01 -0.16911075021E+03  0.17044323057E+03  0.00000000000E+00 0. -1.
         13    1    5    5    0    0 -0.36612949279E+02 -0.27676036842E+02  0.12804315749E+03  0.13602029719E+03  0.00000000000E+00 0. -1.
        -14    1    5    5    0    0 -0.15239508973E+01 -0.39429040773E+01  0.41462147953E+03  0.41464302745E+03  0.00000000000E+00 0.  1.
          5    1    4    4  501    0  0.16042206504E+01 -0.69059402407E+02 -0.26858217007E+02  0.74233488437E+02  0.41800000000E+01 0.  1.
         -5    1    4    4    0  501  0.73946801590E+01  0.40919453308E+02  0.35073441789E+02  0.54559157550E+02  0.41800000000E+01 0.  1.
</event>
<event>
11    1  0.7577197E-009  0.2024697E+03  0.7561462E-02  0.1052791E+00
         22   -1    0    0    0    0  0.00000000000E+00  0.00000000000E+00  0.10722746903E+04  0.10722746903E+04  0.00000000000E+00 0.  1.
         22   -1    0    0    0    0 -0.00000000000E+00 -0.00000000000E+00 -0.17409787910E+04  0.17409787910E+04  0.00000000000E+00 0. -1.
        -24    2    1    2    0    0 -0.15193591087E+03  0.43778473937E+02 -0.16055600293E+04  0.16153726010E+04  0.81268423211E+02 0.  0.
         25    2    1    2    0    0  0.16109178061E+03 -0.93630302660E+02 -0.29900116971E+02  0.22640310421E+03  0.12508858158E+03 0.  0.
         24    2    1    2    0    0 -0.91558697400E+01  0.49851828723E+02  0.96675604558E+03  0.97147777600E+03  0.81134350398E+02 0.  0.
        -11    1    5    5    0    0 -0.17361650729E+02 -0.16158509559E+02  0.42364950129E+03  0.42431288490E+03  0.00000000000E+00 0.  1.
         12    1    5    5    0    0  0.82057809891E+01  0.66010338282E+02  0.54310654429E+03  0.54716489110E+03  0.00000000000E+00 0. -1.
         11    1    3    3    0    0 -0.15931247419E+03  0.42863551691E+02 -0.14014314718E+04  0.14111087551E+04  0.00000000000E+00 0. -1.
        -12    1    3    3    0    0  0.73765633144E+01  0.91492224609E+00 -0.20412855749E+03  0.20426384592E+03  0.00000000000E+00 0.  1.
          5    1    4    4  501    0 -0.14065402753E+02 -0.14091429715E+02 -0.27202149225E+02  0.33968121356E+02  0.41800000000E+01 0. -1.
         -5    1    4    4    0  501  0.17515718337E+03 -0.79538872945E+02 -0.26979677462E+01  0.19243498285E+03  0.41800000000E+01 0. -1.
</event>
<event>
11    1  0.7577197E-009  0.2780421E+03  0.7561462E-02  0.1009938E+00
         22   -1    0    0    0    0  0.00000000000E+00  0.00000000000E+00  0.51293192311E+03  0.51293192311E+03  0.00000000000E+00 0.  1.
         22   -1    0    0    0    0 -0.00000000000E+00 -0.00000000000E+00 -0.20031401518E+04  0.20031401518E+04  0.00000000000E+00 0.  1.
         24    2    1    2    0    0 -0.10892548265E+03  0.19090144691E+03 -0.14079720513E+04  0.14271496455E+04  0.77863278924E+02 0.  0.
         25    2    1    2    0    0  0.21922291622E+03 -0.39731638002E+03 -0.44636433571E+03  0.64869792407E+03  0.12509549821E+03 0.  0.
        -24    2    1    2    0    0 -0.11029743357E+03  0.20641493311E+03  0.36412815834E+03  0.44022450532E+03  0.80222508810E+02 0.  0.
        -11    1    3    3    0    0 -0.10234836042E+03  0.19705562036E+03 -0.13803539195E+04  0.13980997989E+04  0.00000000000E+00 0.  1.
         12    1    3    3    0    0 -0.65771222207E+01 -0.61541734519E+01 -0.27618131781E+02  0.29049846654E+02  0.00000000000E+00 0. -1.
         13    1    5    5    0    0 -0.32640604415E+02  0.23172777656E+02  0.25558373231E+02  0.47493337671E+02  0.00000000000E+00 0. -1.
        -14    1    5    5    0    0 -0.77656829159E+02  0.18324215545E+03  0.33856978511E+03  0.39273116765E+03  0.00000000000E+00 0.  1.
          5    1    4    4  501    0  0.89384415253E+02 -0.28255079858E+03 -0.26111700244E+03  0.39499884662E+03  0.41800000000E+01 0.  1.
         -5    1    4    4    0  501  0.12983850097E+03 -0.11476558144E+03 -0.18524733327E+03  0.25369907745E+03  0.41800000000E+01 0.  1.
</event>
<event>
11    1  0.7577197E-009  0.1582179E+03  0.7561462E-02  0.1088766E+00
         22   -1    0    0    0    0  0.00000000000E+00  0.00000000000E+00  0.90807422412E+02  0.90807422412E+02  0.00000000000E+00 0.  1.
         22   -1    0    0    0    0 -0.00000000000E+00 -0.00000000000E+00 -0.75502805525E+03  0.75502805525E+03  0.00000000000E+00 0.  1.
         24    2    1    2    0    0 -0.59728649025E+02  0.58435478097E+02 -0.34795922864E+03  0.36702736364E+03  0.81555160760E+02 0.  0.
         25    2    1    2    0    0  0.11030524813E+03 -0.69644517509E+02 -0.33592075154E+03  0.38145411911E+03  0.12508751771E+03 0.  0.
        -24    2    1    2    0    0 -0.50576599100E+02  0.11209039412E+02  0.19659347337E+02  0.97353994923E+02  0.80047957180E+02 0.  0.
        -13    1    3    3    0    0 -0.50089052554E+02  0.24721971901E+02 -0.31140215806E+03  0.31637223823E+03  0.00000000000E+00 0.  1.
         14    1    3    3    0    0 -0.96395964714E+01  0.33713506196E+02 -0.36557070582E+02  0.50655125404E+02  0.00000000000E+00 0. -1.
         11    1    5    5    0    0 -0.51476100820E+02 -0.19351522595E+02 -0.86704170076E+01  0.55672672951E+02  0.00000000000E+00 0. -1.
        -12    1    5    5    0    0  0.89950172006E+00  0.30560562007E+02  0.28329764345E+02  0.41681321972E+02  0.00000000000E+00 0.  1.
          5    1    4    4  501    0  0.12712114439E+03 -0.81185045059E+02 -0.24148889788E+03  0.28475455587E+03  0.41800000000E+01 0.  1.
         -5    1    4    4    0  501 -0.16815896269E+02  0.11540527550E+02 -0.94431853660E+02  0.96699563231E+02  0.41800000000E+01 0.  1.
</event>
<event>
11    1  0.7577197E-009  0.1632338E+03  0.7561462E-02  0.1084075E+00
         22   -1    0    0    0    0  0.00000000000E+00  0.00000000000E+00  0.13395106465E+04  0.13395106465E+04  0.00000000000E+00 0. -1.
         22   -1    0    0    0    0 -0.00000000000E+00 -0.00000000000E+00 -0.27150601132E+03  0.27150601132E+03  0.00000000000E+00 0.  1.
        -24    2    1    2    0    0  0.10070073821E+02  0.12753190402E+02 -0.24266939637E+03  0.25637942833E+03  0.81104408552E+02 0.  0.
         25    2    1    2    0    0 -0.42476290908E+02 -0.10901657857E+03  0.40785807750E+03  0.44236253753E+03  0.12509018161E+03 0.  0.
         24    2    1    2    0    0  0.32406217086E+02  0.96263388172E+02  0.90281595406E+03  0.91227469199E+03  0.82774778263E+02 0.  0.
        -11    1    5    5    0    0  0.42027280162E+02  0.15577033669E+02  0.21133556738E+03  0.21603624301E+03  0.00000000000E+00 0.  1.
         12    1    5    5    0    0 -0.96210630754E+01  0.80686354503E+02  0.69148038669E+03  0.69623844898E+03  0.00000000000E+00 0. -1.
         13    1    3    3    0    0 -0.52094911081E+01 -0.25656449127E+02 -0.30385402836E+02  0.40108164816E+02  0.00000000000E+00 0. -1.
        -14    1    3    3    0    0  0.15279564929E+02  0.38409639529E+02 -0.21228399353E+03  0.21627126351E+03  0.00000000000E+00 0.  1.
          5    1    4    4  501    0 -0.69365299317E+02 -0.20071959210E+02  0.23744378494E+03  0.24821654196E+03  0.41800000000E+01 0. -1.
         -5    1    4    4    0  501  0.26889008409E+02 -0.88944619364E+02  0.17041429255E+03  0.19414599556E+03  0.41800000000E+01 0. -1.
</event>
<event>
11    1  0.7577197E-009  0.1400053E+03  0.7561462E-02  0.1107552E+00
         22   -1    0    0    0    0  0.00000000000E+00  0.00000000000E+00  0.23784621582E+04  0.23784621582E+04  0.00000000000E+00 0.  1.
         22   -1    0    0    0    0 -0.00000000000E+00 -0.00000000000E+00 -0.46453759952E+03  0.46453759952E+03  0.00000000000E+00 0. -1.
         24    2    1    2    0    0 -0.31092338119E+02 -0.31464729492E+02 -0.43235136323E+03  0.44292669511E+03  0.85437657160E+02 0.  0.
         25    2    1    2    0    0  0.77828639752E+02  0.70300274838E+02  0.23451803577E+03  0.28573829654E+03  0.12509292225E+03 0.  0.
        -24    2    1    2    0    0 -0.46736301633E+02 -0.38835545346E+02  0.21117578861E+04  0.21143347661E+04  0.84838976240E+02 0.  0.
        -11    1    3    3    0    0 -0.39031332993E+02 -0.33979709759E+02 -0.12274192674E+03  0.13320527847E+03  0.00000000000E+00 0.  1.
         12    1    3    3    0    0  0.79389948736E+01  0.25149802670E+01 -0.30960943649E+03  0.30972141664E+03  0.00000000000E+00 0. -1.
         13    1    5    5    0    0  0.22605949508E+02 -0.17141844225E+02  0.86193883187E+03  0.86240560159E+03  0.00000000000E+00 0. -1.
        -14    1    5    5    0    0 -0.69342251141E+02 -0.21693701121E+02  0.12498190542E+04  0.12519291645E+04  0.00000000000E+00 0.  1.
          5    1    4    4  501    0  0.10545082305E+03  0.23234518729E+02  0.14546818953E+03  0.18121309419E+03  0.41800000000E+01 0.  1.
         -5    1    4    4    0  501 -0.27622183299E+02  0.47065756109E+02  0.89049846247E+02  0.10452520234E+03  0.41800000000E+01 0.  1.
</event>
<event>
11    1  0.7577197E-009  0.3713801E+03  0.7561462E-02  0.9738193E-01
         22   -1    0    0    0    0  0.00000000000E+00  0.00000000000E+00  0.52218332333E+03  0.52218332333E+03  0.00000000000E+00 0.  1.
         22   -1    0    0    0    0 -0.00000000000E+00 -0.00000000000E+00 -0.98270805772E+03  0.98270805772E+03  0.00000000000E+00 0.  1.
        -24    2    1    2    0    0 -0.26310950386E+02  0.39803491831E+01 -0.16607082165E+03  0.18593353375E+03  0.79269488947E+02 0.  0.
         25    2    1    2    0    0  0.31941271901E+03  0.18355393795E+03 -0.68625865287E+03  0.78886862289E+03  0.12508490048E+03 0.  0.
         24    2    1    2    0    0 -0.29310176863E+03 -0.18753428713E+03  0.39180474013E+03  0.53008922441E+03  0.80036715468E+02 0.  0.
        -13    1    5    5    0    0 -0.21707068083E+03 -0.16598184154E+03  0.33725873090E+03  0.43406578276E+03  0.00000000000E+00 0.  1.
         14    1    5    5    0    0 -0.76031087798E+02 -0.21552445598E+02  0.54546009228E+02  0.96023441647E+02  0.00000000000E+00 0. -1.
         11    1    3    3    0    0  0.61043317063E+01  0.33372569226E+02 -0.39807958624E+02  0.52303583167E+02  0.00000000000E+00 0. -1.
        -12    1    3    3    0    0 -0.32415282092E+02 -0.29392220043E+02 -0.12626286303E+03  0.13362995058E+03  0.00000000000E+00 0.  1.
          5    1    4    4  501    0  0.19303012775E+03  0.46880230858E+02 -0.41159170467E+03  0.45703784309E+03  0.41800000000E+01 0. -1.
         -5    1    4    4    0  501  0.12638259126E+03  0.13667370709E+03 -0.27466694820E+03  0.33183077979E+03  0.41800000000E+01 0. -1.
</event>
<event>
11    1  0.7577197E-009  0.1760722E+03  0.7561462E-02  0.1072865E+00
         22   -1    0    0    0    0  0.00000000000E+00  0.00000000000E+00  0.10602648328E+04  0.10602648328E+04  0.00000000000E+00 0. -1.
         22   -1    0    0    0    0 -0.00000000000E+00 -0.00000000000E+00 -0.26597534623E+03  0.26597534623E+03  0.00000000000E+00 0.  1.
        -24    2    1    2    0    0  0.23391351327E+02 -0.49208550080E+02 -0.13068642427E+03  0.16278676086E+03  0.80324039394E+02 0.  0.
         25    2    1    2    0    0 -0.86799292989E+02 -0.58878447491E+02 -0.54824816610E+02  0.17223543989E+03  0.12513391784E+03 0.  0.
         24    2    1    2    0    0  0.63407941661E+02  0.10808699757E+03  0.97980072747E+03  0.99121797831E+03  0.82463621476E+02 0.  0.
        -13    1    5    5    0    0 -0.91599439883E+01  0.48719599299E+02  0.21226267403E+03  0.21797464696E+03  0.00000000000E+00 0.  1.
         14    1    5    5    0    0  0.72567885650E+02  0.59367398272E+02  0.76753805343E+03  0.77324333135E+03  0.00000000000E+00 0. -1.
         11    1    3    3    0    0 -0.24098415266E+02 -0.42532881434E+02 -0.60519264662E+02  0.77796921640E+02  0.00000000000E+00 0. -1.
        -12    1    3    3    0    0  0.47489766593E+02 -0.66756686451E+01 -0.70167159606E+02  0.84989839217E+02  0.00000000000E+00 0.  1.
          5    1    4    4  501    0 -0.29054377676E+01  0.26713646497E+02  0.17359907133E+02  0.32262970314E+02  0.41800000000E+01 0. -1.
         -5    1    4    4    0  501 -0.83893855221E+02 -0.85592093989E+02 -0.72184723743E+02  0.13997246958E+03  0.41800000000E+01 0. -1.
</event>
<event>
11    1  0.7577197E-009  0.1477685E+03  0.7561462E-02  0.1099181E+00
         22   -1    0    0    0    0  0.00000000000E+00  0.00000000000E+00  0.45591498430E+03  0.45591498430E+03  0.00000000000E+00 0. -1.
         22   -1    0    0    0    0 -0.00000000000E+00 -0.00000000000E+00 -0.44723115928E+03  0.44723115928E+03  0.00000000000E+00 0. -1.
         24    2    1    2    0    0  0.22026903583E+02  0.52937667514E+02 -0.39850966851E+03  0.41064555590E+03  0.80822246685E+02 0.  0.
         25    2    1    2    0    0  0.60113424382E+02 -0.15194111232E+02  0.13312462630E+03  0.19291038530E+03  0.12509103014E+03 0.  0.
        -24    2    1    2    0    0 -0.82140327965E+02 -0.37743556282E+02  0.27406886723E+03  0.29959020239E+03  0.80429695177E+02 0.  0.
        -11    1    3    3    0    0  0.37950108083E+02  0.30110279931E+02 -0.10295174520E+03  0.11378005757E+03  0.00000000000E+00 0.  1.
         12    1    3    3    0    0 -0.15923204500E+02  0.22827387582E+02 -0.29555792331E+03  0.29686549833E+03  0.00000000000E+00 0. -1.
         11    1    5    5    0    0 -0.96124995615E+02 -0.43159292203E+02  0.24901637039E+03  0.27039210788E+03  0.00000000000E+00 0. -1.
        -12    1    5    5    0    0  0.13984667650E+02  0.54157359213E+01  0.25052496839E+02  0.29198094505E+02  0.00000000000E+00 0.  1.
          5    1    4    4  501    0 -0.72806863501E+01  0.13900781393E+02  0.11637360024E+03  0.11750118021E+03  0.41800000000E+01 0.  1.
         -5    1    4    4    0  501  0.67394110732E+02 -0.29094892625E+02  0.16751026058E+02  0.75409205089E+02  0.41800000000E+01 0.  1.
</event>
<event>
11    1  0.7577197E-009  0.1412998E+03  0.7561462E-02  0.1106116E+00
         22   -1    0    0    0    0  0.00000000000E+00  0.00000000000E+00  0.55704849478E+03  0.55704849478E+03  0.00000000000E+00 0. -1.
         22   -1    0    0    0    0 -0.00000000000E+00 -0.00000000000E+00 -0.23782668674E+03  0.23782668674E+03  0.00000000000E+00 0. -1.
        -24    2    1    2    0    0  0.48392252072E+02  0.59220853466E+02 -0.14835891488E+03  0.18534919165E+03  0.80591784159E+02 0.  0.
         25    2    1    2    0    0 -0.32226243791E+02 -0.10261622682E+02 -0.24581230272E+01  0.12958094860E+03  0.12506537564E+03 0.  0.
         24    2    1    2    0    0 -0.16166008281E+02 -0.48959230783E+02  0.47003884596E+03  0.47994504127E+03  0.82172865513E+02 0.  0.
        -13    1    5    5    0    0 -0.70855052981E+01 -0.24101587025E+02  0.30078037188E+02  0.39189018915E+02  0.00000000000E+00 0.  1.
         14    1    5    5    0    0 -0.90805029831E+01 -0.24857643758E+02  0.43996080877E+03  0.44075602235E+03  0.00000000000E+00 0. -1.
         11    1    3    3    0    0  0.12731619340E+02  0.68007879467E+02 -0.12160547854E+03  0.13991089383E+03  0.00000000000E+00 0. -1.
        -12    1    3    3    0    0  0.35660632732E+02 -0.87870260013E+01 -0.26753436342E+02  0.45438297822E+02  0.00000000000E+00 0.  1.
          5    1    4    4  501    0 -0.37032230959E+02  0.31733634866E+02 -0.47122572249E+02  0.67944233949E+02  0.41800000000E+01 0.  1.
         -5    1    4    4    0  501  0.48059871687E+01 -0.41995257548E+02  0.44664449221E+02  0.61636714655E+02  0.41800000000E+01 0.  1.
</event>
<event>
11    1  0.7577197E-009  0.2395500E+03  0.7561462E-02  0.1029618E+00
         22   -1    0    0    0    0  0.00000000000E+00  0.00000000000E+00  0.22362591245E+03  0.22362591245E+03  0.00000000000E+00 0. -1.
         22   -1    0    0    0    0 -0.00000000000E+00 -0.00000000000E+00 -0.12704787303E+04  0.12704787303E+04  0.00000000000E+00 0. -1.
         24    2    1    2    0    0  0.79446955988E+02  0.18898237077E+03 -0.10654380304E+04  0.10880255714E+04  0.81334446447E+02 0.  0.
         25    2    1    2    0    0 -0.10592228782E+03 -0.17145153739E+03 -0.10175466906E+03  0.25810182000E+03  0.12508947231E+03 0.  0.
        -24    2    1    2    0    0  0.26475331831E+02 -0.17530833377E+02  0.12033988161E+03  0.14797725132E+03  0.80045652520E+02 0.  0.
        -11    1    3    3    0    0 -0.15947867181E+02  0.43504419113E+02 -0.20378517730E+03  0.20898652454E+03  0.00000000000E+00 0.  1.
         12    1    3    3    0    0  0.95394823168E+02  0.14547795166E+03 -0.86165285312E+03  0.87903904691E+03  0.00000000000E+00 0. -1.
         11    1    5    5    0    0  0.27819551699E+02 -0.19891382154E+02  0.13181795522E+03  0.13618211285E+03  0.00000000000E+00 0. -1.
        -12    1    5    5    0    0 -0.13442198687E+01  0.23605487768E+01 -0.11478073615E+02  0.11795138468E+02  0.00000000000E+00 0.  1.
          5    1    4    4  501    0 -0.91456215948E+02 -0.18511957092E+03 -0.11242223980E+03  0.23513767749E+03  0.41800000000E+01 0.  1.
         -5    1    4    4    0  501 -0.14466071870E+02  0.13668033528E+02  0.10667570739E+02  0.22964142513E+02  0.41800000000E+01 0.  1.
</event>
<event>
11    1  0.7577197E-009  0.1669220E+03  0.7561462E-02  0.1080742E+00
         22   -1    0    0    0    0  0.00000000000E+00  0.00000000000E+00  0.87285901808E+03  0.87285901808E+03  0.00000000000E+00 0.  1.
         22   -1    0    0    0    0 -0.00000000000E+00 -0.00000000000E+00 -0.10526313972E+04  0.10526313972E+04  0.00000000000E+00 0. -1.
        -24    2    1    2    0    0 -0.39498578675E+02  0.10154883775E+03 -0.98283464210E+03  0.99201281103E+03  0.79077046979E+02 0.  0.
         25    2    1    2    0    0  0.83135835177E+02 -0.15740363880E+03  0.13304052577E+03  0.25501658451E+03  0.12508478838E+03 0.  0.
         24    2    1    2    0    0 -0.43637256502E+02  0.55854801044E+02  0.67002173722E+03  0.67846101973E+03  0.79726143640E+02 0.  0.
        -13    1    5    5    0    0 -0.53635774555E+02  0.54615491402E+02  0.65937304170E+03  0.66380151878E+03  0.00000000000E+00 0.  1.
         14    1    5    5    0    0  0.99985180533E+01  0.12393096421E+01  0.10648695527E+02  0.14659500949E+02  0.00000000000E+00 0. -1.
         13    1    3    3    0    0 -0.15386239236E+02  0.72850221925E+02 -0.86860469332E+03  0.87179011490E+03  0.00000000000E+00 0. -1.
        -14    1    3    3    0    0 -0.24112339438E+02  0.28698615826E+02 -0.11422994879E+03  0.12022269613E+03  0.00000000000E+00 0.  1.
          5    1    4    4  501    0  0.64725970592E+02 -0.14785648433E+03  0.15550020974E+03  0.22416239394E+03  0.41800000000E+01 0.  1.
         -5    1    4    4    0  501  0.18409864585E+02 -0.95471544638E+01 -0.22459683964E+02  0.30854190577E+02  0.41800000000E+01 0.  1.
</event>
<event>
11    1  0.7577197E-009  0.1626242E+03  0.7561462E-02  0.1084635E+00
         22   -1    0    0    0    0  0.00000000000E+00  0.00000000000E+00  0.24716510987E+03  0.24716510987E+03  0.00000000000E+00 0. -1.
         22   -1    0    0    0    0 -0.00000000000E+00 -0.00000000000E+00 -0.64578211458E+03  0.64578211458E+03  0.00000000000E+00 0. -1.
         24    2    1    2    0    0 -0.31411789436E+02 -0.11606724806E+02 -0.48509421680E+03  0.49322434412E+03  0.82658562085E+02 0.  0.
         25    2    1    2    0    0 -0.15314401650E+02  0.10491985053E+03 -0.82028673166E+02  0.18335414640E+03  0.12508930349E+03 0.  0.
        -24    2    1    2    0    0  0.46726191086E+02 -0.93313125723E+02  0.16850588526E+03  0.21636873392E+03  0.86778564680E+02 0.  0.
        -11    1    3    3    0    0 -0.58293793476E+02 -0.76423164226E+01 -0.26404365634E+03  0.27050993292E+03  0.00000000000E+00 0.  1.
         12    1    3    3    0    0  0.26882004040E+02 -0.39644083835E+01 -0.22105056046E+03  0.22271441120E+03  0.00000000000E+00 0. -1.
         11    1    5    5    0    0  0.11672278478E+02 -0.52984342921E+02  0.15050296835E+03  0.15998351841E+03  0.00000000000E+00 0. -1.
        -12    1    5    5    0    0  0.35053912608E+02 -0.40328782803E+02  0.18002916903E+02  0.56385215513E+02  0.00000000000E+00 0.  1.
          5    1    4    4  501    0 -0.59404652216E+02  0.10369076084E+03 -0.56957646372E+02  0.13244747060E+03  0.41800000000E+01 0. -1.
         -5    1    4    4    0  501  0.44090250566E+02  0.12290896887E+01 -0.25071026795E+02  0.50906675800E+02  0.41800000000E+01 0. -1.
</event>
<event>
11    1  0.7577197E-009  0.1501954E+03  0.7561462E-02  0.1096679E+00
         22   -1    0    0    0    0  0.00000000000E+00  0.00000000000E+00  0.18468865704E+04  0.18468865704E+04  0.00000000000E+00 0.  1.
         22   -1    0    0    0    0 -0.00000000000E+00 -0.00000000000E+00 -0.31723458953E+03  0.31723458953E+03  0.00000000000E+00 0.  1.
        -24    2    1    2    0    0  0.79682380037E+01 -0.81788510320E+01 -0.28350355396E+03  0.29490205357E+03  0.80390109310E+02 0.  0.
         25    2    1    2    0    0  0.65153621103E+02  0.48213035464E+02  0.18885853903E+03  0.24059259861E+03  0.12509100531E+03 0.  0.
         24    2    1    2    0    0 -0.73121859106E+02 -0.40034184432E+02  0.16242969958E+04  0.16286265078E+04  0.84463181340E+02 0.  0.
        -11    1    5    5    0    0 -0.59402097251E+02 -0.21164461700E+02  0.15361667788E+04  0.15374605413E+04  0.00000000000E+00 0.  1.
         12    1    5    5    0    0 -0.13719761855E+02 -0.18869722732E+02  0.88130216955E+02  0.91165966467E+02  0.00000000000E+00 0. -1.
         11    1    3    3    0    0  0.77111904171E+00  0.36132358656E+02 -0.11717719231E+03  0.12262396326E+03  0.00000000000E+00 0. -1.
        -12    1    3    3    0    0  0.71971189620E+01 -0.44311209688E+02 -0.16632636165E+03  0.17227809032E+03  0.00000000000E+00 0.  1.
          5    1    4    4  501    0  0.88270324923E+02  0.66718992854E+02  0.10924417641E+03  0.15554689566E+03  0.41800000000E+01 0. -1.
         -5    1    4    4    0  501 -0.23116703821E+02 -0.18505957389E+02  0.79614362624E+02  0.85045702951E+02  0.41800000000E+01 0. -1.
</event>
<event>
11    1  0.7577197E-009  0.1907970E+03  0.7561462E-02  0.1061229E+00
         22   -1    0    0    0    0  0.00000000000E+00  0.00000000000E+00  0.15422339613E+04  0.15422339613E+04  0.00000000000E+00 0.  1.
         22   -1    0    0    0    0 -0.00000000000E+00 -0.00000000000E+00 -0.19928033096E+04  0.19928033096E+04  0.00000000000E+00 0. -1.
        -24    2    1    2    0    0 -0.14029134145E+03  0.27881425040E+02 -0.18744297660E+04  0.18815136510E+04  0.78406869145E+02 0.  0.
         25    2    1    2    0    0  0.18117706334E+03  0.12958684377E+02 -0.55845770757E+01  0.22061749323E+03  0.12509130680E+03 0.  0.
         24    2    1    2    0    0 -0.40885721887E+02 -0.40840109417E+02  0.14294449947E+04  0.14329061266E+04  0.81039606806E+02 0.  0.
        -11    1    5    5    0    0 -0.16741365142E+02 -0.44594875189E+02  0.13158955346E+04  0.13167573938E+04  0.00000000000E+00 0.  1.
         12    1    5    5    0    0 -0.24144356745E+02  0.37547657718E+01  0.11354946018E+03  0.11614873282E+03  0.00000000000E+00 0. -1.
         11    1    3    3    0    0 -0.10054796823E+03  0.45222661522E+02 -0.15877422308E+04  0.15915653849E+04  0.00000000000E+00 0. -1.
        -12    1    3    3    0    0 -0.39743373222E+02 -0.17341236482E+02 -0.28668753520E+03  0.28994826613E+03  0.00000000000E+00 0.  1.
          5    1    4    4  501    0  0.44618810145E+02  0.57939997284E+02  0.16530750734E+02  0.75090742597E+02  0.41800000000E+01 0. -1.
         -5    1    4    4    0  501  0.13655825320E+03 -0.44981312906E+02 -0.22115327810E+02  0.14552675064E+03  0.41800000000E+01 0. -1.
</event>
<event>
11    1  0.7577197E-009  0.1311955E+03  0.7561462E-02  0.1117809E+00
         22   -1    0    0    0    0  0.00000000000E+00  0.00000000000E+00  0.80457576020E+03  0.80457576020E+03  0.00000000000E+00 0.  1.
         22   -1    0    0    0    0 -0.00000000000E+00 -0.00000000000E+00 -0.26491406648E+04  0.26491406648E+04  0.00000000000E+00 0. -1.
        -24    2    1    2    0    0  0.44568434251E+01  0.23394248552E+01 -0.20661751099E+04  0.20677426462E+04  0.80341332960E+02 0.  0.
         25    2    1    2    0    0 -0.40131359225E+02  0.14701870843E+02 -0.57214711701E+03  0.58721985391E+03  0.12509261495E+03 0.  0.
         24    2    1    2    0    0  0.35674515800E+02 -0.17041295698E+02  0.79375732232E+03  0.79875392488E+03  0.79962922309E+02 0.  0.
        -13    1    5    5    0    0 -0.15380785962E+02  0.20643158713E+02  0.22615328776E+03  0.22761374770E+03  0.00000000000E+00 0.  1.
         14    1    5    5    0    0  0.51055301762E+02 -0.37684454411E+02  0.56760403456E+03  0.57114017719E+03  0.00000000000E+00 0. -1.
         13    1    3    3    0    0  0.70720455496E+00  0.17163416554E+02 -0.19886376441E+04  0.19887118349E+04  0.00000000000E+00 0. -1.
        -14    1    3    3    0    0  0.37496388701E+01 -0.14823991699E+02 -0.77537465828E+02  0.79030811261E+02  0.00000000000E+00 0.  1.
          5    1    4    4  501    0 -0.79372899627E+01 -0.27407021049E+02 -0.47975279314E+03  0.48061872654E+03  0.41800000000E+01 0. -1.
         -5    1    4    4    0  501 -0.32194069262E+02  0.42108891892E+02 -0.92394323875E+02  0.10660112737E+03  0.41800000000E+01 0. -1.
</event>
<event>
11    1  0.7622122E-009  0.1645539E+03  0.7561462E-02  0.1082871E+00
         22   -1    0    0    0    0  0.00000000000E+00  0.00000000000E+00  0.24282340387E+04  0.24282340387E+04  0.00000000000E+00 0. -1.
         22   -1    0    0    0    0 -0.00000000000E+00 -0.00000000000E+00 -0.28452247965E+03  0.28452247965E+03  0.00000000000E+00 0.  1.
        -24    2    1    2    0    0  0.91233504005E+02 -0.56212117612E+02 -0.24279933384E+03  0.27693498823E+03  0.79108259841E+02 0.  0.
         25    2    1    2    0    0 -0.43720569978E+02  0.12029285281E+03  0.32373797625E+03  0.36991552701E+03  0.12509740677E+03 0.  0.
         24    2    1    2    0    0 -0.47512934027E+02 -0.64080735196E+02  0.20627729166E+04  0.20659060031E+04  0.81065951562E+02 0.  0.
        -11    1    5    5    0    0 -0.95861851122E+01 -0.22493683456E+02  0.12799362187E+03  0.13030820381E+03  0.00000000000E+00 0.  1.
         12    1    5    5    0    0 -0.37926748915E+02 -0.41587051741E+02  0.19347792948E+04  0.19355977993E+04  0.00000000000E+00 0. -1.
         13    1    3    3    0    0  0.57734316069E+00  0.12230886459E+02 -0.46776935415E+01  0.13107582751E+02  0.00000000000E+00 0. -1.
        -14    1    3    3    0    0  0.90656160844E+02 -0.68443004070E+02 -0.23812164030E+03  0.26382740548E+03  0.00000000000E+00 0.  1.
          5    1    4    4  501    0  0.12761787274E+02 -0.20904746340E+02  0.67379188882E+02  0.71814337903E+02  0.41800000000E+01 0.  1.
         -5    1    4    4    0  501 -0.56482357252E+02  0.14119759915E+03  0.25635878737E+03  0.29810118911E+03  0.41800000000E+01 0.  1.
</event>
<event>
11    1  0.1002194E-008  0.1698269E+03  0.7561462E-02  0.1078182E+00
         22   -1    0    0    0    0  0.00000000000E+00  0.00000000000E+00  0.11910590239E+04  0.11910590239E+04  0.00000000000E+00 0. -1.
         22   -1    0    0    0    0 -0.00000000000E+00 -0.00000000000E+00 -0.69104114097E+03  0.69104114097E+03  0.00000000000E+00 0. -1.
         24    2    1    2    0    0 -0.17179222489E+02  0.39262038182E+02 -0.38895043580E+03  0.39741365831E+03  0.69415711299E+02 0.  0.
         25    2    1    2    0    0 -0.56764648847E+02 -0.12680493943E+03 -0.26380728950E+03  0.32333097983E+03  0.12508764330E+03 0.  0.
        -24    2    1    2    0    0  0.73943871336E+02  0.87542901245E+02  0.11527756082E+04  0.11613555267E+04  0.81997566232E+02 0.  0.
        -13    1    3    3    0    0 -0.35548579515E+02  0.43280386494E+02 -0.20528666797E+03  0.21278982449E+03  0.00000000000E+00 0.  1.
         14    1    3    3    0    0  0.18369357026E+02 -0.40183483120E+01 -0.18366376783E+03  0.18462383382E+03  0.00000000000E+00 0. -1.
         13    1    5    5    0    0  0.17183170478E+02  0.36987891064E+02  0.77149056647E+03  0.77256783494E+03  0.00000000000E+00 0. -1.
        -14    1    5    5    0    0  0.56760700858E+02  0.50555010181E+02  0.38128504177E+03  0.38878769180E+03  0.00000000000E+00 0.  1.
          5    1    4    4  501    0  0.22466773118E+02 -0.68208031954E+02 -0.49223031106E+02  0.87163471183E+02  0.41800000000E+01 0.  1.
         -5    1    4    4    0  501 -0.79231421965E+02 -0.58596907473E+02 -0.21458425839E+03  0.23616750865E+03  0.41800000000E+01 0.  1.
</event>
<event>
11    1  0.7577197E-009  0.1867064E+03  0.7561462E-02  0.1064344E+00
         22   -1    0    0    0    0  0.00000000000E+00  0.00000000000E+00  0.56517178800E+03  0.56517178800E+03  0.00000000000E+00 0. -1.
         22   -1    0    0    0    0 -0.00000000000E+00 -0.00000000000E+00 -0.35006488105E+03  0.35006488105E+03  0.00000000000E+00 0. -1.
         24    2    1    2    0    0  0.42476962655E+02 -0.47364611431E+02 -0.20447039745E+03  0.22635404264E+03  0.73350599283E+02 0.  0.
         25    2    1    2    0    0 -0.14283674699E+03 -0.48294025735E+02 -0.40430444523E+02  0.20004215288E+03  0.12509033885E+03 0.  0.
        -24    2    1    2    0    0  0.10035978433E+03  0.95658637166E+02  0.46000774892E+03  0.48884047353E+03  0.90195445128E+02 0.  0.
        -13    1    3    3    0    0  0.50639465906E+02 -0.32272593980E+02 -0.76570338831E+02  0.97308235099E+02  0.00000000000E+00 0.  1.
         14    1    3    3    0    0 -0.81625032506E+01 -0.15092017451E+02 -0.12790005861E+03  0.12904580754E+03  0.00000000000E+00 0. -1.
         13    1    5    5    0    0  0.78196791367E+02  0.45901016027E+02  0.38854815429E+03  0.39898785652E+03  0.00000000000E+00 0. -1.
        -14    1    5    5    0    0  0.22162992965E+02  0.49757621138E+02  0.71459594632E+02  0.89852617010E+02  0.00000000000E+00 0.  1.
          5    1    4    4  501    0 -0.14228548628E+03 -0.40494193376E+02  0.10480156744E+02  0.14836524319E+03  0.41800000000E+01 0. -1.
         -5    1    4    4    0  501 -0.55126070949E+00 -0.77998323592E+01 -0.50910601268E+02  0.51676909685E+02  0.41800000000E+01 0. -1.
</event>
<event>
11    1  0.7577197E-009  0.1574471E+03  0.7561462E-02  0.1089503E+00
         22   -1    0    0    0    0  0.00000000000E+00  0.00000000000E+00  0.34109295646E+03  0.34109295646E+03  0.00000000000E+00 0. -1.
         22   -1    0    0    0    0 -0.00000000000E+00 -0.00000000000E+00 -0.70557868503E+03  0.70557868503E+03  0.00000000000E+00 0.  1.
        -24    2    1    2    0    0  0.14603265941E+02  0.32099032025E+02 -0.53477874038E+03  0.54233806643E+03  0.83058256083E+02 0.  0.
         25    2    1    2    0    0 -0.54313146190E+02 -0.11604706150E+03 -0.10199494081E+03  0.20607918378E+03  0.12509525853E+03 0.  0.
         24    2    1    2    0    0  0.39709880249E+02  0.83948029472E+02  0.27228795262E+03  0.29825439129E+03  0.78681678565E+02 0.  0.
        -13    1    5    5    0    0  0.88376339486E+01  0.64959572325E+02  0.84231365583E+02  0.10673693249E+03  0.00000000000E+00 0.  1.
         14    1    5    5    0    0  0.30872246300E+02  0.18988457147E+02  0.18805658703E+03  0.19151745879E+03  0.00000000000E+00 0. -1.
         11    1    3    3    0    0 -0.13474409215E+02  0.34795578250E+02 -0.10148576643E+03  0.10812794624E+03  0.00000000000E+00 0. -1.
        -12    1    3    3    0    0  0.28077675157E+02 -0.26965462255E+01 -0.43329297395E+03  0.43421012019E+03  0.00000000000E+00 0.  1.
          5    1    4    4  501    0 -0.20422203187E+02 -0.10383955074E+03 -0.12445702896E+03  0.16342197875E+03  0.41800000000E+01 0. -1.
         -5    1    4    4    0  501 -0.33890943003E+02 -0.12207510756E+02  0.22462088154E+02  0.42657205027E+02  0.41800000000E+01 0. -1.
</event>
<event>
11    1  0.7577197E-009  0.1388238E+03  0.7561462E-02  0.1108879E+00
         22   -1    0    0    0    0  0.00000000000E+00  0.00000000000E+00  0.21755397473E+03  0.21755397473E+03  0.00000000000E+00 0.  1.
         22   -1    0    0    0    0 -0.00000000000E+00 -0.00000000000E+00 -0.35745068632E+03  0.35745068632E+03  0.00000000000E+00 0. -1.
         24    2    1    2    0    0 -0.78276853091E+01  0.19377099723E+02 -0.12110763459E+03  0.14595627262E+03  0.78736457312E+02 0.  0.
         25    2    1    2    0    0  0.67440566181E+02 -0.14460008020E+02 -0.18605796474E+03  0.23456837307E+03  0.12508970223E+03 0.  0.
        -24    2    1    2    0    0 -0.59612880872E+02 -0.49170917027E+01  0.16726888774E+03  0.19448001536E+03  0.79156315038E+02 0.  0.
        -13    1    3    3    0    0 -0.26161831449E+02  0.29075655913E+02 -0.22358967018E+02  0.45052842282E+02  0.00000000000E+00 0.  1.
         14    1    3    3    0    0  0.18334146140E+02 -0.96985561898E+01 -0.98748667567E+02  0.10090343033E+03  0.00000000000E+00 0. -1.
         11    1    5    5    0    0 -0.41961851722E+02  0.35215593768E+02  0.82263869217E+02  0.98834605391E+02  0.00000000000E+00 0. -1.
        -12    1    5    5    0    0 -0.17651029150E+02 -0.40132685470E+02  0.85005018523E+02  0.95645409964E+02  0.00000000000E+00 0.  1.
          5    1    4    4  501    0 -0.18959193347E+02  0.36329896328E+02 -0.69500105611E+02  0.80790156947E+02  0.41800000000E+01 0.  1.
         -5    1    4    4    0  501  0.86399759528E+02 -0.50789904348E+02 -0.11655785913E+03  0.15377821613E+03  0.41800000000E+01 0.  1.
</event>
<event>
11    1  0.7577197E-009  0.1341485E+03  0.7561462E-02  0.1114274E+00
         22   -1    0    0    0    0  0.00000000000E+00  0.00000000000E+00  0.13207694365E+03  0.13207694365E+03  0.00000000000E+00 0. -1.
         22   -1    0    0    0    0 -0.00000000000E+00 -0.00000000000E+00 -0.40089038225E+03  0.40089038225E+03  0.00000000000E+00 0.  1.
         24    2    1    2    0    0 -0.49361601744E+02 -0.31893097554E+01 -0.29712797389E+03  0.31201542056E+03  0.81374752692E+02 0.  0.
         25    2    1    2    0    0  0.40598041001E+02 -0.11301669177E+02 -0.69581426895E+01  0.13218144162E+03  0.12509032376E+03 0.  0.
        -24    2    1    2    0    0  0.87635607432E+01  0.14490978932E+02  0.35272677978E+02  0.88770463722E+02  0.79682149509E+02 0.  0.
        -13    1    3    3    0    0 -0.15225131416E+02 -0.24202915939E+02 -0.24291463844E+03  0.24459171559E+03  0.00000000000E+00 0.  1.
         14    1    3    3    0    0 -0.34136470328E+02  0.21013606183E+02 -0.54213335449E+02  0.67423704970E+02  0.00000000000E+00 0. -1.
         13    1    5    5    0    0 -0.30650232430E+02 -0.19294982789E+01  0.34330718006E+02  0.46062543464E+02  0.00000000000E+00 0. -1.
        -14    1    5    5    0    0  0.39413793173E+02  0.16420477211E+02  0.94195997218E+00  0.42707920258E+02  0.00000000000E+00 0.  1.
          5    1    4    4  501    0  0.22801728183E+02 -0.45102867816E+02  0.44835045172E+02  0.67689298777E+02  0.41800000000E+01 0. -1.
         -5    1    4    4    0  501  0.17796312818E+02  0.33801198639E+02 -0.51793187861E+02  0.64492142841E+02  0.41800000000E+01 0. -1.
</event>
<event>
11    1  0.7577197E-009  0.1539597E+03  0.7561462E-02  0.1092900E+00
         22   -1    0    0    0    0  0.00000000000E+00  0.00000000000E+00  0.61894845256E+03  0.61894845256E+03  0.00000000000E+00 0.  1.
         22   -1    0    0    0    0 -0.00000000000E+00 -0.00000000000E+00 -0.49813096394E+03  0.49813096394E+03  0.00000000000E+00 0. -1.
        -24    2    1    2    0    0  0.27706789314E+02 -0.36815109598E+02 -0.44848153408E+03  0.45736405580E+03  0.76962163821E+02 0.  0.
         25    2    1    2    0    0 -0.39261781830E+02  0.11890242187E+03  0.17048837782E+03  0.24576028241E+03  0.12511017544E+03 0.  0.
         24    2    1    2    0    0  0.11554992516E+02 -0.82087312276E+02  0.39881064488E+03  0.41395507829E+03  0.73736230489E+02 0.  0.
        -11    1    5    5    0    0  0.37714902341E+02 -0.37510292054E+02  0.26946491785E+03  0.27466484635E+03  0.00000000000E+00 0.  1.
         12    1    5    5    0    0 -0.26159909825E+02 -0.44577020222E+02  0.12934572702E+03  0.13929023194E+03  0.00000000000E+00 0. -1.
         13    1    3    3    0    0  0.16843076821E+02 -0.44504662770E+02 -0.43757959814E+03  0.44015935632E+03  0.00000000000E+00 0. -1.
        -14    1    3    3    0    0  0.10863712493E+02  0.76895531714E+01 -0.10901935938E+02  0.17204699483E+02  0.00000000000E+00 0.  1.
          5    1    4    4  501    0  0.30796089289E+02 -0.78417507601E+01  0.33732082971E+02  0.46531902949E+02  0.41800000000E+01 0.  1.
         -5    1    4    4    0  501 -0.70057871119E+02  0.12674417263E+03  0.13675629485E+03  0.19922837946E+03  0.41800000000E+01 0.  1.
</event>
<event>
11    1  0.7577197E-009  0.1284546E+03  0.7561462E-02  0.1121183E+00
         22   -1    0    0    0    0  0.00000000000E+00  0.00000000000E+00  0.26260275494E+03  0.26260275494E+03  0.00000000000E+00 0. -1.
         22   -1    0    0    0    0 -0.00000000000E+00 -0.00000000000E+00 -0.36870518321E+03  0.36870518321E+03  0.00000000000E+00 0.  1.
        -24    2    1    2    0    0  0.21751439874E+02 -0.36546424174E+01 -0.29915678404E+03  0.31047171145E+03  0.80071347094E+02 0.  0.
         25    2    1    2    0    0  0.91908424015E+01 -0.77579999681E+01  0.21860172533E+02  0.12754634227E+03  0.12508214955E+03 0.  0.
         24    2    1    2    0    0 -0.30942282275E+02  0.11412642385E+02  0.17119418323E+03  0.19328988442E+03  0.83461714632E+02 0.  0.
        -11    1    5    5    0    0 -0.18812926129E+02  0.21068879966E+02  0.79943549225E+01  0.29355299406E+02  0.00000000000E+00 0.  1.
         12    1    5    5    0    0 -0.12129356146E+02 -0.96562375810E+01  0.16319982831E+03  0.16393458502E+03  0.00000000000E+00 0. -1.
         13    1    3    3    0    0 -0.20822225564E+02  0.24180666376E+02 -0.10320825533E+03  0.10802876317E+03  0.00000000000E+00 0. -1.
        -14    1    3    3    0    0  0.42573665438E+02 -0.27835308793E+02 -0.19594852871E+03  0.20244294828E+03  0.00000000000E+00 0.  1.
          5    1    4    4  501    0 -0.38882762648E+02 -0.46019121628E+02  0.26159476751E+02  0.65813519967E+02  0.41800000000E+01 0. -1.
         -5    1    4    4    0  501  0.48073605050E+02  0.38261121660E+02 -0.42993042172E+01  0.61732822306E+02  0.41800000000E+01 0. -1.
</event>
<event>
11    1  0.7577197E-009  0.1518023E+03  0.7561462E-02  0.1095051E+00
         22   -1    0    0    0    0  0.00000000000E+00  0.00000000000E+00  0.18566448268E+03  0.18566448268E+03  0.00000000000E+00 0.  1.
         22   -1    0    0    0    0 -0.00000000000E+00 -0.00000000000E+00 -0.49730518448E+03  0.49730518448E+03  0.00000000000E+00 0.  1.
         24    2    1    2    0    0  0.32574590461E+02 -0.87957367563E+01 -0.37740831771E+03  0.38702757492E+03  0.78834234594E+02 0.  0.
         25    2    1    2    0    0  0.50957922719E+02  0.50372863538E+02 -0.15972991986E+02  0.14504953206E+03  0.12510033976E+03 0.  0.
        -24    2    1    2    0    0 -0.83532513179E+02 -0.41577126782E+02  0.81740607895E+02  0.15089256018E+03  0.85910997598E+02 0.  0.
        -13    1    3    3    0    0  0.30180823530E+02  0.20433415403E+02 -0.32445350285E+03  0.32649422979E+03  0.00000000000E+00 0.  1.
         14    1    3    3    0    0  0.23937669312E+01 -0.29229152159E+02 -0.52954814860E+02  0.60533345132E+02  0.00000000000E+00 0. -1.
         13    1    5    5    0    0 -0.33096204837E+01  0.98605489458E+01  0.49055473542E+02  0.50146021753E+02  0.00000000000E+00 0. -1.
        -14    1    5    5    0    0 -0.80222892696E+02 -0.51437675727E+02  0.32685134353E+02  0.10074653842E+03  0.00000000000E+00 0.  1.
          5    1    4    4  501    0  0.22743157083E+02  0.63991271942E+02 -0.60091375986E+02  0.90777640125E+02  0.41800000000E+01 0.  1.
         -5    1    4    4    0  501  0.28214765636E+02 -0.13618408404E+02  0.44118384001E+02  0.54271891934E+02  0.41800000000E+01 0.  1.
</event>
<event>
11    1  0.7577197E-009  0.1673320E+03  0.7561462E-02  0.1080377E+00
         22   -1    0    0    0    0  0.00000000000E+00  0.00000000000E+00  0.33615117589E+03  0.33615117589E+03  0.00000000000E+00 0.  1.
         22   -1    0    0    0    0 -0.00000000000E+00 -0.00000000000E+00 -0.21362029454E+04  0.21362029454E+04  0.00000000000E+00 0. -1.
         24    2    1    2    0    0  0.52985796035E+02 -0.96619215570E+02 -0.19839791119E+04  0.19886834992E+04  0.80908444080E+02 0.  0.
         25    2    1    2    0    0 -0.89541946669E+02  0.10569463801E+03 -0.81456805245E+02  0.20364419718E+03  0.12508649491E+03 0.  0.
        -24    2    1    2    0    0  0.36556150634E+02 -0.90754224368E+01  0.26538414760E+03  0.28002642489E+03  0.81039110316E+02 0.  0.
        -11    1    3    3    0    0 -0.11411243376E+00 -0.57909660692E+01 -0.80458950911E+03  0.80461035693E+03  0.00000000000E+00 0.  1.
         12    1    3    3    0    0  0.53099908469E+02 -0.90828249501E+02 -0.11793896028E+04  0.11840731423E+04  0.00000000000E+00 0. -1.
         13    1    5    5    0    0 -0.31832547210E+01  0.28926407920E+02  0.14190436481E+03  0.14485758157E+03  0.00000000000E+00 0. -1.
        -14    1    5    5    0    0  0.39739405355E+02 -0.38001830357E+02  0.12347978279E+03  0.13516884332E+03  0.00000000000E+00 0.  1.
          5    1    4    4  501    0 -0.92454004640E+02  0.15175061506E+02 -0.56973692012E+02  0.10973376621E+03  0.41800000000E+01 0.  1.
         -5    1    4    4    0  501  0.29120579712E+01  0.90519576500E+02 -0.24483113233E+02  0.93910430970E+02  0.41800000000E+01 0.  1.
</event>
<event>
11    1  0.7577197E-009  0.1695175E+03  0.7561462E-02  0.1078452E+00
         22   -1    0    0    0    0  0.00000000000E+00  0.00000000000E+00  0.92043918325E+02  0.92043918325E+02  0.00000000000E+00 0. -1.
         22   -1    0    0    0    0 -0.00000000000E+00 -0.00000000000E+00 -0.16346026784E+04  0.16346026784E+04  0.00000000000E+00 0.  1.
        -24    2    1    2    0    0 -0.10871247538E+03  0.52173654967E+02 -0.11524912485E+04  0.11616680170E+04  0.81829158375E+02 0.  0.
         25    2    1    2    0    0  0.46502456993E+02 -0.10385251144E+03 -0.41478567089E+03  0.44793593527E+03  0.12510646143E+03 0.  0.
         24    2    1    2    0    0  0.62210018390E+02  0.51678856471E+02  0.24718159364E+02  0.11704264446E+03  0.80914786194E+02 0.  0.
        -13    1    5    5    0    0  0.64206900569E+02  0.18256185656E+02 -0.11482068172E+02  0.67732210099E+02  0.00000000000E+00 0.  1.
         14    1    5    5    0    0 -0.19968821791E+01  0.33422670815E+02  0.36200227536E+02  0.49310434357E+02  0.00000000000E+00 0. -1.
         11    1    3    3    0    0  0.10613945611E+02 -0.11934617550E+01 -0.36007238391E+02  0.37557973973E+02  0.00000000000E+00 0. -1.
        -12    1    3    3    0    0 -0.11932642099E+03  0.53367116722E+02 -0.11164840101E+04  0.11241100430E+04  0.00000000000E+00 0.  1.
          5    1    4    4  501    0  0.66731759991E+02 -0.59925179221E+02 -0.37371810072E+03  0.38435250240E+03  0.41800000000E+01 0.  1.
         -5    1    4    4    0  501 -0.20229302998E+02 -0.43927332217E+02 -0.41067570169E+02  0.63583432867E+02  0.41800000000E+01 0.  1.
</event>
<event>
11    1  0.7577197E-009  0.1672557E+03  0.7561462E-02  0.1080445E+00
         22   -1    0    0    0    0  0.00000000000E+00  0.00000000000E+00  0.35500178775E+03  0.35500178775E+03  0.00000000000E+00 0.  1.
         22   -1    0    0    0    0 -0.00000000000E+00 -0.00000000000E+00 -0.15200536756E+04  0.15200536756E+04  0.00000000000E+00 0. -1.
         24    2    1    2    0    0 -0.55563338631E+02  0.91104772299E+02 -0.11692093053E+04  0.11769008013E+04  0.81594927586E+02 0.  0.
         25    2    1    2    0    0 -0.57573427373E+02 -0.94225201764E+02 -0.31151952247E+03  0.35339127548E+03  0.12509153656E+03 0.  0.
        -24    2    1    2    0    0  0.11313676600E+03  0.31204294650E+01  0.31567693991E+03  0.34476338664E+03  0.80001234213E+02 0.  0.
        -13    1    3    3    0    0  0.16649930736E+02  0.44601833325E+02 -0.35632589803E+03  0.35949226603E+03  0.00000000000E+00 0.  1.
         14    1    3    3    0    0 -0.72213269366E+02  0.46502938973E+02 -0.81288340732E+03  0.81740853525E+03  0.00000000000E+00 0. -1.
         13    1    5    5    0    0  0.46522111867E+02 -0.32285960570E+02  0.85611010452E+02  0.10264470397E+03  0.00000000000E+00 0. -1.
        -14    1    5    5    0    0  0.66614654136E+02  0.35406390035E+02  0.23006592946E+03  0.24211868267E+03  0.00000000000E+00 0.  1.
          5    1    4    4  501    0  0.20774758417E+02 -0.72938120355E+02 -0.92002694919E+02  0.11930435139E+03  0.41800000000E+01 0.  1.
         -5    1    4    4    0  501 -0.78348185790E+02 -0.21287081409E+02 -0.21951682755E+03  0.23408692409E+03  0.41800000000E+01 0.  1.
</event>
<event>
11    1  0.7577197E-009  0.1477024E+03  0.7561462E-02  0.1099250E+00
         22   -1    0    0    0    0  0.00000000000E+00  0.00000000000E+00  0.32775381561E+03  0.32775381561E+03  0.00000000000E+00 0. -1.
         22   -1    0    0    0    0 -0.00000000000E+00 -0.00000000000E+00 -0.12973564961E+04  0.12973564961E+04  0.00000000000E+00 0. -1.
         24    2    1    2    0    0 -0.17837126308E+02  0.71732732812E+01 -0.11157953670E+04  0.11188817844E+04  0.80793116063E+02 0.  0.
         25    2    1    2    0    0  0.97360319919E+01 -0.84949649287E+02 -0.13563320055E+03  0.20336970361E+03  0.12510650671E+03 0.  0.
        -24    2    1    2    0    0  0.81010943162E+01  0.77776376006E+02  0.28182588707E+03  0.30285882366E+03  0.78631062923E+02 0.  0.
        -13    1    3    3    0    0 -0.13965722378E+02  0.39408362328E+02 -0.36536636130E+03  0.36775078300E+03  0.00000000000E+00 0.  1.
         14    1    3    3    0    0 -0.38714039303E+01 -0.32235089047E+02 -0.75042900568E+03  0.75113100142E+03  0.00000000000E+00 0. -1.
         13    1    5    5    0    0 -0.74567510978E+01  0.78449420487E+02  0.27461497265E+03  0.28569791374E+03  0.00000000000E+00 0. -1.
        -14    1    5    5    0    0  0.15557845414E+02 -0.67304448157E+00  0.72109144224E+01  0.17160909929E+02  0.00000000000E+00 0.  1.
          5    1    4    4  501    0  0.64097883931E+02 -0.21613810986E+02 -0.65833202222E+02  0.94483747092E+02  0.41800000000E+01 0. -1.
         -5    1    4    4    0  501 -0.54361851939E+02 -0.63335838301E+02 -0.69799998329E+02  0.10888595652E+03  0.41800000000E+01 0. -1.
</event>
<event>
11    1  0.7577197E-009  0.1903915E+03  0.7561462E-02  0.1061534E+00
         22   -1    0    0    0    0  0.00000000000E+00  0.00000000000E+00  0.13289645387E+03  0.13289645387E+03  0.00000000000E+00 0. -1.
         22   -1    0    0    0    0 -0.00000000000E+00 -0.00000000000E+00 -0.68487943409E+03  0.68487943409E+03  0.00000000000E+00 0. -1.
        -24    2    1    2    0    0  0.26217287745E+02 -0.17020590083E+02 -0.31829461066E+03  0.33174355283E+03  0.88120820516E+02 0.  0.
         25    2    1    2    0    0  0.24792527497E+02  0.14964778426E+03 -0.25385530335E+03  0.32109020167E+03  0.12508906354E+03 0.  0.
         24    2    1    2    0    0 -0.51009815241E+02 -0.13262719418E+03  0.20166933789E+02  0.16494213345E+03  0.81284858870E+02 0.  0.
        -11    1    5    5    0    0 -0.77671879542E+01 -0.71103283284E+02 -0.26683522638E+02  0.76341446691E+02  0.00000000000E+00 0.  1.
         12    1    5    5    0    0 -0.43242627287E+02 -0.61523910894E+02  0.46850456427E+02  0.88600686757E+02  0.00000000000E+00 0. -1.
         11    1    3    3    0    0 -0.31337748571E+02  0.31545822453E+01 -0.86356486882E+02  0.91920882836E+02  0.00000000000E+00 0. -1.
        -12    1    3    3    0    0  0.57555036315E+02 -0.20175172329E+02 -0.23193812378E+03  0.23982267000E+03  0.00000000000E+00 0.  1.
          5    1    4    4  501    0  0.57512515527E+02  0.10556979238E+03 -0.95978408126E+02  0.15388956343E+03  0.41800000000E+01 0. -1.
         -5    1    4    4    0  501 -0.32719988031E+02  0.44077991883E+02 -0.15787689522E+03  0.16720063825E+03  0.41800000000E+01 0. -1.
</event>
<event>
11    1  0.7577197E-009  0.3206784E+03  0.7561462E-02  0.9918005E-01
         22   -1    0    0    0    0  0.00000000000E+00  0.00000000000E+00  0.16407242006E+04  0.16407242006E+04  0.00000000000E+00 0. -1.
         22   -1    0    0    0    0 -0.00000000000E+00 -0.00000000000E+00 -0.55997514515E+03  0.55997514515E+03  0.00000000000E+00 0. -1.
        -24    2    1    2    0    0 -0.90199500868E+02 -0.27925656800E+03 -0.41724781551E+03  0.51661786056E+03  0.81719603357E+02 0.  0.
         25    2    1    2    0    0  0.75152689816E+02  0.29734556828E+03  0.20585751084E+03  0.38998295816E+03  0.12508828531E+03 0.  0.
         24    2    1    2    0    0  0.15046811052E+02 -0.18089000282E+02  0.12921393601E+04  0.12940985270E+04  0.67180750553E+02 0.  0.
        -11    1    5    5    0    0 -0.15554894804E+02  0.30339145597E+01  0.90030625799E+02  0.91414839997E+02  0.00000000000E+00 0.  1.
         12    1    5    5    0    0  0.30601705857E+02 -0.21122914841E+02  0.12021087343E+04  0.12026836870E+04  0.00000000000E+00 0. -1.
         13    1    3    3    0    0 -0.72464341027E+02 -0.25564063800E+03 -0.32521255535E+03  0.41996002509E+03  0.00000000000E+00 0. -1.
        -14    1    3    3    0    0 -0.17735159840E+02 -0.23615929996E+02 -0.92035260160E+02  0.96657835466E+02  0.00000000000E+00 0.  1.
          5    1    4    4  501    0  0.10228697043E+03  0.24114692888E+03  0.19480587002E+03  0.32646786216E+03  0.41800000000E+01 0. -1.
         -5    1    4    4    0  501 -0.27134280616E+02  0.56198639401E+02  0.11051640821E+02  0.63515096001E+02  0.41800000000E+01 0. -1.
</event>
<event>
11    1  0.7577197E-009  0.1836561E+03  0.7561462E-02  0.1066723E+00
         22   -1    0    0    0    0  0.00000000000E+00  0.00000000000E+00  0.10594955834E+04  0.10594955834E+04  0.00000000000E+00 0. -1.
         22   -1    0    0    0    0 -0.00000000000E+00 -0.00000000000E+00 -0.36677550446E+03  0.36677550446E+03  0.00000000000E+00 0.  1.
        -24    2    1    2    0    0 -0.17291430935E+02 -0.13040417423E+02 -0.23863662763E+03  0.25072621422E+03  0.73804799141E+02 0.  0.
         25    2    1    2    0    0  0.14889418597E+03 -0.10600059680E+02 -0.34001985751E+02  0.19770443784E+03  0.12509624225E+03 0.  0.
         24    2    1    2    0    0 -0.13160275503E+03  0.23640477103E+02  0.96535869234E+03  0.97784043583E+03  0.79852086851E+02 0.  0.
        -11    1    5    5    0    0 -0.84783582740E+01  0.96409956579E+01  0.16412152136E+02  0.20837228559E+02  0.00000000000E+00 0.  1.
         12    1    5    5    0    0 -0.12312439676E+03  0.13999481445E+02  0.94894654020E+03  0.95700320727E+03  0.00000000000E+00 0. -1.
         13    1    3    3    0    0 -0.35861565824E+02  0.82397577152E+01 -0.64027378519E+02  0.73847482764E+02  0.00000000000E+00 0. -1.
        -14    1    3    3    0    0  0.18570134889E+02 -0.21280175138E+02 -0.17460924911E+03  0.17687873145E+03  0.00000000000E+00 0.  1.
          5    1    4    4  501    0  0.14764428640E+03  0.30331548911E+02 -0.12604021589E+02  0.15131150625E+03  0.41800000000E+01 0. -1.
         -5    1    4    4    0  501  0.12498995720E+01 -0.40931608591E+02 -0.21397964162E+02  0.46392931585E+02  0.41800000000E+01 0. -1.
</event>
<event>
11    1  0.7577197E-009  0.1301393E+03  0.7561462E-02  0.1119098E+00
         22   -1    0    0    0    0  0.00000000000E+00  0.00000000000E+00  0.25389864499E+03  0.25389864499E+03  0.00000000000E+00 0. -1.
         22   -1    0    0    0    0 -0.00000000000E+00 -0.00000000000E+00 -0.92751042344E+03  0.92751042344E+03  0.00000000000E+00 0.  1.
        -24    2    1    2    0    0 -0.99151208101E+01  0.10471720807E+02 -0.74919684240E+03  0.75362021282E+03  0.80246806504E+02 0.  0.
         25    2    1    2    0    0  0.42952629853E+02 -0.22789175994E+02 -0.14063687207E+03  0.19439915965E+03  0.12509208022E+03 0.  0.
         24    2    1    2    0    0 -0.33037509043E+02  0.12317455187E+02  0.21622193602E+03  0.23338969595E+03  0.80471285884E+02 0.  0.
        -11    1    5    5    0    0  0.14021663391E+02 -0.10927164347E+02  0.95953843714E+01  0.20201023889E+02  0.00000000000E+00 0.  1.
         12    1    5    5    0    0 -0.47059172434E+02  0.23244619535E+02  0.20662655165E+03  0.21318867206E+03  0.00000000000E+00 0. -1.
         11    1    3    3    0    0 -0.68676019535E+01  0.32600078789E+02 -0.13616104714E+03  0.14017760111E+03  0.00000000000E+00 0. -1.
        -12    1    3    3    0    0 -0.30475188566E+01 -0.22128357983E+02 -0.61303579526E+03  0.61344261171E+03  0.00000000000E+00 0.  1.
          5    1    4    4  501    0  0.57358502985E+02  0.68813885815E+01 -0.14921612895E+03  0.16006335281E+03  0.41800000000E+01 0. -1.
         -5    1    4    4    0  501 -0.14405873133E+02 -0.29670564575E+02  0.85792568776E+01  0.34335806842E+02  0.41800000000E+01 0. -1.
</event>
<event>
11    1  0.7577197E-009  0.1476363E+03  0.7561462E-02  0.1099319E+00
         22   -1    0    0    0    0  0.00000000000E+00  0.00000000000E+00  0.36512820418E+03  0.36512820418E+03  0.00000000000E+00 0.  1.
         22   -1    0    0    0    0 -0.00000000000E+00 -0.00000000000E+00 -0.54758714861E+03  0.54758714861E+03  0.00000000000E+00 0. -1.
         24    2    1    2    0    0  0.21318929429E+02  0.77651735448E+02 -0.42179910735E+03  0.43687924921E+03  0.80403374689E+02 0.  0.
         25    2    1    2    0    0 -0.40396727184E+02 -0.56868115566E+02 -0.66926280228E+02  0.15806302259E+03  0.12505564357E+03 0.  0.
        -24    2    1    2    0    0  0.19077797755E+02 -0.20783619882E+02  0.30626644315E+03  0.31777308100E+03  0.79904165002E+02 0.  0.
        -13    1    3    3    0    0  0.12286063938E+02  0.13819698006E+02 -0.12008219522E+02  0.22048327740E+02  0.00000000000E+00 0.  1.
         14    1    3    3    0    0  0.90328654913E+01  0.63832037442E+02 -0.40979088783E+03  0.41483092147E+03  0.00000000000E+00 0. -1.
         13    1    5    5    0    0  0.41153672664E+02  0.16905392253E+01  0.87026204414E+02  0.96281062268E+02  0.00000000000E+00 0. -1.
        -14    1    5    5    0    0 -0.22075874909E+02 -0.22474159107E+02  0.21924023873E+03  0.22149201873E+03  0.00000000000E+00 0.  1.
          5    1    4    4  501    0 -0.54534129265E+02  0.24467302671E+02 -0.20936226109E+02  0.63469820532E+02  0.41800000000E+01 0. -1.
         -5    1    4    4    0  501  0.14137402081E+02 -0.81335418237E+02 -0.45990054119E+02  0.94593202056E+02  0.41800000000E+01 0. -1.
</event>
<event>
11    1  0.7577197E-009  0.1725703E+03  0.7561462E-02  0.1075816E+00
         22   -1    0    0    0    0  0.00000000000E+00  0.00000000000E+00  0.19752271117E+04  0.19752271117E+04  0.00000000000E+00 0. -1.
         22   -1    0    0    0    0 -0.00000000000E+00 -0.00000000000E+00 -0.10614418088E+04  0.10614418088E+04  0.00000000000E+00 0.  1.
         24    2    1    2    0    0 -0.10831937407E+03  0.44031140397E+02 -0.93239558235E+03  0.94314021385E+03  0.80499148262E+02 0.  0.
         25    2    1    2    0    0  0.12806959859E+03 -0.74534623868E+02 -0.45962995502E+02  0.19929058274E+03  0.12508759800E+03 0.  0.
        -24    2    1    2    0    0 -0.19750224520E+02  0.30503483471E+02  0.18921438807E+04  0.18942381239E+04  0.81296191908E+02 0.  0.
        -11    1    3    3    0    0 -0.78805513657E+02  0.67712445199E+02 -0.65973738799E+03  0.66786877852E+03  0.00000000000E+00 0.  1.
         12    1    3    3    0    0 -0.29513860417E+02 -0.23681304802E+02 -0.27265819436E+03  0.27527143533E+03  0.00000000000E+00 0. -1.
         13    1    5    5    0    0  0.14694870625E+02  0.11539585370E+02  0.15023223078E+04  0.15024384905E+04  0.00000000000E+00 0. -1.
        -14    1    5    5    0    0 -0.34445095146E+02  0.18963898102E+02  0.38982157293E+03  0.39179963340E+03  0.00000000000E+00 0.  1.
          5    1    4    4  501    0 -0.53692526257E+01 -0.52750309219E+02  0.77453145798E+01  0.53748360853E+02  0.41800000000E+01 0. -1.
         -5    1    4    4    0  501  0.13343885122E+03 -0.21784314650E+02 -0.53708310082E+02  0.14554222189E+03  0.41800000000E+01 0. -1.
</event>
<event>
11    1  0.7577197E-009  0.1385277E+03  0.7561462E-02  0.1109214E+00
         22   -1    0    0    0    0  0.00000000000E+00  0.00000000000E+00  0.45183437350E+03  0.45183437350E+03  0.00000000000E+00 0.  1.
         22   -1    0    0    0    0 -0.00000000000E+00 -0.00000000000E+00 -0.78083037793E+03  0.78083037793E+03  0.00000000000E+00 0. -1.
        -24    2    1    2    0    0  0.40878520857E+02  0.23392950995E+01 -0.61147882061E+03  0.61802228336E+03  0.79803940426E+02 0.  0.
         25    2    1    2    0    0 -0.75281612910E+02  0.45066959425E+02 -0.12246945967E+03  0.19581878485E+03  0.12509147002E+03 0.  0.
         24    2    1    2    0    0  0.34403092053E+02 -0.47406254525E+02  0.40495227585E+03  0.41882368322E+03  0.89420390275E+02 0.  0.
        -13    1    5    5    0    0  0.57235521287E+02 -0.23926345114E+02  0.34477384032E+03  0.35031039929E+03  0.00000000000E+00 0.  1.
         14    1    5    5    0    0 -0.22832429234E+02 -0.23479909411E+02  0.60178435537E+02  0.68513283926E+02  0.00000000000E+00 0. -1.
         11    1    3    3    0    0  0.22210956767E+02 -0.38275842327E+02 -0.34389049146E+03  0.34672616980E+03  0.00000000000E+00 0. -1.
        -12    1    3    3    0    0  0.18667564089E+02  0.40615137426E+02 -0.26758832915E+03  0.27129611356E+03  0.00000000000E+00 0.  1.
          5    1    4    4  501    0 -0.21913689520E+02 -0.36602856032E+02 -0.51445478895E+01  0.43173112362E+02  0.41800000000E+01 0. -1.
         -5    1    4    4    0  501 -0.53367923390E+02  0.81669815457E+02 -0.11732491178E+03  0.15264567249E+03  0.41800000000E+01 0. -1.
</event>
<event>
11    1  0.7577197E-009  0.1445135E+03  0.7561462E-02  0.1102620E+00
         22   -1    0    0    0    0  0.00000000000E+00  0.00000000000E+00  0.31930875508E+04  0.31930875508E+04  0.00000000000E+00 0. -1.
         22   -1    0    0    0    0 -0.00000000000E+00 -0.00000000000E+00 -0.87019261607E+03  0.87019261607E+03  0.00000000000E+00 0. -1.
        -24    2    1    2    0    0  0.16299395165E+02 -0.69563764204E+02 -0.69738165759E+03  0.70559513282E+03  0.80115713479E+02 0.  0.
         25    2    1    2    0    0  0.46168087491E+02  0.91081303340E+02 -0.12898647022E+03  0.20667055001E+03  0.12509160892E+03 0.  0.
         24    2    1    2    0    0 -0.62467482655E+02 -0.21517539136E+02  0.31492630626E+04  0.31510144841E+04  0.81665480705E+02 0.  0.
        -13    1    5    5    0    0 -0.39453541735E+02 -0.22483086023E+02  0.62544733789E+03  0.62709364818E+03  0.00000000000E+00 0.  1.
         14    1    5    5    0    0 -0.23013940920E+02  0.96554688726E+00  0.25238157247E+04  0.25239208359E+04  0.00000000000E+00 0. -1.
         13    1    3    3    0    0  0.32955286011E+02 -0.23767481302E+02 -0.52170722826E+03  0.52328708762E+03  0.00000000000E+00 0. -1.
        -14    1    3    3    0    0 -0.16655890846E+02 -0.45796282902E+02 -0.17567442932E+03  0.18230804520E+03  0.00000000000E+00 0.  1.
          5    1    4    4  501    0 -0.16999907569E+02 -0.22518460677E+02 -0.39853513194E+02  0.49008701702E+02  0.41800000000E+01 0. -1.
         -5    1    4    4    0  501  0.63167995060E+02  0.11359976402E+03 -0.89132957024E+02  0.15766184831E+03  0.41800000000E+01 0. -1.
</event>
<event>
11    1  0.7577197E-009  0.5086176E+03  0.7561462E-02  0.9374468E-01
         22   -1    0    0    0    0  0.00000000000E+00  0.00000000000E+00  0.14148015779E+04  0.14148015779E+04  0.00000000000E+00 0.  1.
         22   -1    0    0    0    0 -0.00000000000E+00 -0.00000000000E+00 -0.41299360957E+03  0.41299360957E+03  0.00000000000E+00 0.  1.
         24    2    1    2    0    0 -0.22339873370E+03  0.23132744069E+03 -0.16562905251E+03  0.37024154144E+03  0.78907774866E+02 0.  0.
         25    2    1    2    0    0  0.24809749066E+03 -0.48234333643E+03  0.99988183922E+03  0.11443858746E+04  0.12509148043E+03 0.  0.
        -24    2    1    2    0    0 -0.24698756963E+02  0.25101589574E+03  0.16755518162E+03  0.31316777145E+03  0.79876815668E+02 0.  0.
        -13    1    3    3    0    0 -0.22123990107E+03  0.21697270116E+03 -0.13839002300E+03  0.33937596459E+03  0.00000000000E+00 0.  1.
         14    1    3    3    0    0 -0.21588326256E+01  0.14354739532E+02 -0.27239029511E+02  0.30865576846E+02  0.00000000000E+00 0. -1.
         13    1    5    5    0    0 -0.28961141554E+02  0.24600446366E+03  0.17496027345E+03  0.30326233057E+03  0.00000000000E+00 0. -1.
        -14    1    5    5    0    0  0.42623845916E+01  0.50114320829E+01 -0.74050918350E+01  0.99054408793E+01  0.00000000000E+00 0.  1.
          5    1    4    4  501    0  0.11491493330E+02 -0.75289884484E+00  0.67674854213E+02  0.68774846916E+02  0.41800000000E+01 0.  1.
         -5    1    4    4    0  501  0.23660599733E+03 -0.48159043759E+03  0.93220698501E+03  0.10756110277E+04  0.41800000000E+01 0.  1.
</event>
<event>
11    1  0.7577197E-009  0.2096359E+03  0.7561462E-02  0.1047911E+00
         22   -1    0    0    0    0  0.00000000000E+00  0.00000000000E+00  0.27499693245E+03  0.27499693245E+03  0.00000000000E+00 0. -1.
         22   -1    0    0    0    0 -0.00000000000E+00 -0.00000000000E+00 -0.43258424708E+03  0.43258424708E+03  0.00000000000E+00 0.  1.
         24    2    1    2    0    0  0.26456941793E+02  0.12233621967E+02 -0.20895874939E+03  0.22116465866E+03  0.66335631600E+02 0.  0.
         25    2    1    2    0    0  0.11993513251E+03 -0.10163200796E+03 -0.11351749166E+03  0.23075331367E+03  0.12508944721E+03 0.  0.
        -24    2    1    2    0    0 -0.14639207431E+03  0.89398385990E+02  0.16488892642E+03  0.25566320721E+03  0.93555366636E+02 0.  0.
        -13    1    3    3    0    0  0.37419945134E+02  0.31771123597E+02 -0.15917510786E+03  0.16657242134E+03  0.00000000000E+00 0.  1.
         14    1    3    3    0    0 -0.10963003341E+02 -0.19537501629E+02 -0.49783641530E+02  0.54592237325E+02  0.00000000000E+00 0. -1.
         13    1    5    5    0    0 -0.47356792690E+02  0.81047934676E+02  0.61329172983E+02  0.11212805620E+03  0.00000000000E+00 0. -1.
        -14    1    5    5    0    0 -0.99035281616E+02  0.83504513139E+01  0.10355975343E+03  0.14353515100E+03  0.00000000000E+00 0.  1.
          5    1    4    4  501    0  0.43601576942E+02  0.26148423227E+02 -0.19277042788E+02  0.54533607324E+02  0.41800000000E+01 0.  1.
         -5    1    4    4    0  501  0.76333555570E+02 -0.12778043118E+03 -0.94240448872E+02  0.17621970634E+03  0.41800000000E+01 0.  1.
</event>
<event>
11    1  0.7577197E-009  0.1317721E+03  0.7561462E-02  0.1117111E+00
         22   -1    0    0    0    0  0.00000000000E+00  0.00000000000E+00  0.70265426099E+03  0.70265426099E+03  0.00000000000E+00 0.  1.
         22   -1    0    0    0    0 -0.00000000000E+00 -0.00000000000E+00 -0.12288855502E+04  0.12288855502E+04  0.00000000000E+00 0.  1.
         24    2    1    2    0    0 -0.20421886398E+02 -0.64567844083E+00 -0.11243356753E+04  0.11268705189E+04  0.72725410392E+02 0.  0.
         25    2    1    2    0    0  0.48932369622E+02 -0.28567440243E+02 -0.51308839498E+02  0.14660415415E+03  0.12509878323E+03 0.  0.
        -24    2    1    2    0    0 -0.28510483225E+02  0.29213118684E+02  0.64941322555E+03  0.65806513816E+03  0.98213718972E+02 0.  0.
        -11    1    3    3    0    0  0.81464848290E+01 -0.54299324352E+01 -0.95674017866E+03  0.95679026900E+03  0.00000000000E+00 0.  1.
         12    1    3    3    0    0 -0.28568371227E+02  0.47842539943E+01 -0.16759549662E+03  0.17008024991E+03  0.00000000000E+00 0. -1.
         11    1    5    5    0    0 -0.22933498533E+01  0.10514662567E+02  0.34522709216E+01  0.11302024463E+02  0.00000000000E+00 0. -1.
        -12    1    5    5    0    0 -0.26217133371E+02  0.18698456117E+02  0.64596095463E+03  0.64676311370E+03  0.00000000000E+00 0.  1.
          5    1    4    4  501    0  0.40659846550E+02 -0.46321069726E+02 -0.86392059911E+02  0.10620699147E+03  0.41800000000E+01 0.  1.
         -5    1    4    4    0  501  0.82725230720E+01  0.17753629483E+02  0.35083220413E+02  0.40397162677E+02  0.41800000000E+01 0.  1.
</event>
<event>
11    1  0.7577197E-009  0.1643595E+03  0.7561462E-02  0.1083047E+00
         22   -1    0    0    0    0  0.00000000000E+00  0.00000000000E+00  0.32762606298E+03  0.32762606298E+03  0.00000000000E+00 0.  1.
         22   -1    0    0    0    0 -0.00000000000E+00 -0.00000000000E+00 -0.19324139996E+03  0.19324139996E+03  0.00000000000E+00 0.  1.
         24    2    1    2    0    0 -0.10479886696E+03  0.23297969853E+02 -0.82781914199E+02  0.15779623950E+03  0.80754008987E+02 0.  0.
         25    2    1    2    0    0  0.10826249578E+03  0.12991669944E+02  0.48726430857E+02  0.17294882432E+03  0.12508988484E+03 0.  0.
        -24    2    1    2    0    0 -0.34636288162E+01 -0.36289639796E+02  0.16844014637E+03  0.19012239912E+03  0.80283927772E+02 0.  0.
        -13    1    3    3    0    0 -0.54304415343E+02 -0.26667496872E+02 -0.54194274093E+02  0.81222806277E+02  0.00000000000E+00 0.  1.
         14    1    3    3    0    0 -0.50494451617E+02  0.49965466724E+02 -0.28587640107E+02  0.76573433226E+02  0.00000000000E+00 0. -1.
         13    1    5    5    0    0 -0.24466958017E+02  0.16607150200E+02  0.41003410433E+02  0.50554021991E+02  0.00000000000E+00 0. -1.
        -14    1    5    5    0    0  0.21003329200E+02 -0.52896789996E+02  0.12743673593E+03  0.13956837713E+03  0.00000000000E+00 0.  1.
          5    1    4    4  501    0  0.70164714981E+01 -0.16350868805E+01 -0.37919292347E+02  0.38823311470E+02  0.41800000000E+01 0. -1.
         -5    1    4    4    0  501  0.10124602428E+03  0.14626756824E+02  0.86645723204E+02  0.13412551285E+03  0.41800000000E+01 0. -1.
</event>
<event>
11    1  0.7577197E-009  0.2673901E+03  0.7561462E-02  0.1015022E+00
         22   -1    0    0    0    0  0.00000000000E+00  0.00000000000E+00  0.10338897732E+04  0.10338897732E+04  0.00000000000E+00 0. -1.
         22   -1    0    0    0    0 -0.00000000000E+00 -0.00000000000E+00 -0.53076161348E+03  0.53076161348E+03  0.00000000000E+00 0. -1.
         24    2    1    2    0    0 -0.18590849916E+03 -0.15158187588E+03 -0.38046355129E+03  0.45712999571E+03  0.81708530529E+02 0.  0.
         25    2    1    2    0    0  0.21298563895E+03  0.86451809413E+02  0.51944907397E+02  0.26680110603E+03  0.12509100297E+03 0.  0.
        -24    2    1    2    0    0 -0.27077139790E+02  0.65130066467E+02  0.83164680362E+03  0.84072028495E+03  0.10099056640E+03 0.  0.
        -11    1    3    3    0    0 -0.34562742345E+02  0.57512755271E+01 -0.56100907463E+02  0.66143572226E+02  0.00000000000E+00 0.  1.
         12    1    3    3    0    0 -0.15134575681E+03 -0.15733315141E+03 -0.32436264383E+03  0.39098642348E+03  0.00000000000E+00 0. -1.
         13    1    5    5    0    0 -0.43792958448E+02  0.65618275549E+02  0.80752102960E+03  0.81136538905E+03  0.00000000000E+00 0. -1.
        -14    1    5    5    0    0  0.16715818657E+02 -0.48820908233E+00  0.24125774012E+02  0.29354895898E+02  0.00000000000E+00 0.  1.
          5    1    4    4  501    0  0.16956640122E+03  0.42482125614E+02  0.87348951495E+02  0.19546050022E+03  0.41800000000E+01 0. -1.
         -5    1    4    4    0  501  0.43419237730E+02  0.43969683799E+02 -0.35404044098E+02  0.71340605807E+02  0.41800000000E+01 0. -1.
</event>
<event>
11    1  0.7577197E-009  0.1640500E+03  0.7561462E-02  0.1083329E+00
         22   -1    0    0    0    0  0.00000000000E+00  0.00000000000E+00  0.72515466217E+03  0.72515466217E+03  0.00000000000E+00 0.  1.
         22   -1    0    0    0    0 -0.00000000000E+00 -0.00000000000E+00 -0.45270386380E+03  0.45270386380E+03  0.00000000000E+00 0.  1.
         24    2    1    2    0    0 -0.52744248959E+02 -0.84185750099E+02 -0.23717088038E+03  0.26924847099E+03  0.79846830322E+02 0.  0.
         25    2    1    2    0    0  0.78895859826E+02  0.95017943160E+02 -0.15739225909E+03  0.23595020808E+03  0.12508881346E+03 0.  0.
        -24    2    1    2    0    0 -0.26151610867E+02 -0.10832193061E+02  0.66701393783E+03  0.67265984690E+03  0.82234014913E+02 0.  0.
        -13    1    3    3    0    0 -0.21743585020E+02 -0.80789346112E+02 -0.21577815552E+03  0.23143015001E+03  0.00000000000E+00 0.  1.
         14    1    3    3    0    0 -0.31000663939E+02 -0.33964039872E+01 -0.21392724858E+02  0.37818320978E+02  0.00000000000E+00 0. -1.
         13    1    5    5    0    0 -0.14011855565E+02  0.96298704875E+01  0.25165116992E+02  0.30370209338E+02  0.00000000000E+00 0. -1.
        -14    1    5    5    0    0 -0.12139755302E+02 -0.20462063548E+02  0.64184882084E+03  0.64228963756E+03  0.00000000000E+00 0.  1.
          5    1    4    4  501    0  0.10709791765E+03  0.66647051574E+02 -0.14825952320E+03  0.19470529543E+03  0.41800000000E+01 0.  1.
         -5    1    4    4    0  501 -0.28202057824E+02  0.28370891586E+02 -0.91327358864E+01  0.41244912652E+02  0.41800000000E+01 0.  1.
</event>
<event>
11    1  0.7577197E-009  0.1798155E+03  0.7561462E-02  0.1069792E+00
         22   -1    0    0    0    0  0.00000000000E+00  0.00000000000E+00  0.46881187050E+03  0.46881187050E+03  0.00000000000E+00 0. -1.
         22   -1    0    0    0    0 -0.00000000000E+00 -0.00000000000E+00 -0.42158230625E+03  0.42158230625E+03  0.00000000000E+00 0. -1.
         24    2    1    2    0    0 -0.25735467095E+01  0.25463428565E+01 -0.31464852664E+03  0.32347975211E+03  0.74982315937E+02 0.  0.
         25    2    1    2    0    0  0.14455094096E+02 -0.13074877841E+03  0.79030165988E+01  0.18169790639E+03  0.12508988253E+03 0.  0.
        -24    2    1    2    0    0 -0.11881547387E+02  0.12820243556E+03  0.35397507429E+03  0.38521651826E+03  0.80724079852E+02 0.  0.
        -11    1    3    3    0    0 -0.10173226246E+02 -0.72450843529E+01 -0.47947456144E+01  0.13378167477E+02  0.00000000000E+00 0.  1.
         12    1    3    3    0    0  0.75996795362E+01  0.97914272095E+01 -0.30985378102E+03  0.31010158463E+03  0.00000000000E+00 0. -1.
         13    1    5    5    0    0 -0.41716689463E+02  0.86016650447E+02  0.18108343769E+03  0.20476903511E+03  0.00000000000E+00 0. -1.
        -14    1    5    5    0    0  0.29835142076E+02  0.42185785109E+02  0.17289163660E+03  0.18044748315E+03  0.00000000000E+00 0.  1.
          5    1    4    4  501    0  0.19857681105E+02 -0.14486128543E+03 -0.22012491048E+02  0.14792275578E+03  0.41800000000E+01 0.  1.
         -5    1    4    4    0  501 -0.54025870089E+01  0.14112507019E+02  0.29915507647E+02  0.33775150607E+02  0.41800000000E+01 0.  1.
</event>
<event>
11    1  0.7577197E-009  0.1888060E+03  0.7561462E-02  0.1062734E+00
         22   -1    0    0    0    0  0.00000000000E+00  0.00000000000E+00  0.24469282484E+04  0.24469282484E+04  0.00000000000E+00 0.  1.
         22   -1    0    0    0    0 -0.00000000000E+00 -0.00000000000E+00 -0.39928094570E+03  0.39928094570E+03  0.00000000000E+00 0. -1.
         24    2    1    2    0    0  0.80263249322E+02  0.11599025408E+03 -0.36291686058E+03  0.39681009880E+03  0.76509336575E+02 0.  0.
         25    2    1    2    0    0 -0.67456089512E+02 -0.13893211817E+03  0.51711177529E+03  0.55399275707E+03  0.12510367410E+03 0.  0.
        -24    2    1    2    0    0 -0.12807159810E+02  0.22941864099E+02  0.18934523880E+04  0.18954063382E+04  0.81932221843E+02 0.  0.
        -13    1    3    3    0    0  0.76290942423E+02  0.44524531918E+02 -0.21677819172E+03  0.23408444255E+03  0.00000000000E+00 0.  1.
         14    1    3    3    0    0  0.39723068989E+01  0.71465722157E+02 -0.14613866886E+03  0.16272565625E+03  0.00000000000E+00 0. -1.
         11    1    5    5    0    0  0.15675654998E+02 -0.21815044194E+02  0.34451852557E+03  0.34556422959E+03  0.00000000000E+00 0. -1.
        -12    1    5    5    0    0 -0.28482814808E+02  0.44756908293E+02  0.15489338624E+04  0.15498421086E+04  0.00000000000E+00 0.  1.
          5    1    4    4  501    0 -0.15774649066E+01 -0.62487113111E+02  0.63230961022E+02  0.89009856377E+02  0.41800000000E+01 0.  1.
         -5    1    4    4    0  501 -0.65878624605E+02 -0.76445005064E+02  0.45388081427E+03  0.46498290069E+03  0.41800000000E+01 0.  1.
</event>
<event>
11    1  0.7577197E-009  0.1505490E+03  0.7561462E-02  0.1096319E+00
         22   -1    0    0    0    0  0.00000000000E+00  0.00000000000E+00  0.30751053388E+03  0.30751053388E+03  0.00000000000E+00 0. -1.
         22   -1    0    0    0    0 -0.00000000000E+00 -0.00000000000E+00 -0.45101401227E+03  0.45101401227E+03  0.00000000000E+00 0. -1.
        -24    2    1    2    0    0  0.43142414813E+02 -0.47919222272E+01 -0.28506664941E+03  0.30402803631E+03  0.96362968924E+02 0.  0.
         25    2    1    2    0    0 -0.12119266106E+02  0.83515304941E+02 -0.10342276620E+03  0.18295544350E+03  0.12511891530E+03 0.  0.
         24    2    1    2    0    0 -0.31023148707E+02 -0.78723382714E+02  0.24498593722E+03  0.27154106634E+03  0.80973048173E+02 0.  0.
        -13    1    5    5    0    0 -0.87556557696E+01 -0.62697821844E+02  0.69849738646E+02  0.94269106079E+02  0.00000000000E+00 0.  1.
         14    1    5    5    0    0 -0.22267492937E+02 -0.16025560870E+02  0.17513619858E+03  0.17727196026E+03  0.00000000000E+00 0. -1.
         13    1    3    3    0    0  0.90130704205E+01 -0.46970983692E+02 -0.17343826988E+03  0.17991204020E+03  0.00000000000E+00 0. -1.
        -14    1    3    3    0    0  0.34129344392E+02  0.42179061465E+02 -0.11162837953E+03  0.12411599611E+03  0.00000000000E+00 0.  1.
          5    1    4    4  501    0 -0.32192795349E+01  0.10120638746E+02 -0.10815355094E+03  0.10875409910E+03  0.41800000000E+01 0.  1.
         -5    1    4    4    0  501 -0.88999865712E+01  0.73394666195E+02  0.47307847370E+01  0.74201344402E+02  0.41800000000E+01 0.  1.
</event>
<event>
11    1  0.7577197E-009  0.1977410E+03  0.7561462E-02  0.1056133E+00
         22   -1    0    0    0    0  0.00000000000E+00  0.00000000000E+00  0.16697879080E+04  0.16697879080E+04  0.00000000000E+00 0.  1.
         22   -1    0    0    0    0 -0.00000000000E+00 -0.00000000000E+00 -0.54004971595E+03  0.54004971595E+03  0.00000000000E+00 0. -1.
        -24    2    1    2    0    0  0.18955817161E+02  0.10086030839E+02 -0.50533466802E+03  0.51180165036E+03  0.78209664278E+02 0.  0.
         25    2    1    2    0    0 -0.13094602964E+03  0.92367696644E+02  0.37619750629E+03  0.42761068064E+03  0.12509067272E+03 0.  0.
         24    2    1    2    0    0  0.11199021248E+03 -0.10245372748E+03  0.12588753538E+04  0.12704252930E+04  0.78579225417E+02 0.  0.
        -13    1    5    5    0    0  0.12179196826E+03 -0.95027100371E+02  0.12175009742E+04  0.12272620158E+04  0.00000000000E+00 0.  1.
         14    1    5    5    0    0 -0.98017557752E+01 -0.74266271126E+01  0.41374379668E+02  0.43163277209E+02  0.00000000000E+00 0. -1.
         13    1    3    3    0    0 -0.57632559078E+01  0.36805057375E+02 -0.36221561699E+03  0.36412632500E+03  0.00000000000E+00 0. -1.
        -14    1    3    3    0    0  0.24719073068E+02 -0.26719026535E+02 -0.14311905102E+03  0.14767532535E+03  0.00000000000E+00 0.  1.
          5    1    4    4  501    0 -0.88242599848E+02  0.11176624743E+03  0.33861228435E+03  0.36736113295E+03  0.41800000000E+01 0. -1.
         -5    1    4    4    0  501 -0.42703429796E+02 -0.19398550783E+02  0.37585221935E+02  0.60249547689E+02  0.41800000000E+01 0. -1.
</event>
<event>
11    1  0.7577197E-009  0.1563656E+03  0.7561462E-02  0.1090546E+00
         22   -1    0    0    0    0  0.00000000000E+00  0.00000000000E+00  0.84342931070E+03  0.84342931070E+03  0.00000000000E+00 0. -1.
         22   -1    0    0    0    0 -0.00000000000E+00 -0.00000000000E+00 -0.14855987145E+03  0.14855987145E+03  0.00000000000E+00 0.  1.
        -24    2    1    2    0    0 -0.39851574579E+02 -0.79107836625E+01 -0.79270965959E+02  0.11973536193E+03  0.80012138821E+02 0.  0.
         25    2    1    2    0    0 -0.12195516522E+02 -0.73777292358E+02  0.78009169431E+02  0.16530413487E+03  0.12509279355E+03 0.  0.
         24    2    1    2    0    0  0.52047091102E+02  0.81688076021E+02  0.69613123578E+03  0.70694968535E+03  0.76140125711E+02 0.  0.
        -11    1    5    5    0    0  0.21307188545E+02  0.53799820315E+02  0.17823597553E+03  0.18739391645E+03  0.00000000000E+00 0.  1.
         12    1    5    5    0    0  0.30739902556E+02  0.27888255706E+02  0.51789526025E+03  0.51955576891E+03  0.00000000000E+00 0. -1.
         13    1    3    3    0    0 -0.28978993684E+02 -0.24776980919E+02 -0.16878590865E+00  0.38127540532E+02  0.00000000000E+00 0. -1.
        -14    1    3    3    0    0 -0.10872580896E+02  0.16866197256E+02 -0.79102180050E+02  0.81607821401E+02  0.00000000000E+00 0.  1.
          5    1    4    4  501    0  0.18750809334E+02 -0.77248537697E+02 -0.17066148658E+01  0.79619811362E+02  0.41800000000E+01 0. -1.
         -5    1    4    4    0  501 -0.30946325856E+02  0.34712453393E+01  0.79715784297E+02  0.85684323503E+02  0.41800000000E+01 0. -1.
</event>
<event>
11    1  0.7577197E-009  0.1308400E+03  0.7561462E-02  0.1118241E+00
         22   -1    0    0    0    0  0.00000000000E+00  0.00000000000E+00  0.72009791831E+02  0.72009791831E+02  0.00000000000E+00 0.  1.
         22   -1    0    0    0    0 -0.00000000000E+00 -0.00000000000E+00 -0.87528431249E+03  0.87528431249E+03  0.00000000000E+00 0.  1.
        -24    2    1    2    0    0 -0.26075603863E+02 -0.27219566609E+02 -0.67276172337E+03  0.67848736586E+03  0.79472808424E+02 0.  0.
         25    2    1    2    0    0  0.45396217289E+02  0.18559124750E+02 -0.12379719954E+03  0.18269715412E+03  0.12508895177E+03 0.  0.
         24    2    1    2    0    0 -0.19320613427E+02  0.86604418585E+01 -0.67155977400E+01  0.86109584331E+02  0.83195383913E+02 0.  0.
        -11    1    5    5    0    0 -0.48821365052E+02 -0.88292537255E+01 -0.12895196096E+02  0.51261754644E+02  0.00000000000E+00 0.  1.
         12    1    5    5    0    0  0.29500751625E+02  0.17489695584E+02  0.61795983563E+01  0.34847829687E+02  0.00000000000E+00 0. -1.
         13    1    3    3    0    0 -0.47320522780E+02  0.60973816046E+01 -0.41098604114E+03  0.41374622167E+03  0.00000000000E+00 0. -1.
        -14    1    3    3    0    0  0.21244918918E+02 -0.33316948214E+02 -0.26177568224E+03  0.26474114419E+03  0.00000000000E+00 0.  1.
          5    1    4    4  501    0 -0.40407210259E+02  0.24638782789E+02 -0.35108046181E+02  0.59075033346E+02  0.41800000000E+01 0.  1.
         -5    1    4    4    0  501  0.85803427548E+02 -0.60796580385E+01 -0.88689153363E+02  0.12362212078E+03  0.41800000000E+01 0.  1.
</event>
<event>
11    1  0.7577197E-009  0.2045463E+03  0.7561462E-02  0.1051354E+00
         22   -1    0    0    0    0  0.00000000000E+00  0.00000000000E+00  0.29893082200E+03  0.29893082200E+03  0.00000000000E+00 0.  1.
         22   -1    0    0    0    0 -0.00000000000E+00 -0.00000000000E+00 -0.18126541246E+04  0.18126541246E+04  0.00000000000E+00 0. -1.
        -24    2    1    2    0    0 -0.68308132393E+02  0.22758944021E+02 -0.15317008246E+04  0.15355303867E+04  0.81007295397E+02 0.  0.
         25    2    1    2    0    0  0.45479396067E+02  0.14103764699E+03 -0.20847596469E+03  0.28472814788E+03  0.12509155449E+03 0.  0.
         24    2    1    2    0    0  0.22828736326E+02 -0.16379659101E+03  0.22645348665E+03  0.29132641207E+03  0.78990014079E+02 0.  0.
        -13    1    5    5    0    0  0.64789615294E+01 -0.16585281420E+03  0.21312550439E+03  0.27013258512E+03  0.00000000000E+00 0.  1.
         14    1    5    5    0    0  0.16349774797E+02  0.20562231916E+01  0.13327982264E+02  0.21193826954E+02  0.00000000000E+00 0. -1.
         13    1    3    3    0    0 -0.50964999894E+02  0.52985800583E+02 -0.10499829725E+04  0.10525536418E+04  0.00000000000E+00 0. -1.
        -14    1    3    3    0    0 -0.17343132499E+02 -0.30226856562E+02 -0.48171785206E+03  0.48297674488E+03  0.00000000000E+00 0.  1.
          5    1    4    4  501    0  0.31293025918E+01  0.14408855532E+03 -0.12433803568E+03  0.19039097622E+03  0.41800000000E+01 0. -1.
         -5    1    4    4    0  501  0.42350093475E+02 -0.30509083241E+01 -0.84137929013E+02  0.94337171664E+02  0.41800000000E+01 0. -1.
</event>
<event>
11    1  0.7577197E-009  0.1965822E+03  0.7561462E-02  0.1056967E+00
         22   -1    0    0    0    0  0.00000000000E+00  0.00000000000E+00  0.39869394178E+03  0.39869394178E+03  0.00000000000E+00 0. -1.
         22   -1    0    0    0    0 -0.00000000000E+00 -0.00000000000E+00 -0.13293028476E+04  0.13293028476E+04  0.00000000000E+00 0.  1.
        -24    2    1    2    0    0 -0.39526532458E+02 -0.23338297888E+01 -0.11357520445E+04  0.11392041645E+04  0.79281954739E+02 0.  0.
         25    2    1    2    0    0  0.34474698699E+02 -0.14956887172E+03 -0.11315485358E+03  0.22806008364E+03  0.12509208059E+03 0.  0.
         24    2    1    2    0    0  0.50518337588E+01  0.15190270150E+03  0.31829799223E+03  0.36073254125E+03  0.75593668423E+02 0.  0.
        -13    1    5    5    0    0 -0.56229220564E+01  0.65022972373E+02  0.62471712846E+02  0.90345553818E+02  0.00000000000E+00 0.  1.
         14    1    5    5    0    0  0.10674755815E+02  0.86879729131E+02  0.25582627939E+03  0.27038698743E+03  0.00000000000E+00 0. -1.
         13    1    3    3    0    0 -0.30269962328E+02  0.24487165465E+02 -0.25139667411E+03  0.25439374922E+03  0.00000000000E+00 0. -1.
        -14    1    3    3    0    0 -0.92565701298E+01 -0.26820995254E+02 -0.88435537038E+03  0.88481041529E+03  0.00000000000E+00 0.  1.
          5    1    4    4  501    0  0.20095975368E+02  0.13130031225E+02 -0.44705745716E+02  0.50914850937E+02  0.41800000000E+01 0.  1.
         -5    1    4    4    0  501  0.14378723331E+02 -0.16269890294E+03 -0.68449107866E+02  0.17714523271E+03  0.41800000000E+01 0.  1.
</event>
<event>
11    1  0.7577197E-009  0.1385035E+03  0.7561462E-02  0.1109241E+00
         22   -1    0    0    0    0  0.00000000000E+00  0.00000000000E+00  0.57479756219E+03  0.57479756219E+03  0.00000000000E+00 0.  1.
         22   -1    0    0    0    0 -0.00000000000E+00 -0.00000000000E+00 -0.13910977352E+03  0.13910977352E+03  0.00000000000E+00 0. -1.
         24    2    1    2    0    0  0.18129796448E+02 -0.90156490736E+01 -0.88124768563E+02  0.12249440851E+03  0.82637363430E+02 0.  0.
         25    2    1    2    0    0 -0.57254039474E+02 -0.34165738120E+02  0.15726618856E+03  0.21172127024E+03  0.12509164445E+03 0.  0.
        -24    2    1    2    0    0  0.39124243027E+02  0.43181387194E+02  0.36654636868E+03  0.37969165697E+03  0.80088547176E+02 0.  0.
        -11    1    3    3    0    0 -0.11933957082E+02 -0.33327485416E+02 -0.12469012013E+02  0.37531545084E+02  0.00000000000E+00 0.  1.
         12    1    3    3    0    0  0.30063753529E+02  0.24311836342E+02 -0.75655756550E+02  0.84962863427E+02  0.00000000000E+00 0. -1.
         13    1    5    5    0    0 -0.48864064194E+01  0.24736251149E+02  0.27523972885E+02  0.37327311341E+02  0.00000000000E+00 0. -1.
        -14    1    5    5    0    0  0.44010649446E+02  0.18445136045E+02  0.33902239579E+03  0.34236434563E+03  0.00000000000E+00 0.  1.
          5    1    4    4  501    0 -0.37102433455E+02 -0.77328832174E+02  0.13244001559E+03  0.15784222814E+03  0.41800000000E+01 0.  1.
         -5    1    4    4    0  501 -0.20151606020E+02  0.43163094054E+02  0.24826172967E+02  0.53879042100E+02  0.41800000000E+01 0.  1.
</event>
<event>
11    1  0.7577197E-009  0.1552925E+03  0.7561462E-02  0.1091590E+00
         22   -1    0    0    0    0  0.00000000000E+00  0.00000000000E+00  0.51496404927E+03  0.51496404927E+03  0.00000000000E+00 0.  1.
         22   -1    0    0    0    0 -0.00000000000E+00 -0.00000000000E+00 -0.46410699018E+03  0.46410699018E+03  0.00000000000E+00 0.  1.
         24    2    1    2    0    0 -0.45733458395E+02 -0.83160490869E+02 -0.32897487882E+03  0.35179409712E+03  0.80792322742E+02 0.  0.
         25    2    1    2    0    0  0.37976885948E+02  0.70891697379E+02 -0.74487018291E+02  0.16632410545E+03  0.12509002972E+03 0.  0.
        -24    2    1    2    0    0  0.77565724477E+01  0.12268793490E+02  0.45431895620E+03  0.46095283689E+03  0.76557926835E+02 0.  0.
        -11    1    3    3    0    0 -0.25608718080E+02 -0.87296407321E+02 -0.31245815176E+03  0.32543288981E+03  0.00000000000E+00 0.  1.
         12    1    3    3    0    0 -0.20124740315E+02  0.41359164521E+01 -0.16516727061E+02  0.26361207303E+02  0.00000000000E+00 0. -1.
         13    1    5    5    0    0 -0.34574506613E+02  0.65992179031E+01  0.20091325699E+03  0.20397324094E+03  0.00000000000E+00 0. -1.
        -14    1    5    5    0    0  0.42331079060E+02  0.56695755872E+01  0.25340569922E+03  0.25697959595E+03  0.00000000000E+00 0.  1.
          5    1    4    4  501    0  0.31880183955E+01  0.55498965608E+02  0.23976239235E+02  0.60684685817E+02  0.41800000000E+01 0. -1.
         -5    1    4    4    0  501  0.34788867552E+02  0.15392731771E+02 -0.98463257526E+02  0.10563941963E+03  0.41800000000E+01 0. -1.
</event>
<event>
11    1  0.7577197E-009  0.1550202E+03  0.7561462E-02  0.1091857E+00
         22   -1    0    0    0    0  0.00000000000E+00  0.00000000000E+00  0.19602219052E+04  0.19602219052E+04  0.00000000000E+00 0.  1.
         22   -1    0    0    0    0 -0.00000000000E+00 -0.00000000000E+00 -0.59846389561E+03  0.59846389561E+03  0.00000000000E+00 0. -1.
         24    2    1    2    0    0  0.91755304355E+02 -0.40778315797E+01 -0.56950838929E+03  0.58246850477E+03  0.80585910636E+02 0.  0.
         25    2    1    2    0    0 -0.76163185499E+02  0.56304762394E+02  0.27186781768E+03  0.31389504957E+03  0.12508770826E+03 0.  0.
        -24    2    1    2    0    0 -0.15592118856E+02 -0.52226930814E+02  0.16593985811E+04  0.16623222464E+04  0.82102578257E+02 0.  0.
        -11    1    3    3    0    0 -0.36480528775E+01  0.15289981715E+02 -0.26569124873E+02  0.30870863726E+02  0.00000000000E+00 0.  1.
         12    1    3    3    0    0  0.95403357233E+02 -0.19367813295E+02 -0.54293926442E+03  0.55159764105E+03  0.00000000000E+00 0. -1.
         13    1    5    5    0    0  0.59896617308E+00 -0.15534906746E+02  0.48632293615E+02  0.51056753425E+02  0.00000000000E+00 0. -1.
        -14    1    5    5    0    0 -0.16191085029E+02 -0.36692024068E+02  0.16107662875E+04  0.16112654930E+04  0.00000000000E+00 0.  1.
          5    1    4    4  501    0 -0.85062915240E+02  0.53548294623E+02  0.28206233436E+03  0.29946577813E+03  0.41800000000E+01 0. -1.
         -5    1    4    4    0  501  0.88997297410E+01  0.27564677707E+01 -0.10194516676E+02  0.14429271440E+02  0.41800000000E+01 0. -1.
</event>
<event>
11    1  0.9623284E-009  0.1523365E+03  0.7561462E-02  0.1094515E+00
         22   -1    0    0    0    0  0.00000000000E+00  0.00000000000E+00  0.13366307936E+04  0.13366307936E+04  0.00000000000E+00 0. -1.
         22   -1    0    0    0    0 -0.00000000000E+00 -0.00000000000E+00 -0.19105082712E+04  0.19105082712E+04  0.00000000000E+00 0.  1.
        -24    2    1    2    0    0  0.77478538857E+02  0.36597596990E+01 -0.12334465752E+04  0.12384758407E+04  0.80097667327E+02 0.  0.
         25    2    1    2    0    0 -0.13252053886E+03 -0.21482856328E+02 -0.66014252618E+03  0.68517063632E+03  0.12508972647E+03 0.  0.
         24    2    1    2    0    0  0.55042000000E+02  0.17823096629E+02  0.13197116238E+04  0.13234925878E+04  0.81526532314E+02 0.  0.
        -11    1    5    5    0    0  0.27036293482E+02  0.36741564543E+02  0.32269536566E+03  0.32590367097E+03  0.00000000000E+00 0.  1.
         12    1    5    5    0    0  0.28005706517E+02 -0.18918467914E+02  0.99701625813E+03  0.99758891684E+03  0.00000000000E+00 0. -1.
         11    1    3    3    0    0  0.29024339881E+02  0.63257856849E+01 -0.10878830933E+03  0.11277111384E+03  0.00000000000E+00 0. -1.
        -12    1    3    3    0    0  0.48454198976E+02 -0.26660259859E+01 -0.11246582658E+04  0.11257047268E+04  0.00000000000E+00 0.  1.
          5    1    4    4  501    0 -0.94617989850E+02  0.46375984845E+02 -0.39556617194E+03  0.40938168590E+03  0.41800000000E+01 0.  1.
         -5    1    4    4    0  501 -0.37902549008E+02 -0.67858841173E+02 -0.26457635424E+03  0.27578895041E+03  0.41800000000E+01 0.  1.
</event>
<event>
11    1  0.7577197E-009  0.1325606E+03  0.7561462E-02  0.1116162E+00
         22   -1    0    0    0    0  0.00000000000E+00  0.00000000000E+00  0.35471949600E+04  0.35471949600E+04  0.00000000000E+00 0. -1.
         22   -1    0    0    0    0 -0.00000000000E+00 -0.00000000000E+00 -0.14718642616E+04  0.14718642616E+04  0.00000000000E+00 0. -1.
        -24    2    1    2    0    0  0.22699133177E+02 -0.15609707912E+02 -0.14177982990E+04  0.14201784490E+04  0.77433176878E+02 0.  0.
         25    2    1    2    0    0 -0.38660942619E+02 -0.25337678753E+02  0.32806804249E+02  0.13733210915E+03  0.12508859001E+03 0.  0.
         24    2    1    2    0    0  0.15961809442E+02  0.40947386665E+02  0.34603221931E+04  0.34615486634E+04  0.80981487678E+02 0.  0.
        -13    1    5    5    0    0  0.24189959961E+02 -0.16452541652E+01  0.31654895464E+03  0.31747614352E+03  0.00000000000E+00 0.  1.
         14    1    5    5    0    0 -0.82281505190E+01  0.42592640830E+02  0.31437732385E+04  0.31440725199E+04  0.00000000000E+00 0. -1.
         13    1    3    3    0    0  0.15221066200E+02 -0.46552251542E+02 -0.98087983485E+03  0.98210184981E+03  0.00000000000E+00 0. -1.
        -14    1    3    3    0    0  0.74780669775E+01  0.30942543630E+02 -0.43691846412E+03  0.43807659922E+03  0.00000000000E+00 0.  1.
          5    1    4    4  501    0 -0.52040036129E+02 -0.68736298859E+02  0.11791132885E+02  0.87116860342E+02  0.41800000000E+01 0. -1.
         -5    1    4    4    0  501  0.13379093509E+02  0.43398620106E+02  0.21015671363E+02  0.50215248810E+02  0.41800000000E+01 0. -1.
</event>
<event>
11    1  0.7577197E-009  0.2295741E+03  0.7561462E-02  0.1035380E+00
         22   -1    0    0    0    0  0.00000000000E+00  0.00000000000E+00  0.52814254639E+03  0.52814254639E+03  0.00000000000E+00 0. -1.
         22   -1    0    0    0    0 -0.00000000000E+00 -0.00000000000E+00 -0.66248634292E+03  0.66248634292E+03  0.00000000000E+00 0.  1.
         24    2    1    2    0    0 -0.11902778652E+03  0.16410155844E+03 -0.35709735326E+03  0.41882133494E+03  0.82436978658E+02 0.  0.
         25    2    1    2    0    0  0.10645367089E+03  0.52875573265E+02 -0.21554323507E+03  0.27612537492E+03  0.12513243464E+03 0.  0.
        -24    2    1    2    0    0  0.12574115635E+02 -0.21697713170E+03  0.43829679180E+03  0.49568217944E+03  0.79746857303E+02 0.  0.
        -11    1    3    3    0    0 -0.94660423560E+02  0.16666925509E+03 -0.33431230933E+03  0.38536211094E+03  0.00000000000E+00 0.  1.
         12    1    3    3    0    0 -0.24367362962E+02 -0.25676966493E+01 -0.22785043937E+02  0.33459224005E+02  0.00000000000E+00 0. -1.
         13    1    5    5    0    0  0.23911741737E+02 -0.19191975776E+03  0.31728273189E+03  0.37158215346E+03  0.00000000000E+00 0. -1.
        -14    1    5    5    0    0 -0.11337626101E+02 -0.25057373946E+02  0.12101405990E+03  0.12410002598E+03  0.00000000000E+00 0.  1.
          5    1    4    4  501    0  0.12546059044E+03  0.38436723852E+02 -0.12104508971E+03  0.17856967166E+03  0.41800000000E+01 0.  1.
         -5    1    4    4    0  501 -0.19006919549E+02  0.14438849412E+02 -0.94498145358E+02  0.97555703264E+02  0.41800000000E+01 0.  1.
</event>
<event>
11    1  0.7577197E-009  0.1395359E+03  0.7561462E-02  0.1108078E+00
         22   -1    0    0    0    0  0.00000000000E+00  0.00000000000E+00  0.14761750490E+04  0.14761750490E+04  0.00000000000E+00 0. -1.
         22   -1    0    0    0    0 -0.00000000000E+00 -0.00000000000E+00 -0.13345981909E+03  0.13345981909E+03  0.00000000000E+00 0.  1.
        -24    2    1    2    0    0  0.12689064505E+02  0.56550421885E+02 -0.69205314644E+02  0.12103916438E+03  0.80635855339E+02 0.  0.
         25    2    1    2    0    0 -0.52606620023E+00 -0.86877297531E+02  0.12004731145E+03  0.19392493567E+03  0.12509029586E+03 0.  0.
         24    2    1    2    0    0 -0.12162998305E+02  0.30326875645E+02  0.12918732331E+04  0.12946707680E+04  0.78538457453E+02 0.  0.
        -13    1    5    5    0    0  0.18572940431E+02  0.93313661587E+00  0.83344859689E+02  0.85394323563E+02  0.00000000000E+00 0.  1.
         14    1    5    5    0    0 -0.30735938736E+02  0.29393739030E+02  0.12085283734E+04  0.12092764445E+04  0.00000000000E+00 0. -1.
         13    1    3    3    0    0  0.28910579727E+02 -0.81253957489E+01 -0.93953395559E+01  0.31466110049E+02  0.00000000000E+00 0. -1.
        -14    1    3    3    0    0 -0.16221515222E+02  0.64675817634E+02 -0.59809975088E+02  0.89573054334E+02  0.00000000000E+00 0.  1.
          5    1    4    4  501    0  0.20594534492E+02 -0.37454948002E+02  0.13191114828E+03  0.13872646259E+03  0.41800000000E+01 0. -1.
         -5    1    4    4    0  501 -0.21120600692E+02 -0.49422349529E+02 -0.11863836833E+02  0.55198473085E+02  0.41800000000E+01 0. -1.
</event>
<event>
11    1  0.7577197E-009  0.3051004E+03  0.7561462E-02  0.9980554E-01
         22   -1    0    0    0    0  0.00000000000E+00  0.00000000000E+00  0.71993437723E+03  0.71993437723E+03  0.00000000000E+00 0.  1.
         22   -1    0    0    0    0 -0.00000000000E+00 -0.00000000000E+00 -0.75241231279E+03  0.75241231279E+03  0.00000000000E+00 0.  1.
        -24    2    1    2    0    0  0.15816415123E+03 -0.18851864709E+03 -0.57445952072E+03  0.62983852035E+03  0.78343102684E+02 0.  0.
         25    2    1    2    0    0 -0.30542007951E+03 -0.68682038272E+02  0.26399016103E+03  0.42817966727E+03  0.12509346506E+03 0.  0.
         24    2    1    2    0    0  0.14725592827E+03  0.25720068536E+03  0.27799142414E+03  0.41432850239E+03  0.80946741990E+02 0.  0.
        -11    1    5    5    0    0  0.12476587836E+03  0.16104157716E+03  0.15162289415E+03  0.25394963282E+03  0.00000000000E+00 0.  1.
         12    1    5    5    0    0  0.22490049911E+02  0.96159108199E+02  0.12636852999E+03  0.16037886957E+03  0.00000000000E+00 0. -1.
         11    1    3    3    0    0  0.10235288432E+02 -0.64155022462E+02 -0.14085747606E+03  0.15511755735E+03  0.00000000000E+00 0. -1.
        -12    1    3    3    0    0  0.14792886280E+03 -0.12436362463E+03 -0.43360204466E+03  0.47472096300E+03  0.00000000000E+00 0.  1.
          5    1    4    4  501    0 -0.43099397223E+02  0.31389892006E+02  0.64228825318E+02  0.83580486735E+02  0.41800000000E+01 0.  1.
         -5    1    4    4    0  501 -0.26232068228E+03 -0.10007193028E+03  0.19976133571E+03  0.34459918054E+03  0.41800000000E+01 0.  1.
</event>
<event>
11    1  0.7577197E-009  0.1595088E+03  0.7561462E-02  0.1087540E+00
         22   -1    0    0    0    0  0.00000000000E+00  0.00000000000E+00  0.57083191895E+03  0.57083191895E+03  0.00000000000E+00 0. -1.
         22   -1    0    0    0    0 -0.00000000000E+00 -0.00000000000E+00 -0.26299894639E+03  0.26299894639E+03  0.00000000000E+00 0.  1.
         24    2    1    2    0    0  0.83894142384E+02 -0.53110603463E+02 -0.18096557841E+03  0.22122607038E+03  0.79583103213E+02 0.  0.
         25    2    1    2    0    0 -0.96135810998E+02  0.28824912359E+02  0.54496568533E+02  0.16938087780E+03  0.12508811316E+03 0.  0.
        -24    2    1    2    0    0  0.12241668614E+02  0.24285691104E+02  0.43430198243E+03  0.44322391716E+03  0.84199617308E+02 0.  0.
        -13    1    3    3    0    0  0.66263449507E+02  0.46042144899E+01 -0.85212990595E+02  0.10804303447E+03  0.00000000000E+00 0.  1.
         14    1    3    3    0    0  0.17630692877E+02 -0.57714817953E+02 -0.95752587820E+02  0.11318303591E+03  0.00000000000E+00 0. -1.
         11    1    5    5    0    0  0.22724316744E+02 -0.17010698845E+02  0.31970935995E+03  0.32096702835E+03  0.00000000000E+00 0. -1.
        -12    1    5    5    0    0 -0.10482648130E+02  0.41296389949E+02  0.11459262248E+03  0.12225688881E+03  0.00000000000E+00 0.  1.
          5    1    4    4  501    0  0.25040595789E+02 -0.53075776252E+01  0.32390171446E+02  0.41494546919E+02  0.41800000000E+01 0.  1.
         -5    1    4    4    0  501 -0.12117640679E+03  0.34132489984E+02  0.22106397087E+02  0.12788633088E+03  0.41800000000E+01 0.  1.
</event>
<event>
11    1  0.7577197E-009  0.1778290E+03  0.7561462E-02  0.1071413E+00
         22   -1    0    0    0    0  0.00000000000E+00  0.00000000000E+00  0.18809978420E+03  0.18809978420E+03  0.00000000000E+00 0. -1.
         22   -1    0    0    0    0 -0.00000000000E+00 -0.00000000000E+00 -0.98693192738E+03  0.98693192738E+03  0.00000000000E+00 0. -1.
        -24    2    1    2    0    0 -0.26209594121E+02 -0.12497067044E+03 -0.61578312199E+03  0.63405638047E+03  0.80833340848E+02 0.  0.
         25    2    1    2    0    0 -0.27968681710E+02  0.12839601174E+03 -0.32246949897E+03  0.36999532235E+03  0.12506869233E+03 0.  0.
         24    2    1    2    0    0  0.54178275831E+02 -0.34253412939E+01  0.13942047778E+03  0.17098000877E+03  0.82759139914E+02 0.  0.
        -11    1    5    5    0    0  0.29936977502E+02  0.15669848124E+02  0.13576344059E+03  0.13990524852E+03  0.00000000000E+00 0.  1.
         12    1    5    5    0    0  0.24241298329E+02 -0.19095189418E+02  0.36570371893E+01  0.31074760249E+02  0.00000000000E+00 0. -1.
         11    1    3    3    0    0 -0.30383049853E+02 -0.13389650671E+03 -0.59952021944E+03  0.61504137889E+03  0.00000000000E+00 0. -1.
        -12    1    3    3    0    0  0.41734557323E+01  0.89258362669E+01 -0.16262902549E+02  0.19015001581E+02  0.00000000000E+00 0.  1.
          5    1    4    4  501    0 -0.47352037650E+02  0.92531414377E+02 -0.31025790717E+03  0.32723343271E+03  0.41800000000E+01 0.  1.
         -5    1    4    4    0  501  0.19383355940E+02  0.35864597360E+02 -0.12211591800E+02  0.42761889640E+02  0.41800000000E+01 0.  1.
</event>
<event>
11    1  0.7577197E-009  0.1444490E+03  0.7561462E-02  0.1102690E+00
         22   -1    0    0    0    0  0.00000000000E+00  0.00000000000E+00  0.40336796523E+03  0.40336796523E+03  0.00000000000E+00 0. -1.
         22   -1    0    0    0    0 -0.00000000000E+00 -0.00000000000E+00 -0.28839922683E+03  0.28839922683E+03  0.00000000000E+00 0. -1.
        -24    2    1    2    0    0  0.23808783556E+01  0.85897683131E+02 -0.17516090229E+03  0.21088366414E+03  0.80040599463E+02 0.  0.
         25    2    1    2    0    0 -0.50456926826E+02 -0.24658223604E+02 -0.31219453846E+02  0.14062721254E+03  0.12508968444E+03 0.  0.
         24    2    1    2    0    0  0.48076048470E+02 -0.61239459527E+02  0.32134909453E+03  0.34025631538E+03  0.80296586237E+02 0.  0.
        -13    1    5    5    0    0 -0.17114904397E+02 -0.18179506095E+02  0.14830983114E+03  0.15039687633E+03  0.00000000000E+00 0.  1.
         14    1    5    5    0    0  0.65190952867E+02 -0.43059953432E+02  0.17303926339E+03  0.18985943905E+03  0.00000000000E+00 0. -1.
         13    1    3    3    0    0  0.98676182109E+01  0.23047396027E+02 -0.13179431122E+03  0.13415771623E+03  0.00000000000E+00 0. -1.
        -14    1    3    3    0    0 -0.74867398552E+01  0.62850287104E+02 -0.43366591068E+02  0.76725947916E+02  0.00000000000E+00 0.  1.
          5    1    4    4  501    0 -0.21671781335E+02 -0.60579279663E+02  0.23838101625E+02  0.68740400928E+02  0.41800000000E+01 0.  1.
         -5    1    4    4    0  501 -0.28785145491E+02  0.35921056059E+02 -0.55057555471E+02  0.71886811612E+02  0.41800000000E+01 0.  1.
</event>
<event>
11    1  0.7577197E-009  0.2404005E+03  0.7561462E-02  0.1029141E+00
         22   -1    0    0    0    0  0.00000000000E+00  0.00000000000E+00  0.38673771154E+03  0.38673771154E+03  0.00000000000E+00 0. -1.
         22   -1    0    0    0    0 -0.00000000000E+00 -0.00000000000E+00 -0.98645811749E+03  0.98645811749E+03  0.00000000000E+00 0.  1.
        -24    2    1    2    0    0  0.19165112684E+03 -0.56689750809E+02 -0.82792582389E+03  0.85571261528E+03  0.82698414916E+02 0.  0.
         25    2    1    2    0    0 -0.25029455471E+03  0.11107899717E+03  0.36645191856E+02  0.30327572293E+03  0.12508951315E+03 0.  0.
         24    2    1    2    0    0  0.58643427875E+02 -0.54389246362E+02  0.19156022608E+03  0.21420749082E+03  0.52842096442E+02 0.  0.
        -11    1    5    5    0    0 -0.11857527502E+01 -0.12849201382E+02  0.48358195408E+01  0.13780171856E+02  0.00000000000E+00 0.  1.
         12    1    5    5    0    0  0.59829180625E+02 -0.41540044980E+02  0.18672440653E+03  0.20042731896E+03  0.00000000000E+00 0. -1.
         11    1    3    3    0    0  0.12009189078E+03 -0.19103159288E+02 -0.33899089827E+03  0.36014139173E+03  0.00000000000E+00 0. -1.
        -12    1    3    3    0    0  0.71559236059E+02 -0.37586591521E+02 -0.48893492562E+03  0.49557122356E+03  0.00000000000E+00 0.  1.
          5    1    4    4  501    0 -0.62071769249E+02  0.92455594792E+02  0.57918401749E+01  0.11158834777E+03  0.41800000000E+01 0. -1.
         -5    1    4    4    0  501 -0.18822278546E+03  0.18623402379E+02  0.30853351681E+02  0.19168737515E+03  0.41800000000E+01 0. -1.
</event>
<event>
11    1  0.7577197E-009  0.1319674E+03  0.7561462E-02  0.1116875E+00
         22   -1    0    0    0    0  0.00000000000E+00  0.00000000000E+00  0.28660897198E+03  0.28660897198E+03  0.00000000000E+00 0. -1.
         22   -1    0    0    0    0 -0.00000000000E+00 -0.00000000000E+00 -0.47174385330E+03  0.47174385330E+03  0.00000000000E+00 0.  1.
        -24    2    1    2    0    0  0.39219769770E+02  0.34952117802E+01 -0.33397863336E+03  0.34542775465E+03  0.78918941260E+02 0.  0.
         25    2    1    2    0    0 -0.49423640845E+01  0.24409436097E+02 -0.90222464138E+02  0.15622974529E+03  0.12508953892E+03 0.  0.
         24    2    1    2    0    0 -0.34277405686E+02 -0.27904647878E+02  0.23906621618E+03  0.25669532533E+03  0.82378543414E+02 0.  0.
        -13    1    5    5    0    0  0.22355052470E+02  0.56799051890E+01  0.32236071082E+02  0.39638036943E+02  0.00000000000E+00 0.  1.
         14    1    5    5    0    0 -0.56632458156E+02 -0.33584553067E+02  0.20683014510E+03  0.21705728839E+03  0.00000000000E+00 0. -1.
         13    1    3    3    0    0 -0.16949298268E+02 -0.16606158427E+02 -0.51292360073E+02  0.56515037038E+02  0.00000000000E+00 0. -1.
        -14    1    3    3    0    0  0.56169068039E+02  0.20101370208E+02 -0.28268627329E+03  0.28891271761E+03  0.00000000000E+00 0.  1.
          5    1    4    4  501    0  0.32924934396E+02  0.64067821926E+02 -0.57271777723E+02  0.92120931579E+02  0.41800000000E+01 0. -1.
         -5    1    4    4    0  501 -0.37867298480E+02 -0.39658385829E+02 -0.32950686416E+02  0.64108813715E+02  0.41800000000E+01 0. -1.
</event>
<event>
11    1  0.7577197E-009  0.1330599E+03  0.7561462E-02  0.1115565E+00
         22   -1    0    0    0    0  0.00000000000E+00  0.00000000000E+00  0.41446957222E+03  0.41446957222E+03  0.00000000000E+00 0. -1.
         22   -1    0    0    0    0 -0.00000000000E+00 -0.00000000000E+00 -0.15354935964E+04  0.15354935964E+04  0.00000000000E+00 0.  1.
        -24    2    1    2    0    0 -0.22058576412E+02  0.37541553201E+02 -0.13466739635E+04  0.13498094666E+04  0.80986932830E+02 0.  0.
         25    2    1    2    0    0  0.25958842650E+02 -0.78841944050E+02 -0.15074221981E+03  0.21274535447E+03  0.12508978919E+03 0.  0.
         24    2    1    2    0    0 -0.39002662388E+01  0.41300390849E+02  0.37639215910E+03  0.38740834753E+03  0.81812199194E+02 0.  0.
        -11    1    5    5    0    0  0.23444305581E+02 -0.15686657773E+02  0.13140090926E+03  0.13439458936E+03  0.00000000000E+00 0.  1.
         12    1    5    5    0    0 -0.27344571819E+02  0.56987048622E+02  0.24499124985E+03  0.25301375816E+03  0.00000000000E+00 0. -1.
         13    1    3    3    0    0 -0.30174769692E+02 -0.41837452229E+01 -0.19623619514E+03  0.19858666807E+03  0.00000000000E+00 0. -1.
        -14    1    3    3    0    0  0.81161932804E+01  0.41725298424E+02 -0.11504377683E+04  0.11512227986E+04  0.00000000000E+00 0.  1.
          5    1    4    4  501    0 -0.46045961970E+02 -0.50163122697E+02 -0.45602462432E+02  0.82058677008E+02  0.41800000000E+01 0.  1.
         -5    1    4    4    0  501  0.72004804621E+02 -0.28678821353E+02 -0.10513975738E+03  0.13068667746E+03  0.41800000000E+01 0.  1.
</event>
<event>
11    1  0.7577197E-009  0.1687807E+03  0.7561462E-02  0.1079098E+00
         22   -1    0    0    0    0  0.00000000000E+00  0.00000000000E+00  0.14152487691E+04  0.14152487691E+04  0.00000000000E+00 0.  1.
         22   -1    0    0    0    0 -0.00000000000E+00 -0.00000000000E+00 -0.58397506464E+03  0.58397506464E+03  0.00000000000E+00 0. -1.
        -24    2    1    2    0    0  0.25730693879E+02  0.10129246037E+02 -0.37572435746E+03  0.38529090774E+03  0.80719393972E+02 0.  0.
         25    2    1    2    0    0  0.35581875573E+02 -0.10552793040E+03 -0.16488326105E+03  0.23502422312E+03  0.12509069396E+03 0.  0.
         24    2    1    2    0    0 -0.61312569452E+02  0.95398684363E+02  0.13718813230E+04  0.13789087029E+04  0.80440701212E+02 0.  0.
        -11    1    5    5    0    0 -0.63553874756E+02  0.48470475358E+02  0.56072945584E+03  0.56639739108E+03  0.00000000000E+00 0.  1.
         12    1    5    5    0    0  0.22413053041E+01  0.46928209005E+02  0.81115186718E+03  0.81251131184E+03  0.00000000000E+00 0. -1.
         13    1    3    3    0    0  0.47531756688E+02 -0.15806865260E+02 -0.25651934225E+03  0.26136430099E+03  0.00000000000E+00 0. -1.
        -14    1    3    3    0    0 -0.21801062809E+02  0.25936111297E+02 -0.11920501522E+03  0.12392660675E+03  0.00000000000E+00 0.  1.
          5    1    4    4  501    0  0.23560692304E+02  0.90466809249E+01 -0.98988844373E+02  0.10224095250E+03  0.41800000000E+01 0. -1.
         -5    1    4    4    0  501  0.12021183268E+02 -0.11457461133E+03 -0.65894416680E+02  0.13278327062E+03  0.41800000000E+01 0. -1.
</event>
<event>
11    1  0.7577197E-009  0.3006642E+03  0.7561462E-02  0.9999105E-01
         22   -1    0    0    0    0  0.00000000000E+00  0.00000000000E+00  0.32420243910E+03  0.32420243910E+03  0.00000000000E+00 0. -1.
         22   -1    0    0    0    0 -0.00000000000E+00 -0.00000000000E+00 -0.18239657392E+04  0.18239657392E+04  0.00000000000E+00 0. -1.
        -24    2    1    2    0    0  0.19527745019E+02 -0.39187590119E+02 -0.15165330621E+04  0.15193352419E+04  0.81179115388E+02 0.  0.
         25    2    1    2    0    0  0.86613919832E+02  0.28148460470E+03 -0.90259019896E+02  0.33246304600E+03  0.12509769178E+03 0.  0.
         24    2    1    2    0    0 -0.10614166485E+03 -0.24229701458E+03  0.10702878187E+03  0.29636989044E+03  0.80037838019E+02 0.  0.
        -11    1    5    5    0    0 -0.18508451309E+02 -0.50426858288E+01  0.22790344270E+02  0.29789112813E+02  0.00000000000E+00 0.  1.
         12    1    5    5    0    0 -0.87633213541E+02 -0.23725432876E+03  0.84238437603E+02  0.26658077762E+03  0.00000000000E+00 0. -1.
         11    1    3    3    0    0 -0.18624226549E+02  0.13670549179E+02 -0.62257409971E+03  0.62300261265E+03  0.00000000000E+00 0. -1.
        -12    1    3    3    0    0  0.38151971568E+02 -0.52858139298E+02 -0.89395896235E+03  0.89633262922E+03  0.00000000000E+00 0.  1.
          5    1    4    4  501    0  0.55307601318E+02  0.25575565874E+03 -0.35327810831E+02  0.26407463785E+03  0.41800000000E+01 0. -1.
         -5    1    4    4    0  501  0.31306318514E+02  0.25728945967E+02 -0.54931209065E+02  0.68388408146E+02  0.41800000000E+01 0. -1.
</event>
<event>
11    1  0.1145027E-008  0.2122556E+03  0.7561462E-02  0.1046180E+00
         22   -1    0    0    0    0  0.00000000000E+00  0.00000000000E+00  0.28401807296E+04  0.28401807296E+04  0.00000000000E+00 0. -1.
         22   -1    0    0    0    0 -0.00000000000E+00 -0.00000000000E+00 -0.16790883559E+04  0.16790883559E+04  0.00000000000E+00 0.  1.
         24    2    1    2    0    0  0.47149497003E+02 -0.10612302663E+02 -0.14151980591E+04  0.14186211047E+04  0.85817225377E+02 0.  0.
         25    2    1    2    0    0  0.73999262058E+02 -0.11146335711E+03 -0.22652380784E+03  0.29130747787E+03  0.12508813046E+03 0.  0.
        -24    2    1    2    0    0 -0.12114875906E+03  0.12207565978E+03  0.28028142407E+04  0.28093405030E+04  0.83945848207E+02 0.  0.
        -13    1    3    3    0    0  0.50775673470E+02  0.28037164960E+02 -0.97060915786E+03  0.97234067535E+03  0.00000000000E+00 0.  1.
         14    1    3    3    0    0 -0.36261764662E+01 -0.38649467622E+02 -0.44458890125E+03  0.44628042934E+03  0.00000000000E+00 0. -1.
         13    1    5    5    0    0 -0.12307641079E+03  0.13085623008E+03  0.25257054296E+04  0.25320859134E+04  0.00000000000E+00 0. -1.
        -14    1    5    5    0    0  0.19276517311E+01 -0.87805703029E+01  0.27710881104E+03  0.27725458952E+03  0.00000000000E+00 0.  1.
          5    1    4    4  501    0 -0.18707465123E+02  0.16345456703E+02 -0.29682434252E+02  0.38931510494E+02  0.41800000000E+01 0.  1.
         -5    1    4    4    0  501  0.92706727181E+02 -0.12780881382E+03 -0.19684137358E+03  0.25237596738E+03  0.41800000000E+01 0.  1.
</event>
<event>
11    1  0.7577197E-009  0.1574358E+03  0.7561462E-02  0.1089514E+00
         22   -1    0    0    0    0  0.00000000000E+00  0.00000000000E+00  0.75486315806E+02  0.75486315806E+02  0.00000000000E+00 0. -1.
         22   -1    0    0    0    0 -0.00000000000E+00 -0.00000000000E+00 -0.10394242297E+04  0.10394242297E+04  0.00000000000E+00 0.  1.
        -24    2    1    2    0    0  0.89996817845E+02 -0.17472875162E+02 -0.70345843287E+03  0.71386362920E+03  0.79641608042E+02 0.  0.
         25    2    1    2    0    0 -0.11072615552E+03  0.27816877991E+02 -0.26822649768E+03  0.31721819485E+03  0.12509144202E+03 0.  0.
         24    2    1    2    0    0  0.20729337672E+02 -0.10344002829E+02  0.77470166481E+01  0.83828721468E+02  0.80190613173E+02 0.  0.
        -11    1    5    5    0    0 -0.29518377103E+02 -0.13498967474E+02  0.82067572329E+01  0.33479957794E+02  0.00000000000E+00 0.  1.
         12    1    5    5    0    0  0.50247714775E+02  0.31549646447E+01 -0.45974058489E+00  0.50348763673E+02  0.00000000000E+00 0. -1.
         11    1    3    3    0    0  0.23570673229E+02 -0.14662044921E+02 -0.51332864886E+02  0.58357649157E+02  0.00000000000E+00 0. -1.
        -12    1    3    3    0    0  0.66426144616E+02 -0.28108302413E+01 -0.65212556798E+03  0.65550598004E+03  0.00000000000E+00 0.  1.
          5    1    4    4  501    0 -0.89688374585E+02 -0.32793133546E+02 -0.20892074132E+03  0.22974930402E+03  0.41800000000E+01 0. -1.
         -5    1    4    4    0  501 -0.21037780932E+02  0.60610011537E+02 -0.59305756363E+02  0.87468890829E+02  0.41800000000E+01 0. -1.
</event>
<event>
11    1  0.7577197E-009  0.1583928E+03  0.7561462E-02  0.1088599E+00
         22   -1    0    0    0    0  0.00000000000E+00  0.00000000000E+00  0.50507152691E+03  0.50507152691E+03  0.00000000000E+00 0.  1.
         22   -1    0    0    0    0 -0.00000000000E+00 -0.00000000000E+00 -0.33661661231E+03  0.33661661231E+03  0.00000000000E+00 0.  1.
        -24    2    1    2    0    0  0.47661084333E+02  0.37867345542E+01 -0.22298840119E+03  0.24193203749E+03  0.80754971239E+02 0.  0.
         25    2    1    2    0    0 -0.13308255657E+03  0.33803717134E+02 -0.38227381442E+01  0.18580489919E+03  0.12512069805E+03 0.  0.
         24    2    1    2    0    0  0.85421472240E+02 -0.37590451689E+02  0.39526605395E+03  0.41395120254E+03  0.80065440120E+02 0.  0.
        -11    1    5    5    0    0 -0.14666061698E+02 -0.50919013552E+01  0.82751717885E+02  0.84195413403E+02  0.00000000000E+00 0.  1.
         12    1    5    5    0    0  0.10008753394E+03 -0.32498550333E+02  0.31251433606E+03  0.32975578913E+03  0.00000000000E+00 0. -1.
         13    1    3    3    0    0 -0.18894453219E+02  0.12049050511E+02 -0.28818300063E+02  0.36505813225E+02  0.00000000000E+00 0. -1.
        -14    1    3    3    0    0  0.66555537552E+02 -0.82623159568E+01 -0.19417010113E+03  0.20542622427E+03  0.00000000000E+00 0.  1.
          5    1    4    4  501    0 -0.40982321460E+02 -0.29485818971E+02 -0.43877469610E+02  0.67019914444E+02  0.41800000000E+01 0. -1.
         -5    1    4    4    0  501 -0.92100235113E+02  0.63289536105E+02  0.40054731466E+02  0.11878498475E+03  0.41800000000E+01 0. -1.
</event>
<event>
11    1  0.7577197E-009  0.1870941E+03  0.7561462E-02  0.1064045E+00
         22   -1    0    0    0    0  0.00000000000E+00  0.00000000000E+00  0.38869482504E+03  0.38869482504E+03  0.00000000000E+00 0. -1.
         22   -1    0    0    0    0 -0.00000000000E+00 -0.00000000000E+00 -0.98706215436E+03  0.98706215436E+03  0.00000000000E+00 0.  1.
        -24    2    1    2    0    0  0.13530542624E+03 -0.30787236561E+02 -0.91674975661E+03  0.93065465770E+03  0.80203262682E+02 0.  0.
         25    2    1    2    0    0 -0.14277789651E+03  0.40673178299E+02  0.11485986345E+03  0.22556139463E+03  0.12508125100E+03 0.  0.
         24    2    1    2    0    0  0.74724702620E+01 -0.98859417380E+01  0.20352256385E+03  0.21954092707E+03  0.81383137119E+02 0.  0.
        -13    1    5    5    0    0  0.11024207489E+02 -0.23161044384E+01 -0.39218577003E+01  0.11928053418E+02  0.00000000000E+00 0.  1.
         14    1    5    5    0    0 -0.35517372268E+01 -0.75698372996E+01  0.20744442155E+03  0.20761287365E+03  0.00000000000E+00 0. -1.
         11    1    3    3    0    0  0.91976578942E+01 -0.52105455306E+01 -0.91566892911E+01  0.13985408619E+02  0.00000000000E+00 0. -1.
        -12    1    3    3    0    0  0.12610776835E+03 -0.25576691030E+02 -0.90759306732E+03  0.91666924908E+03  0.00000000000E+00 0.  1.
          5    1    4    4  501    0 -0.33479143383E+02  0.37614262460E+02  0.10397165772E+03  0.11559958387E+03  0.41800000000E+01 0.  1.
         -5    1    4    4    0  501 -0.10929875312E+03  0.30589158392E+01  0.10888205723E+02  0.10996181075E+03  0.41800000000E+01 0.  1.
</event>
<event>
11    1  0.7577197E-009  0.2423396E+03  0.7561462E-02  0.1028061E+00
         22   -1    0    0    0    0  0.00000000000E+00  0.00000000000E+00  0.12086420450E+04  0.12086420450E+04  0.00000000000E+00 0. -1.
         22   -1    0    0    0    0 -0.00000000000E+00 -0.00000000000E+00 -0.15413148395E+04  0.15413148395E+04  0.00000000000E+00 0.  1.
        -24    2    1    2    0    0 -0.20555091222E+03  0.15726945569E+02 -0.14352387914E+04  0.14525370729E+04  0.86342606051E+02 0.  0.
         25    2    1    2    0    0  0.23852482686E+03 -0.74434609955E+01  0.93945754586E+02  0.28534742033E+03  0.12509135599E+03 0.  0.
         24    2    1    2    0    0 -0.32973914645E+02 -0.82834845735E+01  0.10086202423E+04  0.10120723912E+04  0.76287854932E+02 0.  0.
        -11    1    5    5    0    0 -0.39653401837E+01 -0.35056919879E+02  0.25625582073E+03  0.25867307014E+03  0.00000000000E+00 0.  1.
         12    1    5    5    0    0 -0.29008574461E+02  0.26773435305E+02  0.75236442153E+03  0.75339932109E+03  0.00000000000E+00 0. -1.
         11    1    3    3    0    0  0.95309242383E+00  0.16523835563E+02 -0.84767223153E+02  0.86367978139E+02  0.00000000000E+00 0. -1.
        -12    1    3    3    0    0 -0.20650400464E+03 -0.79688999407E+00 -0.13504715682E+04  0.13661690948E+04  0.00000000000E+00 0.  1.
          5    1    4    4  501    0  0.15904440957E+03  0.98395189449E+00  0.12204735985E+03  0.20052212552E+03  0.41800000000E+01 0.  1.
         -5    1    4    4    0  501  0.79480417292E+02 -0.84274128900E+01 -0.28101605267E+02  0.84825294809E+02  0.41800000000E+01 0.  1.
</event>
<event>
11    1  0.7577197E-009  0.1644864E+03  0.7561462E-02  0.1082932E+00
         22   -1    0    0    0    0  0.00000000000E+00  0.00000000000E+00  0.12939896374E+04  0.12939896374E+04  0.00000000000E+00 0. -1.
         22   -1    0    0    0    0 -0.00000000000E+00 -0.00000000000E+00 -0.21002992154E+04  0.21002992154E+04  0.00000000000E+00 0. -1.
        -24    2    1    2    0    0 -0.62862971957E+02 -0.39685162399E+02 -0.20206619581E+04  0.20236588674E+04  0.81202199850E+02 0.  0.
         25    2    1    2    0    0 -0.11256029634E+02 -0.41951749697E+02 -0.15421311042E+02  0.13331123393E+03  0.12508965085E+03 0.  0.
         24    2    1    2    0    0  0.74119001591E+02  0.81636912096E+02  0.12297736911E+04  0.12373187514E+04  0.80350167414E+02 0.  0.
        -11    1    5    5    0    0  0.14044414286E+02 -0.14043029651E+02  0.10314552078E+03  0.10504023377E+03  0.00000000000E+00 0.  1.
         12    1    5    5    0    0  0.60074587304E+02  0.95679941746E+02  0.11266281704E+04  0.11322785177E+04  0.00000000000E+00 0. -1.
         11    1    3    3    0    0 -0.24879139625E+02  0.13356287655E+02 -0.12254451009E+04  0.12257703934E+04  0.00000000000E+00 0. -1.
        -12    1    3    3    0    0 -0.37983832332E+02 -0.53041450054E+02 -0.79521685727E+03  0.79788847405E+03  0.00000000000E+00 0.  1.
          5    1    4    4  501    0 -0.81523319328E+01 -0.64777745999E+00 -0.66661337042E+02  0.67291057264E+02  0.41800000000E+01 0.  1.
         -5    1    4    4    0  501 -0.31036977007E+01 -0.41303972237E+02  0.51240026000E+02  0.66020176662E+02  0.41800000000E+01 0.  1.
</event>
<event>
11    1  0.7577197E-009  0.1338932E+03  0.7561462E-02  0.1114576E+00
         22   -1    0    0    0    0  0.00000000000E+00  0.00000000000E+00  0.15364157711E+03  0.15364157711E+03  0.00000000000E+00 0.  1.
         22   -1    0    0    0    0 -0.00000000000E+00 -0.00000000000E+00 -0.10775709407E+04  0.10775709407E+04  0.00000000000E+00 0.  1.
        -24    2    1    2    0    0  0.45363238483E+02 -0.70672512267E+01 -0.80503071898E+03  0.81051046381E+03  0.82127851527E+02 0.  0.
         25    2    1    2    0    0 -0.64082063434E+02 -0.23833935254E+02 -0.23521774169E+03  0.27504527070E+03  0.12509175676E+03 0.  0.
         24    2    1    2    0    0  0.18718824951E+02  0.30901186481E+02  0.11631909706E+03  0.14565678332E+03  0.79877959744E+02 0.  0.
        -13    1    5    5    0    0  0.11767924005E+01  0.50420352117E+02  0.38259978491E+02  0.63304207617E+02  0.00000000000E+00 0.  1.
         14    1    5    5    0    0  0.17542032551E+02 -0.19519165636E+02  0.78059118571E+02  0.82352575704E+02  0.00000000000E+00 0. -1.
         11    1    3    3    0    0  0.88498622133E+01 -0.35887406919E+02 -0.55223234479E+03  0.55346796535E+03  0.00000000000E+00 0. -1.
        -12    1    3    3    0    0  0.36513376269E+02  0.28820155693E+02 -0.25279837419E+03  0.25704249846E+03  0.00000000000E+00 0.  1.
          5    1    4    4  501    0  0.21141679292E+02 -0.34239707284E+01  0.22039723585E+01  0.21932261009E+02  0.41800000000E+01 0.  1.
         -5    1    4    4    0  501 -0.85223742726E+02 -0.20409964526E+02 -0.23742171405E+03  0.25311300970E+03  0.41800000000E+01 0.  1.
</event>
<event>
11    1  0.7577197E-009  0.1574592E+03  0.7561462E-02  0.1089492E+00
         22   -1    0    0    0    0  0.00000000000E+00  0.00000000000E+00  0.19540402075E+03  0.19540402075E+03  0.00000000000E+00 0.  1.
         22   -1    0    0    0    0 -0.00000000000E+00 -0.00000000000E+00 -0.11106955668E+04  0.11106955668E+04  0.00000000000E+00 0.  1.
        -24    2    1    2    0    0  0.88843601080E+02  0.29254095759E+01 -0.76331133674E+03  0.77280812652E+03  0.81770778151E+02 0.  0.
         25    2    1    2    0    0 -0.13011077897E+03 -0.35093599966E+02 -0.30274482125E+03  0.35421533356E+03  0.12511474803E+03 0.  0.
         24    2    1    2    0    0  0.41267177891E+02  0.32168190390E+02  0.15076461194E+03  0.17907612745E+03  0.81243576766E+02 0.  0.
        -13    1    5    5    0    0 -0.20179033951E+02  0.10233257399E+02  0.78594403761E+02  0.81786265783E+02  0.00000000000E+00 0.  1.
         14    1    5    5    0    0  0.61446211841E+02  0.21934932991E+02  0.72170208178E+02  0.97289861668E+02  0.00000000000E+00 0. -1.
         11    1    3    3    0    0  0.41728983553E+02  0.20517909070E+02 -0.14104057888E+03  0.14850837536E+03  0.00000000000E+00 0. -1.
        -12    1    3    3    0    0  0.47114617527E+02 -0.17592499494E+02 -0.62227075786E+03  0.62429975117E+03  0.00000000000E+00 0.  1.
          5    1    4    4  501    0 -0.19938782060E+02  0.42786577389E+02 -0.59923235939E+02  0.76397073505E+02  0.41800000000E+01 0. -1.
         -5    1    4    4    0  501 -0.11017199691E+03 -0.77880177355E+02 -0.24282158531E+03  0.27781826006E+03  0.41800000000E+01 0. -1.
</event>
<event>
11    1  0.7577197E-009  0.1565283E+03  0.7561462E-02  0.1090389E+00
         22   -1    0    0    0    0  0.00000000000E+00  0.00000000000E+00  0.54427667877E+03  0.54427667877E+03  0.00000000000E+00 0. -1.
         22   -1    0    0    0    0 -0.00000000000E+00 -0.00000000000E+00 -0.10338351295E+04  0.10338351295E+04  0.00000000000E+00 0.  1.
        -24    2    1    2    0    0  0.11298978822E+02  0.25301964937E+02 -0.91673408286E+03  0.92073125646E+03  0.81097543681E+02 0.  0.
         25    2    1    2    0    0 -0.10460981794E+03 -0.24158006045E+02 -0.43766207784E+02  0.17055811276E+03  0.12509102933E+03 0.  0.
         24    2    1    2    0    0  0.93310839114E+02 -0.11439588916E+01  0.47094183990E+03  0.48682243906E+03  0.80632805161E+02 0.  0.
        -13    1    5    5    0    0  0.69549987689E+01 -0.27294931925E+02  0.18060953577E+03  0.18279275075E+03  0.00000000000E+00 0.  1.
         14    1    5    5    0    0  0.86355840345E+02  0.26150973034E+02  0.29033230413E+03  0.30402968831E+03  0.00000000000E+00 0. -1.
         11    1    3    3    0    0 -0.45945654415E+01  0.15197365446E+02 -0.31295768256E+02  0.35092663890E+02  0.00000000000E+00 0. -1.
        -12    1    3    3    0    0  0.15893544263E+02  0.10104599490E+02 -0.88543831461E+03  0.88563859257E+03  0.00000000000E+00 0.  1.
          5    1    4    4  501    0 -0.10356812126E+02 -0.57889050449E+02 -0.38115864590E+02  0.70204681131E+02  0.41800000000E+01 0. -1.
         -5    1    4    4    0  501 -0.94253005810E+02  0.33731044404E+02 -0.56503431947E+01  0.10035343163E+03  0.41800000000E+01 0. -1.
</event>
<event>
11    1  0.7577197E-009  0.2871707E+03  0.7561462E-02  0.1005772E+00
         22   -1    0    0    0    0  0.00000000000E+00  0.00000000000E+00  0.27406672977E+03  0.27406672977E+03  0.00000000000E+00 0.  1.
         22   -1    0    0    0    0 -0.00000000000E+00 -0.00000000000E+00 -0.43385773308E+03  0.43385773308E+03  0.00000000000E+00 0. -1.
         24    2    1    2    0    0  0.73789524071E+02  0.26629944265E+03 -0.17813884821E+03  0.33767715538E+03  0.77020289570E+02 0.  0.
         25    2    1    2    0    0 -0.70208138406E+02 -0.22167676199E+03 -0.32999253010E+02  0.26609420078E+03  0.12508958184E+03 0.  0.
        -24    2    1    2    0    0 -0.35813856647E+01 -0.44622680663E+02  0.51347097910E+02  0.10415310669E+03  0.78786643647E+02 0.  0.
        -13    1    3    3    0    0  0.46497377168E+02  0.18658869616E+03 -0.16297932241E+03  0.25207063920E+03  0.00000000000E+00 0.  1.
         14    1    3    3    0    0  0.27292146902E+02  0.79710746493E+02 -0.15159525804E+02  0.85606516175E+02  0.00000000000E+00 0. -1.
         13    1    5    5    0    0  0.39477520908E+01  0.20671846875E+02  0.49581924977E+00  0.21051266863E+02  0.00000000000E+00 0. -1.
        -14    1    5    5    0    0 -0.75291377554E+01 -0.65294527538E+02  0.50851278660E+02  0.83101839830E+02  0.00000000000E+00 0.  1.
          5    1    4    4  501    0  0.20144904772E+02 -0.56173997809E+02  0.30417135939E+02  0.67111919782E+02  0.41800000000E+01 0. -1.
         -5    1    4    4    0  501 -0.90353043178E+02 -0.16550276418E+03 -0.63416388949E+02  0.19898228099E+03  0.41800000000E+01 0. -1.
</event>
<event>
11    1  0.7577197E-009  0.2537445E+03  0.7561462E-02  0.1021923E+00
         22   -1    0    0    0    0  0.00000000000E+00  0.00000000000E+00  0.73893468569E+03  0.73893468569E+03  0.00000000000E+00 0. -1.
         22   -1    0    0    0    0 -0.00000000000E+00 -0.00000000000E+00 -0.86936983443E+03  0.86936983443E+03  0.00000000000E+00 0.  1.
        -24    2    1    2    0    0 -0.49319545539E+02 -0.20996492924E+03 -0.61954230086E+03  0.66353831350E+03  0.99663141913E+02 0.  0.
         25    2    1    2    0    0  0.51850269604E+01  0.24416013110E+03 -0.13996013084E+03  0.30803972796E+03  0.12513425453E+03 0.  0.
         24    2    1    2    0    0  0.44134518579E+02 -0.34195201861E+02  0.62906728295E+03  0.63672647865E+03  0.81103603936E+02 0.  0.
        -13    1    5    5    0    0  0.44978331653E+02  0.15470199951E+02  0.25781224409E+03  0.26216317554E+03  0.00000000000E+00 0.  1.
         14    1    5    5    0    0 -0.84381307449E+00 -0.49665401812E+02  0.37125503886E+03  0.37456330311E+03  0.00000000000E+00 0. -1.
         13    1    3    3    0    0  0.41277706397E+01 -0.21900437240E+02 -0.19347781936E+03  0.19475711598E+03  0.00000000000E+00 0. -1.
        -14    1    3    3    0    0 -0.53447316179E+02 -0.18806449200E+03 -0.42606448150E+03  0.46878119752E+03  0.00000000000E+00 0.  1.
          5    1    4    4  501    0  0.79961585298E+00  0.12762681270E+03 -0.24910479091E+01  0.12772204361E+03  0.41800000000E+01 0.  1.
         -5    1    4    4    0  501  0.43854111075E+01  0.11653331840E+03 -0.13746908293E+03  0.18031768435E+03  0.41800000000E+01 0.  1.
</event>
<event>
11    1  0.7577197E-009  0.1666308E+03  0.7561462E-02  0.1081001E+00
         22   -1    0    0    0    0  0.00000000000E+00  0.00000000000E+00  0.19505597437E+04  0.19505597437E+04  0.00000000000E+00 0.  1.
         22   -1    0    0    0    0 -0.00000000000E+00 -0.00000000000E+00 -0.16216784215E+03  0.16216784215E+03  0.00000000000E+00 0. -1.
         24    2    1    2    0    0 -0.13329559087E+01  0.10194627093E+02 -0.78144010360E+02  0.11229742801E+03  0.79990741900E+02 0.  0.
         25    2    1    2    0    0  0.42996765401E+02  0.92067465842E+02  0.36339713857E+02  0.16520331336E+03  0.12508565001E+03 0.  0.
        -24    2    1    2    0    0 -0.41663809492E+02 -0.10226209294E+03  0.18301961981E+04  0.18352268445E+04  0.79031883909E+02 0.  0.
        -13    1    3    3    0    0  0.23839127543E+02 -0.26708759432E+02 -0.38484785125E+02  0.52561778115E+02  0.00000000000E+00 0.  1.
         14    1    3    3    0    0 -0.25172083452E+02  0.36903386526E+02 -0.39659225235E+02  0.59735649897E+02  0.00000000000E+00 0. -1.
         11    1    5    5    0    0 -0.91632536722E+01  0.84889404663E+01  0.60789024258E+02  0.62059107296E+02  0.00000000000E+00 0. -1.
        -12    1    5    5    0    0 -0.32500555820E+02 -0.11075103340E+03  0.17694071738E+04  0.17731677372E+04  0.00000000000E+00 0.  1.
          5    1    4    4  501    0  0.24607900725E+02  0.31753788501E+02 -0.46125492624E+02  0.61309749078E+02  0.41800000000E+01 0.  1.
         -5    1    4    4    0  501  0.18388864676E+02  0.60313677342E+02  0.82465206481E+02  0.10389356428E+03  0.41800000000E+01 0.  1.
</event>
<event>
11    1  0.7577197E-009  0.1257694E+03  0.7561462E-02  0.1124579E+00
         22   -1    0    0    0    0  0.00000000000E+00  0.00000000000E+00  0.17978967469E+04  0.17978967469E+04  0.00000000000E+00 0.  1.
         22   -1    0    0    0    0 -0.00000000000E+00 -0.00000000000E+00 -0.15783047121E+03  0.15783047121E+03  0.00000000000E+00 0. -1.
        -24    2    1    2    0    0  0.11882955264E+02  0.30383921724E+02 -0.11808972722E+03  0.14593872562E+03  0.79300319268E+02 0.  0.
         25    2    1    2    0    0 -0.26459432813E+01 -0.38795109162E+02  0.14921110176E+03  0.19855188289E+03  0.12508731271E+03 0.  0.
         24    2    1    2    0    0 -0.92370119831E+01  0.84111874374E+01  0.16089449012E+04  0.16112366096E+04  0.84992039168E+02 0.  0.
        -11    1    5    5    0    0 -0.86193544282E+01 -0.31907672972E+02  0.11637592386E+04  0.11642284820E+04  0.00000000000E+00 0.  1.
         12    1    5    5    0    0 -0.61765755486E+00  0.40318860410E+02  0.44518566257E+03  0.44700812762E+03  0.00000000000E+00 0. -1.
         11    1    3    3    0    0 -0.22192413021E+02  0.42880774903E+02 -0.79089020554E+02  0.92662490923E+02  0.00000000000E+00 0. -1.
        -12    1    3    3    0    0  0.34075368285E+02 -0.12496853179E+02 -0.39000706664E+02  0.53276234697E+02  0.00000000000E+00 0.  1.
          5    1    4    4  501    0  0.48366958305E+02  0.20431226219E+02  0.62490520121E+02  0.81727199667E+02  0.41800000000E+01 0. -1.
         -5    1    4    4    0  501 -0.51012901586E+02 -0.59226335380E+02  0.86720581634E+02  0.11682468322E+03  0.41800000000E+01 0. -1.
</event>
<event>
11    1  0.7577197E-009  0.1850209E+03  0.7561462E-02  0.1065652E+00
         22   -1    0    0    0    0  0.00000000000E+00  0.00000000000E+00  0.12117577236E+03  0.12117577236E+03  0.00000000000E+00 0.  1.
         22   -1    0    0    0    0 -0.00000000000E+00 -0.00000000000E+00 -0.22151149272E+04  0.22151149272E+04  0.00000000000E+00 0.  1.
        -24    2    1    2    0    0 -0.18086862071E+02 -0.68950867499E+01 -0.18057391213E+04  0.18074996577E+04  0.77372873435E+02 0.  0.
         25    2    1    2    0    0 -0.77525968726E+02  0.10574494991E+03 -0.31923509167E+03  0.36708107720E+03  0.12508078681E+03 0.  0.
         24    2    1    2    0    0  0.95612830797E+02 -0.98849863159E+02  0.31035058149E+02  0.16170996465E+03  0.79207505796E+02 0.  0.
        -11    1    5    5    0    0  0.59712956045E+02 -0.10508219228E+03  0.32785978877E+02  0.12523108505E+03  0.00000000000E+00 0.  1.
         12    1    5    5    0    0  0.35899874752E+02  0.62323291162E+01 -0.17509207284E+01  0.36478879599E+02  0.00000000000E+00 0. -1.
         13    1    3    3    0    0  0.18152720963E+02 -0.23933004076E+02 -0.37532842178E+03  0.37652853033E+03  0.00000000000E+00 0. -1.
        -14    1    3    3    0    0 -0.36239583034E+02  0.17037917326E+02 -0.14304106995E+04  0.14309711273E+04  0.00000000000E+00 0.  1.
          5    1    4    4  501    0  0.11132791478E+02 -0.16202243599E+02 -0.87899974282E+01  0.21936002337E+02  0.41800000000E+01 0. -1.
         -5    1    4    4    0  501 -0.88658760204E+02  0.12194719351E+03 -0.31044509424E+03  0.34514507487E+03  0.41800000000E+01 0. -1.
</event>
<event>
11    1  0.7796783E-009  0.1705933E+03  0.7561462E-02  0.1077517E+00
         22   -1    0    0    0    0  0.00000000000E+00  0.00000000000E+00  0.58135222504E+03  0.58135222504E+03  0.00000000000E+00 0. -1.
         22   -1    0    0    0    0 -0.00000000000E+00 -0.00000000000E+00 -0.64360961816E+03  0.64360961816E+03  0.00000000000E+00 0. -1.
        -24    2    1    2    0    0 -0.36047077105E+02  0.17539180282E+02 -0.46051926529E+03  0.46908131073E+03  0.79701115181E+02 0.  0.
         25    2    1    2    0    0  0.80350746336E+02  0.89780329457E+02 -0.12491968765E+03  0.21393681962E+03  0.12508910596E+03 0.  0.
         24    2    1    2    0    0 -0.44303669230E+02 -0.10731950974E+03  0.52318155983E+03  0.54194371285E+03  0.80645837290E+02 0.  0.
        -11    1    5    5    0    0 -0.37044848521E+02 -0.30145841251E+02  0.33553843306E+03  0.33892054025E+03  0.00000000000E+00 0.  1.
         12    1    5    5    0    0 -0.72588207096E+01 -0.77173668488E+02  0.18764312678E+03  0.20302317260E+03  0.00000000000E+00 0. -1.
         11    1    3    3    0    0 -0.10002903642E+02 -0.19092732647E+02 -0.33613452860E+03  0.33682489789E+03  0.00000000000E+00 0. -1.
        -12    1    3    3    0    0 -0.26044173463E+02  0.36631912928E+02 -0.12438473669E+03  0.13225641284E+03  0.00000000000E+00 0.  1.
          5    1    4    4  501    0  0.85409345161E+02  0.67662114337E+02 -0.25647086968E+02  0.11201858519E+03  0.41800000000E+01 0.  1.
         -5    1    4    4    0  501 -0.50585988258E+01  0.22118215121E+02 -0.99272600686E+02  0.10191823443E+03  0.41800000000E+01 0.  1.
</event>
<event>
11    1  0.7577197E-009  0.1509662E+03  0.7561462E-02  0.1095896E+00
         22   -1    0    0    0    0  0.00000000000E+00  0.00000000000E+00  0.17477368240E+03  0.17477368240E+03  0.00000000000E+00 0. -1.
         22   -1    0    0    0    0 -0.00000000000E+00 -0.00000000000E+00 -0.50030979863E+03  0.50030979863E+03  0.00000000000E+00 0. -1.
        -24    2    1    2    0    0 -0.35031642184E+02 -0.35270751984E+00 -0.33087461110E+03  0.34247050094E+03  0.81121485356E+02 0.  0.
         25    2    1    2    0    0  0.34799106856E+02  0.84624218429E+02 -0.92211529723E+02  0.18034054124E+03  0.12509000127E+03 0.  0.
         24    2    1    2    0    0  0.23253532822E+00 -0.84271510909E+02  0.97550024589E+02  0.15227243886E+03  0.81050272761E+02 0.  0.
        -13    1    5    5    0    0  0.13474505956E+02 -0.15522981530E+02  0.76427254751E+02  0.79143227980E+02  0.00000000000E+00 0.  1.
         14    1    5    5    0    0 -0.13241970627E+02 -0.68748529379E+02  0.21122769838E+02  0.73129210878E+02  0.00000000000E+00 0. -1.
         11    1    3    3    0    0 -0.59797949470E+02  0.10801428921E+02 -0.24374058966E+03  0.25120099657E+03  0.00000000000E+00 0. -1.
        -12    1    3    3    0    0  0.24766307286E+02 -0.11154136441E+02 -0.87134021439E+02  0.91269504373E+02  0.00000000000E+00 0.  1.
          5    1    4    4  501    0  0.77808513677E+02  0.72291746642E+02 -0.45799109636E+02  0.11573803297E+03  0.41800000000E+01 0. -1.
         -5    1    4    4    0  501 -0.43009406822E+02  0.12332471787E+02 -0.46412420087E+02  0.64602508263E+02  0.41800000000E+01 0. -1.
</event>
<event>
11    1  0.7577197E-009  0.3661973E+03  0.7561462E-02  0.9755121E-01
         22   -1    0    0    0    0  0.00000000000E+00  0.00000000000E+00  0.45754199572E+03  0.45754199572E+03  0.00000000000E+00 0.  1.
         22   -1    0    0    0    0 -0.00000000000E+00 -0.00000000000E+00 -0.17446138382E+04  0.17446138382E+04  0.00000000000E+00 0.  1.
         24    2    1    2    0    0  0.37586171943E+02  0.12872898233E+03 -0.33149205731E+03  0.36693371379E+03  0.82276941145E+02 0.  0.
         25    2    1    2    0    0 -0.22218013361E+03 -0.41089082474E+03 -0.12751369449E+04  0.13637509893E+04  0.12508897194E+03 0.  0.
        -24    2    1    2    0    0  0.18459396167E+03  0.28216184241E+03  0.31955715970E+03  0.47147113088E+03  0.80486103995E+02 0.  0.
        -13    1    3    3    0    0  0.81854351042E+01  0.10450174215E+03 -0.16012788604E+03  0.19138588074E+03  0.00000000000E+00 0.  1.
         14    1    3    3    0    0  0.29400736839E+02  0.24227240184E+02 -0.17136417127E+03  0.17554783305E+03  0.00000000000E+00 0. -1.
         11    1    5    5    0    0  0.76251254453E+02  0.62362118863E+02  0.64345501598E+02  0.11765896162E+03  0.00000000000E+00 0. -1.
        -12    1    5    5    0    0  0.10834270721E+03  0.21979972355E+03  0.25521165810E+03  0.35381216925E+03  0.00000000000E+00 0.  1.
          5    1    4    4  501    0 -0.22794881315E+01 -0.45285303292E+02 -0.56396744281E+02  0.72484618547E+02  0.41800000000E+01 0. -1.
         -5    1    4    4    0  501 -0.21990064548E+03 -0.36560552145E+03 -0.12187402006E+04  0.12912663707E+04  0.41800000000E+01 0. -1.
</event>
<event>
11    1  0.7577197E-009  0.1504669E+03  0.7561462E-02  0.1096403E+00
         22   -1    0    0    0    0  0.00000000000E+00  0.00000000000E+00  0.11840928754E+03  0.11840928754E+03  0.00000000000E+00 0. -1.
         22   -1    0    0    0    0 -0.00000000000E+00 -0.00000000000E+00 -0.11079825998E+04  0.11079825998E+04  0.00000000000E+00 0. -1.
        -24    2    1    2    0    0 -0.80000574621E+02 -0.33657996683E+02 -0.80443931435E+03  0.81299265286E+03  0.79381927734E+02 0.  0.
         25    2    1    2    0    0  0.56233466050E+02  0.45271440171E+02 -0.26174996815E+03  0.29895212343E+03  0.12509044837E+03 0.  0.
         24    2    1    2    0    0  0.23767108572E+02 -0.11613443488E+02  0.76615970238E+02  0.11444711105E+03  0.80798433235E+02 0.  0.
        -13    1    5    5    0    0  0.83511070758E+01 -0.36948398069E+01 -0.16969406967E+02  0.19270537185E+02  0.00000000000E+00 0.  1.
         14    1    5    5    0    0  0.15416001496E+02 -0.79186036812E+01  0.93585377205E+02  0.95176573867E+02  0.00000000000E+00 0. -1.
         13    1    3    3    0    0 -0.73037901591E+02  0.36846798318E+00 -0.67620582340E+03  0.68013894642E+03  0.00000000000E+00 0. -1.
        -14    1    3    3    0    0 -0.69626730300E+01 -0.34026464666E+02 -0.12823349095E+03  0.13285370644E+03  0.00000000000E+00 0.  1.
          5    1    4    4  501    0  0.45138331540E+02  0.82614488756E+02 -0.22988668367E+03  0.24845116714E+03  0.41800000000E+01 0. -1.
         -5    1    4    4    0  501  0.11095134510E+02 -0.37343048585E+02 -0.31863284482E+02  0.50500956282E+02  0.41800000000E+01 0. -1.
</event>
<event>
11    1  0.7577197E-009  0.1378376E+03  0.7561462E-02  0.1109997E+00
         22   -1    0    0    0    0  0.00000000000E+00  0.00000000000E+00  0.69912312749E+03  0.69912312749E+03  0.00000000000E+00 0.  1.
         22   -1    0    0    0    0 -0.00000000000E+00 -0.00000000000E+00 -0.24422763642E+03  0.24422763642E+03  0.00000000000E+00 0.  1.
         24    2    1    2    0    0 -0.22331773164E+02  0.48716301266E+02 -0.15549602827E+03  0.18337763018E+03  0.81094724491E+02 0.  0.
         25    2    1    2    0    0  0.61363900059E+02 -0.62207957718E+02  0.11065420784E+02  0.15298634457E+03  0.12508804841E+03 0.  0.
        -24    2    1    2    0    0 -0.39032126895E+02  0.13491656452E+02  0.59932609855E+03  0.60698678916E+03  0.86808168295E+02 0.  0.
        -11    1    3    3    0    0 -0.15049897967E+02  0.55332827379E+01 -0.13333734288E+03  0.13429804039E+03  0.00000000000E+00 0.  1.
         12    1    3    3    0    0 -0.72818751967E+01  0.43183018528E+02 -0.22158685394E+02  0.49079589790E+02  0.00000000000E+00 0. -1.
         13    1    5    5    0    0 -0.25794978539E+02  0.17878480382E+02  0.62106179919E+02  0.69585907788E+02  0.00000000000E+00 0. -1.
        -14    1    5    5    0    0 -0.13237148357E+02 -0.43868239297E+01  0.53721991863E+03  0.53740088137E+03  0.00000000000E+00 0.  1.
          5    1    4    4  501    0  0.27856845943E+02  0.10854997741E+02  0.53923592646E+02  0.61798552456E+02  0.41800000000E+01 0.  1.
         -5    1    4    4    0  501  0.33507054117E+02 -0.73062955459E+02 -0.42858171862E+02  0.91187792117E+02  0.41800000000E+01 0.  1.
</event>
<event>
11    1  0.7577197E-009  0.2116578E+03  0.7561462E-02  0.1046573E+00
         22   -1    0    0    0    0  0.00000000000E+00  0.00000000000E+00  0.73973474144E+03  0.73973474144E+03  0.00000000000E+00 0.  1.
         22   -1    0    0    0    0 -0.00000000000E+00 -0.00000000000E+00 -0.12883719623E+04  0.12883719623E+04  0.00000000000E+00 0. -1.
        -24    2    1    2    0    0  0.84248482135E+01  0.63338107387E+02 -0.11968585380E+04  0.12012725328E+04  0.80638974440E+02 0.  0.
         25    2    1    2    0    0 -0.16005400623E+03  0.23202230005E+02  0.67482942399E+02  0.21530457651E+03  0.12508590954E+03 0.  0.
         24    2    1    2    0    0  0.15162915802E+03 -0.86540337392E+02  0.58073837474E+03  0.61152959441E+03  0.78935121376E+02 0.  0.
        -13    1    5    5    0    0  0.12369670442E+03 -0.98122740589E+02  0.52354062302E+03  0.54683062356E+03  0.00000000000E+00 0.  1.
         14    1    5    5    0    0  0.27932453602E+02  0.11582403197E+02  0.57197751719E+02  0.64698970856E+02  0.00000000000E+00 0. -1.
         13    1    3    3    0    0 -0.20517352593E+02  0.41511867329E+02 -0.10020959161E+04  0.10031652018E+04  0.00000000000E+00 0. -1.
        -14    1    3    3    0    0  0.28942200806E+02  0.21826240058E+02 -0.19476262189E+03  0.19810733108E+03  0.00000000000E+00 0.  1.
          5    1    4    4  501    0 -0.46134260309E+02 -0.33300071675E+02 -0.20493269581E+02  0.60619396614E+02  0.41800000000E+01 0.  1.
         -5    1    4    4    0  501 -0.11391974592E+03  0.56502301680E+02  0.87976211980E+02  0.15468517990E+03  0.41800000000E+01 0.  1.
</event>
<event>
11    1  0.7577197E-009  0.2013334E+03  0.7561462E-02  0.1053585E+00
         22   -1    0    0    0    0  0.00000000000E+00  0.00000000000E+00  0.41890240540E+04  0.41890240540E+04  0.00000000000E+00 0. -1.
         22   -1    0    0    0    0 -0.00000000000E+00 -0.00000000000E+00 -0.45400721581E+03  0.45400721581E+03  0.00000000000E+00 0. -1.
         24    2    1    2    0    0  0.13130256569E+03  0.81723674579E+02 -0.37711898625E+03  0.41500527465E+03  0.78048225225E+02 0.  0.
         25    2    1    2    0    0 -0.15612290922E+03 -0.12132689886E+03  0.18111453674E+03  0.29588061766E+03  0.12509310659E+03 0.  0.
        -24    2    1    2    0    0  0.24820343538E+02  0.39603224283E+02  0.39310212877E+04  0.39321453775E+04  0.81574754555E+02 0.  0.
        -11    1    3    3    0    0  0.54686100562E+02  0.60059196514E+02 -0.11312447713E+03  0.13926530080E+03  0.00000000000E+00 0.  1.
         12    1    3    3    0    0  0.76616465123E+02  0.21664478064E+02 -0.26399450912E+03  0.27573997386E+03  0.00000000000E+00 0. -1.
         13    1    5    5    0    0  0.10158729754E+02  0.12363036558E+02  0.34915383256E+04  0.34915749918E+04  0.00000000000E+00 0. -1.
        -14    1    5    5    0    0  0.14661613784E+02  0.27240187726E+02  0.43948296209E+03  0.44057038565E+03  0.00000000000E+00 0.  1.
          5    1    4    4  501    0 -0.84112243350E+02 -0.41640851156E+01  0.25339482722E+02  0.88044141604E+02  0.41800000000E+01 0.  1.
         -5    1    4    4    0  501 -0.72010665874E+02 -0.11716281375E+03  0.15577505402E+03  0.20783647605E+03  0.41800000000E+01 0.  1.
</event>
<event>
11    1  0.7577197E-009  0.2656918E+03  0.7561462E-02  0.1015857E+00
         22   -1    0    0    0    0  0.00000000000E+00  0.00000000000E+00  0.11228416134E+04  0.11228416134E+04  0.00000000000E+00 0. -1.
         22   -1    0    0    0    0 -0.00000000000E+00 -0.00000000000E+00 -0.26918629863E+03  0.26918629863E+03  0.00000000000E+00 0.  1.
        -24    2    1    2    0    0 -0.50368578927E+02 -0.98982259653E+02 -0.13080212244E+03  0.19031745932E+03  0.82322892412E+02 0.  0.
         25    2    1    2    0    0  0.26810129954E+03  0.20388480634E+02  0.15054240008E+03  0.33257631863E+03  0.12509994620E+03 0.  0.
         24    2    1    2    0    0 -0.21773272061E+03  0.78593779019E+02  0.83391503716E+03  0.86913413411E+03  0.79970833095E+02 0.  0.
        -13    1    5    5    0    0 -0.45595842730E+02  0.44090383239E+02  0.31509747624E+03  0.32141773800E+03  0.00000000000E+00 0.  1.
         14    1    5    5    0    0 -0.17213687788E+03  0.34503395781E+02  0.51881756092E+03  0.54771639611E+03  0.00000000000E+00 0. -1.
         11    1    3    3    0    0  0.17584621103E+01 -0.26233805225E+02  0.58797824492E+01  0.26942096564E+02  0.00000000000E+00 0. -1.
        -12    1    3    3    0    0 -0.52127041037E+02 -0.72748454428E+02 -0.13668190489E+03  0.16337536275E+03  0.00000000000E+00 0.  1.
          5    1    4    4  501    0  0.19632844487E+03 -0.26861677443E+02  0.58650312941E+02  0.20669721717E+03  0.41800000000E+01 0. -1.
         -5    1    4    4    0  501  0.71772854667E+02  0.47250158078E+02  0.91892087138E+02  0.12587910146E+03  0.41800000000E+01 0. -1.
</event>
<event>
11    1  0.7577197E-009  0.1401394E+03  0.7561462E-02  0.1107403E+00
         22   -1    0    0    0    0  0.00000000000E+00  0.00000000000E+00  0.39540272315E+03  0.39540272315E+03  0.00000000000E+00 0.  1.
         22   -1    0    0    0    0 -0.00000000000E+00 -0.00000000000E+00 -0.33638898713E+03  0.33638898713E+03  0.00000000000E+00 0.  1.
        -24    2    1    2    0    0  0.12384648626E+02  0.41409383989E+02 -0.28363340189E+03  0.29807490473E+03  0.80824659345E+02 0.  0.
         25    2    1    2    0    0  0.49248475189E+02 -0.54885697574E+02  0.11879712296E+03  0.18761176739E+03  0.12509023436E+03 0.  0.
         24    2    1    2    0    0 -0.61633123815E+02  0.13476313584E+02  0.22385001494E+03  0.24610503816E+03  0.80489798371E+02 0.  0.
        -13    1    5    5    0    0 -0.12218328832E+02 -0.80323697411E+01  0.16748224181E+03  0.16811932621E+03  0.00000000000E+00 0.  1.
         14    1    5    5    0    0 -0.49414794983E+02  0.21508683325E+02  0.56367773134E+02  0.77985711958E+02  0.00000000000E+00 0. -1.
         11    1    3    3    0    0 -0.29510727070E+02 -0.33656007133E+01 -0.10966708582E+03  0.11361813233E+03  0.00000000000E+00 0. -1.
        -12    1    3    3    0    0  0.41895375696E+02  0.44774984703E+02 -0.17396631606E+03  0.18445677240E+03  0.00000000000E+00 0.  1.
          5    1    4    4  501    0  0.49382806806E+01  0.60145993551E+01 -0.24297427806E+02  0.25853421813E+02  0.41800000000E+01 0.  1.
         -5    1    4    4    0  501  0.44310194508E+02 -0.60900296929E+02  0.14309455077E+03  0.16175834557E+03  0.41800000000E+01 0.  1.
</event>
<event>
11    1  0.7577197E-009  0.1396882E+03  0.7561462E-02  0.1107907E+00
         22   -1    0    0    0    0  0.00000000000E+00  0.00000000000E+00  0.85030090468E+02  0.85030090468E+02  0.00000000000E+00 0. -1.
         22   -1    0    0    0    0 -0.00000000000E+00 -0.00000000000E+00 -0.37978214082E+03  0.37978214082E+03  0.00000000000E+00 0.  1.
        -24    2    1    2    0    0 -0.41621091304E+02  0.42406352945E+02 -0.18690615678E+03  0.21103007506E+03  0.77904859462E+02 0.  0.
         25    2    1    2    0    0  0.38306080998E+02 -0.63012729065E+02 -0.74802888477E+02  0.16334163861E+03  0.12508820454E+03 0.  0.
         24    2    1    2    0    0  0.33150103060E+01  0.20606376120E+02 -0.33043005099E+02  0.90440517612E+02  0.81560008643E+02 0.  0.
        -11    1    5    5    0    0 -0.21170012386E+02 -0.23982807548E+02 -0.20673861788E+02  0.38088752192E+02  0.00000000000E+00 0.  1.
         12    1    5    5    0    0  0.24485022692E+02  0.44589183668E+02 -0.12369143310E+02  0.52351765420E+02  0.00000000000E+00 0. -1.
         11    1    3    3    0    0  0.19679590288E+02 -0.51448711716E+01 -0.35993673739E+02  0.41343687819E+02  0.00000000000E+00 0. -1.
        -12    1    3    3    0    0 -0.61300681592E+02  0.47551224117E+02 -0.15091248304E+03  0.16968638724E+03  0.00000000000E+00 0.  1.
          5    1    4    4  501    0  0.80364784570E+02 -0.43660988856E+02 -0.24347708044E+02  0.94736813509E+02  0.41800000000E+01 0. -1.
         -5    1    4    4    0  501 -0.42058703572E+02 -0.19351740209E+02 -0.50455180432E+02  0.68604825106E+02  0.41800000000E+01 0. -1.
</event>
<event>
11    1  0.7577197E-009  0.1390917E+03  0.7561462E-02  0.1108577E+00
         22   -1    0    0    0    0  0.00000000000E+00  0.00000000000E+00  0.54666713144E+03  0.54666713144E+03  0.00000000000E+00 0.  1.
         22   -1    0    0    0    0 -0.00000000000E+00 -0.00000000000E+00 -0.14450012762E+03  0.14450012762E+03  0.00000000000E+00 0. -1.
        -24    2    1    2    0    0 -0.24182002741E+01 -0.25849006085E+01 -0.92032784551E+02  0.12242439919E+03  0.80654638310E+02 0.  0.
         25    2    1    2    0    0 -0.13387603889E+02 -0.56743544234E+02  0.12599667279E+03  0.18687127897E+03  0.12508659240E+03 0.  0.
         24    2    1    2    0    0  0.15805804163E+02  0.59328444843E+02  0.36820311558E+03  0.38187158091E+03  0.80515105207E+02 0.  0.
        -13    1    5    5    0    0  0.48425779069E+02  0.42628125955E+02  0.22689057631E+03  0.23588460488E+03  0.00000000000E+00 0.  1.
         14    1    5    5    0    0 -0.32619974906E+02  0.16700318888E+02  0.14131253927E+03  0.14598697603E+03  0.00000000000E+00 0. -1.
         11    1    3    3    0    0  0.11463464853E+02  0.36900344708E+02 -0.48882482486E+02  0.62310059862E+02  0.00000000000E+00 0. -1.
        -12    1    3    3    0    0 -0.13881665127E+02 -0.39485245317E+02 -0.43150302065E+02  0.60114339327E+02  0.00000000000E+00 0.  1.
          5    1    4    4  501    0  0.63324925073E+01  0.16856509541E+02 -0.16789806861E+02  0.24972232373E+02  0.41800000000E+01 0.  1.
         -5    1    4    4    0  501 -0.19720096396E+02 -0.73600053775E+02  0.14278647965E+03  0.16189904659E+03  0.41800000000E+01 0.  1.
</event>
<event>
11    1  0.7577197E-009  0.1263646E+03  0.7561462E-02  0.1123818E+00
         22   -1    0    0    0    0  0.00000000000E+00  0.00000000000E+00  0.24466288091E+04  0.24466288091E+04  0.00000000000E+00 0.  1.
         22   -1    0    0    0    0 -0.00000000000E+00 -0.00000000000E+00 -0.11954928738E+03  0.11954928738E+03  0.00000000000E+00 0.  1.
        -24    2    1    2    0    0  0.63401435078E+02  0.13748692192E+01 -0.86263047790E+02  0.13232689826E+03  0.77765431605E+02 0.  0.
         25    2    1    2    0    0 -0.68252961624E+02  0.10805030138E+02  0.56546464664E+03  0.58324344749E+03  0.12508971577E+03 0.  0.
         24    2    1    2    0    0  0.48515265457E+01 -0.12179899357E+02  0.18478779229E+04  0.18506077508E+04  0.99620991845E+02 0.  0.
        -13    1    5    5    0    0 -0.19387096064E+02 -0.37889863544E+02  0.15584304344E+04  0.15590115202E+04  0.00000000000E+00 0.  1.
         14    1    5    5    0    0  0.24238622610E+02  0.25709964187E+02  0.28944748855E+03  0.29159623062E+03  0.00000000000E+00 0. -1.
         13    1    3    3    0    0 -0.40720077630E+01  0.27618616893E+02 -0.22563678447E+02  0.35895526621E+02  0.00000000000E+00 0. -1.
        -14    1    3    3    0    0  0.67473442841E+02 -0.26243747674E+02 -0.63699369343E+02  0.96431371635E+02  0.00000000000E+00 0.  1.
          5    1    4    4  501    0 -0.17019011659E+02  0.29947285750E+02  0.32752276841E+02  0.47714470760E+02  0.41800000000E+01 0. -1.
         -5    1    4    4    0  501 -0.51233949965E+02 -0.19142255612E+02  0.53271236980E+03  0.53552897673E+03  0.41800000000E+01 0. -1.
</event>
<event>
11    1  0.7577197E-009  0.1600443E+03  0.7561462E-02  0.1087036E+00
         22   -1    0    0    0    0  0.00000000000E+00  0.00000000000E+00  0.15456025907E+03  0.15456025907E+03  0.00000000000E+00 0.  1.
         22   -1    0    0    0    0 -0.00000000000E+00 -0.00000000000E+00 -0.17379848312E+04  0.17379848312E+04  0.00000000000E+00 0.  1.
         24    2    1    2    0    0 -0.97322765761E+02 -0.10323083950E+02 -0.12628998235E+04  0.12704301910E+04  0.97460860303E+02 0.  0.
         25    2    1    2    0    0  0.94568832566E+02  0.92517640974E+02 -0.42811693481E+03  0.46522517450E+03  0.12509026796E+03 0.  0.
        -24    2    1    2    0    0  0.27539331951E+01 -0.82194557024E+02  0.10759218620E+03  0.15688972472E+03  0.79213495310E+02 0.  0.
        -11    1    3    3    0    0 -0.46595226853E+02 -0.51437667934E+02 -0.79014039460E+03  0.79318269776E+03  0.00000000000E+00 0.  1.
         12    1    3    3    0    0 -0.50727538908E+02  0.41114583984E+02 -0.47275942889E+03  0.47724749326E+03  0.00000000000E+00 0. -1.
         13    1    5    5    0    0  0.19693557828E+02 -0.70791991059E+02  0.34831038161E+02  0.81317546922E+02  0.00000000000E+00 0. -1.
        -14    1    5    5    0    0 -0.16939624633E+02 -0.11402565965E+02  0.72761148038E+02  0.75572177798E+02  0.00000000000E+00 0.  1.
          5    1    4    4  501    0  0.94958010168E+02  0.72635154987E+01 -0.19706699611E+03  0.21891243845E+03  0.41800000000E+01 0.  1.
         -5    1    4    4    0  501 -0.38917760202E+00  0.85254125475E+02 -0.23104993870E+03  0.24631273606E+03  0.41800000000E+01 0.  1.
</event>
<event>
11    1  0.7577197E-009  0.1619131E+03  0.7561462E-02  0.1085292E+00
         22   -1    0    0    0    0  0.00000000000E+00  0.00000000000E+00  0.42748867167E+03  0.42748867167E+03  0.00000000000E+00 0.  1.
         22   -1    0    0    0    0 -0.00000000000E+00 -0.00000000000E+00 -0.28071642148E+03  0.28071642148E+03  0.00000000000E+00 0.  1.
         24    2    1    2    0    0 -0.59125038359E+02  0.20042633922E+01 -0.20168559133E+03  0.22497510554E+03  0.80230500020E+02 0.  0.
         25    2    1    2    0    0  0.14707298640E+03  0.15707719730E+02  0.12787275581E+03  0.23211277462E+03  0.12509077774E+03 0.  0.
        -24    2    1    2    0    0 -0.87947948042E+02 -0.17711983122E+02  0.22058508570E+03  0.25111721298E+03  0.79708962549E+02 0.  0.
        -11    1    3    3    0    0 -0.71670629098E+02  0.22619054233E+02 -0.14365204063E+03  0.16212405579E+03  0.00000000000E+00 0.  1.
         12    1    3    3    0    0  0.12545590739E+02 -0.20614790841E+02 -0.58033550695E+02  0.62851049750E+02  0.00000000000E+00 0. -1.
         11    1    5    5    0    0 -0.79141630828E+02 -0.20291322901E+02  0.95431400694E+02  0.12562757561E+03  0.00000000000E+00 0. -1.
        -12    1    5    5    0    0 -0.88063172135E+01  0.25793397789E+01  0.12515368501E+03  0.12548963737E+03  0.00000000000E+00 0.  1.
          5    1    4    4  501    0  0.42551318071E+02 -0.37892948731E+02  0.93637117848E+02  0.10968989230E+03  0.41800000000E+01 0.  1.
         -5    1    4    4    0  501  0.10452166833E+03  0.53600668461E+02  0.34235637963E+02  0.12242288233E+03  0.41800000000E+01 0.  1.
</event>
<event>
11    1  0.7577197E-009  0.1687112E+03  0.7561462E-02  0.1079159E+00
         22   -1    0    0    0    0  0.00000000000E+00  0.00000000000E+00  0.10664086417E+04  0.10664086417E+04  0.00000000000E+00 0.  1.
         22   -1    0    0    0    0 -0.00000000000E+00 -0.00000000000E+00 -0.12764450494E+03  0.12764450494E+03  0.00000000000E+00 0.  1.
         24    2    1    2    0    0 -0.21099833595E+01  0.56379589660E+02  0.20443796921E+02  0.99640716607E+02  0.79543782996E+02 0.  0.
         25    2    1    2    0    0 -0.79209984336E+02 -0.13174603166E+03  0.36446980814E+02  0.20151144340E+03  0.12508893210E+03 0.  0.
        -24    2    1    2    0    0  0.81319967695E+02  0.75366442001E+02  0.88187335902E+03  0.89290098663E+03  0.85314200683E+02 0.  0.
        -13    1    3    3    0    0 -0.20018789826E+01  0.69890567118E+02 -0.57625541713E+01  0.70156296383E+02  0.00000000000E+00 0.  1.
         14    1    3    3    0    0 -0.10810437693E+00 -0.13510977458E+02  0.26206351092E+02  0.29484420224E+02  0.00000000000E+00 0. -1.
         13    1    5    5    0    0  0.15506863835E+01 -0.17406933641E+02  0.11992181680E+03  0.12118848176E+03  0.00000000000E+00 0. -1.
        -14    1    5    5    0    0  0.79769281312E+02  0.92773375642E+02  0.76195154223E+03  0.77171250487E+03  0.00000000000E+00 0.  1.
          5    1    4    4  501    0  0.67670728365E+01 -0.10728558030E+03  0.92192038083E+01  0.10797432627E+03  0.41800000000E+01 0. -1.
         -5    1    4    4    0  501 -0.85977057172E+02 -0.24460451365E+02  0.27227777005E+02  0.93537117134E+02  0.41800000000E+01 0. -1.
</event>
<event>
11    1  0.7577197E-009  0.1287713E+03  0.7561462E-02  0.1120788E+00
         22   -1    0    0    0    0  0.00000000000E+00  0.00000000000E+00  0.24127438114E+04  0.24127438114E+04  0.00000000000E+00 0.  1.
         22   -1    0    0    0    0 -0.00000000000E+00 -0.00000000000E+00 -0.18163417047E+03  0.18163417047E+03  0.00000000000E+00 0. -1.
         24    2    1    2    0    0 -0.22952684779E+02  0.22316551842E+02 -0.13253772640E+03  0.15477417484E+03  0.73238938089E+02 0.  0.
         25    2    1    2    0    0 -0.42691778797E+01 -0.36760371387E+02  0.78049115447E+02  0.15201564989E+03  0.12509013792E+03 0.  0.
        -24    2    1    2    0    0  0.27221862659E+02  0.14443819545E+02  0.22855982519E+04  0.22875881572E+04  0.90280418365E+02 0.  0.
        -13    1    3    3    0    0 -0.29882158816E+02 -0.18542102231E+02 -0.83287752489E+02  0.90407979102E+02  0.00000000000E+00 0.  1.
         14    1    3    3    0    0  0.69294740372E+01  0.40858654073E+02 -0.49249973911E+02  0.64366195734E+02  0.00000000000E+00 0. -1.
         13    1    5    5    0    0  0.50055834795E+02 -0.11957322968E+01  0.71716720656E+03  0.71891294226E+03  0.00000000000E+00 0. -1.
        -14    1    5    5    0    0 -0.22833972137E+02  0.15639551841E+02  0.15684310454E+04  0.15686752149E+04  0.00000000000E+00 0.  1.
          5    1    4    4  501    0 -0.41264960995E+02  0.28092992008E+02  0.53539702228E+02  0.73321111015E+02  0.41800000000E+01 0. -1.
         -5    1    4    4    0  501  0.36995783115E+02 -0.64853363395E+02  0.24509413220E+02  0.78694538872E+02  0.41800000000E+01 0. -1.
</event>
<event>
11    1  0.7577197E-009  0.1762298E+03  0.7561462E-02  0.1072734E+00
         22   -1    0    0    0    0  0.00000000000E+00  0.00000000000E+00  0.47004090289E+03  0.47004090289E+03  0.00000000000E+00 0.  1.
         22   -1    0    0    0    0 -0.00000000000E+00 -0.00000000000E+00 -0.23878399756E+03  0.23878399756E+03  0.00000000000E+00 0.  1.
        -24    2    1    2    0    0  0.55182863680E+01  0.12900410721E+03 -0.16214214426E+03  0.22546003644E+03  0.88711002252E+02 0.  0.
         25    2    1    2    0    0 -0.24586721945E+02 -0.96140587840E+02  0.13259412838E+03  0.20754577067E+03  0.12508606843E+03 0.  0.
         24    2    1    2    0    0  0.19068435577E+02 -0.32863519372E+02  0.26080492121E+03  0.27581909334E+03  0.81322501066E+02 0.  0.
        -11    1    5    5    0    0 -0.47216500404E+01  0.22920882648E+02  0.12379035215E+03  0.12598298348E+03  0.00000000000E+00 0.  1.
         12    1    5    5    0    0  0.23790085617E+02 -0.55784402020E+02  0.13701456906E+03  0.14983610986E+03  0.00000000000E+00 0. -1.
         11    1    3    3    0    0 -0.25788551779E+02  0.13197754086E+02 -0.64767033858E+02  0.70950678577E+02  0.00000000000E+00 0. -1.
        -12    1    3    3    0    0  0.31306838147E+02  0.11580635313E+03 -0.97375110407E+02  0.15450935786E+03  0.00000000000E+00 0.  1.
          5    1    4    4  501    0 -0.13260798365E+02  0.12514542770E+02 -0.14926566867E+02  0.23931931649E+02  0.41800000000E+01 0.  1.
         -5    1    4    4    0  501 -0.11325923580E+02 -0.10865513061E+03  0.14752069525E+03  0.18361383902E+03  0.41800000000E+01 0.  1.
</event>
<event>
11    1  0.7577197E-009  0.1354914E+03  0.7561462E-02  0.1112700E+00
         22   -1    0    0    0    0  0.00000000000E+00  0.00000000000E+00  0.28498689579E+03  0.28498689579E+03  0.00000000000E+00 0. -1.
         22   -1    0    0    0    0 -0.00000000000E+00 -0.00000000000E+00 -0.15167802121E+04  0.15167802121E+04  0.00000000000E+00 0. -1.
         24    2    1    2    0    0  0.39683951166E+02 -0.26433217942E+02 -0.93616124440E+03  0.94084024243E+03  0.80678096565E+02 0.  0.
         25    2    1    2    0    0 -0.37849035850E+02  0.64780646910E+02 -0.56171620790E+03  0.58034596914E+03  0.12508902413E+03 0.  0.
        -24    2    1    2    0    0 -0.18349153160E+01 -0.38347428968E+02  0.26608413602E+03  0.28058089629E+03  0.80317991152E+02 0.  0.
        -11    1    3    3    0    0  0.36794529309E+02  0.67150040764E+01 -0.17501146900E+03  0.17896352407E+03  0.00000000000E+00 0.  1.
         12    1    3    3    0    0  0.28894218567E+01 -0.33148222019E+02 -0.76114977541E+03  0.76187671836E+03  0.00000000000E+00 0. -1.
         13    1    5    5    0    0 -0.32171803877E+01 -0.62759741888E+02  0.21412216107E+03  0.22315338965E+03  0.00000000000E+00 0. -1.
        -14    1    5    5    0    0  0.13822650717E+01  0.24412312921E+02  0.51961974949E+02  0.57427506645E+02  0.00000000000E+00 0.  1.
          5    1    4    4  501    0 -0.23427138354E+02  0.59047494441E+01 -0.46809114581E+03  0.46873285575E+03  0.41800000000E+01 0. -1.
         -5    1    4    4    0  501 -0.14421897496E+02  0.58875897466E+02 -0.93625062090E+02  0.11161311339E+03  0.41800000000E+01 0. -1.
</event>
<event>
11    1  0.7577197E-009  0.1461973E+03  0.7561462E-02  0.1100829E+00
         22   -1    0    0    0    0  0.00000000000E+00  0.00000000000E+00  0.89637435727E+02  0.89637435727E+02  0.00000000000E+00 0. -1.
         22   -1    0    0    0    0 -0.00000000000E+00 -0.00000000000E+00 -0.11709121113E+04  0.11709121113E+04  0.00000000000E+00 0.  1.
        -24    2    1    2    0    0 -0.71432158687E+02 -0.20431791132E+02 -0.94511494520E+03  0.95134275030E+03  0.79314295862E+02 0.  0.
         25    2    1    2    0    0  0.76501954528E+02  0.59181513222E+02 -0.15140359239E+03  0.21891988412E+03  0.12509143585E+03 0.  0.
         24    2    1    2    0    0 -0.50697958408E+01 -0.38749722090E+02  0.15243862044E+02  0.90286912574E+02  0.79950656408E+02 0.  0.
        -13    1    5    5    0    0  0.12386552119E+02 -0.60127241547E+02  0.10765053593E+02  0.62326545134E+02  0.00000000000E+00 0.  1.
         14    1    5    5    0    0 -0.17456347960E+02  0.21377519457E+02  0.44788084514E+01  0.27960367440E+02  0.00000000000E+00 0. -1.
         11    1    3    3    0    0 -0.65160569579E+02 -0.35536134028E+02 -0.45975929566E+03  0.46571163459E+03  0.00000000000E+00 0. -1.
        -12    1    3    3    0    0 -0.62715891083E+01  0.15104342896E+02 -0.48535564954E+03  0.48563111571E+03  0.00000000000E+00 0.  1.
          5    1    4    4  501    0 -0.29793000185E+02  0.10519802580E+02 -0.68473124285E+02  0.75527016728E+02  0.41800000000E+01 0. -1.
         -5    1    4    4    0  501  0.10629495471E+03  0.48661710641E+02 -0.82930468103E+02  0.14339286739E+03  0.41800000000E+01 0. -1.
</event>
<event>
11    1  0.7577197E-009  0.1577048E+03  0.7561462E-02  0.1089256E+00
         22   -1    0    0    0    0  0.00000000000E+00  0.00000000000E+00  0.19744407497E+03  0.19744407497E+03  0.00000000000E+00 0. -1.
         22   -1    0    0    0    0 -0.00000000000E+00 -0.00000000000E+00 -0.41277559537E+03  0.41277559537E+03  0.00000000000E+00 0. -1.
        -24    2    1    2    0    0  0.16170760398E+02 -0.27800548634E+02 -0.26744059078E+03  0.28131944377E+03  0.81128267858E+02 0.  0.
         25    2    1    2    0    0  0.98712202179E+01 -0.72255424679E+02 -0.55723647464E+02  0.15515033722E+03  0.12509282501E+03 0.  0.
         24    2    1    2    0    0 -0.26041980616E+02  0.10005597331E+03  0.10783271784E+03  0.17374988935E+03  0.88722863242E+02 0.  0.
        -11    1    5    5    0    0 -0.50828736826E+02  0.31413194176E+02  0.29326895493E+02  0.66561370591E+02  0.00000000000E+00 0.  1.
         12    1    5    5    0    0  0.24786756210E+02  0.68642779136E+02  0.78505822350E+02  0.10718851876E+03  0.00000000000E+00 0. -1.
         13    1    3    3    0    0  0.23496067450E+02  0.21775063321E+02 -0.15409379194E+03  0.15738842170E+03  0.00000000000E+00 0. -1.
        -14    1    3    3    0    0 -0.73253070520E+01 -0.49575611954E+02 -0.11334679884E+03  0.12393102207E+03  0.00000000000E+00 0.  1.
          5    1    4    4  501    0 -0.39970330307E+02 -0.81753313839E+01  0.18575355972E+02  0.45021990156E+02  0.41800000000E+01 0. -1.
         -5    1    4    4    0  501  0.49841550525E+02 -0.64080093295E+02 -0.74299003436E+02  0.11012834706E+03  0.41800000000E+01 0. -1.
</event>
<event>
11    1  0.7577197E-009  0.1427099E+03  0.7561462E-02  0.1104570E+00
         22   -1    0    0    0    0  0.00000000000E+00  0.00000000000E+00  0.42455703585E+03  0.42455703585E+03  0.00000000000E+00 0. -1.
         22   -1    0    0    0    0 -0.00000000000E+00 -0.00000000000E+00 -0.59134585595E+03  0.59134585595E+03  0.00000000000E+00 0.  1.
         24    2    1    2    0    0 -0.15871801445E+02  0.54648206489E+01 -0.32721444825E+03  0.33744224361E+03  0.80722947672E+02 0.  0.
         25    2    1    2    0    0 -0.45541188347E+02  0.26298209157E+02 -0.23369003396E+03  0.27023074126E+03  0.12509206974E+03 0.  0.
        -24    2    1    2    0    0  0.61412989792E+02 -0.31763029806E+02  0.39411566211E+03  0.40822990693E+03  0.80895342380E+02 0.  0.
        -11    1    3    3    0    0  0.24205057882E+02 -0.20510216451E+02 -0.17692419793E+03  0.17974628123E+03  0.00000000000E+00 0.  1.
         12    1    3    3    0    0 -0.40076859328E+02  0.25975037100E+02 -0.15029025033E+03  0.15769596238E+03  0.00000000000E+00 0. -1.
         11    1    5    5    0    0  0.78475486163E+01 -0.22250430537E+02  0.28815220479E+03  0.28911651424E+03  0.00000000000E+00 0. -1.
        -12    1    5    5    0    0  0.53565441176E+02 -0.95125992694E+01  0.10596345731E+03  0.11911339269E+03  0.00000000000E+00 0.  1.
          5    1    4    4  501    0 -0.28638665071E+02 -0.48816345178E+02 -0.77633640183E+02  0.96164771002E+02  0.41800000000E+01 0.  1.
         -5    1    4    4    0  501 -0.16902523276E+02  0.75114554336E+02 -0.15605639377E+03  0.17406597026E+03  0.41800000000E+01 0.  1.
</event>
<event>
11    1  0.7577197E-009  0.1330865E+03  0.7561462E-02  0.1115534E+00
         22   -1    0    0    0    0  0.00000000000E+00  0.00000000000E+00  0.50702019247E+03  0.50702019247E+03  0.00000000000E+00 0.  1.
         22   -1    0    0    0    0 -0.00000000000E+00 -0.00000000000E+00 -0.80470467475E+03  0.80470467475E+03  0.00000000000E+00 0. -1.
        -24    2    1    2    0    0  0.90676323671E+01  0.42858355733E+02 -0.64786733014E+03  0.65365890092E+03  0.74958793210E+02 0.  0.
         25    2    1    2    0    0 -0.13403249381E+02 -0.62534263777E+02 -0.11710934303E+03  0.18289956216E+03  0.12508984921E+03 0.  0.
         24    2    1    2    0    0  0.43356170137E+01  0.19675908043E+02  0.46729219089E+03  0.47516640414E+03  0.83756677498E+02 0.  0.
        -13    1    5    5    0    0  0.26868949881E+01  0.16675013729E+02  0.47030345709E+03  0.47060664810E+03  0.00000000000E+00 0.  1.
         14    1    5    5    0    0  0.16487220256E+01  0.30008943148E+01 -0.30112661999E+01  0.45597560388E+01  0.00000000000E+00 0. -1.
         13    1    3    3    0    0 -0.31990841664E+02  0.11492171719E+02 -0.31099737731E+03  0.31284956874E+03  0.00000000000E+00 0. -1.
        -14    1    3    3    0    0  0.41058474031E+02  0.31366184014E+02 -0.33686995282E+03  0.34080933219E+03  0.00000000000E+00 0.  1.
          5    1    4    4  501    0 -0.36176453340E+02  0.24755104599E+02 -0.14847633599E+02  0.46470158203E+02  0.41800000000E+01 0.  1.
         -5    1    4    4    0  501  0.22773203959E+02 -0.87289368376E+02 -0.10226170943E+03  0.13642940396E+03  0.41800000000E+01 0.  1.
</event>
<event>
11    1  0.7577197E-009  0.2874781E+03  0.7561462E-02  0.1005635E+00
         22   -1    0    0    0    0  0.00000000000E+00  0.00000000000E+00  0.11613973712E+03  0.11613973712E+03  0.00000000000E+00 0.  1.
         22   -1    0    0    0    0 -0.00000000000E+00 -0.00000000000E+00 -0.21784334350E+04  0.21784334350E+04  0.00000000000E+00 0. -1.
         24    2    1    2    0    0 -0.26009306740E+03  0.12551757720E+03 -0.14689137477E+04  0.14991765703E+04  0.80123186094E+02 0.  0.
         25    2    1    2    0    0  0.16775144960E+03 -0.13482741130E+03 -0.62323795674E+03  0.67111245254E+03  0.12508954213E+03 0.  0.
        -24    2    1    2    0    0  0.92341617797E+02  0.93098341021E+01  0.29858006553E+02  0.12428414926E+03  0.77080489195E+02 0.  0.
        -13    1    3    3    0    0 -0.12535472780E+03  0.10299955526E+03 -0.74073768747E+03  0.75829745997E+03  0.00000000000E+00 0.  1.
         14    1    3    3    0    0 -0.13473833960E+03  0.22518021946E+02 -0.72817606023E+03  0.74087911035E+03  0.00000000000E+00 0. -1.
         13    1    5    5    0    0 -0.67840965071E+01  0.66302285676E+00  0.23623088112E+02  0.24586863498E+02  0.00000000000E+00 0. -1.
        -14    1    5    5    0    0  0.99125714304E+02  0.86468112453E+01  0.62349184411E+01  0.99697285766E+02  0.00000000000E+00 0.  1.
          5    1    4    4  501    0  0.22839612215E+02 -0.78748389736E+02 -0.31989597546E+03  0.33026332568E+03  0.41800000000E+01 0.  1.
         -5    1    4    4    0  501  0.14491183739E+03 -0.56079021568E+02 -0.30334198128E+03  0.34084912686E+03  0.41800000000E+01 0.  1.
</event>
<event>
11    1  0.7577197E-009  0.2336762E+03  0.7561462E-02  0.1032973E+00
         22   -1    0    0    0    0  0.00000000000E+00  0.00000000000E+00  0.45942135238E+03  0.45942135238E+03  0.00000000000E+00 0. -1.
         22   -1    0    0    0    0 -0.00000000000E+00 -0.00000000000E+00 -0.29533744018E+03  0.29533744018E+03  0.00000000000E+00 0. -1.
         24    2    1    2    0    0  0.35014724524E+02  0.19126760122E+02 -0.95216949509E+02  0.13057959012E+03  0.79955600153E+02 0.  0.
         25    2    1    2    0    0  0.12573971921E+03  0.10705620733E+03 -0.78473889508E+02  0.22153828603E+03  0.12509817077E+03 0.  0.
        -24    2    1    2    0    0 -0.16075444373E+03 -0.12618296745E+03  0.33777475122E+03  0.40264091642E+03  0.79144125249E+02 0.  0.
        -13    1    3    3    0    0  0.51571205243E+02 -0.95378992952E+01 -0.75887290875E+02  0.92246634895E+02  0.00000000000E+00 0.  1.
         14    1    3    3    0    0 -0.16556480719E+02  0.28664659417E+02 -0.19329658635E+02  0.38332955225E+02  0.00000000000E+00 0. -1.
         13    1    5    5    0    0 -0.11919100342E+03 -0.13119739399E+03  0.27596151809E+03  0.32798477244E+03  0.00000000000E+00 0. -1.
        -14    1    5    5    0    0 -0.41563440307E+02  0.50144265450E+01  0.61813233127E+02  0.74656143976E+02  0.00000000000E+00 0.  1.
          5    1    4    4  501    0  0.47867821653E+02  0.21959090229E+02 -0.91217284388E+02  0.10541155233E+03  0.41800000000E+01 0. -1.
         -5    1    4    4    0  501  0.77871897554E+02  0.85097117097E+02  0.12743394880E+02  0.11612673370E+03  0.41800000000E+01 0. -1.
</event>
<event>
11    1  0.7577197E-009  0.1357227E+03  0.7561462E-02  0.1112431E+00
         22   -1    0    0    0    0  0.00000000000E+00  0.00000000000E+00  0.28926358393E+03  0.28926358393E+03  0.00000000000E+00 0.  1.
         22   -1    0    0    0    0 -0.00000000000E+00 -0.00000000000E+00 -0.10837727156E+04  0.10837727156E+04  0.00000000000E+00 0.  1.
         24    2    1    2    0    0  0.25200127081E+02  0.40832470451E+02 -0.88129945253E+03  0.88628610224E+03  0.80696920295E+02 0.  0.
         25    2    1    2    0    0  0.22936707891E+02 -0.62722058771E+02 -0.16510903454E+03  0.21764349316E+03  0.12509015790E+03 0.  0.
        -24    2    1    2    0    0 -0.48136834972E+02  0.21889588319E+02  0.25189935538E+03  0.26910670415E+03  0.78541861554E+02 0.  0.
        -13    1    3    3    0    0  0.11455707364E+01 -0.11151717971E+02 -0.54700293127E+03  0.54711779350E+03  0.00000000000E+00 0.  1.
         14    1    3    3    0    0  0.24054556344E+02  0.51984188422E+02 -0.33429652126E+03  0.33916830874E+03  0.00000000000E+00 0. -1.
         11    1    5    5    0    0  0.19126195779E+01 -0.25316837249E+02  0.56286515429E+02  0.61747649195E+02  0.00000000000E+00 0. -1.
        -12    1    5    5    0    0 -0.50049454550E+02  0.47206425568E+02  0.19561283995E+03  0.20735905495E+03  0.00000000000E+00 0.  1.
          5    1    4    4  501    0  0.37501398164E+01 -0.70722857338E+02 -0.23917422270E+02  0.74868562072E+02  0.41800000000E+01 0.  1.
         -5    1    4    4    0  501  0.19186568075E+02  0.80007985677E+01 -0.14119161227E+03  0.14277493109E+03  0.41800000000E+01 0.  1.
</event>
<event>
11    1  0.7577197E-009  0.2144778E+03  0.7561462E-02  0.1044733E+00
         22   -1    0    0    0    0  0.00000000000E+00  0.00000000000E+00  0.44747955826E+03  0.44747955826E+03  0.00000000000E+00 0. -1.
         22   -1    0    0    0    0 -0.00000000000E+00 -0.00000000000E+00 -0.51284151908E+03  0.51284151908E+03  0.00000000000E+00 0.  1.
        -24    2    1    2    0    0  0.32988220666E+02  0.19432737061E+02 -0.62351588630E+02  0.98373475451E+02  0.65755350317E+02 0.  0.
         25    2    1    2    0    0  0.10144323621E+03 -0.13131016663E+03 -0.38327419075E+03  0.43598088570E+03  0.12508851813E+03 0.  0.
         24    2    1    2    0    0 -0.13443145687E+03  0.11187742957E+03  0.38026381855E+03  0.42596671619E+03  0.79111919205E+02 0.  0.
        -13    1    5    5    0    0 -0.10789073836E+03  0.52733498172E+02  0.18812395738E+03  0.22318569979E+03  0.00000000000E+00 0.  1.
         14    1    5    5    0    0 -0.26540718519E+02  0.59143931398E+02  0.19213986117E+03  0.20278101640E+03  0.00000000000E+00 0. -1.
         13    1    3    3    0    0  0.87611708084E+01 -0.36341499603E+01 -0.64174753862E+02  0.64871906038E+02  0.00000000000E+00 0. -1.
        -14    1    3    3    0    0  0.24227049858E+02  0.23066887021E+02  0.18231652315E+01  0.33501569413E+02  0.00000000000E+00 0.  1.
          5    1    4    4  501    0  0.48514603724E+02 -0.64434905283E+02 -0.31910856758E+03  0.32917058510E+03  0.41800000000E+01 0.  1.
         -5    1    4    4    0  501  0.52928632484E+02 -0.66875261348E+02 -0.64165623165E+02  0.10681030059E+03  0.41800000000E+01 0.  1.
</event>
<event>
11    1  0.7577197E-009  0.1311638E+03  0.7561462E-02  0.1117847E+00
         22   -1    0    0    0    0  0.00000000000E+00  0.00000000000E+00  0.34196300973E+03  0.34196300973E+03  0.00000000000E+00 0. -1.
         22   -1    0    0    0    0 -0.00000000000E+00 -0.00000000000E+00 -0.24655969127E+04  0.24655969127E+04  0.00000000000E+00 0. -1.
         24    2    1    2    0    0 -0.39203758459E+02  0.30961662792E+01 -0.23697721243E+04  0.23714369435E+04  0.79666396581E+02 0.  0.
         25    2    1    2    0    0  0.48983454804E+02  0.19521127866E+02 -0.39848386417E+02  0.14147615324E+03  0.12508858764E+03 0.  0.
        -24    2    1    2    0    0 -0.97796963454E+01 -0.22617294145E+02  0.28598660775E+03  0.29464682574E+03  0.66492312707E+02 0.  0.
        -11    1    3    3    0    0 -0.88196259007E+01  0.33903410761E+02 -0.53023440949E+03  0.53139039892E+03  0.00000000000E+00 0.  1.
         12    1    3    3    0    0 -0.30384132558E+02 -0.30807244482E+02 -0.18395377148E+04  0.18400465445E+04  0.00000000000E+00 0. -1.
         11    1    5    5    0    0 -0.33470701297E+02 -0.31009588844E+02  0.19340462614E+03  0.19871394480E+03  0.00000000000E+00 0. -1.
        -12    1    5    5    0    0  0.23691004952E+02  0.83922946988E+01  0.92581981611E+02  0.95932880937E+02  0.00000000000E+00 0.  1.
          5    1    4    4  501    0  0.60423230672E+02  0.15310903901E+01  0.30513253963E+02  0.67836878687E+02  0.41800000000E+01 0.  1.
         -5    1    4    4    0  501 -0.11439775867E+02  0.17990037476E+02 -0.70361640380E+02  0.73639274556E+02  0.41800000000E+01 0.  1.
</event>
<event>
11    1  0.7577197E-009  0.1689830E+03  0.7561462E-02  0.1078920E+00
         22   -1    0    0    0    0  0.00000000000E+00  0.00000000000E+00  0.17209017639E+04  0.17209017639E+04  0.00000000000E+00 0. -1.
         22   -1    0    0    0    0 -0.00000000000E+00 -0.00000000000E+00 -0.80932483137E+03  0.80932483137E+03  0.00000000000E+00 0. -1.
         24    2    1    2    0    0 -0.37608426373E+02  0.10400300039E+03 -0.39183646491E+03  0.41507727814E+03  0.80760843060E+02 0.  0.
         25    2    1    2    0    0  0.12059522824E+02 -0.12004133795E+03 -0.38592635913E+03  0.42325174083E+03  0.12509007369E+03 0.  0.
        -24    2    1    2    0    0  0.25548903549E+02  0.16038337565E+02  0.16893397565E+04  0.16918975763E+04  0.87969430957E+02 0.  0.
        -13    1    3    3    0    0 -0.38547435247E+02  0.18109398317E+02 -0.20589121224E+03  0.21024996159E+03  0.00000000000E+00 0.  1.
         14    1    3    3    0    0  0.93900887394E+00  0.85893602071E+02 -0.18594525267E+03  0.20482731655E+03  0.00000000000E+00 0. -1.
         13    1    5    5    0    0  0.57909446233E+02  0.26329565959E+01  0.10573662851E+04  0.10589541526E+04  0.00000000000E+00 0. -1.
        -14    1    5    5    0    0 -0.32360542684E+02  0.13405380969E+02  0.63197347145E+03  0.63294342367E+03  0.00000000000E+00 0.  1.
          5    1    4    4  501    0 -0.31259208292E+02 -0.42133876858E+02 -0.40289500496E+02  0.66280599970E+02  0.41800000000E+01 0.  1.
         -5    1    4    4    0  501  0.43318731116E+02 -0.77907461095E+02 -0.34563685864E+03  0.35697114086E+03  0.41800000000E+01 0.  1.
</event>
<event>
11    1  0.7577197E-009  0.1430565E+03  0.7561462E-02  0.1104193E+00
         22   -1    0    0    0    0  0.00000000000E+00  0.00000000000E+00  0.11093971549E+03  0.11093971549E+03  0.00000000000E+00 0.  1.
         22   -1    0    0    0    0 -0.00000000000E+00 -0.00000000000E+00 -0.77084201755E+03  0.77084201755E+03  0.00000000000E+00 0. -1.
         24    2    1    2    0    0 -0.39005283363E+02 -0.88886381890E+01 -0.40865862372E+03  0.41829005371E+03  0.79776426777E+02 0.  0.
         25    2    1    2    0    0  0.60657965756E+02  0.72814940447E+02 -0.30696471563E+03  0.34475635520E+03  0.12509277935E+03 0.  0.
        -24    2    1    2    0    0 -0.21652682393E+02 -0.63926302258E+02  0.55721037292E+02  0.11873532413E+03  0.80236104238E+02 0.  0.
        -11    1    3    3    0    0 -0.15890566238E+02  0.35075638603E+02 -0.14707861274E+03  0.15203594590E+03  0.00000000000E+00 0.  1.
         12    1    3    3    0    0 -0.23114717125E+02 -0.43964276792E+02 -0.26158001098E+03  0.26625410781E+03  0.00000000000E+00 0. -1.
         11    1    5    5    0    0  0.92903419912E+01  0.13461551321E+02 -0.32003632919E+01  0.16666317634E+02  0.00000000000E+00 0. -1.
        -12    1    5    5    0    0 -0.30943024384E+02 -0.77387853579E+02  0.58921400584E+02  0.10206900649E+03  0.00000000000E+00 0.  1.
          5    1    4    4  501    0  0.77651539066E+02  0.90745623347E+02 -0.18498827802E+03  0.22023320613E+03  0.41800000000E+01 0.  1.
         -5    1    4    4    0  501 -0.16993573310E+02 -0.17930682900E+02 -0.12197643761E+03  0.12452314907E+03  0.41800000000E+01 0.  1.
</event>
<event>
11    1  0.7577197E-009  0.1401565E+03  0.7561462E-02  0.1107384E+00
         22   -1    0    0    0    0  0.00000000000E+00  0.00000000000E+00  0.11683969790E+04  0.11683969790E+04  0.00000000000E+00 0. -1.
         22   -1    0    0    0    0 -0.00000000000E+00 -0.00000000000E+00 -0.12061372203E+04  0.12061372203E+04  0.00000000000E+00 0.  1.
        -24    2    1    2    0    0  0.23348464826E+02 -0.25186037937E+02 -0.11815310463E+04  0.11851383766E+04  0.85778032736E+02 0.  0.
         25    2    1    2    0    0 -0.72781636766E+02  0.57369800796E+02  0.28433497188E+03  0.32416462307E+03  0.12509143026E+03 0.  0.
         24    2    1    2    0    0  0.49433171940E+02 -0.32183762859E+02  0.85945583315E+03  0.86523119962E+03  0.80506313911E+02 0.  0.
        -11    1    5    5    0    0  0.28097968679E+01 -0.30779473874E+02  0.10817573368E+03  0.11250449026E+03  0.00000000000E+00 0.  1.
         12    1    5    5    0    0  0.46623375072E+02 -0.14042889848E+01  0.75128009947E+03  0.75272670936E+03  0.00000000000E+00 0. -1.
         11    1    3    3    0    0  0.30107507072E+02  0.62988850058E+01 -0.15083427954E+03  0.15393868201E+03  0.00000000000E+00 0. -1.
        -12    1    3    3    0    0 -0.67590422459E+01 -0.31484922943E+02 -0.10306967668E+04  0.10311996946E+04  0.00000000000E+00 0.  1.
          5    1    4    4  501    0  0.20257708196E+02 -0.14231781627E+02  0.12533115442E+02  0.28061891104E+02  0.41800000000E+01 0. -1.
         -5    1    4    4    0  501 -0.93039344962E+02  0.71601582424E+02  0.27180185644E+03  0.29610273197E+03  0.41800000000E+01 0. -1.
</event>
<event>
11    1  0.7577197E-009  0.1439612E+03  0.7561462E-02  0.1103214E+00
         22   -1    0    0    0    0  0.00000000000E+00  0.00000000000E+00  0.31777066091E+03  0.31777066091E+03  0.00000000000E+00 0.  1.
         22   -1    0    0    0    0 -0.00000000000E+00 -0.00000000000E+00 -0.13036767077E+04  0.13036767077E+04  0.00000000000E+00 0.  1.
         24    2    1    2    0    0  0.50909777026E+02 -0.44413095909E+02 -0.99393175664E+03  0.99944850221E+03  0.80203760756E+02 0.  0.
         25    2    1    2    0    0 -0.10246999352E+03  0.36739466911E+02 -0.27599889576E+03  0.32197066221E+03  0.12505930139E+03 0.  0.
        -24    2    1    2    0    0  0.51560216493E+02  0.76736289982E+01  0.28402460560E+03  0.30002820420E+03  0.81422393849E+02 0.  0.
        -11    1    3    3    0    0  0.19075731640E+02  0.23252321253E+02 -0.27862690283E+03  0.28024543700E+03  0.00000000000E+00 0.  1.
         12    1    3    3    0    0  0.31834045386E+02 -0.67665417162E+02 -0.71530485381E+03  0.71920306521E+03  0.00000000000E+00 0. -1.
         11    1    5    5    0    0 -0.17431900046E+02  0.68303438555E+01  0.21135003114E+02  0.28234962246E+02  0.00000000000E+00 0. -1.
        -12    1    5    5    0    0  0.68992116540E+02  0.84328514271E+00  0.26288960249E+03  0.27179324195E+03  0.00000000000E+00 0.  1.
          5    1    4    4  501    0 -0.23151406371E+02  0.16944172689E+02  0.48855860144E+01  0.29401257724E+02  0.41800000000E+01 0.  1.
         -5    1    4    4    0  501 -0.79318587149E+02  0.19795294222E+02 -0.28088448177E+03  0.29256940448E+03  0.41800000000E+01 0.  1.
</event>
<event>
11    1  0.7577197E-009  0.1391843E+03  0.7561462E-02  0.1108473E+00
         22   -1    0    0    0    0  0.00000000000E+00  0.00000000000E+00  0.12319685834E+04  0.12319685834E+04  0.00000000000E+00 0. -1.
         22   -1    0    0    0    0 -0.00000000000E+00 -0.00000000000E+00 -0.32411168424E+03  0.32411168424E+03  0.00000000000E+00 0. -1.
        -24    2    1    2    0    0 -0.39087771213E+02  0.42534112048E+02 -0.24855553635E+03  0.26736593602E+03  0.79797772823E+02 0.  0.
         25    2    1    2    0    0  0.72335434472E+02 -0.61544659923E+02  0.31438215846E+02  0.16017221889E+03  0.12508644229E+03 0.  0.
         24    2    1    2    0    0 -0.33247663259E+02  0.19010547875E+02  0.11249742197E+04  0.11285421127E+04  0.81077106734E+02 0.  0.
        -13    1    5    5    0    0 -0.32618365518E+02  0.35909781144E+02  0.34600669869E+03  0.34939104981E+03  0.00000000000E+00 0.  1.
         14    1    5    5    0    0 -0.62929774126E+00 -0.16899233269E+02  0.77896752098E+03  0.77915106292E+03  0.00000000000E+00 0. -1.
         13    1    3    3    0    0 -0.51255510718E+02  0.51834024017E+02 -0.23761341072E+03  0.24854381179E+03  0.00000000000E+00 0. -1.
        -14    1    3    3    0    0  0.12167739505E+02 -0.92999119685E+01 -0.10942125632E+02  0.18822124232E+02  0.00000000000E+00 0.  1.
          5    1    4    4  501    0  0.43916829220E+02 -0.83665394116E+02  0.61715461208E+02  0.11293740130E+03  0.41800000000E+01 0.  1.
         -5    1    4    4    0  501  0.28418605252E+02  0.22120734194E+02 -0.30277245362E+02  0.47234817587E+02  0.41800000000E+01 0.  1.
</event>
<event>
11    1  0.7577197E-009  0.1593903E+03  0.7561462E-02  0.1087652E+00
         22   -1    0    0    0    0  0.00000000000E+00  0.00000000000E+00  0.41849533838E+03  0.41849533838E+03  0.00000000000E+00 0.  1.
         22   -1    0    0    0    0 -0.00000000000E+00 -0.00000000000E+00 -0.43370781952E+03  0.43370781952E+03  0.00000000000E+00 0. -1.
         24    2    1    2    0    0  0.26374374534E+02 -0.11142665604E+03 -0.22593380630E+03  0.26579529813E+03  0.80557733151E+02 0.  0.
         25    2    1    2    0    0  0.15733092453E+02  0.78365857698E+02 -0.15134507448E+03  0.21199054010E+03  0.12508365070E+03 0.  0.
        -24    2    1    2    0    0 -0.42107466987E+02  0.33060798340E+02  0.36206639964E+03  0.37441731967E+03  0.78931592888E+02 0.  0.
        -13    1    3    3    0    0  0.17565301376E+02 -0.80504691938E+02 -0.74822084175E+02  0.11130089630E+03  0.00000000000E+00 0.  1.
         14    1    3    3    0    0  0.88090731580E+01 -0.30921964100E+02 -0.15111172212E+03  0.15449440183E+03  0.00000000000E+00 0. -1.
         13    1    5    5    0    0  0.79853065737E+01 -0.20411807549E+02  0.93577822911E+02  0.96110436214E+02  0.00000000000E+00 0. -1.
        -14    1    5    5    0    0 -0.50092773560E+02  0.53472605890E+02  0.26848857673E+03  0.27830688346E+03  0.00000000000E+00 0.  1.
          5    1    4    4  501    0  0.17141838626E+02  0.52940308503E+02 -0.17079252922E+03  0.17967770962E+03  0.41800000000E+01 0.  1.
         -5    1    4    4    0  501 -0.14087461736E+01  0.25425549195E+02  0.19447454744E+02  0.32312830481E+02  0.41800000000E+01 0.  1.
</event>
<event>
11    1  0.7577197E-009  0.1408002E+03  0.7561462E-02  0.1106668E+00
         22   -1    0    0    0    0  0.00000000000E+00  0.00000000000E+00  0.38615674377E+03  0.38615674377E+03  0.00000000000E+00 0.  1.
         22   -1    0    0    0    0 -0.00000000000E+00 -0.00000000000E+00 -0.14236301801E+04  0.14236301801E+04  0.00000000000E+00 0.  1.
         24    2    1    2    0    0 -0.54674888434E+02 -0.36708395586E+02 -0.13177078658E+04  0.13217532800E+04  0.79629541229E+02 0.  0.
         25    2    1    2    0    0  0.15147293096E+02  0.43961648326E+02 -0.52420598209E+02  0.14337460163E+03  0.12508513207E+03 0.  0.
        -24    2    1    2    0    0  0.39527595337E+02 -0.72532527399E+01  0.33265502774E+03  0.34465904219E+03  0.80718321433E+02 0.  0.
        -11    1    3    3    0    0  0.10907605128E+02 -0.34346525871E+02 -0.58666712868E+03  0.58777289794E+03  0.00000000000E+00 0.  1.
         12    1    3    3    0    0 -0.65582493561E+02 -0.23618697151E+01 -0.73104073717E+03  0.73398038209E+03  0.00000000000E+00 0. -1.
         11    1    5    5    0    0 -0.21703570763E+02 -0.68143257675E+01  0.43471186775E+02  0.49063470109E+02  0.00000000000E+00 0. -1.
        -12    1    5    5    0    0  0.61231166101E+02 -0.43892697239E+00  0.28918384097E+03  0.29559557209E+03  0.00000000000E+00 0.  1.
          5    1    4    4  501    0 -0.43069941761E+02  0.46741285711E+02 -0.56026115686E+02  0.84830216975E+02  0.41800000000E+01 0.  1.
         -5    1    4    4    0  501  0.58217234857E+02 -0.27796373852E+01  0.36055174768E+01  0.58544384655E+02  0.41800000000E+01 0.  1.
</event>
<event>
11    1  0.7577197E-009  0.1325358E+03  0.7561462E-02  0.1116192E+00
         22   -1    0    0    0    0  0.00000000000E+00  0.00000000000E+00  0.25664132718E+03  0.25664132718E+03  0.00000000000E+00 0. -1.
         22   -1    0    0    0    0 -0.00000000000E+00 -0.00000000000E+00 -0.74554515672E+03  0.74554515672E+03  0.00000000000E+00 0. -1.
        -24    2    1    2    0    0 -0.10883986639E+02  0.45039129983E+02 -0.50878058303E+03  0.51700835488E+03  0.79328260717E+02 0.  0.
         25    2    1    2    0    0  0.11199995652E+02 -0.30545751408E+02 -0.20685384929E+03  0.24391546021E+03  0.12509098261E+03 0.  0.
         24    2    1    2    0    0 -0.31600901329E+00 -0.14493378575E+02  0.22673060278E+03  0.24126266880E+03  0.81183441879E+02 0.  0.
        -11    1    5    5    0    0 -0.37955763747E+02  0.46622044125E+01  0.81680953599E+02  0.90189546692E+02  0.00000000000E+00 0.  1.
         12    1    5    5    0    0  0.37639754734E+02 -0.19155582987E+02  0.14504964918E+03  0.15107312211E+03  0.00000000000E+00 0. -1.
         11    1    3    3    0    0 -0.27939513881E+02 -0.50508149451E+01 -0.31027541912E+03  0.31157176200E+03  0.00000000000E+00 0. -1.
        -12    1    3    3    0    0  0.17055527242E+02  0.50089944928E+02 -0.19850516391E+03  0.20543659288E+03  0.00000000000E+00 0.  1.
          5    1    4    4  501    0  0.39309103730E+02 -0.50829897851E+02 -0.45545425902E+02  0.78871682955E+02  0.41800000000E+01 0. -1.
         -5    1    4    4    0  501 -0.28109108077E+02  0.20284146442E+02 -0.16130842339E+03  0.16504377726E+03  0.41800000000E+01 0. -1.
</event>
<event>
11    1  0.7577197E-009  0.1512617E+03  0.7561462E-02  0.1095597E+00
         22   -1    0    0    0    0  0.00000000000E+00  0.00000000000E+00  0.11444410794E+04  0.11444410794E+04  0.00000000000E+00 0. -1.
         22   -1    0    0    0    0 -0.00000000000E+00 -0.00000000000E+00 -0.10616455728E+03  0.10616455728E+03  0.00000000000E+00 0. -1.
        -24    2    1    2    0    0  0.98705116746E+02 -0.24841102269E+02  0.79040468237E+01  0.12900075407E+03  0.78860257176E+02 0.  0.
         25    2    1    2    0    0 -0.57478113046E+02 -0.60713480522E+02  0.95603840584E+02  0.17826260220E+03  0.12509037058E+03 0.  0.
         24    2    1    2    0    0 -0.41227003699E+02  0.85554582791E+02  0.93476863476E+03  0.94334228045E+03  0.84160590964E+02 0.  0.
        -11    1    5    5    0    0 -0.62419075253E+02  0.34489634533E+02  0.55805527037E+03  0.56259342392E+03  0.00000000000E+00 0.  1.
         12    1    5    5    0    0  0.21192071554E+02  0.51064948258E+02  0.37671336439E+03  0.38074885653E+03  0.00000000000E+00 0. -1.
         11    1    3    3    0    0  0.87102347633E+02 -0.17422071125E+02 -0.25877154714E+02  0.92520131115E+02  0.00000000000E+00 0. -1.
        -12    1    3    3    0    0  0.11602769113E+02 -0.74190311439E+01  0.33781201538E+02  0.36480622960E+02  0.00000000000E+00 0.  1.
          5    1    4    4  501    0  0.68236872983E+01  0.32289053556E+02  0.40507531083E+02  0.52416392115E+02  0.41800000000E+01 0. -1.
         -5    1    4    4    0  501 -0.64301800345E+02 -0.93002534078E+02  0.55096309501E+02  0.12584621009E+03  0.41800000000E+01 0. -1.
</event>
<event>
11    1  0.7577197E-009  0.1486425E+03  0.7561462E-02  0.1098274E+00
         22   -1    0    0    0    0  0.00000000000E+00  0.00000000000E+00  0.78323919353E+02  0.78323919353E+02  0.00000000000E+00 0.  1.
         22   -1    0    0    0    0 -0.00000000000E+00 -0.00000000000E+00 -0.21241275975E+04  0.21241275975E+04  0.00000000000E+00 0.  1.
        -24    2    1    2    0    0 -0.25578176705E+02 -0.96103211783E+01 -0.13601643189E+04  0.13628487102E+04  0.81012536578E+02 0.  0.
         25    2    1    2    0    0  0.10330221507E+03 -0.36051861672E+01 -0.70664710886E+03  0.72503950834E+03  0.12509119548E+03 0.  0.
         24    2    1    2    0    0 -0.77724038367E+02  0.13215507345E+02  0.21007749618E+02  0.11456329831E+03  0.80422310347E+02 0.  0.
        -13    1    5    5    0    0 -0.86934176451E+02  0.71802120386E+01  0.37323300938E+02  0.94879583015E+02  0.00000000000E+00 0.  1.
         14    1    5    5    0    0  0.92101380846E+01  0.60352953069E+01 -0.16315551321E+02  0.19683715297E+02  0.00000000000E+00 0. -1.
         13    1    3    3    0    0  0.17111931037E+02 -0.31058072248E+02 -0.43065489571E+03  0.43211232479E+03  0.00000000000E+00 0. -1.
        -14    1    3    3    0    0 -0.42690107742E+02  0.21447751070E+02 -0.92950942320E+03  0.93073638542E+03  0.00000000000E+00 0.  1.
          5    1    4    4  501    0 -0.14007126966E+02 -0.67528099604E+01 -0.10880634188E+02  0.19433492957E+02  0.41800000000E+01 0.  1.
         -5    1    4    4    0  501  0.11730934204E+03  0.31476237933E+01 -0.69576647467E+03  0.70560601538E+03  0.41800000000E+01 0.  1.
</event>
<event>
11    1  0.7577197E-009  0.1316273E+03  0.7561462E-02  0.1117286E+00
         22   -1    0    0    0    0  0.00000000000E+00  0.00000000000E+00  0.31445412666E+03  0.31445412666E+03  0.00000000000E+00 0.  1.
         22   -1    0    0    0    0 -0.00000000000E+00 -0.00000000000E+00 -0.51876156980E+03  0.51876156980E+03  0.00000000000E+00 0.  1.
         24    2    1    2    0    0  0.16602419928E+02  0.27705959374E+02 -0.45339793116E+03  0.46156905017E+03  0.80206256432E+02 0.  0.
         25    2    1    2    0    0 -0.47959641484E+02 -0.49901274110E+00  0.34153157279E+02  0.13825927279E+03  0.12509521227E+03 0.  0.
        -24    2    1    2    0    0  0.31357221556E+02 -0.27206946633E+02  0.21493733074E+03  0.23338737350E+03  0.80920434244E+02 0.  0.
        -11    1    3    3    0    0 -0.12115243628E+02  0.49152434299E+02 -0.26533692466E+03  0.27012298035E+03  0.00000000000E+00 0.  1.
         12    1    3    3    0    0  0.28717663556E+02 -0.21446474925E+02 -0.18806100650E+03  0.19144606983E+03  0.00000000000E+00 0. -1.
         13    1    5    5    0    0  0.51723778592E+01  0.15840857654E+02  0.48687773623E+01  0.17360623748E+02  0.00000000000E+00 0. -1.
        -14    1    5    5    0    0  0.26184843697E+02 -0.43047804287E+02  0.21006855337E+03  0.21602674976E+03  0.00000000000E+00 0.  1.
          5    1    4    4  501    0  0.45015343721E+01  0.43065988718E+02  0.51853010731E+02  0.67684195481E+02  0.41800000000E+01 0. -1.
         -5    1    4    4    0  501 -0.52461175856E+02 -0.43565001460E+02 -0.17699853452E+02  0.70575077305E+02  0.41800000000E+01 0. -1.
</event>
<event>
11    1  0.7577197E-009  0.2401805E+03  0.7561462E-02  0.1029264E+00
         22   -1    0    0    0    0  0.00000000000E+00  0.00000000000E+00  0.73784038469E+03  0.73784038469E+03  0.00000000000E+00 0. -1.
         22   -1    0    0    0    0 -0.00000000000E+00 -0.00000000000E+00 -0.15068468277E+04  0.15068468277E+04  0.00000000000E+00 0. -1.
         24    2    1    2    0    0 -0.89069546479E+02  0.19512094617E+03 -0.13978527133E+04  0.14161121227E+04  0.73319632031E+02 0.  0.
         25    2    1    2    0    0  0.44337224272E+02 -0.11309071045E+03 -0.13161499120E+02  0.17486084808E+03  0.12509113832E+03 0.  0.
        -24    2    1    2    0    0  0.44732322207E+02 -0.82030235726E+02  0.64200776935E+03  0.65371424161E+03  0.80239600908E+02 0.  0.
        -11    1    3    3    0    0 -0.31217996262E+02  0.78537843443E+02 -0.34289971424E+03  0.35316139394E+03  0.00000000000E+00 0.  1.
         12    1    3    3    0    0 -0.57851550217E+02  0.11658310273E+03 -0.10549529990E+04  0.10629507288E+04  0.00000000000E+00 0. -1.
         13    1    5    5    0    0  0.43954282535E+02 -0.96403770390E+02  0.60065065010E+03  0.60992365864E+03  0.00000000000E+00 0. -1.
        -14    1    5    5    0    0  0.77803967163E+00  0.14373534664E+02  0.41357119245E+02  0.43790582968E+02  0.00000000000E+00 0.  1.
          5    1    4    4  501    0 -0.23698745591E+02 -0.37330252823E+00  0.27935644646E+02  0.36873331001E+02  0.41800000000E+01 0. -1.
         -5    1    4    4    0  501  0.68035969863E+02 -0.11271740792E+03 -0.41097143766E+02  0.13798751708E+03  0.41800000000E+01 0. -1.
</event>
<event>
11    1  0.7577197E-009  0.1900406E+03  0.7561462E-02  0.1061799E+00
         22   -1    0    0    0    0  0.00000000000E+00  0.00000000000E+00  0.11042091566E+04  0.11042091566E+04  0.00000000000E+00 0. -1.
         22   -1    0    0    0    0 -0.00000000000E+00 -0.00000000000E+00 -0.20166412713E+03  0.20166412713E+03  0.00000000000E+00 0. -1.
        -24    2    1    2    0    0 -0.97730933058E+02  0.93055437835E+02 -0.76745901074E+02  0.17462513635E+03  0.79958458765E+02 0.  0.
         25    2    1    2    0    0  0.17258770765E+03 -0.60769661903E+02  0.97891390104E+02  0.24229847189E+03  0.12508539717E+03 0.  0.
         24    2    1    2    0    0 -0.74856774587E+02 -0.32285775931E+02  0.88139954043E+03  0.88894967548E+03  0.81978458340E+02 0.  0.
        -13    1    5    5    0    0 -0.10606971371E+02 -0.16419359136E+02  0.36007853514E+02  0.40971559779E+02  0.00000000000E+00 0.  1.
         14    1    5    5    0    0 -0.64249803216E+02 -0.15866416796E+02  0.84539168692E+03  0.84797811570E+03  0.00000000000E+00 0. -1.
         11    1    3    3    0    0 -0.10761981630E+03  0.62136652719E+02 -0.57987532549E+02  0.13713330158E+03  0.00000000000E+00 0. -1.
        -12    1    3    3    0    0  0.98888832430E+01  0.30918785116E+02 -0.18758368525E+02  0.37491834772E+02  0.00000000000E+00 0.  1.
          5    1    4    4  501    0  0.82676224628E+02 -0.93277719673E+02  0.42679499331E+02  0.13181465461E+03  0.41800000000E+01 0. -1.
         -5    1    4    4    0  501  0.89911483017E+02  0.32508057769E+02  0.55211890773E+02  0.11048381728E+03  0.41800000000E+01 0. -1.
</event>
<event>
11    1  0.7577197E-009  0.1343232E+03  0.7561462E-02  0.1114068E+00
         22   -1    0    0    0    0  0.00000000000E+00  0.00000000000E+00  0.73321194949E+03  0.73321194949E+03  0.00000000000E+00 0.  1.
         22   -1    0    0    0    0 -0.00000000000E+00 -0.00000000000E+00 -0.19992799780E+03  0.19992799780E+03  0.00000000000E+00 0.  1.
        -24    2    1    2    0    0  0.44277511139E+02 -0.40431989260E+02 -0.11679318777E+03  0.15406670374E+03  0.80626650322E+02 0.  0.
         25    2    1    2    0    0 -0.88622383183E+01  0.62924137733E+01  0.33861555808E+01  0.12560821153E+03  0.12509125875E+03 0.  0.
         24    2    1    2    0    0 -0.35415272821E+02  0.34139575487E+02  0.64669098388E+03  0.65346503202E+03  0.79922257747E+02 0.  0.
        -13    1    5    5    0    0  0.12914935364E+01  0.52415370641E+02  0.33221463815E+03  0.33632663414E+03  0.00000000000E+00 0.  1.
         14    1    5    5    0    0 -0.36706766357E+02 -0.18275795154E+02  0.31447634573E+03  0.31713839788E+03  0.00000000000E+00 0. -1.
         11    1    3    3    0    0 -0.20529868705E+02 -0.91620561262E+01 -0.84752183108E+01  0.24025988157E+02  0.00000000000E+00 0. -1.
        -12    1    3    3    0    0  0.64807379844E+02 -0.31269933134E+02 -0.10831796946E+03  0.13004071558E+03  0.00000000000E+00 0.  1.
          5    1    4    4  501    0  0.55506693371E+02  0.96408163154E+00  0.19359289095E+02  0.58942149067E+02  0.41800000000E+01 0.  1.
         -5    1    4    4    0  501 -0.64368931689E+02  0.53283321418E+01 -0.15973133514E+02  0.66666062464E+02  0.41800000000E+01 0.  1.
</event>
<event>
11    1  0.7577197E-009  0.1287501E+03  0.7561462E-02  0.1120814E+00
         22   -1    0    0    0    0  0.00000000000E+00  0.00000000000E+00  0.52896089440E+03  0.52896089440E+03  0.00000000000E+00 0. -1.
         22   -1    0    0    0    0 -0.00000000000E+00 -0.00000000000E+00 -0.51079653253E+03  0.51079653253E+03  0.00000000000E+00 0.  1.
         24    2    1    2    0    0  0.19920905857E+02 -0.23866367219E+02 -0.45741187562E+03  0.46501325241E+03  0.77751237817E+02 0.  0.
         25    2    1    2    0    0  0.11783556677E+02  0.26435678979E+02  0.45348493720E+02  0.13619085215E+03  0.12511500708E+03 0.  0.
        -24    2    1    2    0    0 -0.31704462535E+02 -0.25693117604E+01  0.43022774377E+03  0.43855332237E+03  0.78875412829E+02 0.  0.
        -13    1    3    3    0    0  0.30986229106E+02 -0.47899066771E+02 -0.29598794212E+03  0.30143544728E+03  0.00000000000E+00 0.  1.
         14    1    3    3    0    0 -0.11065323249E+02  0.24032699552E+02 -0.16142393349E+03  0.16357780513E+03  0.00000000000E+00 0. -1.
         13    1    5    5    0    0 -0.11428719474E+02 -0.31645943134E+02  0.33923775549E+03  0.34090223833E+03  0.00000000000E+00 0. -1.
        -14    1    5    5    0    0 -0.20275743060E+02  0.29076631373E+02  0.90989988274E+02  0.97651084043E+02  0.00000000000E+00 0.  1.
          5    1    4    4  501    0 -0.20256729053E+02  0.28684899691E+00  0.79653780361E+02  0.82295895889E+02  0.41800000000E+01 0. -1.
         -5    1    4    4    0  501  0.32040285730E+02  0.26148829982E+02 -0.34305286641E+02  0.53894956264E+02  0.41800000000E+01 0. -1.
</event>
<event>
11    1  0.7577197E-009  0.1357234E+03  0.7561462E-02  0.1112430E+00
         22   -1    0    0    0    0  0.00000000000E+00  0.00000000000E+00  0.61342345217E+03  0.61342345217E+03  0.00000000000E+00 0. -1.
         22   -1    0    0    0    0 -0.00000000000E+00 -0.00000000000E+00 -0.91993641734E+03  0.91993641734E+03  0.00000000000E+00 0.  1.
        -24    2    1    2    0    0  0.17969865778E+02  0.26436107929E+02 -0.74376040245E+03  0.74870712824E+03  0.79756151799E+02 0.  0.
         25    2    1    2    0    0 -0.57128274276E+02 -0.60556251672E+02 -0.13637502326E+03  0.20292018135E+03  0.12509098166E+03 0.  0.
         24    2    1    2    0    0  0.39158408498E+02  0.34120143743E+02  0.57362246055E+03  0.58173255992E+03  0.81685242633E+02 0.  0.
        -13    1    5    5    0    0 -0.18768227237E+02 -0.11116478463E+02  0.93066982394E+02  0.95589150320E+02  0.00000000000E+00 0.  1.
         14    1    5    5    0    0  0.57926635735E+02  0.45236622206E+02  0.48055547815E+03  0.48614340960E+03  0.00000000000E+00 0. -1.
         11    1    3    3    0    0 -0.24581211839E+02  0.29820823509E+02 -0.47593886508E+03  0.47750530969E+03  0.00000000000E+00 0. -1.
        -12    1    3    3    0    0  0.42551077617E+02 -0.33847155796E+01 -0.26782153736E+03  0.27120181855E+03  0.00000000000E+00 0.  1.
          5    1    4    4  501    0  0.54937611221E+01 -0.68082483574E+02 -0.11915196883E+03  0.13740476723E+03  0.41800000000E+01 0.  1.
         -5    1    4    4    0  501 -0.62622035398E+02  0.75262319024E+01 -0.17223054432E+02  0.65515414125E+02  0.41800000000E+01 0.  1.
</event>
<event>
11    1  0.7577197E-009  0.2376519E+03  0.7561462E-02  0.1030691E+00
         22   -1    0    0    0    0  0.00000000000E+00  0.00000000000E+00  0.10008725866E+04  0.10008725866E+04  0.00000000000E+00 0.  1.
         22   -1    0    0    0    0 -0.00000000000E+00 -0.00000000000E+00 -0.18110664887E+04  0.18110664887E+04  0.00000000000E+00 0.  1.
         24    2    1    2    0    0  0.80248667935E+02  0.18076881474E+03 -0.16099964471E+04  0.16240702049E+04  0.79989109615E+02 0.  0.
         25    2    1    2    0    0 -0.65620463592E+02 -0.27633267080E+03 -0.62390120794E+02  0.31655050899E+03  0.12508360154E+03 0.  0.
        -24    2    1    2    0    0 -0.14628204343E+02  0.95563856057E+02  0.86219266582E+03  0.87131836139E+03  0.80455322787E+02 0.  0.
        -11    1    3    3    0    0  0.16116877365E+02  0.92346213013E+01 -0.38632116539E+03  0.38676746864E+03  0.00000000000E+00 0.  1.
         12    1    3    3    0    0  0.64131790570E+02  0.17153419344E+03 -0.12236752817E+04  0.12373027363E+04  0.00000000000E+00 0. -1.
         13    1    5    5    0    0 -0.28558911728E+02  0.78511163648E+02  0.40150275908E+03  0.41010252353E+03  0.00000000000E+00 0. -1.
        -14    1    5    5    0    0  0.13930707385E+02  0.17052692409E+02  0.46068990673E+03  0.46121583786E+03  0.00000000000E+00 0.  1.
          5    1    4    4  501    0 -0.78547544863E+02 -0.19049157546E+03  0.56575892126E+01  0.20617040971E+03  0.41800000000E+01 0. -1.
         -5    1    4    4    0  501  0.12927081271E+02 -0.85841095340E+02 -0.68047710006E+02  0.11038009928E+03  0.41800000000E+01 0. -1.
</event>
<event>
11    1  0.7577197E-009  0.1302174E+03  0.7561462E-02  0.1119002E+00
         22   -1    0    0    0    0  0.00000000000E+00  0.00000000000E+00  0.25731610774E+03  0.25731610774E+03  0.00000000000E+00 0.  1.
         22   -1    0    0    0    0 -0.00000000000E+00 -0.00000000000E+00 -0.44714052708E+03  0.44714052708E+03  0.00000000000E+00 0. -1.
        -24    2    1    2    0    0 -0.34151304004E+02  0.14384544506E+02 -0.37107970239E+03  0.38148815761E+03  0.80373143437E+02 0.  0.
         25    2    1    2    0    0  0.18574657608E+02 -0.20079769627E+02  0.60158842905E+01  0.12818384553E+03  0.12508673925E+03 0.  0.
         24    2    1    2    0    0  0.15576646397E+02  0.56952251209E+01  0.17523939876E+03  0.19478463168E+03  0.83409462043E+02 0.  0.
        -11    1    5    5    0    0  0.45556888790E+02  0.22352486264E+02  0.10484530880E+03  0.11648005210E+03  0.00000000000E+00 0.  1.
         12    1    5    5    0    0 -0.29980242393E+02 -0.16657261143E+02  0.70394089953E+02  0.78304579579E+02  0.00000000000E+00 0. -1.
         13    1    3    3    0    0 -0.19262479480E+02  0.36168327076E+02 -0.33084632553E+03  0.33337438732E+03  0.00000000000E+00 0. -1.
        -14    1    3    3    0    0 -0.14888824524E+02 -0.21783782570E+02 -0.40233376856E+02  0.48113770295E+02  0.00000000000E+00 0.  1.
          5    1    4    4  501    0  0.70983085180E+02 -0.22421037332E+01 -0.59525682337E+01  0.71389991451E+02  0.41800000000E+01 0.  1.
         -5    1    4    4    0  501 -0.52408427572E+02 -0.17837665894E+02  0.11968452524E+02  0.56793854077E+02  0.41800000000E+01 0.  1.
</event>
<event>
11    1  0.7577197E-009  0.1372787E+03  0.7561462E-02  0.1110636E+00
         22   -1    0    0    0    0  0.00000000000E+00  0.00000000000E+00  0.32921263875E+03  0.32921263875E+03  0.00000000000E+00 0. -1.
         22   -1    0    0    0    0 -0.00000000000E+00 -0.00000000000E+00 -0.86818516192E+03  0.86818516192E+03  0.00000000000E+00 0.  1.
         24    2    1    2    0    0  0.27642371052E+02 -0.38820456990E+02 -0.70734527918E+03  0.71349034477E+03  0.80374122322E+02 0.  0.
         25    2    1    2    0    0  0.24222792002E+02  0.62394039968E+02 -0.11619397066E+03  0.18337718806E+03  0.12508554835E+03 0.  0.
        -24    2    1    2    0    0 -0.51865163054E+02 -0.23573582977E+02  0.28456672666E+03  0.30053026784E+03  0.78067349222E+02 0.  0.
        -13    1    3    3    0    0  0.52686819745E+02 -0.30447710929E+02 -0.59403612090E+03  0.59714477056E+03  0.00000000000E+00 0.  1.
         14    1    3    3    0    0 -0.25044448693E+02 -0.83727460611E+01 -0.11330915828E+03  0.11634557420E+03  0.00000000000E+00 0. -1.
         11    1    5    5    0    0 -0.30309136764E+02  0.21420115021E+01  0.25181224558E+03  0.25363879634E+03  0.00000000000E+00 0. -1.
        -12    1    5    5    0    0 -0.21556026290E+02 -0.25715594480E+02  0.32754481079E+02  0.46891471502E+02  0.00000000000E+00 0.  1.
          5    1    4    4  501    0 -0.44102439770E+02  0.22223586797E+02 -0.96056341618E+01  0.50484191698E+02  0.41800000000E+01 0. -1.
         -5    1    4    4    0  501  0.68325231772E+02  0.40170453171E+02 -0.10658833649E+03  0.13289299636E+03  0.41800000000E+01 0. -1.
</event>
<event>
11    1  0.7577197E-009  0.1368582E+03  0.7561462E-02  0.1111118E+00
         22   -1    0    0    0    0  0.00000000000E+00  0.00000000000E+00  0.13480708806E+04  0.13480708806E+04  0.00000000000E+00 0. -1.
         22   -1    0    0    0    0 -0.00000000000E+00 -0.00000000000E+00 -0.58353676004E+03  0.58353676004E+03  0.00000000000E+00 0. -1.
        -24    2    1    2    0    0 -0.46317994016E+02 -0.29668304032E+02 -0.53214844457E+03  0.54112941923E+03  0.81323529550E+02 0.  0.
         25    2    1    2    0    0  0.40514332699E+02  0.64942209024E+02  0.73304905461E+02  0.16394719160E+03  0.12508465454E+03 0.  0.
         24    2    1    2    0    0  0.58036613172E+01 -0.35273904992E+02  0.12233776597E+04  0.12265310298E+04  0.80296563341E+02 0.  0.
        -13    1    5    5    0    0  0.35667891886E+02  0.97759484766E+00  0.33087715306E+03  0.33279549970E+03  0.00000000000E+00 0.  1.
         14    1    5    5    0    0 -0.29864230569E+02 -0.36251499840E+02  0.89250050662E+03  0.89373553014E+03  0.00000000000E+00 0. -1.
         13    1    3    3    0    0 -0.66145949053E+02 -0.21774461839E+02 -0.29881986275E+03  0.30682686346E+03  0.00000000000E+00 0. -1.
        -14    1    3    3    0    0  0.19827955037E+02 -0.78938421927E+01 -0.23332858182E+03  0.23430255577E+03  0.00000000000E+00 0.  1.
          5    1    4    4  501    0  0.49823797332E+02  0.54854366865E+02  0.10533031770E+03  0.12885402815E+03  0.41800000000E+01 0.  1.
         -5    1    4    4    0  501 -0.93094646332E+01  0.10087842159E+02 -0.32025412240E+02  0.35093163441E+02  0.41800000000E+01 0.  1.
</event>
<event>
11    1  0.7577197E-009  0.1329125E+03  0.7561462E-02  0.1115741E+00
         22   -1    0    0    0    0  0.00000000000E+00  0.00000000000E+00  0.93515476675E+02  0.93515476675E+02  0.00000000000E+00 0.  1.
         22   -1    0    0    0    0 -0.00000000000E+00 -0.00000000000E+00 -0.12560452599E+04  0.12560452599E+04  0.00000000000E+00 0. -1.
        -24    2    1    2    0    0  0.25445309820E+02  0.31954517261E+02 -0.89118549502E+03  0.89565085310E+03  0.79437454415E+02 0.  0.
         25    2    1    2    0    0 -0.31852985813E+02 -0.68352280877E+02 -0.32137258637E+03  0.35300878668E+03  0.12509283430E+03 0.  0.
         24    2    1    2    0    0  0.64076759927E+01  0.36397763616E+02  0.50028298202E+02  0.10090109676E+03  0.79450268713E+02 0.  0.
        -13    1    5    5    0    0  0.42550538983E+01  0.36940706257E+02  0.70821329334E+02  0.79989886555E+02  0.00000000000E+00 0.  1.
         14    1    5    5    0    0  0.21526220944E+01 -0.54294264110E+00 -0.20793031132E+02  0.20911210205E+02  0.00000000000E+00 0. -1.
         11    1    3    3    0    0 -0.64370786269E+00  0.53196855912E+02 -0.43818747950E+03  0.44140524128E+03  0.00000000000E+00 0. -1.
        -12    1    3    3    0    0  0.26089017683E+02 -0.21242338651E+02 -0.45299801552E+03  0.45424561182E+03  0.00000000000E+00 0.  1.
          5    1    4    4  501    0  0.11057075136E+02 -0.93763552323E+02 -0.18494579162E+03  0.20769275600E+03  0.41800000000E+01 0. -1.
         -5    1    4    4    0  501 -0.42910060949E+02  0.25411271446E+02 -0.13642679475E+03  0.14531603068E+03  0.41800000000E+01 0. -1.
</event>
<event>
11    1  0.7577197E-009  0.1583810E+03  0.7561462E-02  0.1088610E+00
         22   -1    0    0    0    0  0.00000000000E+00  0.00000000000E+00  0.12418187169E+03  0.12418187169E+03  0.00000000000E+00 0. -1.
         22   -1    0    0    0    0 -0.00000000000E+00 -0.00000000000E+00 -0.20854136980E+04  0.20854136980E+04  0.00000000000E+00 0. -1.
         24    2    1    2    0    0  0.90177057858E+02 -0.25446983352E+02 -0.17908483283E+04  0.17950677107E+04  0.79692536115E+02 0.  0.
         25    2    1    2    0    0 -0.16575017891E+03  0.70323747151E+02 -0.19013152148E+03  0.29020191044E+03  0.12509437293E+03 0.  0.
        -24    2    1    2    0    0  0.75573121053E+02 -0.44876763799E+02  0.19748023446E+02  0.12432594858E+03  0.85683933762E+02 0.  0.
        -11    1    3    3    0    0 -0.12512849730E+02 -0.15150695442E+02 -0.25531288584E+03  0.25606792977E+03  0.00000000000E+00 0.  1.
         12    1    3    3    0    0  0.10268990759E+03 -0.10296287911E+02 -0.15355354424E+04  0.15389997809E+04  0.00000000000E+00 0. -1.
         13    1    5    5    0    0  0.79874710090E+02 -0.31269821276E+01  0.19814507815E+02  0.82355097287E+02  0.00000000000E+00 0. -1.
        -14    1    5    5    0    0 -0.43015890372E+01 -0.41749781671E+02 -0.66484368715E-01  0.41970851290E+02  0.00000000000E+00 0.  1.
          5    1    4    4  501    0 -0.55499052102E+02 -0.19081258823E+02 -0.81929834228E+01  0.59404011648E+02  0.41800000000E+01 0. -1.
         -5    1    4    4    0  501 -0.11025112681E+03  0.89405005975E+02 -0.18193853806E+03  0.23079789879E+03  0.41800000000E+01 0. -1.
</event>
<event>
11    1  0.7577197E-009  0.1264093E+03  0.7561462E-02  0.1123761E+00
         22   -1    0    0    0    0  0.00000000000E+00  0.00000000000E+00  0.92345315962E+02  0.92345315962E+02  0.00000000000E+00 0. -1.
         22   -1    0    0    0    0 -0.00000000000E+00 -0.00000000000E+00 -0.43539393696E+03  0.43539393696E+03  0.00000000000E+00 0. -1.
         24    2    1    2    0    0 -0.74777518122E+01 -0.23299038918E+02 -0.22483418880E+03  0.24083289539E+03  0.82772634739E+02 0.  0.
         25    2    1    2    0    0  0.33203862974E+02 -0.23312935550E+02 -0.15014849443E+03  0.19959620568E+03  0.12509230776E+03 0.  0.
        -24    2    1    2    0    0 -0.25726111162E+02  0.46611974468E+02  0.31934062227E+02  0.87310151860E+02  0.61390303210E+02 0.  0.
        -13    1    3    3    0    0  0.53183894171E+01  0.30382234989E+02 -0.90187368347E+02  0.95315931923E+02  0.00000000000E+00 0.  1.
         14    1    3    3    0    0 -0.12796141229E+02 -0.53681273906E+02 -0.13464682045E+03  0.14551696347E+03  0.00000000000E+00 0. -1.
         13    1    5    5    0    0 -0.35048729505E+02  0.74375980732E+01  0.30439942867E+02  0.47014055630E+02  0.00000000000E+00 0. -1.
        -14    1    5    5    0    0  0.93226183436E+01  0.39174376395E+02  0.14941193598E+01  0.40296096230E+02  0.00000000000E+00 0.  1.
          5    1    4    4  501    0  0.59832079642E+02  0.13059449889E+02 -0.24589751088E+02  0.66125299578E+02  0.41800000000E+01 0.  1.
         -5    1    4    4    0  501 -0.26628216668E+02 -0.36372385440E+02 -0.12555874334E+03  0.13347090610E+03  0.41800000000E+01 0.  1.
</event>
<event>
11    1  0.7577197E-009  0.1452501E+03  0.7561462E-02  0.1101833E+00
         22   -1    0    0    0    0  0.00000000000E+00  0.00000000000E+00  0.16656235292E+04  0.16656235292E+04  0.00000000000E+00 0. -1.
         22   -1    0    0    0    0 -0.00000000000E+00 -0.00000000000E+00 -0.20309110135E+03  0.20309110135E+03  0.00000000000E+00 0.  1.
        -24    2    1    2    0    0  0.32148879022E+02  0.65578192086E+02 -0.17611214686E+03  0.20734584444E+03  0.81503136361E+02 0.  0.
         25    2    1    2    0    0 -0.61229491637E+02 -0.97634286129E+02  0.79956657821E+03  0.81745701813E+03  0.12509100300E+03 0.  0.
         24    2    1    2    0    0  0.29080612615E+02  0.32056094043E+02  0.83907799652E+03  0.84391176799E+03  0.79132248307E+02 0.  0.
        -13    1    5    5    0    0  0.10289361732E+01 -0.10230176037E+02  0.14508685253E+02  0.17782495865E+02  0.00000000000E+00 0.  1.
         14    1    5    5    0    0  0.28051676442E+02  0.42286270080E+02  0.82456931126E+03  0.82612927213E+03  0.00000000000E+00 0. -1.
         13    1    3    3    0    0 -0.16750135947E+02 -0.99197552846E+01 -0.32916768000E+02  0.38242413819E+02  0.00000000000E+00 0. -1.
        -14    1    3    3    0    0  0.48899014969E+02  0.75497947371E+02 -0.14319537885E+03  0.16910343062E+03  0.00000000000E+00 0.  1.
          5    1    4    4  501    0  0.55798117374E+01 -0.69418582860E+02  0.17067964192E+03  0.18438841209E+03  0.41800000000E+01 0. -1.
         -5    1    4    4    0  501 -0.66809303374E+02 -0.28215703269E+02  0.62888693629E+03  0.63306860605E+03  0.41800000000E+01 0. -1.
</event>
<event>
11    1  0.7577197E-009  0.1597252E+03  0.7561462E-02  0.1087336E+00
         22   -1    0    0    0    0  0.00000000000E+00  0.00000000000E+00  0.66864135400E+03  0.66864135400E+03  0.00000000000E+00 0. -1.
         22   -1    0    0    0    0 -0.00000000000E+00 -0.00000000000E+00 -0.93883003458E+03  0.93883003458E+03  0.00000000000E+00 0. -1.
        -24    2    1    2    0    0  0.94230293937E+02  0.40964822323E+01 -0.77566840500E+03  0.78530528926E+03  0.78401488205E+02 0.  0.
         25    2    1    2    0    0 -0.18418248046E+03 -0.25159964319E+02 -0.69275084325E+02  0.23452440642E+03  0.12508577053E+03 0.  0.
         24    2    1    2    0    0  0.89952186521E+02  0.21063482087E+02  0.57475480874E+03  0.58764169290E+03  0.80278284237E+02 0.  0.
        -13    1    5    5    0    0 -0.21371789017E+01 -0.21890666661E+01  0.23062397127E+03  0.23064426217E+03  0.00000000000E+00 0.  1.
         14    1    5    5    0    0  0.92089365423E+02  0.23252548753E+02  0.34413083747E+03  0.35699743073E+03  0.00000000000E+00 0. -1.
         11    1    3    3    0    0  0.10800078948E+03  0.52926375850E+01 -0.71107672562E+03  0.71925120247E+03  0.00000000000E+00 0. -1.
        -12    1    3    3    0    0 -0.13770495546E+02 -0.11961553526E+01 -0.64591679385E+02  0.66054086785E+02  0.00000000000E+00 0.  1.
          5    1    4    4  501    0 -0.85847303270E+02 -0.21518932390E+02 -0.97818811013E+02  0.13198036262E+03  0.41800000000E+01 0.  1.
         -5    1    4    4    0  501 -0.98335177188E+02 -0.36410319286E+01  0.28543726688E+02  0.10254404380E+03  0.41800000000E+01 0.  1.
</event>
<event>
11    1  0.7577197E-009  0.1635577E+03  0.7561462E-02  0.1083778E+00
         22   -1    0    0    0    0  0.00000000000E+00  0.00000000000E+00  0.10549057973E+04  0.10549057973E+04  0.00000000000E+00 0. -1.
         22   -1    0    0    0    0 -0.00000000000E+00 -0.00000000000E+00 -0.26028085787E+03  0.26028085787E+03  0.00000000000E+00 0.  1.
        -24    2    1    2    0    0  0.29461115332E+02 -0.20991693878E+02 -0.19649260962E+03  0.21515968942E+03  0.79848217178E+02 0.  0.
         25    2    1    2    0    0  0.13137225949E+02 -0.78427814165E+02  0.61422616003E+02  0.16045004460E+03  0.12509184752E+03 0.  0.
         24    2    1    2    0    0 -0.42598341281E+02  0.99419508044E+02  0.92969493307E+03  0.93957692117E+03  0.82299847907E+02 0.  0.
        -11    1    5    5    0    0 -0.34875942848E+02  0.72973877462E+02  0.34982885890E+03  0.35905674858E+03  0.00000000000E+00 0.  1.
         12    1    5    5    0    0 -0.77223984323E+01  0.26445630582E+02  0.57986607417E+03  0.58052017259E+03  0.00000000000E+00 0. -1.
         13    1    3    3    0    0  0.30680361384E+02 -0.42427651357E+01 -0.17886998595E+02  0.35766329828E+02  0.00000000000E+00 0. -1.
        -14    1    3    3    0    0 -0.12192460522E+01 -0.16748928743E+02 -0.17860561103E+03  0.17939335959E+03  0.00000000000E+00 0.  1.
          5    1    4    4  501    0 -0.13163603603E+02 -0.59734608813E+02 -0.26430901183E+02  0.66765027427E+02  0.41800000000E+01 0.  1.
         -5    1    4    4    0  501  0.26300829552E+02 -0.18693205352E+02  0.87853517186E+02  0.93685017177E+02  0.41800000000E+01 0.  1.
</event>
<event>
11    1  0.7577197E-009  0.1522292E+03  0.7561462E-02  0.1094622E+00
         22   -1    0    0    0    0  0.00000000000E+00  0.00000000000E+00  0.23155485492E+03  0.23155485492E+03  0.00000000000E+00 0. -1.
         22   -1    0    0    0    0 -0.00000000000E+00 -0.00000000000E+00 -0.21015611560E+03  0.21015611560E+03  0.00000000000E+00 0. -1.
        -24    2    1    2    0    0 -0.53267056146E+02 -0.48856525898E+02 -0.49397227083E+02  0.11952222071E+03  0.81370361962E+02 0.  0.
         25    2    1    2    0    0  0.82203209852E+02 -0.38476449461E+02 -0.37538865287E+02  0.15904842236E+03  0.12509767934E+03 0.  0.
         24    2    1    2    0    0 -0.28936153706E+02  0.87332975359E+02  0.10833483169E+03  0.16314032745E+03  0.80087334248E+02 0.  0.
        -11    1    5    5    0    0  0.16990570253E+02  0.36597718390E+02  0.71378692090E+01  0.40975866626E+02  0.00000000000E+00 0.  1.
         12    1    5    5    0    0 -0.45926723959E+02  0.50735256969E+02  0.10119696248E+03  0.12216446082E+03  0.00000000000E+00 0. -1.
         13    1    3    3    0    0 -0.61073650355E+02 -0.62724231340E+02 -0.54118108361E+02  0.10292273615E+03  0.00000000000E+00 0. -1.
        -14    1    3    3    0    0  0.78065942094E+01  0.13867705442E+02  0.47208812778E+01  0.16599484552E+02  0.00000000000E+00 0.  1.
          5    1    4    4  501    0  0.63904728011E+02 -0.27856218537E+02 -0.83155128045E+02  0.10859111793E+03  0.41800000000E+01 0. -1.
         -5    1    4    4    0  501  0.18298481840E+02 -0.10620230924E+02  0.45616262758E+02  0.50457304432E+02  0.41800000000E+01 0. -1.
</event>
<event>
11    1  0.7577197E-009  0.2418482E+03  0.7561462E-02  0.1028334E+00
         22   -1    0    0    0    0  0.00000000000E+00  0.00000000000E+00  0.58579682804E+03  0.58579682804E+03  0.00000000000E+00 0. -1.
         22   -1    0    0    0    0 -0.00000000000E+00 -0.00000000000E+00 -0.21915276458E+03  0.21915276458E+03  0.00000000000E+00 0. -1.
         24    2    1    2    0    0 -0.20831732578E+03  0.15890447135E+02 -0.76213935224E+02  0.23691883642E+03  0.81690615097E+02 0.  0.
         25    2    1    2    0    0  0.19921794766E+03 -0.27898856983E+02  0.19933460659E+03  0.30959249612E+03  0.12508833432E+03 0.  0.
        -24    2    1    2    0    0  0.90993781286E+01  0.12008409848E+02  0.24352339210E+03  0.25843826008E+03  0.85203821415E+02 0.  0.
        -13    1    3    3    0    0 -0.39568307922E+02  0.30352923436E+02 -0.39500042427E+02  0.63617641458E+02  0.00000000000E+00 0.  1.
         14    1    3    3    0    0 -0.16874901786E+03 -0.14462476301E+02 -0.36713892797E+02  0.17330119496E+03  0.00000000000E+00 0. -1.
         11    1    5    5    0    0 -0.37254691316E+02  0.14367849613E+02  0.12101574905E+03  0.12743295745E+03  0.00000000000E+00 0. -1.
        -12    1    5    5    0    0  0.46354069445E+02 -0.23594397654E+01  0.12250764305E+03  0.13100530263E+03  0.00000000000E+00 0.  1.
          5    1    4    4  501    0  0.84993494166E+02 -0.64036935804E+02  0.13980269455E+03  0.17574666143E+03  0.41800000000E+01 0.  1.
         -5    1    4    4    0  501  0.11422445349E+03  0.36138078821E+02  0.59531912033E+02  0.13384583470E+03  0.41800000000E+01 0.  1.
</event>
<event>
11    1  0.7577197E-009  0.1349277E+03  0.7561462E-02  0.1113358E+00
         22   -1    0    0    0    0  0.00000000000E+00  0.00000000000E+00  0.35084556431E+03  0.35084556431E+03  0.00000000000E+00 0. -1.
         22   -1    0    0    0    0 -0.00000000000E+00 -0.00000000000E+00 -0.68613880469E+03  0.68613880469E+03  0.00000000000E+00 0.  1.
         24    2    1    2    0    0 -0.35778908421E+02 -0.35215046783E+02 -0.59526902833E+03  0.60294691798E+03  0.81728452826E+02 0.  0.
         25    2    1    2    0    0  0.56358808906E+02  0.22692686970E+02 -0.21157573507E+02  0.14066416272E+03  0.12508992914E+03 0.  0.
        -24    2    1    2    0    0 -0.20579900485E+02  0.12522359814E+02  0.28113336146E+03  0.29337328830E+03  0.80321712911E+02 0.  0.
        -13    1    3    3    0    0 -0.44319403371E+02 -0.48649845893E+02 -0.56431140492E+03  0.56813588053E+03  0.00000000000E+00 0.  1.
         14    1    3    3    0    0  0.85404949502E+01  0.13434799109E+02 -0.30957623413E+02  0.34811037452E+02  0.00000000000E+00 0. -1.
         11    1    5    5    0    0 -0.22955104596E+02  0.15920919673E+02  0.28578202282E+03  0.28714417472E+03  0.00000000000E+00 0. -1.
        -12    1    5    5    0    0  0.23752041104E+01 -0.33985598592E+01 -0.46486613543E+01  0.62291135862E+01  0.00000000000E+00 0.  1.
          5    1    4    4  501    0 -0.26198630784E+02  0.45738518613E+02 -0.30818675251E+01  0.52965560955E+02  0.41800000000E+01 0. -1.
         -5    1    4    4    0  501  0.82557439690E+02 -0.23045831644E+02 -0.18075705982E+02  0.87698601762E+02  0.41800000000E+01 0. -1.
</event>
<event>
11    1  0.7577197E-009  0.1871192E+03  0.7561462E-02  0.1064025E+00
         22   -1    0    0    0    0  0.00000000000E+00  0.00000000000E+00  0.36255195049E+03  0.36255195049E+03  0.00000000000E+00 0.  1.
         22   -1    0    0    0    0 -0.00000000000E+00 -0.00000000000E+00 -0.60795897632E+03  0.60795897632E+03  0.00000000000E+00 0. -1.
        -24    2    1    2    0    0  0.54239330873E+02 -0.13758475679E+03 -0.41910722925E+03  0.45085339969E+03  0.75805330227E+02 0.  0.
         25    2    1    2    0    0 -0.65509896024E+01  0.11893005452E+03 -0.12033128652E+03  0.21051069107E+03  0.12509140341E+03 0.  0.
         24    2    1    2    0    0 -0.47688341270E+02  0.18654702278E+02  0.29403148995E+03  0.30914683605E+03  0.80592017894E+02 0.  0.
        -11    1    5    5    0    0 -0.69591510054E+02  0.10761013878E+02  0.19237498548E+03  0.20485827474E+03  0.00000000000E+00 0.  1.
         12    1    5    5    0    0  0.21903168783E+02  0.78936884000E+01  0.10165650446E+03  0.10428856131E+03  0.00000000000E+00 0. -1.
         13    1    3    3    0    0  0.46628192446E+02 -0.14691589018E+03 -0.38764976946E+03  0.41717000237E+03  0.00000000000E+00 0. -1.
        -14    1    3    3    0    0  0.76111384266E+01  0.93311333907E+01 -0.31457459794E+02  0.33683397323E+02  0.00000000000E+00 0.  1.
          5    1    4    4  501    0 -0.15067503264E+02  0.89066277393E+01 -0.95684561653E+02  0.97362032698E+02  0.41800000000E+01 0. -1.
         -5    1    4    4    0  501  0.85165136613E+01  0.11002342678E+03 -0.24646724871E+02  0.11314865837E+03  0.41800000000E+01 0. -1.
</event>
<event>
11    1  0.7577197E-009  0.1327066E+03  0.7561462E-02  0.1115988E+00
         22   -1    0    0    0    0  0.00000000000E+00  0.00000000000E+00  0.48384964250E+03  0.48384964250E+03  0.00000000000E+00 0.  1.
         22   -1    0    0    0    0 -0.00000000000E+00 -0.00000000000E+00 -0.30145347119E+04  0.30145347119E+04  0.00000000000E+00 0. -1.
         24    2    1    2    0    0 -0.41307604670E+02 -0.66340636155E+01 -0.19547316718E+04  0.19566012446E+04  0.74580108159E+02 0.  0.
         25    2    1    2    0    0  0.21664840883E+02 -0.33167701311E+02 -0.10504201443E+04  0.10585848056E+04  0.12509935768E+03 0.  0.
        -24    2    1    2    0    0  0.19642763786E+02  0.39801764927E+02  0.47446674674E+03  0.48319830421E+03  0.79949288747E+02 0.  0.
        -13    1    3    3    0    0 -0.46048191835E+02 -0.43315513742E+01 -0.57427420649E+03  0.57613371933E+03  0.00000000000E+00 0.  1.
         14    1    3    3    0    0  0.47405871652E+01 -0.23025122412E+01 -0.13804574653E+04  0.13804675253E+04  0.00000000000E+00 0. -1.
         11    1    5    5    0    0  0.35517778391E+02 -0.72845520327E+00  0.98317470234E+02  0.10453883576E+03  0.00000000000E+00 0. -1.
        -12    1    5    5    0    0 -0.15875014605E+02  0.40530220130E+02  0.37614927651E+03  0.37865946845E+03  0.00000000000E+00 0.  1.
          5    1    4    4  501    0  0.14693662639E+02  0.45976110943E+02 -0.51685185594E+03  0.51911753957E+03  0.41800000000E+01 0. -1.
         -5    1    4    4    0  501  0.69711782449E+01 -0.79143812254E+02 -0.53356828835E+03  0.53946726599E+03  0.41800000000E+01 0. -1.
</event>
<event>
11    1  0.7577197E-009  0.1794071E+03  0.7561462E-02  0.1070123E+00
         22   -1    0    0    0    0  0.00000000000E+00  0.00000000000E+00  0.17636262481E+04  0.17636262481E+04  0.00000000000E+00 0.  1.
         22   -1    0    0    0    0 -0.00000000000E+00 -0.00000000000E+00 -0.15510492067E+03  0.15510492067E+03  0.00000000000E+00 0. -1.
        -24    2    1    2    0    0 -0.10735292541E+02 -0.73436982382E+02 -0.94849583061E+02  0.14482454430E+03  0.80433005283E+02 0.  0.
         25    2    1    2    0    0 -0.10989341368E+03  0.11292576913E+03  0.29178106894E+03  0.35441893117E+03  0.12509114628E+03 0.  0.
         24    2    1    2    0    0  0.12062870622E+03 -0.39488786743E+02  0.14115898416E+04  0.14194876933E+04  0.79049235409E+02 0.  0.
        -11    1    5    5    0    0  0.97410417522E+02 -0.63302536708E+02  0.11183875598E+04  0.11244050580E+04  0.00000000000E+00 0.  1.
         12    1    5    5    0    0  0.23218288697E+02  0.23813749965E+02  0.29320228176E+03  0.29508263529E+03  0.00000000000E+00 0. -1.
         13    1    3    3    0    0 -0.17986914698E+02 -0.12081208935E+02 -0.77759069827E+02  0.80721481961E+02  0.00000000000E+00 0. -1.
        -14    1    3    3    0    0  0.72516221570E+01 -0.61355773447E+02 -0.17090513234E+02  0.64103062344E+02  0.00000000000E+00 0.  1.
          5    1    4    4  501    0 -0.17855266461E+02  0.46237969505E+01  0.15819486764E+03  0.15932130612E+03  0.41800000000E+01 0. -1.
         -5    1    4    4    0  501 -0.92038147218E+02  0.10830197217E+03  0.13358620131E+03  0.19509762505E+03  0.41800000000E+01 0. -1.
</event>
<event>
11    1  0.7577197E-009  0.1349694E+03  0.7561462E-02  0.1113310E+00
         22   -1    0    0    0    0  0.00000000000E+00  0.00000000000E+00  0.20610361210E+03  0.20610361210E+03  0.00000000000E+00 0. -1.
         22   -1    0    0    0    0 -0.00000000000E+00 -0.00000000000E+00 -0.27103224351E+04  0.27103224351E+04  0.00000000000E+00 0.  1.
        -24    2    1    2    0    0 -0.48334657463E+02 -0.16487429319E+02 -0.25713887509E+04  0.25731250007E+04  0.79524124745E+02 0.  0.
         25    2    1    2    0    0  0.36627690493E+02  0.44846223611E+01 -0.93726723315E+02  0.16060367863E+03  0.12508854215E+03 0.  0.
         24    2    1    2    0    0  0.11706966969E+02  0.12002806957E+02  0.16089665130E+03  0.18269736780E+03  0.84908629417E+02 0.  0.
        -11    1    5    5    0    0  0.35472864547E+02  0.33296740779E+02  0.62181027516E+02  0.78952373293E+02  0.00000000000E+00 0.  1.
         12    1    5    5    0    0 -0.23765897577E+02 -0.21293933822E+02  0.98715623788E+02  0.10374499451E+03  0.00000000000E+00 0. -1.
         13    1    3    3    0    0 -0.77728775753E+01 -0.28974483194E+02 -0.33682953676E+03  0.33816279383E+03  0.00000000000E+00 0. -1.
        -14    1    3    3    0    0 -0.40561779887E+02  0.12487053875E+02 -0.22345592142E+04  0.22349622069E+04  0.00000000000E+00 0.  1.
          5    1    4    4  501    0  0.47499509269E+02 -0.42461113976E+02 -0.11021375882E+02  0.64792690229E+02  0.41800000000E+01 0.  1.
         -5    1    4    4    0  501 -0.10871818776E+02  0.46945736337E+02 -0.82705347433E+02  0.95810988397E+02  0.41800000000E+01 0.  1.
</event>
<event>
11    1  0.7577197E-009  0.1412843E+03  0.7561462E-02  0.1106133E+00
         22   -1    0    0    0    0  0.00000000000E+00  0.00000000000E+00  0.14022209121E+04  0.14022209121E+04  0.00000000000E+00 0. -1.
         22   -1    0    0    0    0 -0.00000000000E+00 -0.00000000000E+00 -0.11233277492E+04  0.11233277492E+04  0.00000000000E+00 0. -1.
         24    2    1    2    0    0 -0.51743457027E+02 -0.25491829991E+02 -0.10961265856E+04  0.11006086153E+04  0.80737932905E+02 0.  0.
         25    2    1    2    0    0  0.11041463213E+00  0.69254327744E+02  0.20392779825E+03  0.24905972374E+03  0.12509206606E+03 0.  0.
        -24    2    1    2    0    0  0.51633042395E+02 -0.43762497753E+02  0.11710919502E+04  0.11758803223E+04  0.81590741659E+02 0.  0.
        -13    1    3    3    0    0 -0.26640482945E+02 -0.35829978380E+01 -0.89950709202E+02  0.93881219054E+02  0.00000000000E+00 0.  1.
         14    1    3    3    0    0 -0.25102974082E+02 -0.21908832153E+02 -0.10061758764E+04  0.10067273963E+04  0.00000000000E+00 0. -1.
         11    1    5    5    0    0  0.43126818903E+02 -0.59257619325E+02  0.11061620948E+04  0.11085873749E+04  0.00000000000E+00 0. -1.
        -12    1    5    5    0    0  0.85062234921E+01  0.15495121572E+02  0.64929855442E+02  0.67292947316E+02  0.00000000000E+00 0.  1.
          5    1    4    4  501    0  0.24213976009E+02 -0.23839754873E+02  0.10746937105E+03  0.11279090682E+03  0.41800000000E+01 0.  1.
         -5    1    4    4    0  501 -0.24103561377E+02  0.93094082616E+02  0.96458427194E+02  0.13626881692E+03  0.41800000000E+01 0.  1.
</event>
<event>
11    1  0.7577197E-009  0.2231859E+03  0.7561462E-02  0.1039240E+00
         22   -1    0    0    0    0  0.00000000000E+00  0.00000000000E+00  0.17660620224E+04  0.17660620224E+04  0.00000000000E+00 0. -1.
         22   -1    0    0    0    0 -0.00000000000E+00 -0.00000000000E+00 -0.98208112575E+02  0.98208112575E+02  0.00000000000E+00 0. -1.
         24    2    1    2    0    0  0.78073131924E+02 -0.21733694256E+01 -0.19657048685E+02  0.11402925297E+03  0.80722571228E+02 0.  0.
         25    2    1    2    0    0 -0.79789201207E+02  0.18468179641E+03  0.61405730241E+03  0.65816974611E+03  0.12508941402E+03 0.  0.
        -24    2    1    2    0    0  0.17160692825E+01 -0.18250842699E+03  0.10734536561E+04  0.10920711359E+04  0.83691954515E+02 0.  0.
        -13    1    3    3    0    0 -0.16343062364E+02  0.61566015363E+01 -0.45784846454E+01  0.18054416401E+02  0.00000000000E+00 0.  1.
         14    1    3    3    0    0  0.94416194289E+02 -0.83299709619E+01 -0.15078564039E+02  0.95974836565E+02  0.00000000000E+00 0. -1.
         13    1    5    5    0    0 -0.30124997736E+02 -0.41780397488E+02  0.40225302463E+03  0.40553743715E+03  0.00000000000E+00 0. -1.
        -14    1    5    5    0    0  0.31841067018E+02 -0.14072802950E+03  0.67120063144E+03  0.68653369872E+03  0.00000000000E+00 0.  1.
          5    1    4    4  501    0 -0.59631143388E+02  0.16399162059E+03  0.33644654646E+03  0.37902885894E+03  0.41800000000E+01 0.  1.
         -5    1    4    4    0  501 -0.20158057819E+02  0.20690175816E+02  0.27761075595E+03  0.27914088717E+03  0.41800000000E+01 0.  1.
</event>
<event>
11    1  0.7577197E-009  0.2872308E+03  0.7561462E-02  0.1005745E+00
         22   -1    0    0    0    0  0.00000000000E+00  0.00000000000E+00  0.12616653103E+03  0.12616653103E+03  0.00000000000E+00 0. -1.
         22   -1    0    0    0    0 -0.00000000000E+00 -0.00000000000E+00 -0.12732743408E+04  0.12732743408E+04  0.00000000000E+00 0. -1.
         24    2    1    2    0    0 -0.24901737068E+03  0.93982703042E+02 -0.55830581058E+03  0.62364356308E+03  0.79896910287E+02 0.  0.
         25    2    1    2    0    0  0.26326488411E+03  0.75278828290E+02 -0.26266177653E+03  0.39952084060E+03  0.12510152688E+03 0.  0.
        -24    2    1    2    0    0 -0.14247513429E+02 -0.16926153133E+03 -0.32614022270E+03  0.37627646819E+03  0.79775171747E+02 0.  0.
        -11    1    3    3    0    0 -0.11600747036E+03  0.60977719493E+02 -0.19131407643E+03  0.23189888161E+03  0.00000000000E+00 0.  1.
         12    1    3    3    0    0 -0.13300990032E+03  0.33004983549E+02 -0.36699173416E+03  0.39174468147E+03  0.00000000000E+00 0. -1.
         11    1    5    5    0    0  0.32230055509E+02 -0.58529174050E+02 -0.13311052121E+03  0.14893908671E+03  0.00000000000E+00 0. -1.
        -12    1    5    5    0    0 -0.46477568938E+02 -0.11073235728E+03 -0.19302970149E+03  0.22733738149E+03  0.00000000000E+00 0.  1.
          5    1    4    4  501    0  0.26049903426E+03  0.97306756154E+02 -0.24768764931E+03  0.37241777034E+03  0.41800000000E+01 0. -1.
         -5    1    4    4    0  501  0.27658498455E+01 -0.22027927863E+02 -0.14974127224E+02  0.27103070259E+02  0.41800000000E+01 0. -1.
</event>
<event>
11    1  0.7577197E-009  0.1800640E+03  0.7561462E-02  0.1069591E+00
         22   -1    0    0    0    0  0.00000000000E+00  0.00000000000E+00  0.76259787305E+03  0.76259787305E+03  0.00000000000E+00 0. -1.
         22   -1    0    0    0    0 -0.00000000000E+00 -0.00000000000E+00 -0.50763175406E+03  0.50763175406E+03  0.00000000000E+00 0.  1.
         24    2    1    2    0    0 -0.40536563150E+02 -0.12352392175E+03 -0.42642260258E+03  0.45267232912E+03  0.78578809850E+02 0.  0.
         25    2    1    2    0    0 -0.22176759043E+02  0.13710985101E+03  0.73137954010E+02  0.20070223594E+03  0.12506521222E+03 0.  0.
        -24    2    1    2    0    0  0.62713322194E+02 -0.13585929261E+02  0.60825076756E+03  0.61685506206E+03  0.80147570775E+02 0.  0.
        -13    1    3    3    0    0 -0.18212965738E+02 -0.12289604056E+03 -0.30711479739E+03  0.33129239002E+03  0.00000000000E+00 0.  1.
         14    1    3    3    0    0 -0.22323597413E+02 -0.62788119049E+00 -0.11930780519E+03  0.12137993910E+03  0.00000000000E+00 0. -1.
         11    1    5    5    0    0  0.33301795654E+02 -0.32091987583E+02  0.51933603919E+03  0.52139124164E+03  0.00000000000E+00 0. -1.
        -12    1    5    5    0    0  0.29411526540E+02  0.18506058322E+02  0.88914728368E+02  0.95463820417E+02  0.00000000000E+00 0.  1.
          5    1    4    4  501    0  0.31061158649E+02  0.12432535242E+03  0.32160151797E+02  0.13218674894E+03  0.41800000000E+01 0.  1.
         -5    1    4    4    0  501 -0.53237917692E+02  0.12784498589E+02  0.40977802213E+02  0.68515486998E+02  0.41800000000E+01 0.  1.
</event>
<event>
11    1  0.7577197E-009  0.1316466E+03  0.7561462E-02  0.1117262E+00
         22   -1    0    0    0    0  0.00000000000E+00  0.00000000000E+00  0.12784502947E+03  0.12784502947E+03  0.00000000000E+00 0.  1.
         22   -1    0    0    0    0 -0.00000000000E+00 -0.00000000000E+00 -0.72828729467E+03  0.72828729467E+03  0.00000000000E+00 0. -1.
        -24    2    1    2    0    0 -0.14692198922E+02 -0.16641854537E+02 -0.56888983081E+03  0.57499856824E+03  0.80590953935E+02 0.  0.
         25    2    1    2    0    0 -0.54207822497E+01  0.51046295482E+02 -0.98195310100E+02  0.16710710049E+03  0.12508938782E+03 0.  0.
         24    2    1    2    0    0  0.20112981172E+02 -0.34404440945E+02  0.66642875710E+02  0.11402665541E+03  0.83502141841E+02 0.  0.
        -13    1    5    5    0    0  0.38064285101E+02 -0.53488136395E+02  0.53643413016E+02  0.84779043963E+02  0.00000000000E+00 0.  1.
         14    1    5    5    0    0 -0.17951303929E+02  0.19083695451E+02  0.12999462694E+02  0.29247611443E+02  0.00000000000E+00 0. -1.
         13    1    3    3    0    0  0.17948393563E+01 -0.41176096611E+01 -0.53673913888E+03  0.53675793367E+03  0.00000000000E+00 0. -1.
        -14    1    3    3    0    0 -0.16487038279E+02 -0.12524244876E+02 -0.32150691929E+02  0.38240634571E+02  0.00000000000E+00 0.  1.
          5    1    4    4  501    0  0.22196656440E+02  0.10328630309E+02 -0.11288982372E+03  0.11558960533E+03  0.41800000000E+01 0.  1.
         -5    1    4    4    0  501 -0.27617438690E+02  0.40717665172E+02  0.14694513620E+02  0.51517495159E+02  0.41800000000E+01 0.  1.
</event>
<event>
11    1  0.7577197E-009  0.1383538E+03  0.7561462E-02  0.1109411E+00
         22   -1    0    0    0    0  0.00000000000E+00  0.00000000000E+00  0.56358055853E+03  0.56358055853E+03  0.00000000000E+00 0.  1.
         22   -1    0    0    0    0 -0.00000000000E+00 -0.00000000000E+00 -0.65761955028E+03  0.65761955028E+03  0.00000000000E+00 0. -1.
        -24    2    1    2    0    0 -0.28945777186E+02  0.20336678093E+02 -0.54726550617E+03  0.55538055241E+03  0.87730184427E+02 0.  0.
         25    2    1    2    0    0 -0.27650270731E+02 -0.40271310269E+02 -0.57213399731E+02  0.14597130078E+03  0.12509169293E+03 0.  0.
         24    2    1    2    0    0  0.56596047917E+02  0.19934632176E+02  0.51043991415E+03  0.51984825563E+03  0.78056394515E+02 0.  0.
        -13    1    5    5    0    0  0.67633372600E+02  0.88273521766E+01  0.48639567420E+03  0.49115470793E+03  0.00000000000E+00 0.  1.
         14    1    5    5    0    0 -0.11037324684E+02  0.11107280000E+02  0.24044239947E+02  0.28693547704E+02  0.00000000000E+00 0. -1.
         11    1    3    3    0    0 -0.46267645968E+02  0.26210589381E+02 -0.51897529468E+03  0.52169248274E+03  0.00000000000E+00 0. -1.
        -12    1    3    3    0    0  0.17321868782E+02 -0.58739112882E+01 -0.28290211484E+02  0.33688069664E+02  0.00000000000E+00 0.  1.
          5    1    4    4  501    0 -0.38437951303E+02  0.77071456753E+01  0.27403228541E+02  0.48013389063E+02  0.41800000000E+01 0. -1.
         -5    1    4    4    0  501  0.10787680573E+02 -0.47978455945E+02 -0.84616628272E+02  0.97957911713E+02  0.41800000000E+01 0. -1.
</event>
<event>
11    1  0.7577197E-009  0.1874577E+03  0.7561462E-02  0.1063765E+00
         22   -1    0    0    0    0  0.00000000000E+00  0.00000000000E+00  0.13058167191E+04  0.13058167191E+04  0.00000000000E+00 0.  1.
         22   -1    0    0    0    0 -0.00000000000E+00 -0.00000000000E+00 -0.22175885991E+03  0.22175885991E+03  0.00000000000E+00 0. -1.
        -24    2    1    2    0    0  0.89521945637E+01 -0.46703059596E+02 -0.17694045413E+03  0.20004638767E+03  0.80307629441E+02 0.  0.
         25    2    1    2    0    0  0.72607515919E+02  0.15184747939E+03  0.38782640504E+03  0.44089378512E+03  0.12509396845E+03 0.  0.
         24    2    1    2    0    0 -0.81559710483E+02 -0.10514441979E+03  0.87317190828E+03  0.88663540622E+03  0.77368125021E+02 0.  0.
        -13    1    5    5    0    0 -0.89584782908E+02 -0.73175031001E+02  0.76031343893E+03  0.76906211967E+03  0.00000000000E+00 0.  1.
         14    1    5    5    0    0  0.80250724246E+01 -0.31969388789E+02  0.11285846935E+03  0.11757328655E+03  0.00000000000E+00 0. -1.
         13    1    3    3    0    0  0.10143990131E+02 -0.53197453625E+02 -0.52484700734E+02  0.75415604613E+02  0.00000000000E+00 0. -1.
        -14    1    3    3    0    0 -0.11917955670E+01  0.64943940293E+01 -0.12445575340E+03  0.12463078305E+03  0.00000000000E+00 0.  1.
          5    1    4    4  501    0  0.41538801621E+02  0.21763174304E+02  0.22628715685E+03  0.23113298672E+03  0.41800000000E+01 0. -1.
         -5    1    4    4    0  501  0.31068714298E+02  0.13008430508E+03  0.16153924819E+03  0.20976079840E+03  0.41800000000E+01 0. -1.
</event>
<event>
11    1  0.7577197E-009  0.1317122E+03  0.7561462E-02  0.1117183E+00
         22   -1    0    0    0    0  0.00000000000E+00  0.00000000000E+00  0.44102607488E+03  0.44102607488E+03  0.00000000000E+00 0.  1.
         22   -1    0    0    0    0 -0.00000000000E+00 -0.00000000000E+00 -0.29715695906E+03  0.29715695906E+03  0.00000000000E+00 0.  1.
         24    2    1    2    0    0 -0.26181369607E+02 -0.30586169430E+02 -0.25872060976E+03  0.27377323840E+03  0.79965331730E+02 0.  0.
         25    2    1    2    0    0  0.44926874722E+02  0.57541103969E+02  0.23711123366E+03  0.27785371012E+03  0.12510613247E+03 0.  0.
        -24    2    1    2    0    0 -0.18745505116E+02 -0.26954934539E+02  0.16547849192E+03  0.18655608542E+03  0.79637172604E+02 0.  0.
        -11    1    3    3    0    0 -0.50751238080E+02 -0.24448174790E+02 -0.22287511185E+03  0.22988413799E+03  0.00000000000E+00 0.  1.
         12    1    3    3    0    0  0.24569868473E+02 -0.61379946397E+01 -0.35845497904E+02  0.43889100412E+02  0.00000000000E+00 0. -1.
         13    1    5    5    0    0 -0.13512847071E+02 -0.47568509993E+01 -0.45298828651E+01  0.15024796377E+02  0.00000000000E+00 0. -1.
        -14    1    5    5    0    0 -0.52326580446E+01 -0.22198083540E+02  0.17000837478E+03  0.17153128904E+03  0.00000000000E+00 0.  1.
          5    1    4    4  501    0  0.86454665771E+02  0.25661949409E+02  0.12654608492E+03  0.15544879829E+03  0.41800000000E+01 0.  1.
         -5    1    4    4    0  501 -0.41527791048E+02  0.31879154560E+02  0.11056514874E+03  0.12240491183E+03  0.41800000000E+01 0.  1.
</event>
<event>
11    1  0.7577197E-009  0.1408836E+03  0.7561462E-02  0.1106576E+00
         22   -1    0    0    0    0  0.00000000000E+00  0.00000000000E+00  0.54850490191E+03  0.54850490191E+03  0.00000000000E+00 0.  1.
         22   -1    0    0    0    0 -0.00000000000E+00 -0.00000000000E+00 -0.33440083261E+03  0.33440083261E+03  0.00000000000E+00 0. -1.
         24    2    1    2    0    0 -0.29589188842E+02 -0.31502357075E+02 -0.28715483418E+03  0.29941864280E+03  0.72977436683E+02 0.  0.
         25    2    1    2    0    0  0.47251900416E+02 -0.34509918099E+02  0.10516938868E+03  0.17358887226E+03  0.12509524258E+03 0.  0.
        -24    2    1    2    0    0 -0.17662711574E+02  0.66012275175E+02  0.39608951479E+03  0.40989821946E+03  0.80374465684E+02 0.  0.
        -11    1    3    3    0    0 -0.45309939621E+02  0.75953219286E+00 -0.11590966284E+03  0.12445327419E+03  0.00000000000E+00 0.  1.
         12    1    3    3    0    0  0.15720750779E+02 -0.32261889268E+02 -0.17124517134E+03  0.17496536861E+03  0.00000000000E+00 0. -1.
         11    1    5    5    0    0  0.15525479989E+02  0.10345867142E+02  0.16782707859E+02  0.25094556758E+02  0.00000000000E+00 0. -1.
        -12    1    5    5    0    0 -0.33188191563E+02  0.55666408032E+02  0.37930680694E+03  0.38480366270E+03  0.00000000000E+00 0.  1.
          5    1    4    4  501    0 -0.19504871546E+02 -0.30139781975E+02  0.10003303772E+03  0.10636224663E+03  0.41800000000E+01 0. -1.
         -5    1    4    4    0  501  0.66756771961E+02 -0.43701361243E+01  0.51363509622E+01  0.67226625630E+02  0.41800000000E+01 0. -1.
</event>
<event>
11    1  0.7577197E-009  0.1435609E+03  0.7561462E-02  0.1103646E+00
         22   -1    0    0    0    0  0.00000000000E+00  0.00000000000E+00  0.15096161023E+04  0.15096161023E+04  0.00000000000E+00 0.  1.
         22   -1    0    0    0    0 -0.00000000000E+00 -0.00000000000E+00 -0.11416933338E+03  0.11416933338E+03  0.00000000000E+00 0. -1.
        -24    2    1    2    0    0  0.74146593118E+02  0.96480555542E+01 -0.59870392860E+02  0.12507475665E+03  0.80426541406E+02 0.  0.
         25    2    1    2    0    0  0.43816873514E+01 -0.16964281832E+02  0.18876637301E+03  0.22712937322E+03  0.12509205632E+03 0.  0.
         24    2    1    2    0    0 -0.78528280469E+02  0.73162262777E+01  0.12665507888E+04  0.12715813058E+04  0.80919087693E+02 0.  0.
        -11    1    5    5    0    0 -0.46130471427E+02  0.42869893280E+02  0.83092195869E+03  0.83330495593E+03  0.00000000000E+00 0.  1.
         12    1    5    5    0    0 -0.32397809042E+02 -0.35553667003E+02  0.43562883006E+03  0.43827634986E+03  0.00000000000E+00 0. -1.
         13    1    3    3    0    0  0.68516826900E+02  0.39665794561E+02 -0.40749067114E+02  0.89041660458E+02  0.00000000000E+00 0. -1.
        -14    1    3    3    0    0  0.56297662181E+01 -0.30017739007E+02 -0.19121325746E+02  0.36033096190E+02  0.00000000000E+00 0.  1.
          5    1    4    4  501    0 -0.45758088601E+02 -0.47377234371E+02  0.11725612321E+03  0.13455436016E+03  0.41800000000E+01 0.  1.
         -5    1    4    4    0  501  0.50139775952E+02  0.30412952539E+02  0.71510249809E+02  0.92575013057E+02  0.41800000000E+01 0.  1.
</event>
<event>
11    1  0.7577197E-009  0.1707695E+03  0.7561462E-02  0.1077364E+00
         22   -1    0    0    0    0  0.00000000000E+00  0.00000000000E+00  0.69241801269E+03  0.69241801269E+03  0.00000000000E+00 0.  1.
         22   -1    0    0    0    0 -0.00000000000E+00 -0.00000000000E+00 -0.15421121439E+04  0.15421121439E+04  0.00000000000E+00 0. -1.
        -24    2    1    2    0    0 -0.22953542885E+02  0.80361535275E+01 -0.14800558894E+04  0.14824854276E+04  0.81278302435E+02 0.  0.
         25    2    1    2    0    0  0.68738284575E+02  0.98466558268E+02  0.94975977154E+02  0.19770967398E+03  0.12509222233E+03 0.  0.
         24    2    1    2    0    0 -0.45784741690E+02 -0.10650271180E+03  0.53538578104E+03  0.55433505498E+03  0.84913770648E+02 0.  0.
        -11    1    5    5    0    0 -0.44069593055E+02 -0.11632853356E+03  0.52643697272E+03  0.54093469384E+03  0.00000000000E+00 0.  1.
         12    1    5    5    0    0 -0.17151486343E+01  0.98258217689E+01  0.89488083211E+01  0.13400361138E+02  0.00000000000E+00 0. -1.
         13    1    3    3    0    0 -0.47228803977E+02  0.26285197279E+02 -0.10161776847E+04  0.10176141500E+04  0.00000000000E+00 0. -1.
        -14    1    3    3    0    0  0.24275261092E+02 -0.18249043751E+02 -0.46387820475E+03  0.46487127761E+03  0.00000000000E+00 0.  1.
          5    1    4    4  501    0  0.95282851573E+02  0.95193722966E+02  0.10284974872E+03  0.16951757994E+03  0.41800000000E+01 0.  1.
         -5    1    4    4    0  501 -0.26544566998E+02  0.32728353017E+01 -0.78737715669E+01  0.28192094047E+02  0.41800000000E+01 0.  1.
</event>
<event>
11    1  0.7577197E-009  0.1416117E+03  0.7561462E-02  0.1105772E+00
         22   -1    0    0    0    0  0.00000000000E+00  0.00000000000E+00  0.23739582507E+03  0.23739582507E+03  0.00000000000E+00 0.  1.
         22   -1    0    0    0    0 -0.00000000000E+00 -0.00000000000E+00 -0.28823460045E+03  0.28823460045E+03  0.00000000000E+00 0. -1.
        -24    2    1    2    0    0 -0.22950879372E+02 -0.70171997777E+01 -0.19417272121E+03  0.21299585172E+03  0.84191467696E+02 0.  0.
         25    2    1    2    0    0  0.75899790270E+02  0.38159672433E+02  0.18974902822E+02  0.15239353806E+03  0.12508718856E+03 0.  0.
         24    2    1    2    0    0 -0.52948910897E+02 -0.31142472655E+02  0.12435904301E+03  0.16024103574E+03  0.80240745184E+02 0.  0.
        -13    1    5    5    0    0 -0.47864328104E+02 -0.41738728556E+02  0.13181969038E+03  0.14632001278E+03  0.00000000000E+00 0.  1.
         14    1    5    5    0    0 -0.50845827931E+01  0.10596255901E+02 -0.74606473666E+01  0.13921022966E+02  0.00000000000E+00 0. -1.
         11    1    3    3    0    0 -0.17105756332E+02  0.34807551442E+02 -0.53218973578E+02  0.65851588331E+02  0.00000000000E+00 0. -1.
        -12    1    3    3    0    0 -0.58451230406E+01 -0.41824751219E+02 -0.14095374763E+03  0.14714426339E+03  0.00000000000E+00 0.  1.
          5    1    4    4  501    0 -0.71618503310E+01  0.40690383971E+02  0.48733502534E+02  0.64026760945E+02  0.41800000000E+01 0.  1.
         -5    1    4    4    0  501  0.83061640600E+02 -0.25307115378E+01 -0.29758599712E+02  0.88366777111E+02  0.41800000000E+01 0.  1.
</event>
<event>
11    1  0.7577197E-009  0.1559095E+03  0.7561462E-02  0.1090989E+00
         22   -1    0    0    0    0  0.00000000000E+00  0.00000000000E+00  0.10801247609E+04  0.10801247609E+04  0.00000000000E+00 0.  1.
         22   -1    0    0    0    0 -0.00000000000E+00 -0.00000000000E+00 -0.45358207463E+03  0.45358207463E+03  0.00000000000E+00 0.  1.
         24    2    1    2    0    0 -0.69132382724E+02  0.23304613225E+02 -0.33603692625E+03  0.35324011046E+03  0.80841625974E+02 0.  0.
         25    2    1    2    0    0  0.15846312977E+03 -0.67601123438E+01 -0.81625968193E+01  0.20215953118E+03  0.12508231468E+03 0.  0.
        -24    2    1    2    0    0 -0.89330747046E+02 -0.16544500882E+02  0.97074220933E+03  0.97830719389E+03  0.80565661096E+02 0.  0.
        -11    1    3    3    0    0 -0.30578148868E+02 -0.17530899000E+02 -0.23513501734E+03  0.23776213321E+03  0.00000000000E+00 0.  1.
         12    1    3    3    0    0 -0.38554233856E+02  0.40835512226E+02 -0.10090190892E+03  0.11547797725E+03  0.00000000000E+00 0. -1.
         13    1    5    5    0    0 -0.77031626716E+02 -0.44942725710E+02  0.77821990850E+03  0.78331344051E+03  0.00000000000E+00 0. -1.
        -14    1    5    5    0    0 -0.12299120330E+02  0.28398224828E+02  0.19252230084E+03  0.19499375337E+03  0.00000000000E+00 0.  1.
          5    1    4    4  501    0  0.15100497488E+03 -0.10791394648E+02 -0.49828925744E+02  0.15943447205E+03  0.41800000000E+01 0.  1.
         -5    1    4    4    0  501  0.74581548860E+01  0.40312823046E+01  0.41666328925E+02  0.42725059127E+02  0.41800000000E+01 0.  1.
</event>
<event>
11    1  0.7577197E-009  0.3731098E+03  0.7561462E-02  0.9732610E-01
         22   -1    0    0    0    0  0.00000000000E+00  0.00000000000E+00  0.14495533132E+03  0.14495533132E+03  0.00000000000E+00 0.  1.
         22   -1    0    0    0    0 -0.00000000000E+00 -0.00000000000E+00 -0.12101198799E+04  0.12101198799E+04  0.00000000000E+00 0. -1.
         24    2    1    2    0    0 -0.12155066930E+01  0.15629308427E+02 -0.22696178029E+03  0.23974679304E+03  0.75638100996E+02 0.  0.
         25    2    1    2    0    0  0.23331499692E+03  0.25572822029E+03 -0.41277006707E+03  0.55304459997E+03  0.12508553414E+03 0.  0.
        -24    2    1    2    0    0 -0.23209949023E+03 -0.27135752871E+03 -0.42543270120E+03  0.56228381818E+03  0.87550140937E+02 0.  0.
        -13    1    3    3    0    0  0.21835383597E+02 -0.47079158767E+01 -0.19157490286E+03  0.19287273487E+03  0.00000000000E+00 0.  1.
         14    1    3    3    0    0 -0.23050890290E+02  0.20337224303E+02 -0.35386877431E+02  0.46874058175E+02  0.00000000000E+00 0. -1.
         11    1    5    5    0    0 -0.18393591693E+03 -0.24990852398E+03 -0.32812966481E+03  0.45161462423E+03  0.00000000000E+00 0. -1.
        -12    1    5    5    0    0 -0.48163573301E+02 -0.21449004736E+02 -0.97303036390E+02  0.11066919394E+03  0.00000000000E+00 0.  1.
          5    1    4    4  501    0  0.22291118312E+03  0.21998934968E+03 -0.29803615919E+03  0.43235140120E+03  0.41800000000E+01 0.  1.
         -5    1    4    4    0  501  0.10403813804E+02  0.35738870611E+02 -0.11473390788E+03  0.12069319878E+03  0.41800000000E+01 0.  1.
</event>
<event>
11    1  0.7577197E-009  0.2503541E+03  0.7561462E-02  0.1023711E+00
         22   -1    0    0    0    0  0.00000000000E+00  0.00000000000E+00  0.38848181709E+03  0.38848181709E+03  0.00000000000E+00 0. -1.
         22   -1    0    0    0    0 -0.00000000000E+00 -0.00000000000E+00 -0.25525224578E+04  0.25525224578E+04  0.00000000000E+00 0. -1.
        -24    2    1    2    0    0  0.31304486422E+02  0.22195939832E+03 -0.23839855487E+04  0.23959622255E+04  0.83677618931E+02 0.  0.
         25    2    1    2    0    0 -0.10850281579E+03 -0.11501937001E+03 -0.72641687863E+02  0.21430918083E+03  0.12509713689E+03 0.  0.
         24    2    1    2    0    0  0.77198329372E+02 -0.10694002831E+03  0.29258659592E+03  0.33073286857E+03  0.79884682682E+02 0.  0.
        -13    1    5    5    0    0  0.42873959191E+02 -0.65918065878E+02  0.82613640363E+02  0.11405429128E+03  0.00000000000E+00 0.  1.
         14    1    5    5    0    0  0.34324370181E+02 -0.41021962432E+02  0.20997295556E+03  0.21667857729E+03  0.00000000000E+00 0. -1.
         13    1    3    3    0    0  0.19760095726E+02  0.11565914664E+03 -0.16577715608E+04  0.16619187849E+04  0.00000000000E+00 0. -1.
        -14    1    3    3    0    0  0.11544390696E+02  0.10630025168E+03 -0.72621398793E+03  0.73404344063E+03  0.00000000000E+00 0.  1.
          5    1    4    4  501    0 -0.12668363390E+03 -0.59010515798E+02 -0.34446925667E+02  0.14399669149E+03  0.41800000000E+01 0.  1.
         -5    1    4    4    0  501  0.18180818108E+02 -0.56008854212E+02 -0.38194762196E+02  0.70312489334E+02  0.41800000000E+01 0.  1.
</event>
<event>
11    1  0.7577197E-009  0.1703159E+03  0.7561462E-02  0.1077757E+00
         22   -1    0    0    0    0  0.00000000000E+00  0.00000000000E+00  0.40978099164E+03  0.40978099164E+03  0.00000000000E+00 0.  1.
         22   -1    0    0    0    0 -0.00000000000E+00 -0.00000000000E+00 -0.62843986230E+03  0.62843986230E+03  0.00000000000E+00 0. -1.
        -24    2    1    2    0    0  0.45158033458E+02 -0.44818694436E+02 -0.47642719774E+03  0.48771407005E+03  0.82669075364E+02 0.  0.
         25    2    1    2    0    0  0.24945043434E+02 -0.54822783837E+02 -0.95214081124E+02  0.16834313041E+03  0.12508355404E+03 0.  0.
         24    2    1    2    0    0 -0.70103076892E+02  0.99641478273E+02  0.35298240820E+03  0.38216365349E+03  0.81299520069E+02 0.  0.
        -11    1    5    5    0    0 -0.76399337571E+02  0.51036040904E+02  0.27611876808E+03  0.29100362599E+03  0.00000000000E+00 0.  1.
         12    1    5    5    0    0  0.62962606795E+01  0.48605437370E+02  0.76863640117E+02  0.91160027493E+02  0.00000000000E+00 0. -1.
         13    1    3    3    0    0  0.50895262852E+02 -0.39176801800E+02 -0.47526361997E+03  0.47958383839E+03  0.00000000000E+00 0. -1.
        -14    1    3    3    0    0 -0.57372293939E+01 -0.56418926356E+01 -0.11635777734E+01  0.81302316612E+01  0.00000000000E+00 0.  1.
          5    1    4    4  501    0  0.10727473848E+02  0.64485048415E+01 -0.10387780017E+03  0.10471261470E+03  0.41800000000E+01 0.  1.
         -5    1    4    4    0  501  0.14217569586E+02 -0.61271288679E+02  0.86637190453E+01  0.63630515706E+02  0.41800000000E+01 0.  1.
</event>
<event>
11    1  0.7577197E-009  0.1447622E+03  0.7561462E-02  0.1102354E+00
         22   -1    0    0    0    0  0.00000000000E+00  0.00000000000E+00  0.60945337973E+03  0.60945337973E+03  0.00000000000E+00 0. -1.
         22   -1    0    0    0    0 -0.00000000000E+00 -0.00000000000E+00 -0.33432529726E+03  0.33432529726E+03  0.00000000000E+00 0. -1.
         24    2    1    2    0    0 -0.59443285103E+02  0.42782061811E+02 -0.29810750384E+03  0.31879984664E+03  0.86031676825E+02 0.  0.
         25    2    1    2    0    0  0.49835922092E+02 -0.40977738029E+02  0.20937034015E+03  0.25228252478E+03  0.12509092226E+03 0.  0.
        -24    2    1    2    0    0  0.96073630111E+01 -0.18043237814E+01  0.36386524616E+03  0.37269630556E+03  0.80056616278E+02 0.  0.
        -11    1    3    3    0    0 -0.76491711501E+02  0.11925072701E+02 -0.19349785907E+03  0.20840971846E+03  0.00000000000E+00 0.  1.
         12    1    3    3    0    0  0.17048426398E+02  0.30856989110E+02 -0.10460964477E+03  0.11039012818E+03  0.00000000000E+00 0. -1.
         11    1    5    5    0    0  0.21127067631E+02  0.74831852375E+01  0.35444916066E+03  0.35515708995E+03  0.00000000000E+00 0. -1.
        -12    1    5    5    0    0 -0.11519704620E+02 -0.92875090189E+01  0.94160855008E+01  0.17539215617E+02  0.00000000000E+00 0.  1.
          5    1    4    4  501    0  0.81083359778E+02 -0.52960594607E+02  0.19022684288E+03  0.21350189687E+03  0.41800000000E+01 0.  1.
         -5    1    4    4    0  501 -0.31247437686E+02  0.11982856578E+02  0.19143497272E+02  0.38780627915E+02  0.41800000000E+01 0.  1.
</event>
<event>
11    1  0.7577197E-009  0.2699051E+03  0.7561462E-02  0.1013799E+00
         22   -1    0    0    0    0  0.00000000000E+00  0.00000000000E+00  0.15268837612E+03  0.15268837612E+03  0.00000000000E+00 0. -1.
         22   -1    0    0    0    0 -0.00000000000E+00 -0.00000000000E+00 -0.25060408637E+04  0.25060408637E+04  0.00000000000E+00 0. -1.
        -24    2    1    2    0    0 -0.16109269784E+03 -0.16123199086E+03 -0.11822621135E+04  0.12057498807E+04  0.64361926909E+02 0.  0.
         25    2    1    2    0    0  0.20174085178E+03  0.15642194289E+03 -0.12742358797E+04  0.13055618187E+04  0.12508952718E+03 0.  0.
         24    2    1    2    0    0 -0.40648153934E+02  0.48100479630E+01  0.10314550570E+03  0.14741754035E+03  0.97043943025E+02 0.  0.
        -13    1    5    5    0    0  0.28069869296E+02 -0.70726540368E+01  0.91142302664E+01  0.30348133234E+02  0.00000000000E+00 0.  1.
         14    1    5    5    0    0 -0.68718023230E+02  0.11882702000E+02  0.94031275430E+02  0.11706940712E+03  0.00000000000E+00 0. -1.
         11    1    3    3    0    0 -0.10676534448E+03 -0.14462417187E+03 -0.87362571237E+03  0.89192873885E+03  0.00000000000E+00 0. -1.
        -12    1    3    3    0    0 -0.54327353368E+02 -0.16607818988E+02 -0.30863640117E+03  0.31382114190E+03  0.00000000000E+00 0.  1.
          5    1    4    4  501    0  0.49268014521E+02  0.10480428772E+03 -0.39276890154E+03  0.40950721410E+03  0.41800000000E+01 0. -1.
         -5    1    4    4    0  501  0.15247283726E+03  0.51617655171E+02 -0.88146697817E+03  0.89605460460E+03  0.41800000000E+01 0. -1.
</event>
<event>
11    1  0.7577197E-009  0.2213363E+03  0.7561462E-02  0.1040384E+00
         22   -1    0    0    0    0  0.00000000000E+00  0.00000000000E+00  0.24411712684E+04  0.24411712684E+04  0.00000000000E+00 0. -1.
         22   -1    0    0    0    0 -0.00000000000E+00 -0.00000000000E+00 -0.42300594596E+03  0.42300594596E+03  0.00000000000E+00 0.  1.
        -24    2    1    2    0    0 -0.27312410569E+02  0.17983770465E+03 -0.35660892288E+03  0.40754143081E+03  0.76370977218E+02 0.  0.
         25    2    1    2    0    0  0.10174203646E+03 -0.17821738583E+03  0.32670355511E+03  0.40558641893E+03  0.12510895933E+03 0.  0.
         24    2    1    2    0    0 -0.74429625888E+02 -0.16203188199E+01  0.20480706902E+04  0.20510493646E+04  0.81655063423E+02 0.  0.
        -13    1    5    5    0    0  0.15223516820E+02 -0.59900571004E+01  0.58444478551E+03  0.58467370691E+03  0.00000000000E+00 0.  1.
         14    1    5    5    0    0 -0.89653142708E+02  0.43697382806E+01  0.14636259047E+04  0.14663756577E+04  0.00000000000E+00 0. -1.
         11    1    3    3    0    0 -0.15370015994E+02  0.42206946295E+01 -0.10051720911E+02  0.18843798664E+02  0.00000000000E+00 0. -1.
        -12    1    3    3    0    0 -0.11942394575E+02  0.17561701002E+03 -0.34655720197E+03  0.38869763214E+03  0.00000000000E+00 0.  1.
          5    1    4    4  501    0  0.91738709917E+02 -0.12677731524E+03  0.31496335493E+03  0.35172129010E+03  0.41800000000E+01 0. -1.
         -5    1    4    4    0  501  0.10003326540E+02 -0.51440070591E+02  0.11740200181E+02  0.53865128836E+02  0.41800000000E+01 0. -1.
</event>
<event>
11    1  0.7577197E-009  0.1447280E+03  0.7561462E-02  0.1102391E+00
         22   -1    0    0    0    0  0.00000000000E+00  0.00000000000E+00  0.39137392456E+03  0.39137392456E+03  0.00000000000E+00 0.  1.
         22   -1    0    0    0    0 -0.00000000000E+00 -0.00000000000E+00 -0.57036375700E+03  0.57036375700E+03  0.00000000000E+00 0. -1.
        -24    2    1    2    0    0 -0.50642048180E+02 -0.27554881450E+02 -0.51979898881E+03  0.52913361392E+03  0.80420793854E+02 0.  0.
         25    2    1    2    0    0  0.60850872890E+02 -0.49067495452E+02  0.14210885284E+03  0.20482408911E+03  0.12509010186E+03 0.  0.
         24    2    1    2    0    0 -0.10208824711E+02  0.76622376902E+02  0.19870030353E+03  0.22777997853E+03  0.80166696644E+02 0.  0.
        -13    1    5    5    0    0 -0.38728603485E+02  0.13677068123E+02  0.58563372965E+02  0.71530661771E+02  0.00000000000E+00 0.  1.
         14    1    5    5    0    0  0.28519778774E+02  0.62945308779E+02  0.14013693057E+03  0.15624931676E+03  0.00000000000E+00 0. -1.
         13    1    3    3    0    0 -0.66972349258E+02 -0.34662602640E+02 -0.33028310807E+03  0.33878270774E+03  0.00000000000E+00 0. -1.
        -14    1    3    3    0    0  0.16330301078E+02  0.71077211903E+01 -0.18951588074E+03  0.19035090619E+03  0.00000000000E+00 0.  1.
          5    1    4    4  501    0  0.19670917611E+02  0.73882656042E+01 -0.19333308847E+02  0.28857939969E+02  0.41800000000E+01 0. -1.
         -5    1    4    4    0  501  0.41179955280E+02 -0.56455761056E+02  0.16144216169E+03  0.17596614914E+03  0.41800000000E+01 0. -1.
</event>
<event>
11    1  0.7577197E-009  0.1381060E+03  0.7561462E-02  0.1109692E+00
         22   -1    0    0    0    0  0.00000000000E+00  0.00000000000E+00  0.24775404093E+03  0.24775404093E+03  0.00000000000E+00 0.  1.
         22   -1    0    0    0    0 -0.00000000000E+00 -0.00000000000E+00 -0.11061494637E+04  0.11061494637E+04  0.00000000000E+00 0.  1.
         24    2    1    2    0    0  0.12082387041E+02 -0.26996480126E+02 -0.10149879424E+04  0.10185742472E+04  0.80113542895E+02 0.  0.
         25    2    1    2    0    0  0.39797967697E+02 -0.74589005053E+01 -0.18667525294E+02  0.13280499192E+03  0.12509666642E+03 0.  0.
        -24    2    1    2    0    0 -0.51880354737E+02  0.34455380631E+02  0.17526004496E+03  0.20252426549E+03  0.80132704255E+02 0.  0.
        -13    1    3    3    0    0 -0.87039629129E+01 -0.29341638275E+02 -0.94575712452E+03  0.94625220174E+03  0.00000000000E+00 0.  1.
         14    1    3    3    0    0  0.20786349953E+02  0.23451581491E+01 -0.69230817910E+02  0.72322045461E+02  0.00000000000E+00 0. -1.
         13    1    5    5    0    0  0.17735462335E+02  0.14406331247E+02  0.17027907643E+02  0.28496291740E+02  0.00000000000E+00 0. -1.
        -14    1    5    5    0    0 -0.69615817072E+02  0.20049049384E+02  0.15823213732E+03  0.17402797375E+03  0.00000000000E+00 0.  1.
          5    1    4    4  501    0 -0.36095284214E+02 -0.26854299668E+02 -0.28992086786E+02  0.53684601604E+02  0.41800000000E+01 0. -1.
         -5    1    4    4    0  501  0.75893251911E+02  0.19395399163E+02  0.10324561492E+02  0.79120390319E+02  0.41800000000E+01 0. -1.
</event>
<event>
11    1  0.7577197E-009  0.1653284E+03  0.7561462E-02  0.1082170E+00
         22   -1    0    0    0    0  0.00000000000E+00  0.00000000000E+00  0.59669723254E+03  0.59669723254E+03  0.00000000000E+00 0. -1.
         22   -1    0    0    0    0 -0.00000000000E+00 -0.00000000000E+00 -0.27097706753E+04  0.27097706753E+04  0.00000000000E+00 0.  1.
        -24    2    1    2    0    0  0.54110591059E+02 -0.91899432428E+02 -0.25269587268E+04  0.25305023696E+04  0.80922024290E+02 0.  0.
         25    2    1    2    0    0 -0.53424605191E+02  0.14858390366E+03 -0.11912316674E+03  0.23402852392E+03  0.12509059231E+03 0.  0.
         24    2    1    2    0    0 -0.68598586810E+00 -0.56684471234E+02  0.53300845074E+03  0.54193701434E+03  0.79900682698E+02 0.  0.
        -13    1    5    5    0    0  0.22027929017E+02  0.70080005513E+00  0.30274256797E+03  0.30354370895E+03  0.00000000000E+00 0.  1.
         14    1    5    5    0    0 -0.22713914885E+02 -0.57385271289E+02  0.23026588276E+03  0.23839330539E+03  0.00000000000E+00 0. -1.
         13    1    3    3    0    0 -0.16312709904E+02 -0.96491651006E+01 -0.16912490167E+03  0.17018355754E+03  0.00000000000E+00 0. -1.
        -14    1    3    3    0    0  0.70423300963E+02 -0.82250267328E+02 -0.23578338251E+04  0.23603188120E+04  0.00000000000E+00 0.  1.
          5    1    4    4  501    0  0.49136927197E+01  0.51789047858E+02  0.18974821124E+02  0.55531667460E+02  0.41800000000E+01 0.  1.
         -5    1    4    4    0  501 -0.58338297911E+02  0.96794855804E+02 -0.13809798786E+03  0.17849685646E+03  0.41800000000E+01 0.  1.
</event>
<event>
11    1  0.7577197E-009  0.1304379E+03  0.7561462E-02  0.1118732E+00
         22   -1    0    0    0    0  0.00000000000E+00  0.00000000000E+00  0.79009155881E+02  0.79009155881E+02  0.00000000000E+00 0.  1.
         22   -1    0    0    0    0 -0.00000000000E+00 -0.00000000000E+00 -0.15285391516E+04  0.15285391516E+04  0.00000000000E+00 0.  1.
        -24    2    1    2    0    0  0.24757185640E+01 -0.20501307724E+01 -0.95614345665E+03  0.95953299514E+03  0.80516624674E+02 0.  0.
         25    2    1    2    0    0 -0.29374029866E+02 -0.23376841483E+02 -0.53497704181E+03  0.55068347634E+03  0.12507016235E+03 0.  0.
         24    2    1    2    0    0  0.26898311302E+02  0.25426972255E+02  0.41590502715E+02  0.97331836019E+02  0.79835244835E+02 0.  0.
        -11    1    5    5    0    0  0.37563279707E+02  0.45739072314E+02  0.44714349176E+02  0.74178404814E+02  0.00000000000E+00 0.  1.
         12    1    5    5    0    0 -0.10664968405E+02 -0.20312100059E+02 -0.31238464611E+01  0.23153431205E+02  0.00000000000E+00 0. -1.
         13    1    3    3    0    0  0.13693879326E+02 -0.26787491459E+02 -0.15296745039E+03  0.15589782843E+03  0.00000000000E+00 0. -1.
        -14    1    3    3    0    0 -0.11218160762E+02  0.24737360687E+02 -0.80317600626E+03  0.80363516671E+03  0.00000000000E+00 0.  1.
          5    1    4    4  501    0  0.97740373536E+01 -0.41361706573E+02 -0.59496005271E+02  0.73236395461E+02  0.41800000000E+01 0. -1.
         -5    1    4    4    0  501 -0.39148067220E+02  0.17984865091E+02 -0.47548103653E+03  0.47744708088E+03  0.41800000000E+01 0. -1.
</event>
<event>
11    1  0.7577197E-009  0.2317860E+03  0.7561462E-02  0.1034076E+00
         22   -1    0    0    0    0  0.00000000000E+00  0.00000000000E+00  0.30149383672E+04  0.30149383672E+04  0.00000000000E+00 0. -1.
         22   -1    0    0    0    0 -0.00000000000E+00 -0.00000000000E+00 -0.67254512663E+03  0.67254512663E+03  0.00000000000E+00 0.  1.
         24    2    1    2    0    0  0.18352742874E+03 -0.70719944130E+02 -0.59586232890E+03  0.63233700039E+03  0.78195520732E+02 0.  0.
         25    2    1    2    0    0 -0.16674764395E+03  0.61596390730E+02  0.14649803168E+03  0.26212533242E+03  0.12509646076E+03 0.  0.
        -24    2    1    2    0    0 -0.16779784789E+02  0.91235534009E+01  0.27917575378E+04  0.27930211610E+04  0.81806208673E+02 0.  0.
        -11    1    3    3    0    0  0.12444469257E+03 -0.83561192724E+02 -0.45472633572E+03  0.47879535799E+03  0.00000000000E+00 0.  1.
         12    1    3    3    0    0  0.59082736177E+02  0.12841248594E+02 -0.14113599318E+03  0.15354164240E+03  0.00000000000E+00 0. -1.
         11    1    5    5    0    0 -0.60182147031E+01 -0.23296468480E+02  0.22790148677E+04  0.22791418805E+04  0.00000000000E+00 0. -1.
        -12    1    5    5    0    0 -0.10761570086E+02  0.32420021880E+02  0.51274267008E+03  0.51387928051E+03  0.00000000000E+00 0.  1.
          5    1    4    4  501    0 -0.17388672052E+01  0.51462558413E+02  0.41162468189E+02  0.66054823935E+02  0.41800000000E+01 0. -1.
         -5    1    4    4    0  501 -0.16500877675E+03  0.10133832316E+02  0.10533556349E+03  0.19607050848E+03  0.41800000000E+01 0. -1.
</event>
<event>
11    1  0.7577197E-009  0.1295815E+03  0.7561462E-02  0.1119784E+00
         22   -1    0    0    0    0  0.00000000000E+00  0.00000000000E+00  0.35264135277E+03  0.35264135277E+03  0.00000000000E+00 0.  1.
         22   -1    0    0    0    0 -0.00000000000E+00 -0.00000000000E+00 -0.17887225668E+03  0.17887225668E+03  0.00000000000E+00 0.  1.
         24    2    1    2    0    0 -0.17940204403E+02  0.11007694295E+02 -0.91802587404E+02  0.12354632615E+03  0.79955984032E+02 0.  0.
         25    2    1    2    0    0  0.43789978653E+02  0.94443076205E+01  0.60985570473E+01  0.13301011714E+03  0.12509093367E+03 0.  0.
        -24    2    1    2    0    0 -0.25849774249E+02 -0.20452001916E+02  0.25947312645E+03  0.27495716616E+03  0.84785875369E+02 0.  0.
        -11    1    3    3    0    0 -0.35262232970E+02 -0.19681082582E+02 -0.73436833152E+02  0.83807747547E+02  0.00000000000E+00 0.  1.
         12    1    3    3    0    0  0.17322028566E+02  0.30688776877E+02 -0.18365754252E+02  0.39738578599E+02  0.00000000000E+00 0. -1.
         13    1    5    5    0    0 -0.28295617084E+02  0.21554542728E+01  0.20752935376E+02  0.35156397085E+02  0.00000000000E+00 0. -1.
        -14    1    5    5    0    0  0.24458428349E+01 -0.22607456188E+02  0.23872019108E+03  0.23980076908E+03  0.00000000000E+00 0.  1.
          5    1    4    4  501    0 -0.43148008983E+02  0.12029641702E+01 -0.89932740166E+01  0.44289379986E+02  0.41800000000E+01 0.  1.
         -5    1    4    4    0  501  0.86937987636E+02  0.82413434503E+01  0.15091831064E+02  0.88720737152E+02  0.41800000000E+01 0.  1.
</event>
<event>
11    1  0.7577197E-009  0.1731404E+03  0.7561462E-02  0.1075331E+00
         22   -1    0    0    0    0  0.00000000000E+00  0.00000000000E+00  0.11868921400E+04  0.11868921400E+04  0.00000000000E+00 0. -1.
         22   -1    0    0    0    0 -0.00000000000E+00 -0.00000000000E+00 -0.52587796539E+03  0.52587796539E+03  0.00000000000E+00 0. -1.
        -24    2    1    2    0    0 -0.77952773677E+01  0.15763095140E+02 -0.46241428780E+03  0.46994349571E+03  0.81918704131E+02 0.  0.
         25    2    1    2    0    0 -0.74455825224E+02  0.73119152711E+02  0.66413080578E+02  0.17592379535E+03  0.12509358136E+03 0.  0.
         24    2    1    2    0    0  0.82251102592E+02 -0.88882247851E+02  0.10570153819E+04  0.10669028144E+04  0.79591456474E+02 0.  0.
        -13    1    5    5    0    0 -0.12415372397E+02 -0.25698307780E+02  0.14230723802E+03  0.14514094697E+03  0.00000000000E+00 0.  1.
         14    1    5    5    0    0  0.94666474989E+02 -0.63183940071E+02  0.91470814383E+03  0.92176186739E+03  0.00000000000E+00 0. -1.
         13    1    3    3    0    0  0.67828229295E+01  0.46663501627E+02 -0.21010495935E+03  0.21533133310E+03  0.00000000000E+00 0. -1.
        -14    1    3    3    0    0 -0.14578100297E+02 -0.30900406487E+02 -0.25230932845E+03  0.25461216261E+03  0.00000000000E+00 0.  1.
          5    1    4    4  501    0 -0.52389518835E+02  0.10531752365E+03  0.69251923401E+02  0.13656406470E+03  0.41800000000E+01 0.  1.
         -5    1    4    4    0  501 -0.22066306389E+02 -0.32198370939E+02 -0.28388428231E+01  0.39359730656E+02  0.41800000000E+01 0.  1.
</event>
<event>
11    1  0.7577197E-009  0.1506337E+03  0.7561462E-02  0.1096233E+00
         22   -1    0    0    0    0  0.00000000000E+00  0.00000000000E+00  0.12074802662E+03  0.12074802662E+03  0.00000000000E+00 0. -1.
         22   -1    0    0    0    0 -0.00000000000E+00 -0.00000000000E+00 -0.44920274493E+03  0.44920274493E+03  0.00000000000E+00 0. -1.
         24    2    1    2    0    0 -0.38504831087E+01 -0.74937527428E+01 -0.16663181526E+03  0.18485165005E+03  0.79580073638E+02 0.  0.
         25    2    1    2    0    0  0.62675340416E+02  0.65478259218E+02 -0.20190210490E+03  0.25421753032E+03  0.12508593860E+03 0.  0.
        -24    2    1    2    0    0 -0.58824857308E+02 -0.57984506475E+02  0.40079201848E+02  0.13088159117E+03  0.93279588650E+02 0.  0.
        -13    1    3    3    0    0  0.18073379482E+02 -0.29094032715E+02 -0.32436974329E+02  0.47172736714E+02  0.00000000000E+00 0.  1.
         14    1    3    3    0    0 -0.21923862591E+02  0.21600279972E+02 -0.13419484093E+03  0.13767891334E+03  0.00000000000E+00 0. -1.
         13    1    5    5    0    0 -0.40598177181E+02 -0.82174573338E+02  0.41382733851E+02  0.10056541729E+03  0.00000000000E+00 0. -1.
        -14    1    5    5    0    0 -0.18226680127E+02  0.24190066862E+02 -0.13035320034E+01  0.30316173883E+02  0.00000000000E+00 0.  1.
          5    1    4    4  501    0 -0.14253793439E+02 -0.28989273148E+02 -0.42576199315E+02  0.53607403716E+02  0.41800000000E+01 0. -1.
         -5    1    4    4    0  501  0.76929133855E+02  0.94467532366E+02 -0.15932590558E+03  0.20061012661E+03  0.41800000000E+01 0. -1.
</event>
<event>
11    1  0.7577197E-009  0.2932630E+03  0.7561462E-02  0.1003083E+00
         22   -1    0    0    0    0  0.00000000000E+00  0.00000000000E+00  0.69615925089E+03  0.69615925089E+03  0.00000000000E+00 0.  1.
         22   -1    0    0    0    0 -0.00000000000E+00 -0.00000000000E+00 -0.82815998443E+03  0.82815998443E+03  0.00000000000E+00 0. -1.
         24    2    1    2    0    0 -0.24401634107E+03 -0.10902322660E+03 -0.60069212907E+03  0.66231258666E+03  0.79980559307E+02 0.  0.
         25    2    1    2    0    0  0.24811238833E+03  0.76665761000E+02 -0.85964195059E+02  0.30078997083E+03  0.12508943829E+03 0.  0.
        -24    2    1    2    0    0 -0.40960472518E+01  0.32357465605E+02  0.55465559059E+03  0.56121667783E+03  0.79104690860E+02 0.  0.
        -13    1    3    3    0    0 -0.41642618216E+02  0.11718492735E+02 -0.98181821907E+02  0.10728979857E+03  0.00000000000E+00 0.  1.
         14    1    3    3    0    0 -0.20237372286E+03 -0.12074171934E+03 -0.50251030717E+03  0.55502278809E+03  0.00000000000E+00 0. -1.
         13    1    5    5    0    0  0.20194558975E+02  0.43276780592E+02  0.20248622433E+03  0.20804175300E+03  0.00000000000E+00 0. -1.
        -14    1    5    5    0    0 -0.24290606227E+02 -0.10919314987E+02  0.35216936627E+03  0.35317492483E+03  0.00000000000E+00 0.  1.
          5    1    4    4  501    0 -0.68876875045E+01 -0.13678241652E+02  0.26298514233E+01  0.16091086115E+02  0.41800000000E+01 0. -1.
         -5    1    4    4    0  501  0.25500007583E+03  0.90344002651E+02 -0.88594046482E+02  0.28469888472E+03  0.41800000000E+01 0. -1.
</event>
<event>
11    1  0.7577197E-009  0.1421583E+03  0.7561462E-02  0.1105172E+00
         22   -1    0    0    0    0  0.00000000000E+00  0.00000000000E+00  0.69935483555E+03  0.69935483555E+03  0.00000000000E+00 0. -1.
         22   -1    0    0    0    0 -0.00000000000E+00 -0.00000000000E+00 -0.88205093119E+03  0.88205093119E+03  0.00000000000E+00 0. -1.
        -24    2    1    2    0    0 -0.13917077390E+02  0.67924474671E+02 -0.74696796824E+03  0.75487839381E+03  0.84100086590E+02 0.  0.
         25    2    1    2    0    0  0.24149440786E+02 -0.47128680246E+02 -0.92598076646E+02  0.16439909915E+03  0.12509337317E+03 0.  0.
         24    2    1    2    0    0 -0.10232363395E+02 -0.20795794425E+02  0.65686994924E+03  0.66212827378E+03  0.79990964534E+02 0.  0.
        -11    1    5    5    0    0 -0.16742148902E+01 -0.38081511130E+02  0.14599007396E+03  0.15088441331E+03  0.00000000000E+00 0.  1.
         12    1    5    5    0    0 -0.85581485049E+01  0.17285716705E+02  0.51087987528E+03  0.51124386048E+03  0.00000000000E+00 0. -1.
         13    1    3    3    0    0 -0.48637262703E+02  0.35489249929E+02 -0.47363386232E+03  0.47744539553E+03  0.00000000000E+00 0. -1.
        -14    1    3    3    0    0  0.34720185313E+02  0.32435224741E+02 -0.27333410592E+03  0.27743299827E+03  0.00000000000E+00 0.  1.
          5    1    4    4  501    0  0.11256298311E+02  0.11499360382E+02 -0.10213007373E+03  0.10347446014E+03  0.41800000000E+01 0.  1.
         -5    1    4    4    0  501  0.12893142474E+02 -0.58628040627E+02  0.95319970841E+01  0.60924639015E+02  0.41800000000E+01 0.  1.
</event>
<event>
11    1  0.7577197E-009  0.1333755E+03  0.7561462E-02  0.1115190E+00
         22   -1    0    0    0    0  0.00000000000E+00  0.00000000000E+00  0.42268879974E+02  0.42268879974E+02  0.00000000000E+00 0.  1.
         22   -1    0    0    0    0 -0.00000000000E+00 -0.00000000000E+00 -0.82107730529E+03  0.82107730529E+03  0.00000000000E+00 0.  1.
        -24    2    1    2    0    0 -0.71079602526E+01  0.48906707899E+01 -0.38113139117E+03  0.38747123847E+03  0.69270351132E+02 0.  0.
         25    2    1    2    0    0  0.44288007696E+02 -0.29681915612E+02 -0.34346953909E+03  0.36940693239E+03  0.12509082172E+03 0.  0.
         24    2    1    2    0    0 -0.37180047443E+02  0.24791244823E+02 -0.54207495065E+02  0.10646801441E+03  0.80000148896E+02 0.  0.
        -13    1    5    5    0    0  0.11090471813E+02 -0.21543994801E+02 -0.19431371207E+02  0.31059949517E+02  0.00000000000E+00 0.  1.
         14    1    5    5    0    0 -0.48270519256E+02  0.46335239624E+02 -0.34776123858E+02  0.75408064893E+02  0.00000000000E+00 0. -1.
         11    1    3    3    0    0  0.18312841478E+02  0.63185491225E+01 -0.31959964597E+02  0.37372764990E+02  0.00000000000E+00 0. -1.
        -12    1    3    3    0    0 -0.25420801730E+02 -0.14278783326E+01 -0.34917142657E+03  0.35009847348E+03  0.00000000000E+00 0.  1.
          5    1    4    4  501    0 -0.36154789465E+02 -0.37931691139E+02 -0.17055047777E+03  0.17846826010E+03  0.41800000000E+01 0. -1.
         -5    1    4    4    0  501  0.80442797161E+02  0.82497755262E+01 -0.17291906131E+03  0.19093867229E+03  0.41800000000E+01 0. -1.
</event>
<event>
11    1  0.7577197E-009  0.2144678E+03  0.7561462E-02  0.1044739E+00
         22   -1    0    0    0    0  0.00000000000E+00  0.00000000000E+00  0.19341512166E+04  0.19341512166E+04  0.00000000000E+00 0.  1.
         22   -1    0    0    0    0 -0.00000000000E+00 -0.00000000000E+00 -0.13717322990E+03  0.13717322990E+03  0.00000000000E+00 0. -1.
         24    2    1    2    0    0  0.84120495096E+02 -0.14226149502E+03 -0.21354746189E+02  0.18632245955E+03  0.83339324976E+02 0.  0.
         25    2    1    2    0    0 -0.12360772569E+03  0.20201003522E+03  0.54666125799E+03  0.60874729137E+03  0.12509120505E+03 0.  0.
        -24    2    1    2    0    0  0.39487230594E+02 -0.59748540198E+02  0.12716714749E+04  0.12762546956E+04  0.80923287572E+02 0.  0.
        -13    1    3    3    0    0  0.29118294008E+02 -0.56618554063E+02  0.32158825045E+02  0.71328295496E+02  0.00000000000E+00 0.  1.
         14    1    3    3    0    0  0.55002201088E+02 -0.85642940956E+02 -0.53513571234E+02  0.11499416405E+03  0.00000000000E+00 0. -1.
         13    1    5    5    0    0  0.39122294658E+02 -0.10194277139E+02  0.23903255333E+03  0.24242738867E+03  0.00000000000E+00 0. -1.
        -14    1    5    5    0    0  0.36493593521E+00 -0.49554263058E+02  0.10326389216E+04  0.10338273069E+04  0.00000000000E+00 0.  1.
          5    1    4    4  501    0 -0.21486863032E+02  0.14223921642E+03  0.36002324432E+03  0.38772140619E+03  0.41800000000E+01 0.  1.
         -5    1    4    4    0  501 -0.10212086266E+03  0.59770818797E+02  0.18663801367E+03  0.22102588518E+03  0.41800000000E+01 0.  1.
</event>
<event>
11    1  0.7577197E-009  0.1917243E+03  0.7561462E-02  0.1060535E+00
         22   -1    0    0    0    0  0.00000000000E+00  0.00000000000E+00  0.61434614967E+03  0.61434614967E+03  0.00000000000E+00 0.  1.
         22   -1    0    0    0    0 -0.00000000000E+00 -0.00000000000E+00 -0.26304518758E+03  0.26304518758E+03  0.00000000000E+00 0. -1.
         24    2    1    2    0    0  0.13917157044E+03  0.29701876200E+02 -0.11208424650E+03  0.19739735237E+03  0.78434105719E+02 0.  0.
         25    2    1    2    0    0 -0.12728261255E+03 -0.10677247996E+03  0.49245656630E+01  0.20801969850E+03  0.12508684055E+03 0.  0.
        -24    2    1    2    0    0 -0.11888957881E+02  0.77070603763E+02  0.45846064293E+03  0.47197428638E+03  0.80575061928E+02 0.  0.
        -13    1    3    3    0    0  0.33266699660E+01 -0.14423934902E+02  0.15410745955E+01  0.14882591912E+02  0.00000000000E+00 0.  1.
         14    1    3    3    0    0  0.13584490047E+03  0.44125811103E+02 -0.11362532110E+03  0.18251476045E+03  0.00000000000E+00 0. -1.
         11    1    5    5    0    0 -0.25583150944E+02  0.69027156111E+02  0.20154918849E+03  0.21457241499E+03  0.00000000000E+00 0. -1.
        -12    1    5    5    0    0  0.13694193063E+02  0.80434476515E+01  0.25691145444E+03  0.25740187139E+03  0.00000000000E+00 0.  1.
          5    1    4    4  501    0 -0.21324662155E+02 -0.99197211780E+02 -0.83920066743E+00  0.10155296499E+03  0.41800000000E+01 0.  1.
         -5    1    4    4    0  501 -0.10595795040E+03 -0.75752681827E+01  0.57637663304E+01  0.10646673350E+03  0.41800000000E+01 0.  1.
</event>
<event>
11    1  0.7577197E-009  0.2018162E+03  0.7561462E-02  0.1053247E+00
         22   -1    0    0    0    0  0.00000000000E+00  0.00000000000E+00  0.24187020889E+03  0.24187020889E+03  0.00000000000E+00 0. -1.
         22   -1    0    0    0    0 -0.00000000000E+00 -0.00000000000E+00 -0.63010701215E+03  0.63010701215E+03  0.00000000000E+00 0.  1.
        -24    2    1    2    0    0  0.15000004994E+03  0.40645781706E+02 -0.49008238477E+03  0.52099090074E+03  0.84253666046E+02 0.  0.
         25    2    1    2    0    0 -0.19657014552E+03  0.26132710747E+01  0.79637895304E+02  0.24623261091E+03  0.12506659430E+03 0.  0.
         24    2    1    2    0    0  0.46570095579E+02 -0.43259052781E+02  0.22207686212E+02  0.10475370939E+03  0.80249852671E+02 0.  0.
        -11    1    5    5    0    0  0.19377707885E+02 -0.13707063696E+01 -0.27907840483E+02  0.34003263950E+02  0.00000000000E+00 0.  1.
         12    1    5    5    0    0  0.27192387694E+02 -0.41888346411E+02  0.50115526695E+02  0.70750445437E+02  0.00000000000E+00 0. -1.
         11    1    3    3    0    0 -0.79216745968E+01 -0.73390416552E+01 -0.19319911937E+02  0.22133085146E+02  0.00000000000E+00 0. -1.
        -12    1    3    3    0    0  0.15792172454E+03  0.47984823361E+02 -0.47076247284E+03  0.49885781560E+03  0.00000000000E+00 0.  1.
          5    1    4    4  501    0 -0.15782800285E+03  0.30993411887E+02  0.95669124738E+01  0.16118085581E+03  0.41800000000E+01 0.  1.
         -5    1    4    4    0  501 -0.38742142670E+02 -0.28380140812E+02  0.70070982830E+02  0.85051755102E+02  0.41800000000E+01 0.  1.
</event>
<event>
11    1  0.7577197E-009  0.2355193E+03  0.7561462E-02  0.1031909E+00
         22   -1    0    0    0    0  0.00000000000E+00  0.00000000000E+00  0.83287855912E+03  0.83287855912E+03  0.00000000000E+00 0. -1.
         22   -1    0    0    0    0 -0.00000000000E+00 -0.00000000000E+00 -0.31092564785E+03  0.31092564785E+03  0.00000000000E+00 0. -1.
         24    2    1    2    0    0 -0.38926612511E+02 -0.18358462046E+03 -0.18148039835E+03  0.27320321423E+03  0.80537365556E+02 0.  0.
         25    2    1    2    0    0  0.97029556939E+02  0.27145031739E+03  0.26109944691E+03  0.40857222187E+03  0.12513324730E+03 0.  0.
        -24    2    1    2    0    0 -0.58102944429E+02 -0.87865696932E+02  0.44233386270E+03  0.46202877087E+03  0.81945141190E+02 0.  0.
        -13    1    3    3    0    0 -0.16794898065E+02 -0.11439806605E+02 -0.54457623572E+02  0.58125472396E+02  0.00000000000E+00 0.  1.
         14    1    3    3    0    0 -0.22131714446E+02 -0.17214481385E+03 -0.12702277478E+03  0.21507774184E+03  0.00000000000E+00 0. -1.
         11    1    5    5    0    0 -0.36555021137E+02 -0.98825670234E+02  0.39585357201E+03  0.40963744109E+03  0.00000000000E+00 0. -1.
        -12    1    5    5    0    0 -0.21547923292E+02  0.10959973302E+02  0.46480290693E+02  0.52391329778E+02  0.00000000000E+00 0.  1.
          5    1    4    4  501    0  0.96677362787E+01  0.90316996666E+02  0.15860236325E+03  0.18281905547E+03  0.41800000000E+01 0.  1.
         -5    1    4    4    0  501  0.87361820661E+02  0.18113332072E+03  0.10249708366E+03  0.22575316641E+03  0.41800000000E+01 0.  1.
</event>
<event>
11    1  0.7577197E-009  0.2537128E+03  0.7561462E-02  0.1021940E+00
         22   -1    0    0    0    0  0.00000000000E+00  0.00000000000E+00  0.15790976723E+04  0.15790976723E+04  0.00000000000E+00 0.  1.
         22   -1    0    0    0    0 -0.00000000000E+00 -0.00000000000E+00 -0.22352392683E+03  0.22352392683E+03  0.00000000000E+00 0. -1.
        -24    2    1    2    0    0 -0.18369043081E+03  0.16064386610E+01 -0.71780365366E+02  0.21183307827E+03  0.77305091575E+02 0.  0.
         25    2    1    2    0    0  0.25169812768E+03 -0.20098592750E+03  0.35603910378E+03  0.49614365335E+03  0.12508953117E+03 0.  0.
         24    2    1    2    0    0 -0.68007696871E+02  0.19937948884E+03  0.10713150071E+04  0.10946448676E+04  0.78449437413E+02 0.  0.
        -13    1    5    5    0    0 -0.11774125115E+02  0.84461431332E+02  0.60945196287E+03  0.61538935516E+03  0.00000000000E+00 0.  1.
         14    1    5    5    0    0 -0.56233571756E+02  0.11491805750E+03  0.46186304424E+03  0.47925551240E+03  0.00000000000E+00 0. -1.
         11    1    3    3    0    0 -0.19136309600E+03  0.24619991604E+01 -0.67079969916E+02  0.20279452240E+03  0.00000000000E+00 0. -1.
        -12    1    3    3    0    0  0.76726651929E+01 -0.85556049938E+00 -0.47003954500E+01  0.90385558756E+01  0.00000000000E+00 0.  1.
          5    1    4    4  501    0  0.22319821795E+03 -0.15891612618E+03  0.35043167480E+03  0.44485009920E+03  0.41800000000E+01 0. -1.
         -5    1    4    4    0  501  0.28499909724E+02 -0.42069801321E+02  0.56074289827E+01  0.51293554149E+02  0.41800000000E+01 0. -1.
</event>
<event>
11    1  0.7577197E-009  0.1688094E+03  0.7561462E-02  0.1079072E+00
         22   -1    0    0    0    0  0.00000000000E+00  0.00000000000E+00  0.18278048119E+04  0.18278048119E+04  0.00000000000E+00 0.  1.
         22   -1    0    0    0    0 -0.00000000000E+00 -0.00000000000E+00 -0.21195862635E+03  0.21195862635E+03  0.00000000000E+00 0.  1.
         24    2    1    2    0    0 -0.49014022725E+02 -0.98842965702E+02 -0.16299123725E+03  0.21280789044E+03  0.80924338235E+02 0.  0.
         25    2    1    2    0    0  0.75894486372E+02  0.16495962705E+03  0.53818895699E+03  0.58160564890E+03  0.12508447462E+03 0.  0.
        -24    2    1    2    0    0 -0.26880463647E+02 -0.66116661345E+02  0.12406484658E+04  0.12453498989E+04  0.81202110716E+02 0.  0.
        -11    1    3    3    0    0 -0.49762254920E+02 -0.13704330954E+02 -0.58280558462E+02  0.77850588926E+02  0.00000000000E+00 0.  1.
         12    1    3    3    0    0  0.74823219507E+00 -0.85138634748E+02 -0.10471067879E+03  0.13495730151E+03  0.00000000000E+00 0. -1.
         13    1    5    5    0    0 -0.85779297630E+01 -0.12788205643E+02  0.33325539990E+02  0.36711179472E+02  0.00000000000E+00 0. -1.
        -14    1    5    5    0    0 -0.18302533884E+02 -0.53328455702E+02  0.12073229258E+04  0.12086387194E+04  0.00000000000E+00 0.  1.
          5    1    4    4  501    0  0.24802318950E+02  0.16542904083E+03  0.44190408582E+03  0.47252366717E+03  0.41800000000E+01 0.  1.
         -5    1    4    4    0  501  0.51092167422E+02 -0.46941378712E+00  0.96284871170E+02  0.10908198173E+03  0.41800000000E+01 0.  1.
</event>
<event>
11    1  0.7577197E-009  0.1360945E+03  0.7561462E-02  0.1112000E+00
         22   -1    0    0    0    0  0.00000000000E+00  0.00000000000E+00  0.25554847300E+04  0.25554847300E+04  0.00000000000E+00 0.  1.
         22   -1    0    0    0    0 -0.00000000000E+00 -0.00000000000E+00 -0.23024836154E+03  0.23024836154E+03  0.00000000000E+00 0.  1.
         24    2    1    2    0    0  0.50785508354E+02 -0.12974272977E+02 -0.21107967253E+03  0.23201634792E+03  0.80805061280E+02 0.  0.
         25    2    1    2    0    0 -0.10400754425E+02 -0.31184924647E+02  0.55533302482E+03  0.57019573551E+03  0.12509089943E+03 0.  0.
        -24    2    1    2    0    0 -0.40384753929E+02  0.44159197624E+02  0.19809830162E+04  0.19835210081E+04  0.80504137298E+02 0.  0.
        -11    1    3    3    0    0  0.21215846038E+02 -0.16802314370E+02 -0.19733897034E+03  0.19918609165E+03  0.00000000000E+00 0.  1.
         12    1    3    3    0    0  0.29569662316E+02  0.38280413930E+01 -0.13740702197E+02  0.32830256278E+02  0.00000000000E+00 0. -1.
         11    1    5    5    0    0 -0.41871488074E+02  0.20206259727E+02  0.45895777018E+03  0.46130656754E+03  0.00000000000E+00 0. -1.
        -12    1    5    5    0    0  0.14867341455E+01  0.23952937897E+02  0.15220252460E+04  0.15222144406E+04  0.00000000000E+00 0.  1.
          5    1    4    4  501    0 -0.30490562156E+02 -0.74313120488E+02  0.38379055121E+03  0.39212851701E+03  0.41800000000E+01 0.  1.
         -5    1    4    4    0  501  0.20089807731E+02  0.43128195841E+02  0.17154247362E+03  0.17806721850E+03  0.41800000000E+01 0.  1.
</event>
<event>
11    1  0.7577197E-009  0.1468297E+03  0.7561462E-02  0.1100163E+00
         22   -1    0    0    0    0  0.00000000000E+00  0.00000000000E+00  0.14237210014E+04  0.14237210014E+04  0.00000000000E+00 0.  1.
         22   -1    0    0    0    0 -0.00000000000E+00 -0.00000000000E+00 -0.21168512177E+04  0.21168512177E+04  0.00000000000E+00 0.  1.
         24    2    1    2    0    0 -0.77150766314E+02 -0.31320806187E+01 -0.20719708332E+04  0.20749800104E+04  0.80727067835E+02 0.  0.
         25    2    1    2    0    0  0.51235568205E+02  0.26074758452E+02  0.71098896283E+02  0.15494315786E+03  0.12508937859E+03 0.  0.
        -24    2    1    2    0    0  0.25915198109E+02 -0.22942677834E+02  0.13077417206E+04  0.13106490508E+04  0.80090964200E+02 0.  0.
        -13    1    3    3    0    0 -0.11688570841E+02 -0.41756673643E+01 -0.13474353015E+04  0.13474924677E+04  0.00000000000E+00 0.  1.
         14    1    3    3    0    0 -0.65462195473E+02  0.10435867456E+01 -0.72453553170E+03  0.72748754272E+03  0.00000000000E+00 0. -1.
         13    1    5    5    0    0 -0.66049873440E+01  0.26866666008E+02  0.44452842560E+03  0.44538855482E+03  0.00000000000E+00 0. -1.
        -14    1    5    5    0    0  0.32520185453E+02 -0.49809343842E+02  0.86321329505E+03  0.86526049600E+03  0.00000000000E+00 0.  1.
          5    1    4    4  501    0 -0.14817079203E+01 -0.44844548034E+02  0.67869952518E+01  0.45571533343E+02  0.41800000000E+01 0. -1.
         -5    1    4    4    0  501  0.52717276125E+02  0.70919306486E+02  0.64311901031E+02  0.10937162451E+03  0.41800000000E+01 0. -1.
</event>
<event>
11    1  0.7577197E-009  0.1529099E+04  0.7561462E-02  0.8293334E-01
         22   -1    0    0    0    0  0.00000000000E+00  0.00000000000E+00  0.98011330546E+03  0.98011330546E+03  0.00000000000E+00 0.  1.
         22   -1    0    0    0    0 -0.00000000000E+00 -0.00000000000E+00 -0.59639640572E+03  0.59639640572E+03  0.00000000000E+00 0.  1.
         24    2    1    2    0    0 -0.64448525153E+03  0.25609677581E+03  0.87327584589E+02  0.70292406699E+03  0.74359524633E+02 0.  0.
         25    2    1    2    0    0  0.67227940810E+03 -0.26984072897E+03  0.27524037915E+03  0.78496935372E+03  0.12508396540E+03 0.  0.
        -24    2    1    2    0    0 -0.27794156577E+02  0.13743953155E+02  0.21148936005E+02  0.88616290473E+02  0.80275513420E+02 0.  0.
        -13    1    3    3    0    0 -0.24851567061E+03  0.13179897712E+03  0.55156186485E+02  0.28665870616E+03  0.00000000000E+00 0.  1.
         14    1    3    3    0    0 -0.39596958092E+03  0.12429779869E+03  0.32171398103E+02  0.41626536083E+03  0.00000000000E+00 0. -1.
         11    1    5    5    0    0  0.24590837152E+02 -0.12364812222E+02  0.68766761730E+01  0.28370522172E+02  0.00000000000E+00 0. -1.
        -12    1    5    5    0    0 -0.52384993728E+02  0.26108765378E+02  0.14272259832E+02  0.60245768301E+02  0.00000000000E+00 0.  1.
          5    1    4    4  501    0  0.22704152520E+03 -0.30779448137E+02  0.10064824880E+03  0.25028537908E+03  0.41800000000E+01 0. -1.
         -5    1    4    4    0  501  0.44523788290E+03 -0.23906128083E+03  0.17459213035E+03  0.53468397464E+03  0.41800000000E+01 0. -1.
</event>
<event>
11    1  0.7577197E-009  0.1386341E+03  0.7561462E-02  0.1109093E+00
         22   -1    0    0    0    0  0.00000000000E+00  0.00000000000E+00  0.23467253459E+03  0.23467253459E+03  0.00000000000E+00 0.  1.
         22   -1    0    0    0    0 -0.00000000000E+00 -0.00000000000E+00 -0.58161387962E+03  0.58161387962E+03  0.00000000000E+00 0. -1.
         24    2    1    2    0    0 -0.14874292857E+01 -0.30626610693E+02 -0.49661718163E+03  0.50457901186E+03  0.83851967119E+02 0.  0.
         25    2    1    2    0    0 -0.14015168251E+01 -0.35529349403E+02  0.18359585828E+01  0.13003482816E+03  0.12506553031E+03 0.  0.
        -24    2    1    2    0    0  0.28889461108E+01  0.66155960096E+02  0.14783987802E+03  0.18167257418E+03  0.82239513696E+02 0.  0.
        -11    1    3    3    0    0  0.33823089014E+02 -0.40258358745E+02 -0.28089356081E+03  0.28577251321E+03  0.00000000000E+00 0.  1.
         12    1    3    3    0    0 -0.35310518299E+02  0.96317480527E+01 -0.21572362082E+03  0.21880649865E+03  0.00000000000E+00 0. -1.
         11    1    5    5    0    0  0.19284929131E+02 -0.13957688681E+02  0.32581194670E+02  0.40351701464E+02  0.00000000000E+00 0. -1.
        -12    1    5    5    0    0 -0.16395983020E+02  0.80113648777E+02  0.11525868335E+03  0.14132087272E+03  0.00000000000E+00 0.  1.
          5    1    4    4  501    0  0.31898175634E+02  0.26534334101E+02  0.32728762796E+02  0.53011402634E+02  0.41800000000E+01 0.  1.
         -5    1    4    4    0  501 -0.33299692459E+02 -0.62063683505E+02 -0.30892804214E+02  0.77023425529E+02  0.41800000000E+01 0.  1.
</event>
<event>
11    1  0.7577197E-009  0.2022011E+03  0.7561462E-02  0.1052978E+00
         22   -1    0    0    0    0  0.00000000000E+00  0.00000000000E+00  0.14279909713E+04  0.14279909713E+04  0.00000000000E+00 0. -1.
         22   -1    0    0    0    0 -0.00000000000E+00 -0.00000000000E+00 -0.73912660593E+03  0.73912660593E+03  0.00000000000E+00 0. -1.
         24    2    1    2    0    0  0.59390753796E+02 -0.15325119382E+02 -0.69720772990E+03  0.70444638767E+03  0.79899771889E+02 0.  0.
         25    2    1    2    0    0 -0.18474549890E+02  0.16847948142E+03  0.32796442811E+03  0.38978736133E+03  0.12508747458E+03 0.  0.
        -24    2    1    2    0    0 -0.40916203906E+02 -0.15315436204E+03  0.10581076671E+04  0.10728838282E+04  0.79733802152E+02 0.  0.
        -13    1    3    3    0    0  0.14176962051E+02  0.20469292064E+02 -0.64869071903E+02  0.69483628721E+02  0.00000000000E+00 0.  1.
         14    1    3    3    0    0  0.45213791745E+02 -0.35794411447E+02 -0.63233865799E+03  0.63496275895E+03  0.00000000000E+00 0. -1.
         11    1    5    5    0    0  0.47734513535E+00 -0.12978742651E+03  0.79205296990E+03  0.80261629130E+03  0.00000000000E+00 0. -1.
        -12    1    5    5    0    0 -0.41393549042E+02 -0.23366935528E+02  0.26605469722E+03  0.27026753688E+03  0.00000000000E+00 0.  1.
          5    1    4    4  501    0  0.48946776449E+02  0.55940524204E+02  0.80370348922E+02  0.10955361500E+03  0.41800000000E+01 0.  1.
         -5    1    4    4    0  501 -0.67421326339E+02  0.11253895721E+03  0.24759407918E+03  0.28023374633E+03  0.41800000000E+01 0.  1.
</event>
<event>
11    1  0.7577197E-009  0.1473043E+03  0.7561462E-02  0.1099665E+00
         22   -1    0    0    0    0  0.00000000000E+00  0.00000000000E+00  0.73379450018E+02  0.73379450018E+02  0.00000000000E+00 0.  1.
         22   -1    0    0    0    0 -0.00000000000E+00 -0.00000000000E+00 -0.15531554295E+04  0.15531554295E+04  0.00000000000E+00 0. -1.
        -24    2    1    2    0    0 -0.16071496309E+02  0.77657622277E+02 -0.13074522902E+04  0.13122676159E+04  0.79534930378E+02 0.  0.
         25    2    1    2    0    0 -0.14184657149E+02 -0.66134405239E+02 -0.18047839551E+03  0.22977055266E+03  0.12508833506E+03 0.  0.
         24    2    1    2    0    0  0.30256153458E+02 -0.11523217038E+02  0.81547062404E+01  0.84496711009E+02  0.77620716207E+02 0.  0.
        -13    1    5    5    0    0  0.63107283756E+01 -0.31294072888E+02  0.32108988040E+02  0.45278376776E+02  0.00000000000E+00 0.  1.
         14    1    5    5    0    0  0.23945425083E+02  0.19770855850E+02 -0.23954281800E+02  0.39218334232E+02  0.00000000000E+00 0. -1.
         11    1    3    3    0    0 -0.14701836137E+02  0.93722518900E+02 -0.10350347387E+04  0.10393733520E+04  0.00000000000E+00 0. -1.
        -12    1    3    3    0    0 -0.13696601725E+01 -0.16064896623E+02 -0.27241755151E+03  0.27289426385E+03  0.00000000000E+00 0.  1.
          5    1    4    4  501    0 -0.50218561326E+02 -0.21585205358E+02 -0.15941979849E+03  0.16858223376E+03  0.41800000000E+01 0.  1.
         -5    1    4    4    0  501  0.36033904177E+02 -0.44549199881E+02 -0.21058597029E+02  0.61188318894E+02  0.41800000000E+01 0.  1.
</event>
<event>
11    1  0.7577197E-009  0.1398040E+03  0.7561462E-02  0.1107777E+00
         22   -1    0    0    0    0  0.00000000000E+00  0.00000000000E+00  0.18800308728E+03  0.18800308728E+03  0.00000000000E+00 0. -1.
         22   -1    0    0    0    0 -0.00000000000E+00 -0.00000000000E+00 -0.10362060445E+04  0.10362060445E+04  0.00000000000E+00 0.  1.
         24    2    1    2    0    0  0.64639965209E+02  0.69426792629E+00 -0.65853799711E+03  0.66631593301E+03  0.78267629529E+02 0.  0.
         25    2    1    2    0    0 -0.51821323186E+02 -0.37521474365E+02 -0.34814288642E+03  0.37542586476E+03  0.12509116672E+03 0.  0.
        -24    2    1    2    0    0 -0.12818642023E+02  0.36827206439E+02  0.15847792629E+03  0.18246733403E+03  0.81599719064E+02 0.  0.
        -11    1    3    3    0    0  0.63298581502E+02  0.14187288026E+02 -0.64036249076E+03  0.64363973551E+03  0.00000000000E+00 0.  1.
         12    1    3    3    0    0  0.13413837070E+01 -0.13493020100E+02 -0.18175506352E+02  0.22676197495E+02  0.00000000000E+00 0. -1.
         11    1    5    5    0    0 -0.11360340165E+02  0.37197544732E+02  0.16819556932E+03  0.17263390224E+03  0.00000000000E+00 0. -1.
        -12    1    5    5    0    0 -0.14583018581E+01 -0.37033829318E+00 -0.97176430330E+01  0.98334317955E+01  0.00000000000E+00 0.  1.
          5    1    4    4  501    0  0.27481943195E+02  0.12961043571E+02 -0.18129570797E+03  0.18387183574E+03  0.41800000000E+01 0.  1.
         -5    1    4    4    0  501 -0.79303266381E+02 -0.50482517936E+02 -0.16684717845E+03  0.19155402902E+03  0.41800000000E+01 0.  1.
</event>
<event>
11    1  0.7577197E-009  0.1555201E+03  0.7561462E-02  0.1091368E+00
         22   -1    0    0    0    0  0.00000000000E+00  0.00000000000E+00  0.31254960221E+04  0.31254960221E+04  0.00000000000E+00 0. -1.
         22   -1    0    0    0    0 -0.00000000000E+00 -0.00000000000E+00 -0.59911891292E+02  0.59911891292E+02  0.00000000000E+00 0.  1.
        -24    2    1    2    0    0  0.46977625309E+02  0.79528992620E+02  0.16636595990E+02  0.12609396676E+03  0.84208991090E+02 0.  0.
         25    2    1    2    0    0 -0.23204272629E+02 -0.93710773075E+02  0.16834396874E+04  0.16908405963E+04  0.12511032635E+03 0.  0.
         24    2    1    2    0    0 -0.23773352680E+02  0.14181780454E+02  0.13655078475E+04  0.13684733504E+04  0.85681584856E+02 0.  0.
        -13    1    5    5    0    0  0.64631277571E+01 -0.10378881934E+02  0.29978036871E+02  0.32375544864E+02  0.00000000000E+00 0.  1.
         14    1    5    5    0    0 -0.30236480438E+02  0.24560662388E+02  0.13355298106E+04  0.13360978055E+04  0.00000000000E+00 0. -1.
         13    1    3    3    0    0  0.42277028393E+02 -0.22108745505E+01  0.12382897106E+02  0.44108629958E+02  0.00000000000E+00 0. -1.
        -14    1    3    3    0    0  0.47005969163E+01  0.81739867171E+02  0.42536988838E+01  0.81985336803E+02  0.00000000000E+00 0.  1.
          5    1    4    4  501    0 -0.60318353995E+02 -0.38730560487E+01  0.61073634391E+03  0.61373419211E+03  0.41800000000E+01 0.  1.
         -5    1    4    4    0  501  0.37114081366E+02 -0.89837717026E+02  0.10727033434E+04  0.10771064042E+04  0.41800000000E+01 0.  1.
</event>
<event>
11    1  0.7577197E-009  0.1423837E+03  0.7561462E-02  0.1104925E+00
         22   -1    0    0    0    0  0.00000000000E+00  0.00000000000E+00  0.34099937462E+03  0.34099937462E+03  0.00000000000E+00 0. -1.
         22   -1    0    0    0    0 -0.00000000000E+00 -0.00000000000E+00 -0.24231615047E+04  0.24231615047E+04  0.00000000000E+00 0. -1.
         24    2    1    2    0    0  0.61628489932E+02  0.28377469626E+02 -0.23560712668E+04  0.23584240285E+04  0.80552667813E+02 0.  0.
         25    2    1    2    0    0 -0.99862254395E+02  0.13961721984E+02  0.62793773289E+02  0.17250227680E+03  0.12508628223E+03 0.  0.
        -24    2    1    2    0    0  0.38233764463E+02 -0.42339191611E+02  0.21111536343E+03  0.23323457406E+03  0.81081699373E+02 0.  0.
        -13    1    3    3    0    0  0.56176064029E+02  0.49621102581E+02 -0.21231062664E+04  0.21244289167E+04  0.00000000000E+00 0.  1.
         14    1    3    3    0    0  0.54524259025E+01 -0.21243632954E+02 -0.23296500047E+03  0.23399511177E+03  0.00000000000E+00 0. -1.
         13    1    5    5    0    0  0.61300571586E+02 -0.15249147836E+02  0.14475091485E+03  0.15793392269E+03  0.00000000000E+00 0. -1.
        -14    1    5    5    0    0 -0.23066807123E+02 -0.27090043774E+02  0.66364448575E+02  0.75300651373E+02  0.00000000000E+00 0.  1.
          5    1    4    4  501    0 -0.57668635528E+02 -0.37673329649E+02 -0.14309665189E+02  0.70478296009E+02  0.41800000000E+01 0.  1.
         -5    1    4    4    0  501 -0.42193618866E+02  0.51635051633E+02  0.77103438478E+02  0.10202398079E+03  0.41800000000E+01 0.  1.
</event>
<event>
11    1  0.7577197E-009  0.1386309E+03  0.7561462E-02  0.1109097E+00
         22   -1    0    0    0    0  0.00000000000E+00  0.00000000000E+00  0.92062431373E+03  0.92062431373E+03  0.00000000000E+00 0. -1.
         22   -1    0    0    0    0 -0.00000000000E+00 -0.00000000000E+00 -0.18686282847E+04  0.18686282847E+04  0.00000000000E+00 0.  1.
         24    2    1    2    0    0  0.38161204335E+02 -0.45831373299E+02 -0.18136110504E+04  0.18161187568E+04  0.74468141663E+02 0.  0.
         25    2    1    2    0    0 -0.23284470299E+02  0.71292448955E+02  0.51758539046E+02  0.15476096341E+03  0.12508888679E+03 0.  0.
        -24    2    1    2    0    0 -0.14876734036E+02 -0.25461075655E+02  0.81384854046E+03  0.81837287821E+03  0.80716401007E+02 0.  0.
        -11    1    3    3    0    0  0.48134468595E+02 -0.57497193756E+02 -0.16715411566E+04  0.16732222484E+04  0.00000000000E+00 0.  1.
         12    1    3    3    0    0 -0.99732642604E+01  0.11665820457E+02 -0.14206989387E+03  0.14289650840E+03  0.00000000000E+00 0. -1.
         13    1    5    5    0    0 -0.23201337853E+02  0.10801962658E+01  0.72273003854E+03  0.72310315828E+03  0.00000000000E+00 0. -1.
        -14    1    5    5    0    0  0.83246038172E+01 -0.26541271921E+02  0.91118501914E+02  0.95269719927E+02  0.00000000000E+00 0.  1.
          5    1    4    4  501    0 -0.96102326361E+01  0.14119101860E+02  0.85202891326E+02  0.86998337334E+02  0.41800000000E+01 0.  1.
         -5    1    4    4    0  501 -0.13674237663E+02  0.57173347094E+02 -0.33444352280E+02  0.67762626079E+02  0.41800000000E+01 0.  1.
</event>
<event>
11    1  0.7577197E-009  0.1558471E+03  0.7561462E-02  0.1091050E+00
         22   -1    0    0    0    0  0.00000000000E+00  0.00000000000E+00  0.32087172841E+04  0.32087172841E+04  0.00000000000E+00 0.  1.
         22   -1    0    0    0    0 -0.00000000000E+00 -0.00000000000E+00 -0.65485067828E+02  0.65485067828E+02  0.00000000000E+00 0.  1.
        -24    2    1    2    0    0  0.89756257639E+02 -0.11843278121E+02  0.78727386128E+01  0.12269557179E+03  0.82436486467E+02 0.  0.
         25    2    1    2    0    0 -0.14231636940E+03  0.44541812596E+02  0.14534110355E+04  0.14663865034E+04  0.12509123559E+03 0.  0.
         24    2    1    2    0    0  0.52560111766E+02 -0.32698534475E+02  0.16819484422E+04  0.16851202768E+04  0.82752797135E+02 0.  0.
        -11    1    5    5    0    0  0.64367711827E+01 -0.22458191993E+02  0.13067477526E+04  0.13069565759E+04  0.00000000000E+00 0.  1.
         12    1    5    5    0    0  0.46123340583E+02 -0.10240342482E+02  0.37520068967E+03  0.37816370091E+03  0.00000000000E+00 0. -1.
         11    1    3    3    0    0  0.27663163877E+01 -0.10840202397E+02  0.30766895667E+02  0.32737812439E+02  0.00000000000E+00 0. -1.
        -12    1    3    3    0    0  0.86989941251E+02 -0.10030757246E+01 -0.22894157054E+02  0.89957759348E+02  0.00000000000E+00 0.  1.
          5    1    4    4  501    0 -0.11692429398E+03  0.56997194936E+02  0.13979065255E+04  0.14039516007E+04  0.41800000000E+01 0. -1.
         -5    1    4    4    0  501 -0.25392075423E+02 -0.12455382339E+02  0.55504510009E+02  0.62434902697E+02  0.41800000000E+01 0. -1.
</event>
<event>
11    1  0.7577197E-009  0.1362154E+03  0.7561462E-02  0.1111860E+00
         22   -1    0    0    0    0  0.00000000000E+00  0.00000000000E+00  0.16560872457E+03  0.16560872457E+03  0.00000000000E+00 0. -1.
         22   -1    0    0    0    0 -0.00000000000E+00 -0.00000000000E+00 -0.42610934023E+03  0.42610934023E+03  0.00000000000E+00 0. -1.
         24    2    1    2    0    0  0.35430925082E+02 -0.31573253659E+02 -0.26082485476E+03  0.27713929245E+03  0.80773521434E+02 0.  0.
         25    2    1    2    0    0 -0.66000007004E+02  0.57038747378E+02 -0.96250768571E+02  0.18033562729E+03  0.12508920174E+03 0.  0.
        -24    2    1    2    0    0  0.30569081922E+02 -0.25465493719E+02  0.96575007658E+02  0.13424314506E+03  0.84329886465E+02 0.  0.
        -11    1    3    3    0    0 -0.22200426367E+02 -0.40529569703E+01 -0.12535364499E+03  0.12736884118E+03  0.00000000000E+00 0.  1.
         12    1    3    3    0    0  0.57631351449E+02 -0.27520296689E+02 -0.13547120977E+03  0.14977045128E+03  0.00000000000E+00 0. -1.
         11    1    5    5    0    0  0.58826309538E+02 -0.11309241262E+02  0.50386470876E+02  0.78276625369E+02  0.00000000000E+00 0. -1.
        -12    1    5    5    0    0 -0.28257227616E+02 -0.14156252456E+02  0.46188536782E+02  0.55966519690E+02  0.00000000000E+00 0.  1.
          5    1    4    4  501    0  0.31919500534E+02  0.39705471357E+02 -0.19734490020E+02  0.54793261140E+02  0.41800000000E+01 0. -1.
         -5    1    4    4    0  501 -0.97919507538E+02  0.17333276020E+02 -0.76516278551E+02  0.12554236615E+03  0.41800000000E+01 0. -1.
</event>
<event>
11    1  0.7577197E-009  0.2229565E+03  0.7561462E-02  0.1039381E+00
         22   -1    0    0    0    0  0.00000000000E+00  0.00000000000E+00  0.50750090834E+03  0.50750090834E+03  0.00000000000E+00 0. -1.
         22   -1    0    0    0    0 -0.00000000000E+00 -0.00000000000E+00 -0.16447302163E+04  0.16447302163E+04  0.00000000000E+00 0.  1.
         24    2    1    2    0    0 -0.18142935905E+03  0.40000813568E+00 -0.14935860700E+04  0.15066933794E+04  0.80055097768E+02 0.  0.
         25    2    1    2    0    0  0.33655182365E+03 -0.24459646639E+02  0.21686482726E+03  0.42017064506E+03  0.12509042067E+03 0.  0.
        -24    2    1    2    0    0 -0.15512246461E+03  0.24059638503E+02  0.13949193478E+03  0.22536710019E+03  0.81795383415E+02 0.  0.
        -11    1    3    3    0    0 -0.17746086501E+03  0.10548681614E+02 -0.14700140235E+04  0.14807244384E+04  0.00000000000E+00 0.  1.
         12    1    3    3    0    0 -0.39684940330E+01 -0.10148673479E+02 -0.23572046507E+02  0.25968940964E+02  0.00000000000E+00 0. -1.
         11    1    5    5    0    0 -0.53356717293E+02 -0.28471654308E+02  0.64805581684E+02  0.88641625643E+02  0.00000000000E+00 0. -1.
        -12    1    5    5    0    0 -0.10176574731E+03  0.52531292811E+02  0.74686353095E+02  0.13672547454E+03  0.00000000000E+00 0.  1.
          5    1    4    4  501    0  0.19657201275E+02  0.23113771025E+02 -0.41031347809E+01  0.30902428512E+02  0.41800000000E+01 0.  1.
         -5    1    4    4    0  501  0.31689462238E+03 -0.47573417663E+02  0.22096796204E+03  0.38926821654E+03  0.41800000000E+01 0.  1.
</event>
<event>
11    1  0.7577197E-009  0.1667237E+03  0.7561462E-02  0.1080918E+00
         22   -1    0    0    0    0  0.00000000000E+00  0.00000000000E+00  0.12274637410E+04  0.12274637410E+04  0.00000000000E+00 0. -1.
         22   -1    0    0    0    0 -0.00000000000E+00 -0.00000000000E+00 -0.18763671385E+04  0.18763671385E+04  0.00000000000E+00 0.  1.
         24    2    1    2    0    0 -0.43902722514E+01 -0.41555593170E+02 -0.17643538999E+04  0.17667271925E+04  0.81450272229E+02 0.  0.
         25    2    1    2    0    0  0.66287997732E+02  0.13120316916E+03 -0.19875870178E+02  0.19403858648E+03  0.12509017782E+03 0.  0.
        -24    2    1    2    0    0 -0.61897725480E+02 -0.89647575994E+02  0.11353263726E+04  0.11430651005E+04  0.75919927842E+02 0.  0.
        -13    1    3    3    0    0 -0.24103041192E+02 -0.16266197877E+01 -0.13041933597E+04  0.13044170813E+04  0.00000000000E+00 0.  1.
         14    1    3    3    0    0  0.19712768940E+02 -0.39928973382E+02 -0.46016054016E+03  0.46231011118E+03  0.00000000000E+00 0. -1.
         13    1    5    5    0    0 -0.73065338066E+02 -0.95443062488E+02  0.10301919930E+04  0.10371805360E+04  0.00000000000E+00 0. -1.
        -14    1    5    5    0    0  0.11167612586E+02  0.57954864936E+01  0.10513437961E+03  0.10588456456E+03  0.00000000000E+00 0.  1.
          5    1    4    4  501    0 -0.41981099165E+01  0.77344193259E+02  0.39660990222E+02  0.87121839415E+02  0.41800000000E+01 0. -1.
         -5    1    4    4    0  501  0.70486107648E+02  0.53858975905E+02 -0.59536860399E+02  0.10691674707E+03  0.41800000000E+01 0. -1.
</event>
<event>
11    1  0.7577197E-009  0.1464271E+03  0.7561462E-02  0.1100586E+00
         22   -1    0    0    0    0  0.00000000000E+00  0.00000000000E+00  0.11205838513E+03  0.11205838513E+03  0.00000000000E+00 0.  1.
         22   -1    0    0    0    0 -0.00000000000E+00 -0.00000000000E+00 -0.14291286429E+04  0.14291286429E+04  0.00000000000E+00 0.  1.
         24    2    1    2    0    0 -0.66510717977E+02 -0.42422545593E+02 -0.11615340133E+04  0.11671984868E+04  0.83472724092E+02 0.  0.
         25    2    1    2    0    0  0.47179676379E+02  0.32411355691E+02 -0.22610445052E+03  0.26466501284E+03  0.12509168094E+03 0.  0.
        -24    2    1    2    0    0  0.19331041598E+02  0.10011189902E+02  0.70568206017E+02  0.10932352837E+03  0.80609236831E+02 0.  0.
        -11    1    3    3    0    0 -0.29206707673E+02 -0.60653003733E+02 -0.88598740011E+03  0.88854121558E+03  0.00000000000E+00 0.  1.
         12    1    3    3    0    0 -0.37304010304E+02  0.18230458140E+02 -0.27554661319E+03  0.27865727126E+03  0.00000000000E+00 0. -1.
         11    1    5    5    0    0  0.17348725075E+02 -0.17979746080E+02 -0.77262693654E+01  0.26152337738E+02  0.00000000000E+00 0. -1.
        -12    1    5    5    0    0  0.19823165223E+01  0.27990935982E+02  0.78294475383E+02  0.83171190633E+02  0.00000000000E+00 0.  1.
          5    1    4    4  501    0  0.18215879309E+02 -0.20366241220E+02  0.29456360557E+01  0.27798403051E+02  0.41800000000E+01 0. -1.
         -5    1    4    4    0  501  0.28963797070E+02  0.52777596912E+02 -0.22905008657E+03  0.23686660979E+03  0.41800000000E+01 0. -1.
</event>
<event>
11    1  0.7577197E-009  0.1308475E+03  0.7561462E-02  0.1118232E+00
         22   -1    0    0    0    0  0.00000000000E+00  0.00000000000E+00  0.16255056868E+04  0.16255056868E+04  0.00000000000E+00 0. -1.
         22   -1    0    0    0    0 -0.00000000000E+00 -0.00000000000E+00 -0.14462306834E+03  0.14462306834E+03  0.00000000000E+00 0. -1.
        -24    2    1    2    0    0 -0.41092879389E+02 -0.25283163078E+02 -0.61125691994E+02  0.11223438911E+03  0.80822922523E+02 0.  0.
         25    2    1    2    0    0  0.94284992755E+01  0.67706554052E+01  0.12969663799E+02  0.12629005620E+03  0.12508488215E+03 0.  0.
         24    2    1    2    0    0  0.31664380114E+02  0.18512507673E+02  0.15290386466E+04  0.15316043098E+04  0.80667422243E+02 0.  0.
        -13    1    5    5    0    0  0.21149712878E+02  0.21499738836E+02  0.17910452814E+03  0.18162593737E+03  0.00000000000E+00 0.  1.
         14    1    5    5    0    0  0.10514667235E+02 -0.29872311636E+01  0.13499341185E+04  0.13499783724E+04  0.00000000000E+00 0. -1.
         11    1    3    3    0    0 -0.38120557160E+02 -0.14619436258E+02 -0.80306017427E+02  0.90088629858E+02  0.00000000000E+00 0. -1.
        -12    1    3    3    0    0 -0.29723222286E+01 -0.10663726820E+02  0.19180325432E+02  0.22145759251E+02  0.00000000000E+00 0.  1.
          5    1    4    4  501    0  0.45549215487E+02  0.46880455956E+02  0.26224066768E+02  0.70552691373E+02  0.41800000000E+01 0.  1.
         -5    1    4    4    0  501 -0.36120716212E+02 -0.40109800551E+02 -0.13254402969E+02  0.55737364828E+02  0.41800000000E+01 0.  1.
</event>
<event>
11    1  0.7577197E-009  0.1401022E+03  0.7561462E-02  0.1107444E+00
         22   -1    0    0    0    0  0.00000000000E+00  0.00000000000E+00  0.10032118321E+04  0.10032118321E+04  0.00000000000E+00 0. -1.
         22   -1    0    0    0    0 -0.00000000000E+00 -0.00000000000E+00 -0.88078310563E+03  0.88078310563E+03  0.00000000000E+00 0.  1.
         24    2    1    2    0    0 -0.36032833138E+00  0.63840059146E+01 -0.80321928878E+03  0.80722605025E+03  0.80073622140E+02 0.  0.
         25    2    1    2    0    0 -0.50411181273E+02  0.31343865279E+02 -0.66147199568E+01  0.13861855674E+03  0.12509046592E+03 0.  0.
        -24    2    1    2    0    0  0.50771509604E+02 -0.37727871194E+02  0.93226273519E+03  0.93815033073E+03  0.83732294695E+02 0.  0.
        -13    1    3    3    0    0  0.33483451575E+02  0.19002087549E+02 -0.56204361023E+03  0.56336066659E+03  0.00000000000E+00 0.  1.
         14    1    3    3    0    0 -0.33843779907E+02 -0.12618081634E+02 -0.24117567855E+03  0.24386538366E+03  0.00000000000E+00 0. -1.
         11    1    5    5    0    0  0.45373009234E+02 -0.58361403855E+02  0.84852748090E+03  0.85174153900E+03  0.00000000000E+00 0. -1.
        -12    1    5    5    0    0  0.53985003704E+01  0.20633532661E+02  0.83735254292E+02  0.86408791727E+02  0.00000000000E+00 0.  1.
          5    1    4    4  501    0 -0.92116624354E+02  0.27907604379E+02 -0.26706145747E+01  0.96378998992E+02  0.41800000000E+01 0. -1.
         -5    1    4    4    0  501  0.41705443081E+02  0.34362609001E+01 -0.39441053821E+01  0.42239557749E+02  0.41800000000E+01 0. -1.
</event>
<event>
11    1  0.7577197E-009  0.3306271E+03  0.7561462E-02  0.9880023E-01
         22   -1    0    0    0    0  0.00000000000E+00  0.00000000000E+00  0.52450524061E+03  0.52450524061E+03  0.00000000000E+00 0. -1.
         22   -1    0    0    0    0 -0.00000000000E+00 -0.00000000000E+00 -0.36733351389E+03  0.36733351389E+03  0.00000000000E+00 0. -1.
         24    2    1    2    0    0 -0.29896273282E+03  0.34970543952E+02 -0.15546822031E+03  0.34864740151E+03  0.82358900511E+02 0.  0.
         25    2    1    2    0    0  0.32523113349E+03 -0.73141405723E+01  0.25974568707E+03  0.43467566533E+03  0.12508527188E+03 0.  0.
        -24    2    1    2    0    0 -0.26268400665E+02 -0.27656403380E+02  0.52894259970E+02  0.10851568765E+03  0.86734919195E+02 0.  0.
        -13    1    3    3    0    0 -0.13800707922E+03 -0.20083351724E+02 -0.48272868738E+02  0.14757901201E+03  0.00000000000E+00 0.  1.
         14    1    3    3    0    0 -0.16095565360E+03  0.55053895677E+02 -0.10719535158E+03  0.20106838950E+03  0.00000000000E+00 0. -1.
         11    1    5    5    0    0 -0.57854125989E+02 -0.15021257875E+02  0.40976384791E+02  0.72469318974E+02  0.00000000000E+00 0. -1.
        -12    1    5    5    0    0  0.31585725324E+02 -0.12635145505E+02  0.11917875179E+02  0.36046368679E+02  0.00000000000E+00 0.  1.
          5    1    4    4  501    0  0.10128296328E+03  0.29661830842E+02  0.25877898764E+02  0.10874373961E+03  0.41800000000E+01 0. -1.
         -5    1    4    4    0  501  0.22394817021E+03 -0.36975971415E+02  0.23386778830E+03  0.32593192572E+03  0.41800000000E+01 0. -1.
</event>
<event>
11    1  0.7577197E-009  0.1968875E+03  0.7561462E-02  0.1056747E+00
         22   -1    0    0    0    0  0.00000000000E+00  0.00000000000E+00  0.76651836631E+03  0.76651836631E+03  0.00000000000E+00 0.  1.
         22   -1    0    0    0    0 -0.00000000000E+00 -0.00000000000E+00 -0.83534658057E+03  0.83534658057E+03  0.00000000000E+00 0. -1.
        -24    2    1    2    0    0  0.14547970284E+03 -0.43464811807E+02 -0.78527357508E+03  0.80429936035E+03  0.84789973093E+02 0.  0.
         25    2    1    2    0    0 -0.15752152915E+03  0.25210309805E+02  0.24115780819E+03  0.31504432778E+03  0.12508896093E+03 0.  0.
         24    2    1    2    0    0  0.12041826313E+02  0.18254502001E+02  0.47528755263E+03  0.48252125875E+03  0.80313604335E+02 0.  0.
        -11    1    5    5    0    0  0.15033499513E+02  0.42188680356E+02  0.41758957123E+03  0.41998445312E+03  0.00000000000E+00 0.  1.
         12    1    5    5    0    0 -0.29916732008E+01 -0.23934178355E+02  0.57697981396E+02  0.62536805636E+02  0.00000000000E+00 0. -1.
         11    1    3    3    0    0  0.14009745695E+03 -0.48371167905E+02 -0.57163675185E+03  0.59053843515E+03  0.00000000000E+00 0. -1.
        -12    1    3    3    0    0  0.53822458896E+01  0.49063560984E+01 -0.21363682323E+03  0.21376092520E+03  0.00000000000E+00 0.  1.
          5    1    4    4  501    0 -0.13149635756E+03  0.10114395676E+02  0.87298675528E+02  0.15821543604E+03  0.41800000000E+01 0. -1.
         -5    1    4    4    0  501 -0.26025171588E+02  0.15095914129E+02  0.15385913266E+03  0.15682889174E+03  0.41800000000E+01 0. -1.
</event>
<event>
11    1  0.7577197E-009  0.2797032E+03  0.7561462E-02  0.1009167E+00
         22   -1    0    0    0    0  0.00000000000E+00  0.00000000000E+00  0.10891925408E+04  0.10891925408E+04  0.00000000000E+00 0.  1.
         22   -1    0    0    0    0 -0.00000000000E+00 -0.00000000000E+00 -0.79351817900E+03  0.79351817900E+03  0.00000000000E+00 0. -1.
        -24    2    1    2    0    0 -0.83178446559E+02 -0.23509658748E+03 -0.70360283559E+03  0.75096074765E+03  0.81829303103E+02 0.  0.
         25    2    1    2    0    0  0.61546948552E+01  0.27560419852E+03  0.31344694168E+03  0.43576602683E+03  0.12508992916E+03 0.  0.
         24    2    1    2    0    0  0.77023751704E+02 -0.40507611045E+02  0.68583025573E+03  0.69598394534E+03  0.80355383246E+02 0.  0.
        -11    1    5    5    0    0  0.40591520079E+02 -0.18948099628E+02  0.58385203680E+03  0.58556801728E+03  0.00000000000E+00 0.  1.
         12    1    5    5    0    0  0.36432231625E+02 -0.21559511417E+02  0.10197821892E+03  0.11041592806E+03  0.00000000000E+00 0. -1.
         11    1    3    3    0    0 -0.83872906819E+02 -0.17202810874E+03 -0.59881361630E+03  0.62865418297E+03  0.00000000000E+00 0. -1.
        -12    1    3    3    0    0  0.69446025955E+00 -0.63068478737E+02 -0.10478921928E+03  0.12230656468E+03  0.00000000000E+00 0.  1.
          5    1    4    4  501    0  0.65076087602E+02  0.15966806026E+03  0.18515748722E+03  0.25304061753E+03  0.41800000000E+01 0.  1.
         -5    1    4    4    0  501 -0.58921392747E+02  0.11593613827E+03  0.12828945446E+03  0.18272540931E+03  0.41800000000E+01 0.  1.
</event>
<event>
11    1  0.7577197E-009  0.1376786E+03  0.7561462E-02  0.1110179E+00
         22   -1    0    0    0    0  0.00000000000E+00  0.00000000000E+00  0.11180456445E+04  0.11180456445E+04  0.00000000000E+00 0.  1.
         22   -1    0    0    0    0 -0.00000000000E+00 -0.00000000000E+00 -0.57867726540E+02  0.57867726540E+02  0.00000000000E+00 0.  1.
         24    2    1    2    0    0 -0.29862989235E+02  0.27189371352E+01  0.58524876204E+01  0.84899911040E+02  0.79212073184E+02 0.  0.
         25    2    1    2    0    0 -0.28481784443E+02  0.20907332174E+02  0.26944105644E+03  0.29915575885E+03  0.12508939432E+03 0.  0.
        -24    2    1    2    0    0  0.58344773677E+02 -0.23626269309E+02  0.78488437390E+03  0.79185770116E+03  0.83861941713E+02 0.  0.
        -13    1    3    3    0    0 -0.46589132906E+02  0.23280782748E+02 -0.11345696169E+02  0.53303536204E+02  0.00000000000E+00 0.  1.
         14    1    3    3    0    0  0.16726143671E+02 -0.20561845613E+02  0.17198183789E+02  0.31596374836E+02  0.00000000000E+00 0. -1.
         13    1    5    5    0    0  0.32239630624E+02  0.13944802588E+02  0.11107172159E+03  0.11649368497E+03  0.00000000000E+00 0. -1.
        -14    1    5    5    0    0  0.26105143054E+02 -0.37571071896E+02  0.67381265231E+03  0.67536401618E+03  0.00000000000E+00 0.  1.
          5    1    4    4  501    0 -0.10603927628E+02  0.41014660671E+02  0.17956124554E+02  0.46201087434E+02  0.41800000000E+01 0. -1.
         -5    1    4    4    0  501 -0.17877856815E+02 -0.20107328497E+02  0.25148493189E+03  0.25295467141E+03  0.41800000000E+01 0. -1.
</event>
<event>
11    1  0.7577197E-009  0.1391986E+03  0.7561462E-02  0.1108457E+00
         22   -1    0    0    0    0  0.00000000000E+00  0.00000000000E+00  0.45692637805E+03  0.45692637805E+03  0.00000000000E+00 0. -1.
         22   -1    0    0    0    0 -0.00000000000E+00 -0.00000000000E+00 -0.78665482527E+03  0.78665482527E+03  0.00000000000E+00 0. -1.
         24    2    1    2    0    0  0.13607523458E+02  0.25953458227E+02 -0.63279576764E+03  0.63855575213E+03  0.80400362817E+02 0.  0.
         25    2    1    2    0    0 -0.69001759812E+02 -0.49332098444E+02 -0.10527920952E+03  0.18418945736E+03  0.12508855044E+03 0.  0.
        -24    2    1    2    0    0  0.55394236354E+02  0.23378640217E+02  0.40834652995E+03  0.42083599383E+03  0.82103367445E+02 0.  0.
        -13    1    3    3    0    0 -0.18884422636E+01 -0.56623349914E+01 -0.13379025258E+01  0.61170446219E+01  0.00000000000E+00 0.  1.
         14    1    3    3    0    0  0.15495965722E+02  0.31615793218E+02 -0.63145786512E+03  0.63243870751E+03  0.00000000000E+00 0. -1.
         13    1    5    5    0    0  0.56453638474E+02  0.48283869603E+01  0.12927446146E+03  0.14114606974E+03  0.00000000000E+00 0. -1.
        -14    1    5    5    0    0 -0.10594021200E+01  0.18550253257E+02  0.27907206849E+03  0.27968992409E+03  0.00000000000E+00 0.  1.
          5    1    4    4  501    0 -0.38890828977E+02 -0.76319642201E+02 -0.17602055474E+02  0.87547068033E+02  0.41800000000E+01 0. -1.
         -5    1    4    4    0  501 -0.30110930835E+02  0.26987543758E+02 -0.87677154044E+02  0.96642389328E+02  0.41800000000E+01 0. -1.
</event>
<event>
11    1  0.7577197E-009  0.2200270E+03  0.7561462E-02  0.1041201E+00
         22   -1    0    0    0    0  0.00000000000E+00  0.00000000000E+00  0.67159490699E+02  0.67159490699E+02  0.00000000000E+00 0. -1.
         22   -1    0    0    0    0 -0.00000000000E+00 -0.00000000000E+00 -0.20108390700E+04  0.20108390700E+04  0.00000000000E+00 0. -1.
        -24    2    1    2    0    0 -0.68536776797E+02  0.65496007800E+02 -0.11614851546E+04  0.11683011958E+04  0.83023508928E+02 0.  0.
         25    2    1    2    0    0 -0.23753081292E+00  0.12856110151E+03 -0.57918626952E+03  0.60632759796E+03  0.12509359701E+03 0.  0.
         24    2    1    2    0    0  0.68774307610E+02 -0.19405710931E+03 -0.20300815519E+03  0.30336976690E+03  0.91830481505E+02 0.  0.
        -11    1    5    5    0    0  0.88699374898E+02 -0.17915578700E+03 -0.18730388898E+03  0.27394729776E+03  0.00000000000E+00 0.  1.
         12    1    5    5    0    0 -0.19925067288E+02 -0.14901322312E+02 -0.15704266208E+02  0.29422469138E+02  0.00000000000E+00 0. -1.
         11    1    3    3    0    0  0.73761188841E+01 -0.11770572078E+02 -0.25307074480E+03  0.25345168251E+03  0.00000000000E+00 0. -1.
        -12    1    3    3    0    0 -0.75912895681E+02  0.77266579878E+02 -0.90841440978E+03  0.91484951330E+03  0.00000000000E+00 0.  1.
          5    1    4    4  501    0 -0.58122253004E+02  0.34553199485E+02 -0.25436911674E+03  0.26323609144E+03  0.41800000000E+01 0. -1.
         -5    1    4    4    0  501  0.57884722191E+02  0.94007902026E+02 -0.32481715278E+03  0.34309150652E+03  0.41800000000E+01 0. -1.
</event>
<event>
11    1  0.7577197E-009  0.2221357E+03  0.7561462E-02  0.1039888E+00
         22   -1    0    0    0    0  0.00000000000E+00  0.00000000000E+00  0.10887515715E+03  0.10887515715E+03  0.00000000000E+00 0. -1.
         22   -1    0    0    0    0 -0.00000000000E+00 -0.00000000000E+00 -0.27946364278E+04  0.27946364278E+04  0.00000000000E+00 0. -1.
        -24    2    1    2    0    0  0.17995562032E+03  0.59345379590E+02 -0.21806862013E+04  0.21903880377E+04  0.80632175569E+02 0.  0.
         25    2    1    2    0    0 -0.13006740650E+03 -0.10906408339E+03 -0.55498747490E+03  0.59369889403E+03  0.12511904316E+03 0.  0.
         24    2    1    2    0    0 -0.49888213815E+02  0.49718703801E+02  0.49912405550E+02  0.11942465324E+03  0.82524034001E+02 0.  0.
        -13    1    5    5    0    0 -0.62867046520E+02  0.63240707212E+01  0.28061507396E+02  0.69135429455E+02  0.00000000000E+00 0.  1.
         14    1    5    5    0    0  0.12978832704E+02  0.43394633080E+02  0.21850898155E+02  0.50289223783E+02  0.00000000000E+00 0. -1.
         13    1    3    3    0    0  0.17986285702E+03  0.47764242618E+02 -0.21402655452E+04  0.21483409120E+04  0.00000000000E+00 0. -1.
        -14    1    3    3    0    0  0.92763293051E-01  0.11581136972E+02 -0.40420656028E+02  0.42047125613E+02  0.00000000000E+00 0.  1.
          5    1    4    4  501    0 -0.95267390675E+02 -0.85834325186E+02 -0.52884515954E+03  0.54418570569E+03  0.41800000000E+01 0. -1.
         -5    1    4    4    0  501 -0.34800015827E+02 -0.23229758204E+02 -0.26142315360E+02  0.49513188346E+02  0.41800000000E+01 0. -1.
</event>
<event>
11    1  0.7577197E-009  0.1269069E+03  0.7561462E-02  0.1123129E+00
         22   -1    0    0    0    0  0.00000000000E+00  0.00000000000E+00  0.89039207858E+02  0.89039207858E+02  0.00000000000E+00 0. -1.
         22   -1    0    0    0    0 -0.00000000000E+00 -0.00000000000E+00 -0.95896691583E+03  0.95896691583E+03  0.00000000000E+00 0.  1.
        -24    2    1    2    0    0  0.75550415478E+01 -0.17919544368E+02 -0.76817398582E+03  0.77286858665E+03  0.82803327335E+02 0.  0.
         25    2    1    2    0    0 -0.24819707175E+02  0.37737317307E+02 -0.13004010575E+03  0.18600654861E+03  0.12509150268E+03 0.  0.
         24    2    1    2    0    0  0.17264665627E+02 -0.19817772939E+02  0.28286383587E+02  0.89130988430E+02  0.80333061678E+02 0.  0.
        -13    1    5    5    0    0  0.27852811845E+02  0.28578030102E+01 -0.20228444943E+02  0.34541802943E+02  0.00000000000E+00 0.  1.
         14    1    5    5    0    0 -0.10588146218E+02 -0.22675575949E+02  0.48514828529E+02  0.54589185487E+02  0.00000000000E+00 0. -1.
         13    1    3    3    0    0  0.10859354846E+02  0.32071765709E+02 -0.37238337655E+03  0.37391964762E+03  0.00000000000E+00 0. -1.
        -14    1    3    3    0    0 -0.33043132986E+01 -0.49991310077E+02 -0.39579060927E+03  0.39894893903E+03  0.00000000000E+00 0.  1.
          5    1    4    4  501    0 -0.44876988207E+01 -0.46159399574E+02 -0.46290065264E+02  0.65658755333E+02  0.41800000000E+01 0. -1.
         -5    1    4    4    0  501 -0.20332008355E+02  0.83896716881E+02 -0.83750040482E+02  0.12034779328E+03  0.41800000000E+01 0. -1.
</event>
<event>
11    1  0.7577197E-009  0.1330518E+03  0.7561462E-02  0.1115575E+00
         22   -1    0    0    0    0  0.00000000000E+00  0.00000000000E+00  0.58623745096E+02  0.58623745096E+02  0.00000000000E+00 0. -1.
         22   -1    0    0    0    0 -0.00000000000E+00 -0.00000000000E+00 -0.17243701979E+04  0.17243701979E+04  0.00000000000E+00 0. -1.
         24    2    1    2    0    0  0.36345792844E+02 -0.30107511334E+02 -0.12482297559E+04  0.12517649319E+04  0.81304626916E+02 0.  0.
         25    2    1    2    0    0 -0.45865580348E+01  0.62625363157E+02 -0.40586726354E+03  0.42932270713E+03  0.12508708414E+03 0.  0.
        -24    2    1    2    0    0 -0.31759234810E+02 -0.32517851823E+02 -0.11649433367E+02  0.10190630396E+03  0.90460631247E+02 0.  0.
        -13    1    3    3    0    0  0.29738340821E+02 -0.41462385317E+02 -0.37712503811E+03  0.38056115498E+03  0.00000000000E+00 0.  1.
         14    1    3    3    0    0  0.66074520235E+01  0.11354873983E+02 -0.87110471779E+03  0.87120377693E+03  0.00000000000E+00 0. -1.
         11    1    5    5    0    0 -0.18548349169E+02 -0.62880706563E+02 -0.18443182948E+02  0.68104151944E+02  0.00000000000E+00 0. -1.
        -12    1    5    5    0    0 -0.13210885641E+02  0.30362854740E+02  0.67937495813E+01  0.33802152013E+02  0.00000000000E+00 0.  1.
          5    1    4    4  501    0 -0.58477041673E+01  0.41421590683E+02 -0.27277854071E+02  0.50114843524E+02  0.41800000000E+01 0.  1.
         -5    1    4    4    0  501  0.12611461324E+01  0.21203772474E+02 -0.37858940947E+03  0.37920786361E+03  0.41800000000E+01 0.  1.
</event>
<event>
11    1  0.7577197E-009  0.1430887E+03  0.7561462E-02  0.1104158E+00
         22   -1    0    0    0    0  0.00000000000E+00  0.00000000000E+00  0.59373162223E+03  0.59373162223E+03  0.00000000000E+00 0. -1.
         22   -1    0    0    0    0 -0.00000000000E+00 -0.00000000000E+00 -0.96408038085E+03  0.96408038085E+03  0.00000000000E+00 0.  1.
        -24    2    1    2    0    0  0.66553211826E+02 -0.25545240149E+02 -0.88915239359E+03  0.89611011455E+03  0.85670701415E+02 0.  0.
         25    2    1    2    0    0 -0.32462241333E+02  0.17969658555E+02 -0.48324026154E+01  0.13056576946E+03  0.12508941721E+03 0.  0.
         24    2    1    2    0    0 -0.34090970493E+02  0.75755815940E+01  0.52363603758E+03  0.53113611906E+03  0.81800326463E+02 0.  0.
        -11    1    5    5    0    0  0.75922319449E+01  0.23046704372E+02  0.51709224679E+02  0.57119493040E+02  0.00000000000E+00 0.  1.
         12    1    5    5    0    0 -0.41683202438E+02 -0.15471122778E+02  0.47192681291E+03  0.47401662602E+03  0.00000000000E+00 0. -1.
         11    1    3    3    0    0  0.74263764506E+01  0.52587573174E+01 -0.71005600771E+01  0.11542250609E+02  0.00000000000E+00 0. -1.
        -12    1    3    3    0    0  0.59126835376E+02 -0.30803997467E+02 -0.88205183351E+03  0.88456786395E+03  0.00000000000E+00 0.  1.
          5    1    4    4  501    0  0.61097393138E+01  0.49389251579E+02  0.39597311676E+02  0.63734186886E+02  0.41800000000E+01 0. -1.
         -5    1    4    4    0  501 -0.38571980647E+02 -0.31419593024E+02 -0.44429714292E+02  0.66831582570E+02  0.41800000000E+01 0. -1.
</event>
<event>
11    1  0.7577197E-009  0.1304759E+03  0.7561462E-02  0.1118686E+00
         22   -1    0    0    0    0  0.00000000000E+00  0.00000000000E+00  0.81895112263E+03  0.81895112263E+03  0.00000000000E+00 0.  1.
         22   -1    0    0    0    0 -0.00000000000E+00 -0.00000000000E+00 -0.19114808969E+03  0.19114808969E+03  0.00000000000E+00 0.  1.
        -24    2    1    2    0    0 -0.24824051009E+02 -0.34177184617E+02 -0.13969809354E+03  0.16901496953E+03  0.85241944661E+02 0.  0.
         25    2    1    2    0    0 -0.95532987263E+01  0.19006747864E+01  0.83354216847E+02  0.15063384137E+03  0.12509096938E+03 0.  0.
         24    2    1    2    0    0  0.34377349735E+02  0.32276509831E+02  0.68414690963E+03  0.69045040142E+03  0.80257009646E+02 0.  0.
        -13    1    5    5    0    0  0.49910831495E+02  0.31112561042E+01  0.24439760830E+03  0.24946134362E+03  0.00000000000E+00 0.  1.
         14    1    5    5    0    0 -0.15533481760E+02  0.29165253727E+02  0.43974930133E+03  0.44098905780E+03  0.00000000000E+00 0. -1.
         11    1    3    3    0    0  0.84299310152E+01  0.14321077950E+02  0.87205666920E+00  0.16640838122E+02  0.00000000000E+00 0. -1.
        -12    1    3    3    0    0 -0.33253982024E+02 -0.48498262567E+02 -0.14057015021E+03  0.15237413141E+03  0.00000000000E+00 0.  1.
          5    1    4    4  501    0 -0.45871922019E+02 -0.44636269599E+02  0.57166049710E+02  0.85918911964E+02  0.41800000000E+01 0. -1.
         -5    1    4    4    0  501  0.36318623293E+02  0.46536944386E+02  0.26188167137E+02  0.64714929411E+02  0.41800000000E+01 0. -1.
</event>
<event>
11    1  0.7577197E-009  0.1881694E+03  0.7561462E-02  0.1063220E+00
         22   -1    0    0    0    0  0.00000000000E+00  0.00000000000E+00  0.45091113616E+03  0.45091113616E+03  0.00000000000E+00 0.  1.
         22   -1    0    0    0    0 -0.00000000000E+00 -0.00000000000E+00 -0.11762501754E+04  0.11762501754E+04  0.00000000000E+00 0.  1.
         24    2    1    2    0    0  0.63288721430E+01 -0.34448396398E+02 -0.10829402104E+04  0.10864778505E+04  0.80298653113E+02 0.  0.
         25    2    1    2    0    0  0.81146565708E+02 -0.84164203970E+02  0.30692470270E+02  0.17394753950E+03  0.12508932973E+03 0.  0.
        -24    2    1    2    0    0 -0.87475437851E+02  0.11861260037E+03  0.32690870083E+03  0.36673592161E+03  0.76844234157E+02 0.  0.
        -13    1    3    3    0    0 -0.26188400128E+02 -0.45950282661E+02 -0.69286811087E+03  0.69488378872E+03  0.00000000000E+00 0.  1.
         14    1    3    3    0    0  0.32517272271E+02  0.11501886263E+02 -0.39007209952E+03  0.39159406176E+03  0.00000000000E+00 0. -1.
         11    1    5    5    0    0 -0.33674310403E+02 -0.23710967401E+01  0.63002339347E+02  0.71476402009E+02  0.00000000000E+00 0. -1.
        -12    1    5    5    0    0 -0.53801127448E+02  0.12098369711E+03  0.26390636148E+03  0.29525951960E+03  0.00000000000E+00 0.  1.
          5    1    4    4  501    0 -0.23068891900E+02 -0.51194034137E+02 -0.10094130249E+02  0.57204604449E+02  0.41800000000E+01 0. -1.
         -5    1    4    4    0  501  0.10421545761E+03 -0.32970169833E+02  0.40786600519E+02  0.11674293505E+03  0.41800000000E+01 0. -1.
</event>
<event>
11    1  0.7577197E-009  0.1350614E+03  0.7561462E-02  0.1113202E+00
         22   -1    0    0    0    0  0.00000000000E+00  0.00000000000E+00  0.86597864837E+03  0.86597864837E+03  0.00000000000E+00 0.  1.
         22   -1    0    0    0    0 -0.00000000000E+00 -0.00000000000E+00 -0.26402597244E+03  0.26402597244E+03  0.00000000000E+00 0. -1.
         24    2    1    2    0    0  0.16925012880E+02 -0.47270522305E+02 -0.23730028561E+03  0.25514488744E+03  0.79161415471E+02 0.  0.
         25    2    1    2    0    0 -0.37777872136E+02  0.80933116725E+02  0.45566539343E+03  0.48089047939E+03  0.12508942958E+03 0.  0.
        -24    2    1    2    0    0  0.20852859256E+02 -0.33662594420E+02  0.38358756811E+03  0.39396925398E+03  0.80649480248E+02 0.  0.
        -13    1    3    3    0    0  0.31639647023E+01 -0.12267983258E+02  0.20704271504E+01  0.12837474613E+02  0.00000000000E+00 0.  1.
         14    1    3    3    0    0  0.13761048177E+02 -0.35002539047E+02 -0.23937071276E+03  0.24230741283E+03  0.00000000000E+00 0. -1.
         13    1    5    5    0    0 -0.23161978508E+02 -0.17306985044E+02  0.55904485354E+02  0.62939021779E+02  0.00000000000E+00 0. -1.
        -14    1    5    5    0    0  0.44014837765E+02 -0.16355609376E+02  0.32768308276E+03  0.33103023220E+03  0.00000000000E+00 0.  1.
          5    1    4    4  501    0 -0.24820890599E+02 -0.26422682935E+02  0.56056952620E+02  0.66888632223E+02  0.41800000000E+01 0. -1.
         -5    1    4    4    0  501 -0.12956981537E+02  0.10735579966E+03  0.39960844081E+03  0.41400184717E+03  0.41800000000E+01 0. -1.
</event>
<event>
11    1  0.7577197E-009  0.2085523E+03  0.7561462E-02  0.1048635E+00
         22   -1    0    0    0    0  0.00000000000E+00  0.00000000000E+00  0.54358875070E+03  0.54358875070E+03  0.00000000000E+00 0.  1.
         22   -1    0    0    0    0 -0.00000000000E+00 -0.00000000000E+00 -0.73126635370E+03  0.73126635370E+03  0.00000000000E+00 0.  1.
        -24    2    1    2    0    0 -0.42804375431E+02 -0.42532801843E+02 -0.49231364869E+03  0.49869242814E+03  0.51770217437E+02 0.  0.
         25    2    1    2    0    0  0.34615278474E+02  0.20611366152E+03 -0.14988945985E+03  0.28600130666E+03  0.12509531674E+03 0.  0.
         24    2    1    2    0    0  0.81890969565E+01 -0.16358085968E+03  0.45452550554E+03  0.49016136959E+03  0.82698090005E+02 0.  0.
        -13    1    5    5    0    0  0.38258378085E+02 -0.12976834011E+03  0.37507919937E+03  0.39873290733E+03  0.00000000000E+00 0.  1.
         14    1    5    5    0    0 -0.30069281128E+02 -0.33812519572E+02  0.79446306173E+02  0.91428462264E+02  0.00000000000E+00 0. -1.
         11    1    3    3    0    0 -0.71680810239E+01 -0.26726913238E+02 -0.82253438210E+02  0.86783278194E+02  0.00000000000E+00 0. -1.
        -12    1    3    3    0    0 -0.35636294407E+02 -0.15805888605E+02 -0.41006021048E+03  0.41190914995E+03  0.00000000000E+00 0.  1.
          5    1    4    4  501    0 -0.25798404352E+02  0.74561229873E+01 -0.46850654405E+02  0.54162788474E+02  0.41800000000E+01 0. -1.
         -5    1    4    4    0  501  0.60413682827E+02  0.19865753854E+03 -0.10303880544E+03  0.23183851819E+03  0.41800000000E+01 0. -1.
</event>
<event>
11    1  0.7577197E-009  0.1338887E+03  0.7561462E-02  0.1114581E+00
         22   -1    0    0    0    0  0.00000000000E+00  0.00000000000E+00  0.36769210079E+03  0.36769210079E+03  0.00000000000E+00 0.  1.
         22   -1    0    0    0    0 -0.00000000000E+00 -0.00000000000E+00 -0.94606658113E+03  0.94606658113E+03  0.00000000000E+00 0.  1.
        -24    2    1    2    0    0  0.17508411975E+01  0.46842409519E+02 -0.85135213272E+03  0.85635796161E+03  0.79694590473E+02 0.  0.
         25    2    1    2    0    0  0.23577109271E+02 -0.69394613124E+02 -0.24988610331E+02  0.14711674674E+03  0.12508962432E+03 0.  0.
         24    2    1    2    0    0 -0.25327950468E+02  0.22552203604E+02  0.29796626271E+03  0.31028397356E+03  0.79637576369E+02 0.  0.
        -13    1    5    5    0    0 -0.32332242272E+02 -0.21075245285E+02  0.94544158645E+02  0.10211825394E+03  0.00000000000E+00 0.  1.
         14    1    5    5    0    0  0.70042918044E+01  0.43627448889E+02  0.20342210407E+03  0.20816571962E+03  0.00000000000E+00 0. -1.
         11    1    3    3    0    0 -0.36522444535E+02  0.72915119315E+01 -0.36993309070E+03  0.37180310205E+03  0.00000000000E+00 0. -1.
        -12    1    3    3    0    0  0.38273285733E+02  0.39550897588E+02 -0.48141904203E+03  0.48455485956E+03  0.00000000000E+00 0.  1.
          5    1    4    4  501    0  0.83712643586E+01 -0.99756968990E+02  0.67858548384E+01  0.10042435539E+03  0.41800000000E+01 0. -1.
         -5    1    4    4    0  501  0.15205844912E+02  0.30362355866E+02 -0.31774465170E+02  0.46692391351E+02  0.41800000000E+01 0. -1.
</event>
<event>
11    1  0.7577197E-009  0.1260846E+03  0.7561462E-02  0.1124176E+00
         22   -1    0    0    0    0  0.00000000000E+00  0.00000000000E+00  0.11358646738E+03  0.11358646738E+03  0.00000000000E+00 0. -1.
         22   -1    0    0    0    0 -0.00000000000E+00 -0.00000000000E+00 -0.12094715261E+04  0.12094715261E+04  0.00000000000E+00 0.  1.
        -24    2    1    2    0    0 -0.37310677563E+01  0.32311482281E+01 -0.84561981948E+03  0.84937969566E+03  0.79678272501E+02 0.  0.
         25    2    1    2    0    0  0.18262483113E+02 -0.88650584324E+01 -0.33325495469E+03  0.35653682061E+03  0.12509009583E+03 0.  0.
         24    2    1    2    0    0 -0.14531415357E+02  0.56339102044E+01  0.82989715441E+02  0.11714147722E+03  0.81190700449E+02 0.  0.
        -13    1    5    5    0    0 -0.42439586077E+02  0.12804689789E+02  0.21569997013E+02  0.49298512332E+02  0.00000000000E+00 0.  1.
         14    1    5    5    0    0  0.27908170721E+02 -0.71707795843E+01  0.61419718428E+02  0.67842964886E+02  0.00000000000E+00 0. -1.
         11    1    3    3    0    0  0.36653021835E+02 -0.87872515854E+01 -0.39460602935E+03  0.39640204112E+03  0.00000000000E+00 0. -1.
        -12    1    3    3    0    0 -0.40384089592E+02  0.12018399813E+02 -0.45101379013E+03  0.45297765454E+03  0.00000000000E+00 0.  1.
          5    1    4    4  501    0 -0.44678270762E+02  0.25070124934E+02 -0.98612412195E+02  0.11120494270E+03  0.41800000000E+01 0. -1.
         -5    1    4    4    0  501  0.62940753875E+02 -0.33935183367E+02 -0.23464254250E+03  0.24533187791E+03  0.41800000000E+01 0. -1.
</event>
<event>
11    1  0.1588030E-008  0.1582265E+03  0.7561462E-02  0.1088757E+00
         22   -1    0    0    0    0  0.00000000000E+00  0.00000000000E+00  0.58618661504E+03  0.58618661504E+03  0.00000000000E+00 0. -1.
         22   -1    0    0    0    0 -0.00000000000E+00 -0.00000000000E+00 -0.59018493776E+03  0.59018493776E+03  0.00000000000E+00 0.  1.
        -24    2    1    2    0    0  0.68484361172E+02  0.42391510332E+02 -0.33979110197E+03  0.35820705373E+03  0.79794438973E+02 0.  0.
         25    2    1    2    0    0 -0.13299562293E+03 -0.11110252261E+03 -0.18396053436E+03  0.28199152247E+03  0.12508450862E+03 0.  0.
         24    2    1    2    0    0  0.64511261753E+02  0.68711012276E+02  0.51975331361E+03  0.53617297660E+03  0.91951333451E+02 0.  0.
        -13    1    5    5    0    0 -0.95606251348E+01 -0.11114146074E+02  0.15006653363E+03  0.15078094811E+03  0.00000000000E+00 0.  1.
         14    1    5    5    0    0  0.74071886888E+02  0.79825158350E+02  0.36968677998E+03  0.38539202849E+03  0.00000000000E+00 0. -1.
         11    1    3    3    0    0  0.43986946933E+02  0.71985349917E+01 -0.57878191887E+02  0.73051731688E+02  0.00000000000E+00 0. -1.
        -12    1    3    3    0    0  0.24497414240E+02  0.35192975340E+02 -0.28191291009E+03  0.28515532205E+03  0.00000000000E+00 0.  1.
          5    1    4    4  501    0 -0.72397445942E+02 -0.92867391291E+02 -0.39581951664E+02  0.12429781109E+03  0.41800000000E+01 0.  1.
         -5    1    4    4    0  501 -0.60598176983E+02 -0.18235131317E+02 -0.14437858270E+03  0.15769371138E+03  0.41800000000E+01 0.  1.
</event>
<event>
11    1  0.7577197E-009  0.1412693E+03  0.7561462E-02  0.1106149E+00
         22   -1    0    0    0    0  0.00000000000E+00  0.00000000000E+00  0.32393643208E+03  0.32393643208E+03  0.00000000000E+00 0.  1.
         22   -1    0    0    0    0 -0.00000000000E+00 -0.00000000000E+00 -0.10197528786E+04  0.10197528786E+04  0.00000000000E+00 0. -1.
         24    2    1    2    0    0 -0.13520636066E+02  0.13457088122E+02 -0.83052415201E+03  0.83528904385E+03  0.87025966752E+02 0.  0.
         25    2    1    2    0    0 -0.18852195566E+02 -0.70267577467E+02 -0.14820113535E+03  0.20713550462E+03  0.12509437651E+03 0.  0.
        -24    2    1    2    0    0  0.32372831632E+02  0.56810489345E+02  0.28290884080E+03  0.30126476226E+03  0.80297028903E+02 0.  0.
        -11    1    3    3    0    0  0.10303222154E+02  0.38863155868E+02 -0.21160865944E+03  0.21539435002E+03  0.00000000000E+00 0.  1.
         12    1    3    3    0    0 -0.23823858221E+02 -0.25406067746E+02 -0.61891549257E+03  0.61989469383E+03  0.00000000000E+00 0. -1.
         11    1    5    5    0    0 -0.24090439089E+02  0.55372247078E+01  0.10166914458E+03  0.10463089922E+03  0.00000000000E+00 0. -1.
        -12    1    5    5    0    0  0.56463270721E+02  0.51273264637E+02  0.18123969622E+03  0.19663386304E+03  0.00000000000E+00 0.  1.
          5    1    4    4  501    0 -0.49632881380E+02 -0.88565271518E+02 -0.77568411401E+02  0.12783411548E+03  0.41800000000E+01 0. -1.
         -5    1    4    4    0  501  0.30780685814E+02  0.18297694051E+02 -0.70632723951E+02  0.79301389140E+02  0.41800000000E+01 0. -1.
</event>
<event>
11    1  0.7577197E-009  0.1750495E+03  0.7561462E-02  0.1073719E+00
         22   -1    0    0    0    0  0.00000000000E+00  0.00000000000E+00  0.26653565049E+03  0.26653565049E+03  0.00000000000E+00 0. -1.
         22   -1    0    0    0    0 -0.00000000000E+00 -0.00000000000E+00 -0.18651912232E+04  0.18651912232E+04  0.00000000000E+00 0.  1.
        -24    2    1    2    0    0 -0.87663983620E+00  0.14643388008E+02 -0.16916551912E+04  0.16936041320E+04  0.79890379691E+02 0.  0.
         25    2    1    2    0    0 -0.87768423501E+02 -0.97086192516E+02 -0.91185971625E+02  0.20271016851E+03  0.12508999183E+03 0.  0.
         24    2    1    2    0    0  0.88645063337E+02  0.82442804508E+02  0.18418559009E+03  0.23541257317E+03  0.82704200254E+02 0.  0.
        -11    1    5    5    0    0  0.57790551329E+01 -0.12001465761E+02  0.11061512115E+01  0.13366234666E+02  0.00000000000E+00 0.  1.
         12    1    5    5    0    0  0.82866008204E+02  0.94444270269E+02  0.18307943888E+03  0.22204633850E+03  0.00000000000E+00 0. -1.
         13    1    3    3    0    0 -0.24626046924E+02  0.84184242535E+00 -0.17774849239E+03  0.17944825837E+03  0.00000000000E+00 0. -1.
        -14    1    3    3    0    0  0.23749407088E+02  0.13801545582E+02 -0.15139066988E+04  0.15141558736E+04  0.00000000000E+00 0.  1.
          5    1    4    4  501    0  0.15510279727E+02 -0.73218243054E+02 -0.37686174067E+02  0.83899940458E+02  0.41800000000E+01 0.  1.
         -5    1    4    4    0  501 -0.10327870323E+03 -0.23867949463E+02 -0.53499797558E+02  0.11881022806E+03  0.41800000000E+01 0.  1.
</event>
<event>
11    1  0.7577197E-009  0.1406453E+03  0.7561462E-02  0.1106840E+00
         22   -1    0    0    0    0  0.00000000000E+00  0.00000000000E+00  0.10621730139E+04  0.10621730139E+04  0.00000000000E+00 0. -1.
         22   -1    0    0    0    0 -0.00000000000E+00 -0.00000000000E+00 -0.37462761021E+03  0.37462761021E+03  0.00000000000E+00 0. -1.
        -24    2    1    2    0    0  0.43848731697E+02 -0.19242848076E+02 -0.35016073015E+03  0.36165044496E+03  0.76717070636E+02 0.  0.
         25    2    1    2    0    0  0.24281820439E+02  0.40425339748E+02  0.28478472858E+03  0.31459956263E+03  0.12508688290E+03 0.  0.
         24    2    1    2    0    0 -0.68130552136E+02 -0.21182491672E+02  0.75292140530E+03  0.76055061656E+03  0.80350032371E+02 0.  0.
        -13    1    5    5    0    0 -0.29116310883E+02  0.17464647681E+02  0.10605198937E+03  0.11135437992E+03  0.00000000000E+00 0.  1.
         14    1    5    5    0    0 -0.39014241253E+02 -0.38647139353E+02  0.64686941593E+03  0.64919623664E+03  0.00000000000E+00 0. -1.
         11    1    3    3    0    0  0.18777565097E+02 -0.63942541409E+01 -0.31910382313E+03  0.31971977320E+03  0.00000000000E+00 0. -1.
        -12    1    3    3    0    0  0.25071166599E+02 -0.12848593935E+02 -0.31056907017E+02  0.41930671760E+02  0.00000000000E+00 0.  1.
          5    1    4    4  501    0  0.48165993572E+02  0.20566953316E+02  0.27749042329E+03  0.28242055507E+03  0.41800000000E+01 0. -1.
         -5    1    4    4    0  501 -0.23884173133E+02  0.19858386432E+02  0.72943052905E+01  0.32179007561E+02  0.41800000000E+01 0. -1.
</event>
<event>
11    1  0.7577197E-009  0.1709787E+03  0.7561462E-02  0.1077183E+00
         22   -1    0    0    0    0  0.00000000000E+00  0.00000000000E+00  0.25599420636E+04  0.25599420636E+04  0.00000000000E+00 0. -1.
         22   -1    0    0    0    0 -0.00000000000E+00 -0.00000000000E+00 -0.33425890053E+03  0.33425890053E+03  0.00000000000E+00 0. -1.
         24    2    1    2    0    0  0.34153864414E+02  0.15531301931E+02 -0.30915871489E+03  0.32220102542E+03  0.82623737475E+02 0.  0.
         25    2    1    2    0    0 -0.79179157466E+02  0.91983305964E+02  0.45414454091E+03  0.48645150080E+03  0.12513005651E+03 0.  0.
        -24    2    1    2    0    0  0.45025293053E+02 -0.10751460790E+03  0.20806973370E+04  0.20855484379E+04  0.81389253556E+02 0.  0.
        -11    1    3    3    0    0  0.35635899779E+01 -0.27102374099E+02 -0.43250156863E+02  0.51164576848E+02  0.00000000000E+00 0.  1.
         12    1    3    3    0    0  0.30590274436E+02  0.42633676030E+02 -0.26590855802E+03  0.27103644857E+03  0.00000000000E+00 0. -1.
         11    1    5    5    0    0  0.28125639903E+02 -0.11842265009E+03  0.18320802210E+04  0.18361189809E+04  0.00000000000E+00 0. -1.
        -12    1    5    5    0    0  0.16899653150E+02  0.10908042192E+02  0.24861711604E+03  0.24942945706E+03  0.00000000000E+00 0.  1.
          5    1    4    4  501    0 -0.61680801064E+02  0.53997539477E+02  0.97997268414E+02  0.12783267386E+03  0.41800000000E+01 0. -1.
         -5    1    4    4    0  501 -0.17498356403E+02  0.37985766488E+02  0.35614727250E+03  0.35861882695E+03  0.41800000000E+01 0. -1.
</event>
<event>
11    1  0.7577197E-009  0.1496674E+03  0.7561462E-02  0.1097219E+00
         22   -1    0    0    0    0  0.00000000000E+00  0.00000000000E+00  0.24023183320E+03  0.24023183320E+03  0.00000000000E+00 0. -1.
         22   -1    0    0    0    0 -0.00000000000E+00 -0.00000000000E+00 -0.27446266125E+04  0.27446266125E+04  0.00000000000E+00 0.  1.
        -24    2    1    2    0    0  0.41509696454E+02 -0.71590563643E+02 -0.26775149693E+04  0.26798409272E+04  0.74918091169E+02 0.  0.
         25    2    1    2    0    0  0.63946596564E+01  0.50760701783E+02  0.27894599700E+02  0.13799785675E+03  0.12509100391E+03 0.  0.
         24    2    1    2    0    0 -0.47904356110E+02  0.20829861860E+02  0.14522559039E+03  0.16701966169E+03  0.63846572381E+02 0.  0.
        -11    1    5    5    0    0 -0.10274218797E+02  0.39198501385E+02  0.67389918432E+02  0.78635126941E+02  0.00000000000E+00 0.  1.
         12    1    5    5    0    0 -0.37630137314E+02 -0.18368639525E+02  0.77835671963E+02  0.88384534746E+02  0.00000000000E+00 0. -1.
         11    1    3    3    0    0  0.82147339290E+01 -0.53219648099E+02 -0.74160818003E+03  0.74356069388E+03  0.00000000000E+00 0. -1.
        -12    1    3    3    0    0  0.33294962525E+02 -0.18370915543E+02 -0.19359067893E+04  0.19362802333E+04  0.00000000000E+00 0.  1.
          5    1    4    4  501    0 -0.33764572621E+02 -0.68863014837E+01  0.52930092425E+02  0.63297192643E+02  0.41800000000E+01 0. -1.
         -5    1    4    4    0  501  0.40159232277E+02  0.57647003266E+02 -0.25035492725E+02  0.74700664111E+02  0.41800000000E+01 0. -1.
</event>
<event>
11    1  0.7577197E-009  0.1374320E+03  0.7561462E-02  0.1110460E+00
         22   -1    0    0    0    0  0.00000000000E+00  0.00000000000E+00  0.19382216396E+04  0.19382216396E+04  0.00000000000E+00 0. -1.
         22   -1    0    0    0    0 -0.00000000000E+00 -0.00000000000E+00 -0.78111876196E+02  0.78111876196E+02  0.00000000000E+00 0. -1.
         24    2    1    2    0    0  0.61970654719E+02  0.16135702523E+02 -0.27347751243E+02  0.10617009061E+03  0.80146526432E+02 0.  0.
         25    2    1    2    0    0 -0.48978172307E+01 -0.45628212348E+02  0.45799829462E+03  0.47699087178E+03  0.12510767965E+03 0.  0.
        -24    2    1    2    0    0 -0.57072837488E+02  0.29492509825E+02  0.14294592201E+04  0.14331725535E+04  0.80639873629E+02 0.  0.
        -11    1    3    3    0    0  0.24836106270E+01 -0.28254337309E+02 -0.74451569652E+01  0.29324158313E+02  0.00000000000E+00 0.  1.
         12    1    3    3    0    0  0.59487044092E+02  0.44390039832E+02 -0.19902594278E+02  0.76845932293E+02  0.00000000000E+00 0. -1.
         11    1    5    5    0    0 -0.39460896934E+02  0.33391279498E+02  0.13714414124E+04  0.13724152752E+04  0.00000000000E+00 0. -1.
        -12    1    5    5    0    0 -0.17611940554E+02 -0.38987696727E+01  0.58017807650E+02  0.60757278244E+02  0.00000000000E+00 0.  1.
          5    1    4    4  501    0  0.91095353180E+01 -0.78630525883E+02  0.18027967322E+03  0.19693647760E+03  0.41800000000E+01 0.  1.
         -5    1    4    4    0  501 -0.14007352549E+02  0.33002313535E+02  0.27771862140E+03  0.28005439418E+03  0.41800000000E+01 0.  1.
</event>
<event>
11    1  0.7577197E-009  0.1375383E+03  0.7561462E-02  0.1110339E+00
         22   -1    0    0    0    0  0.00000000000E+00  0.00000000000E+00  0.16446951572E+04  0.16446951572E+04  0.00000000000E+00 0.  1.
         22   -1    0    0    0    0 -0.00000000000E+00 -0.00000000000E+00 -0.39265118916E+03  0.39265118916E+03  0.00000000000E+00 0.  1.
        -24    2    1    2    0    0  0.29040798919E+01  0.59197970192E+01 -0.35036100170E+03  0.35980330490E+03  0.81621743604E+02 0.  0.
         25    2    1    2    0    0  0.81108957971E+01  0.50423219701E+02  0.91270419726E+02  0.16307016938E+03  0.12511316042E+03 0.  0.
         24    2    1    2    0    0 -0.11014975689E+02 -0.56343016720E+02  0.15111345500E+04  0.15144728721E+04  0.82489919354E+02 0.  0.
        -13    1    5    5    0    0 -0.29876180320E+02 -0.69678947527E+02  0.12597524438E+04  0.12620316801E+04  0.00000000000E+00 0.  1.
         14    1    5    5    0    0  0.18861204631E+02  0.13335930808E+02  0.25138210622E+03  0.25244119200E+03  0.00000000000E+00 0. -1.
         13    1    3    3    0    0 -0.21843170271E+02 -0.18255630217E+02 -0.50646466180E+02  0.58098680352E+02  0.00000000000E+00 0. -1.
        -14    1    3    3    0    0  0.24747250163E+02  0.24175427236E+02 -0.29971453552E+03  0.30170462455E+03  0.00000000000E+00 0.  1.
          5    1    4    4  501    0  0.57418254532E+02  0.61686875193E+02  0.57838119344E+02  0.10229783465E+03  0.41800000000E+01 0.  1.
         -5    1    4    4    0  501 -0.49307358734E+02 -0.11263655493E+02  0.33432300382E+02  0.60772334736E+02  0.41800000000E+01 0.  1.
</event>
<event>
11    1  0.7577197E-009  0.1483731E+03  0.7561462E-02  0.1098553E+00
         22   -1    0    0    0    0  0.00000000000E+00  0.00000000000E+00  0.62814510785E+03  0.62814510785E+03  0.00000000000E+00 0. -1.
         22   -1    0    0    0    0 -0.00000000000E+00 -0.00000000000E+00 -0.46468912652E+03  0.46468912652E+03  0.00000000000E+00 0.  1.
        -24    2    1    2    0    0  0.33167491944E+02 -0.10993224407E+02 -0.42212575286E+03  0.43113429015E+03  0.80409523123E+02 0.  0.
         25    2    1    2    0    0  0.28575677161E+02  0.66353190330E+02  0.13908406578E+03  0.20052662468E+03  0.12508890701E+03 0.  0.
         24    2    1    2    0    0 -0.61743169104E+02 -0.55359965923E+02  0.44649766841E+03  0.46117331954E+03  0.80272772480E+02 0.  0.
        -13    1    5    5    0    0  0.49721934817E+01  0.11805344473E+02  0.16558493011E+02  0.20934960161E+02  0.00000000000E+00 0.  1.
         14    1    5    5    0    0 -0.66715362586E+02 -0.67165310396E+02  0.42993917540E+03  0.44023835938E+03  0.00000000000E+00 0. -1.
         13    1    3    3    0    0  0.36524254358E+02  0.76204186311E+01 -0.77743880648E+02  0.86233421101E+02  0.00000000000E+00 0. -1.
        -14    1    3    3    0    0 -0.33567624145E+01 -0.18613643038E+02 -0.34438187221E+03  0.34490086905E+03  0.00000000000E+00 0.  1.
          5    1    4    4  501    0 -0.24409230406E+02  0.80509019047E+02  0.56951679957E+02  0.10167831100E+03  0.41800000000E+01 0.  1.
         -5    1    4    4    0  501  0.52984907567E+02 -0.14155828717E+02  0.82132385825E+02  0.98848313683E+02  0.41800000000E+01 0.  1.
</event>
<event>
11    1  0.7577197E-009  0.1377419E+03  0.7561462E-02  0.1110106E+00
         22   -1    0    0    0    0  0.00000000000E+00  0.00000000000E+00  0.27006381003E+03  0.27006381003E+03  0.00000000000E+00 0. -1.
         22   -1    0    0    0    0 -0.00000000000E+00 -0.00000000000E+00 -0.88125824463E+03  0.88125824463E+03  0.00000000000E+00 0.  1.
        -24    2    1    2    0    0 -0.71961840089E+01  0.38218380899E+01 -0.79723886461E+03  0.80203215769E+03  0.87174441252E+02 0.  0.
         25    2    1    2    0    0  0.17090461623E+02 -0.59825609084E+02  0.19860968576E+01  0.13972435008E+03  0.12509101504E+03 0.  0.
         24    2    1    2    0    0 -0.98942776136E+01  0.56003770994E+02  0.18405833314E+03  0.20956554689E+03  0.82498056634E+02 0.  0.
        -13    1    5    5    0    0 -0.26158049112E+02 -0.54950625329E+01  0.19344440165E+02  0.32994645185E+02  0.00000000000E+00 0.  1.
         14    1    5    5    0    0  0.16263771499E+02  0.61498833527E+02  0.16471389298E+03  0.17657090171E+03  0.00000000000E+00 0. -1.
         11    1    3    3    0    0 -0.17977462708E+02  0.41916386471E+02 -0.33312281685E+03  0.33623055145E+03  0.00000000000E+00 0. -1.
        -12    1    3    3    0    0  0.10781278699E+02 -0.38094548381E+02 -0.46411604776E+03  0.46580160624E+03  0.00000000000E+00 0.  1.
          5    1    4    4  501    0  0.19152723097E+02 -0.77015568300E+02 -0.43696708188E+02  0.90692333023E+02  0.41800000000E+01 0. -1.
         -5    1    4    4    0  501 -0.20622614747E+01  0.17189959216E+02  0.45682805046E+02  0.49032017061E+02  0.41800000000E+01 0. -1.
</event>
<event>
11    1  0.7577197E-009  0.1587517E+03  0.7561462E-02  0.1088257E+00
         22   -1    0    0    0    0  0.00000000000E+00  0.00000000000E+00  0.66929403716E+02  0.66929403716E+02  0.00000000000E+00 0. -1.
         22   -1    0    0    0    0 -0.00000000000E+00 -0.00000000000E+00 -0.97539484019E+03  0.97539484019E+03  0.00000000000E+00 0.  1.
        -24    2    1    2    0    0 -0.30933517039E+02  0.47561084286E+02 -0.63423862331E+03  0.64170564414E+03  0.79426464169E+02 0.  0.
         25    2    1    2    0    0 -0.59175032434E+02  0.29478658637E+02 -0.18304686651E+03  0.23135358243E+03  0.12509056313E+03 0.  0.
         24    2    1    2    0    0  0.90108549473E+02 -0.77039742923E+02 -0.91179946650E+02  0.16926501733E+03  0.79260272161E+02 0.  0.
        -11    1    5    5    0    0  0.68251908340E+02 -0.66121767571E+01 -0.49376051972E+02  0.84498747813E+02  0.00000000000E+00 0.  1.
         12    1    5    5    0    0  0.21856641132E+02 -0.70427566166E+02 -0.41803894678E+02  0.84766269518E+02  0.00000000000E+00 0. -1.
         13    1    3    3    0    0 -0.38730469480E+02  0.52550198006E+02 -0.28647372146E+03  0.29381757208E+03  0.00000000000E+00 0. -1.
        -14    1    3    3    0    0  0.77969524415E+01 -0.49891137197E+01 -0.34776490185E+03  0.34788807207E+03  0.00000000000E+00 0.  1.
          5    1    4    4  501    0 -0.34552233719E+02 -0.44852279241E+02 -0.11187790853E+03  0.12545805126E+03  0.41800000000E+01 0.  1.
         -5    1    4    4    0  501 -0.24622798715E+02  0.74330937878E+02 -0.71168957979E+02  0.10589553117E+03  0.41800000000E+01 0.  1.
</event>
<event>
11    1  0.7577197E-009  0.1346686E+03  0.7561462E-02  0.1113662E+00
         22   -1    0    0    0    0  0.00000000000E+00  0.00000000000E+00  0.16117743733E+04  0.16117743733E+04  0.00000000000E+00 0. -1.
         22   -1    0    0    0    0 -0.00000000000E+00 -0.00000000000E+00 -0.81315781472E+03  0.81315781472E+03  0.00000000000E+00 0.  1.
         24    2    1    2    0    0 -0.16098308134E+02  0.12522217082E+02 -0.52221994286E+03  0.52889328422E+03  0.81231003521E+02 0.  0.
         25    2    1    2    0    0  0.10491030351E+02  0.37089859518E+02 -0.27122165249E+03  0.30115894283E+03  0.12509917935E+03 0.  0.
        -24    2    1    2    0    0  0.56072777834E+01 -0.49612076600E+02  0.15920581540E+04  0.15948799610E+04  0.80623350991E+02 0.  0.
        -11    1    3    3    0    0 -0.14356026738E+02  0.11027808724E+02 -0.52498647667E+03  0.52529849491E+03  0.00000000000E+00 0.  1.
         12    1    3    3    0    0 -0.17422813957E+01  0.14944083581E+01  0.27665338176E+01  0.35947893077E+01  0.00000000000E+00 0. -1.
         11    1    5    5    0    0  0.37093103237E+02 -0.24326035000E+01  0.74300272110E+03  0.74393202608E+03  0.00000000000E+00 0. -1.
        -12    1    5    5    0    0 -0.31485825453E+02 -0.47179473100E+02  0.84905543287E+03  0.85094793493E+03  0.00000000000E+00 0.  1.
          5    1    4    4  501    0  0.32128371315E+02 -0.52241222359E+01 -0.81745522449E+01  0.33820399183E+02  0.41800000000E+01 0. -1.
         -5    1    4    4    0  501 -0.21637340964E+02  0.42313981754E+02 -0.26304710024E+03  0.26733854365E+03  0.41800000000E+01 0. -1.
</event>
<event>
11    1  0.7577197E-009  0.1602398E+03  0.7561462E-02  0.1086852E+00
         22   -1    0    0    0    0  0.00000000000E+00  0.00000000000E+00  0.18438314925E+03  0.18438314925E+03  0.00000000000E+00 0.  1.
         22   -1    0    0    0    0 -0.00000000000E+00 -0.00000000000E+00 -0.33546824705E+04  0.33546824705E+04  0.00000000000E+00 0.  1.
         24    2    1    2    0    0 -0.32685185393E+02  0.81853489189E+01 -0.27132567278E+04  0.27146104519E+04  0.78819498090E+02 0.  0.
         25    2    1    2    0    0 -0.18950772232E+02 -0.94401498550E+02 -0.60700727017E+03  0.62719760437E+03  0.12509290222E+03 0.  0.
        -24    2    1    2    0    0  0.51635957626E+02  0.86216149631E+02  0.14996467673E+03  0.19725756349E+03  0.79508776319E+02 0.  0.
        -13    1    3    3    0    0 -0.48598851446E+02  0.62678223567E+01 -0.25687752358E+04  0.25692425627E+04  0.00000000000E+00 0.  1.
         14    1    3    3    0    0  0.15913666053E+02  0.19175265621E+01 -0.14448149194E+03  0.14536788912E+03  0.00000000000E+00 0. -1.
         11    1    5    5    0    0  0.31759936618E+01  0.37475107529E+02  0.11325576612E+03  0.11933708216E+03  0.00000000000E+00 0. -1.
        -12    1    5    5    0    0  0.48459963964E+02  0.48741042102E+02  0.36708910611E+02  0.77920481331E+02  0.00000000000E+00 0.  1.
          5    1    4    4  501    0 -0.21362093399E+02 -0.37544859518E+02 -0.52777795163E+03  0.52955924516E+03  0.41800000000E+01 0. -1.
         -5    1    4    4    0  501  0.24113211661E+01 -0.56856639032E+02 -0.79229318547E+02  0.97638359210E+02  0.41800000000E+01 0. -1.
</event>
<event>
11    1  0.7577197E-009  0.1669849E+03  0.7561462E-02  0.1080686E+00
         22   -1    0    0    0    0  0.00000000000E+00  0.00000000000E+00  0.80013232976E+03  0.80013232976E+03  0.00000000000E+00 0. -1.
         22   -1    0    0    0    0 -0.00000000000E+00 -0.00000000000E+00 -0.12234102340E+03  0.12234102340E+03  0.00000000000E+00 0.  1.
        -24    2    1    2    0    0 -0.88628200710E+02  0.30936158231E+02  0.56808189903E+02  0.13616420474E+03  0.80631981031E+02 0.  0.
         25    2    1    2    0    0  0.89129069113E+02 -0.10665769728E+03  0.34936570159E+02  0.19023141133E+03  0.12509024972E+03 0.  0.
         24    2    1    2    0    0 -0.50086840246E+00  0.75721539046E+02  0.58604654630E+03  0.59607773709E+03  0.78256705033E+02 0.  0.
        -11    1    5    5    0    0 -0.17333670430E+02  0.46053331139E+02  0.13405592401E+03  0.14280180742E+03  0.00000000000E+00 0.  1.
         12    1    5    5    0    0  0.16832802028E+02  0.29668207907E+02  0.45199062229E+03  0.45327592967E+03  0.00000000000E+00 0. -1.
         13    1    3    3    0    0 -0.32729186830E+02  0.19561252995E+02  0.68067161066E+02  0.78019104743E+02  0.00000000000E+00 0. -1.
        -14    1    3    3    0    0 -0.55899013880E+02  0.11374905237E+02 -0.11258971163E+02  0.58145099997E+02  0.00000000000E+00 0.  1.
          5    1    4    4  501    0  0.80599248289E+01 -0.49714487454E+02 -0.41210212136E+02  0.65209252683E+02  0.41800000000E+01 0.  1.
         -5    1    4    4    0  501  0.81069144284E+02 -0.56943209823E+02  0.76146782295E+02  0.12502215865E+03  0.41800000000E+01 0.  1.
</event>
<event>
11    1  0.7577197E-009  0.1655679E+03  0.7561462E-02  0.1081954E+00
         22   -1    0    0    0    0  0.00000000000E+00  0.00000000000E+00  0.60180564129E+03  0.60180564129E+03  0.00000000000E+00 0.  1.
         22   -1    0    0    0    0 -0.00000000000E+00 -0.00000000000E+00 -0.17609602727E+03  0.17609602727E+03  0.00000000000E+00 0. -1.
         24    2    1    2    0    0 -0.10493826263E+03  0.34793036394E+02 -0.11122917260E+03  0.17588812067E+03  0.79637351857E+02 0.  0.
         25    2    1    2    0    0  0.91708026255E+02 -0.22260438855E+02  0.19547840950E+03  0.25052849417E+03  0.12508728390E+03 0.  0.
        -24    2    1    2    0    0  0.13230236374E+02 -0.12532597539E+02  0.34146037712E+03  0.35148505372E+03  0.81329260976E+02 0.  0.
        -13    1    3    3    0    0 -0.80593356256E+02 -0.13105142644E+02 -0.76653140527E+02  0.11199436499E+03  0.00000000000E+00 0.  1.
         14    1    3    3    0    0 -0.24344906373E+02  0.47898179038E+02 -0.34576032073E+02  0.63893755684E+02  0.00000000000E+00 0. -1.
         11    1    5    5    0    0  0.27076508279E+02 -0.25611740392E+02  0.32237200723E+03  0.32451935164E+03  0.00000000000E+00 0. -1.
        -12    1    5    5    0    0 -0.13846271904E+02  0.13079142853E+02  0.19088369891E+02  0.26965702077E+02  0.00000000000E+00 0.  1.
          5    1    4    4  501    0 -0.14990614357E+02  0.29013449874E+02  0.73307679051E+02  0.80361601529E+02  0.41800000000E+01 0.  1.
         -5    1    4    4    0  501  0.10669864061E+03 -0.51273888729E+02  0.12217073045E+03  0.17016689265E+03  0.41800000000E+01 0.  1.
</event>
<event>
11    1  0.7577197E-009  0.1470315E+03  0.7561462E-02  0.1099951E+00
         22   -1    0    0    0    0  0.00000000000E+00  0.00000000000E+00  0.19074498094E+04  0.19074498094E+04  0.00000000000E+00 0.  1.
         22   -1    0    0    0    0 -0.00000000000E+00 -0.00000000000E+00 -0.45841705690E+03  0.45841705690E+03  0.00000000000E+00 0. -1.
        -24    2    1    2    0    0  0.42783622965E+02 -0.63901218057E+02 -0.42656157231E+03  0.44137626130E+03  0.83333216691E+02 0.  0.
         25    2    1    2    0    0 -0.14926080782E+02  0.99524845562E+02  0.25680555320E+03  0.30286011370E+03  0.12508866274E+03 0.  0.
         24    2    1    2    0    0 -0.27857542183E+02 -0.35623627505E+02  0.16187887716E+04  0.16216304913E+04  0.84636149269E+02 0.  0.
        -13    1    5    5    0    0  0.71403358018E+01 -0.45735890627E+02  0.12898966995E+04  0.12907270244E+04  0.00000000000E+00 0.  1.
         14    1    5    5    0    0 -0.34997877985E+02  0.10112263122E+02  0.32889207214E+03  0.33090346696E+03  0.00000000000E+00 0. -1.
         13    1    3    3    0    0  0.47917566484E+02 -0.69498532602E+02 -0.42539734589E+03  0.43369233461E+03  0.00000000000E+00 0. -1.
        -14    1    3    3    0    0 -0.51339435193E+01  0.55973145450E+01 -0.11642264202E+01  0.76839266871E+01  0.00000000000E+00 0.  1.
          5    1    4    4  501    0  0.24173029290E+02  0.35236471334E+02  0.20956279236E+03  0.21391582596E+03  0.41800000000E+01 0. -1.
         -5    1    4    4    0  501 -0.39099110071E+02  0.64288374228E+02  0.47242760838E+02  0.88944287736E+02  0.41800000000E+01 0. -1.
</event>
<event>
11    1  0.7577197E-009  0.2279362E+03  0.7561462E-02  0.1036357E+00
         22   -1    0    0    0    0  0.00000000000E+00  0.00000000000E+00  0.60511514531E+03  0.60511514531E+03  0.00000000000E+00 0. -1.
         22   -1    0    0    0    0 -0.00000000000E+00 -0.00000000000E+00 -0.12005928014E+04  0.12005928014E+04  0.00000000000E+00 0.  1.
        -24    2    1    2    0    0  0.17162808659E+03  0.73725846152E+02 -0.10689458384E+04  0.10881659593E+04  0.81044734475E+02 0.  0.
         25    2    1    2    0    0 -0.32066732143E+03 -0.11686143186E+03  0.29808166289E+03  0.47008685566E+03  0.12507937011E+03 0.  0.
         24    2    1    2    0    0  0.14903923484E+03  0.43135585706E+02  0.17538651947E+03  0.24745513173E+03  0.80001492040E+02 0.  0.
        -13    1    5    5    0    0  0.11075373836E+03  0.49808734728E+02  0.16894560791E+03  0.20806229608E+03  0.00000000000E+00 0.  1.
         14    1    5    5    0    0  0.38285496479E+02 -0.66731490214E+01  0.64409115564E+01  0.39392835645E+02  0.00000000000E+00 0. -1.
         11    1    3    3    0    0  0.56237857444E+02  0.57054511628E+02 -0.30364525822E+03  0.31403559790E+03  0.00000000000E+00 0. -1.
        -12    1    3    3    0    0  0.11539022914E+03  0.16671334524E+02 -0.76530058020E+03  0.77413036140E+03  0.00000000000E+00 0.  1.
          5    1    4    4  501    0 -0.72757711932E+02  0.77452661680E+01  0.17265748841E+02  0.75294437222E+02  0.41800000000E+01 0.  1.
         -5    1    4    4    0  501 -0.24790960950E+03 -0.12460669803E+03  0.28081591405E+03  0.39479241844E+03  0.41800000000E+01 0.  1.
</event>
<event>
11    1  0.7577197E-009  0.1937881E+03  0.7561462E-02  0.1059005E+00
         22   -1    0    0    0    0  0.00000000000E+00  0.00000000000E+00  0.26116614378E+03  0.26116614378E+03  0.00000000000E+00 0. -1.
         22   -1    0    0    0    0 -0.00000000000E+00 -0.00000000000E+00 -0.50039671223E+03  0.50039671223E+03  0.00000000000E+00 0.  1.
        -24    2    1    2    0    0 -0.24836557332E+02  0.38077209225E+01 -0.34697365082E+03  0.35797715641E+03  0.84413131855E+02 0.  0.
         25    2    1    2    0    0  0.97278460042E+02 -0.12745344478E+03 -0.65543846966E+01  0.20346493714E+03  0.12509013276E+03 0.  0.
         24    2    1    2    0    0 -0.72441902710E+02  0.12364572386E+03  0.11429746706E+03  0.20012076246E+03  0.80301396593E+02 0.  0.
        -11    1    5    5    0    0 -0.30855589234E+02  0.19641419371E+02  0.71312524472E+02  0.80145672924E+02  0.00000000000E+00 0.  1.
         12    1    5    5    0    0 -0.41586313476E+02  0.10400430448E+03  0.42984942589E+02  0.11997508954E+03  0.00000000000E+00 0. -1.
         13    1    3    3    0    0 -0.22439313662E+02  0.11228521400E+02 -0.23400807381E+02  0.34310352323E+02  0.00000000000E+00 0. -1.
        -14    1    3    3    0    0 -0.23972436702E+01 -0.74208004775E+01 -0.32357284344E+03  0.32366680409E+03  0.00000000000E+00 0.  1.
          5    1    4    4  501    0  0.43493711843E+02 -0.13547195204E+03 -0.27619160024E+02  0.14499876952E+03  0.41800000000E+01 0.  1.
         -5    1    4    4    0  501  0.53784748198E+02  0.80185072667E+01  0.21064775327E+02  0.58466167628E+02  0.41800000000E+01 0.  1.
</event>
<event>
11    1  0.7577197E-009  0.4670481E+03  0.7561462E-02  0.9470326E-01
         22   -1    0    0    0    0  0.00000000000E+00  0.00000000000E+00  0.40987656906E+03  0.40987656906E+03  0.00000000000E+00 0.  1.
         22   -1    0    0    0    0 -0.00000000000E+00 -0.00000000000E+00 -0.11190892311E+04  0.11190892311E+04  0.00000000000E+00 0.  1.
        -24    2    1    2    0    0 -0.35560730749E+03  0.32886521624E+03 -0.81342738898E+03  0.95009260878E+03  0.80018501141E+02 0.  0.
         25    2    1    2    0    0  0.26573241928E+03 -0.24327097062E+03 -0.25584200677E+02  0.38222626630E+03  0.12509150059E+03 0.  0.
         24    2    1    2    0    0  0.89874888208E+02 -0.85594245625E+02  0.12979892764E+03  0.19664692505E+03  0.80114799515E+02 0.  0.
        -13    1    5    5    0    0 -0.10377632477E+02 -0.15728999011E+00  0.28948550686E+02  0.30752863002E+02  0.00000000000E+00 0.  1.
         14    1    5    5    0    0  0.10025252068E+03 -0.85436955634E+02  0.10085037696E+03  0.16589406205E+03  0.00000000000E+00 0. -1.
         11    1    3    3    0    0 -0.74042040255E+02  0.94678951819E+02 -0.14916582893E+03  0.19156401584E+03  0.00000000000E+00 0. -1.
        -12    1    3    3    0    0 -0.28156526723E+03  0.23418626442E+03 -0.66426156004E+03  0.75852859294E+03  0.00000000000E+00 0.  1.
          5    1    4    4  501    0  0.27663808441E+03 -0.21818118403E+03 -0.32060534083E+02  0.35380363065E+03  0.41800000000E+01 0. -1.
         -5    1    4    4    0  501 -0.10905665132E+02 -0.25089786585E+02  0.64763334062E+01  0.28422635649E+02  0.41800000000E+01 0. -1.
</event>
<event>
11    1  0.7577197E-009  0.1320771E+03  0.7561462E-02  0.1116743E+00
         22   -1    0    0    0    0  0.00000000000E+00  0.00000000000E+00  0.73393356689E+03  0.73393356689E+03  0.00000000000E+00 0. -1.
         22   -1    0    0    0    0 -0.00000000000E+00 -0.00000000000E+00 -0.19292690758E+03  0.19292690758E+03  0.00000000000E+00 0.  1.
         24    2    1    2    0    0 -0.37500416946E+02 -0.18085871368E+02 -0.15667228344E+03  0.18316822471E+03  0.85270241773E+02 0.  0.
         25    2    1    2    0    0  0.63420862568E+02 -0.77077336442E+00  0.24058113696E+03  0.27847685678E+03  0.12508907388E+03 0.  0.
        -24    2    1    2    0    0 -0.25920445621E+02  0.18856644733E+02  0.45709780579E+03  0.46521539298E+03  0.80371109540E+02 0.  0.
        -11    1    3    3    0    0 -0.56926612456E+02 -0.34311548437E+02 -0.13216113822E+03  0.14793406645E+03  0.00000000000E+00 0.  1.
         12    1    3    3    0    0  0.19426195510E+02  0.16225677069E+02 -0.24511145223E+02  0.35234158263E+02  0.00000000000E+00 0. -1.
         13    1    5    5    0    0 -0.18731524454E+02  0.47344266018E+02  0.36528009466E+03  0.36881146550E+03  0.00000000000E+00 0. -1.
        -14    1    5    5    0    0 -0.71889211676E+01 -0.28487621285E+02  0.91817711139E+02  0.96403927476E+02  0.00000000000E+00 0.  1.
          5    1    4    4  501    0  0.88939848131E+02  0.79573536710E+01  0.23386892882E+03  0.25037125300E+03  0.41800000000E+01 0.  1.
         -5    1    4    4    0  501 -0.25518985563E+02 -0.87281270354E+01  0.67122081364E+01  0.28105603779E+02  0.41800000000E+01 0.  1.
</event>
<event>
11    1  0.7577197E-009  0.1737864E+03  0.7561462E-02  0.1074783E+00
         22   -1    0    0    0    0  0.00000000000E+00  0.00000000000E+00  0.10984119479E+04  0.10984119479E+04  0.00000000000E+00 0. -1.
         22   -1    0    0    0    0 -0.00000000000E+00 -0.00000000000E+00 -0.12507653297E+04  0.12507653297E+04  0.00000000000E+00 0.  1.
        -24    2    1    2    0    0 -0.10477143772E+02  0.93519345349E+02 -0.12186205363E+04  0.12250761928E+04  0.83186707218E+02 0.  0.
         25    2    1    2    0    0  0.12459425533E+03 -0.96769641994E+02  0.46475167050E+03  0.50648762095E+03  0.12508997912E+03 0.  0.
         24    2    1    2    0    0 -0.11411711155E+03  0.32502966446E+01  0.60151548404E+03  0.61761346375E+03  0.81192570362E+02 0.  0.
        -13    1    5    5    0    0  0.89850518677E+01 -0.12865288360E+02  0.79901257817E+02  0.81427623091E+02  0.00000000000E+00 0.  1.
         14    1    5    5    0    0 -0.12310216342E+03  0.16115585004E+02  0.52161422622E+03  0.53618584065E+03  0.00000000000E+00 0. -1.
         11    1    3    3    0    0  0.91808676280E+01  0.17200547913E+02 -0.48041643184E+02  0.51847339939E+02  0.00000000000E+00 0. -1.
        -12    1    3    3    0    0 -0.19658011400E+02  0.76318797436E+02 -0.11705788931E+04  0.11732288529E+04  0.00000000000E+00 0.  1.
          5    1    4    4  501    0  0.13516453494E+03 -0.65541297170E+02  0.44027290298E+03  0.46521265529E+03  0.41800000000E+01 0.  1.
         -5    1    4    4    0  501 -0.10570279612E+02 -0.31228344824E+02  0.24478767517E+02  0.41274965666E+02  0.41800000000E+01 0.  1.
</event>
<event>
11    1  0.7577197E-009  0.1555779E+03  0.7561462E-02  0.1091312E+00
         22   -1    0    0    0    0  0.00000000000E+00  0.00000000000E+00  0.83839120254E+02  0.83839120254E+02  0.00000000000E+00 0.  1.
         22   -1    0    0    0    0 -0.00000000000E+00 -0.00000000000E+00 -0.70262726076E+03  0.70262726076E+03  0.00000000000E+00 0. -1.
        -24    2    1    2    0    0 -0.11583941230E+02  0.11384694027E+03 -0.31775879917E+03  0.35437452050E+03  0.10730951880E+03 0.  0.
         25    2    1    2    0    0  0.71575829371E+02 -0.49873079294E+02 -0.27036999886E+03  0.31041636799E+03  0.12509181366E+03 0.  0.
         24    2    1    2    0    0 -0.59991888140E+02 -0.63973860976E+02 -0.30659342480E+02  0.12167549253E+03  0.78570023990E+02 0.  0.
        -11    1    5    5    0    0 -0.69353679232E+01  0.17006474132E+02 -0.14766811280E+02  0.23566463587E+02  0.00000000000E+00 0.  1.
         12    1    5    5    0    0 -0.53056520217E+02 -0.80980335108E+02 -0.15892531200E+02  0.98109028940E+02  0.00000000000E+00 0. -1.
         11    1    3    3    0    0 -0.16947793190E+02  0.13304097872E+03 -0.29541826846E+03  0.32443656244E+03  0.00000000000E+00 0. -1.
        -12    1    3    3    0    0  0.53638519598E+01 -0.19194038451E+02 -0.22340530713E+02  0.29937958054E+02  0.00000000000E+00 0.  1.
          5    1    4    4  501    0 -0.15732202337E+02  0.22676294512E+02 -0.11259206076E+03  0.11600069426E+03  0.41800000000E+01 0. -1.
         -5    1    4    4    0  501  0.87308031707E+02 -0.72549373806E+02 -0.15777793810E+03  0.19441567373E+03  0.41800000000E+01 0. -1.
</event>
<event>
11    1  0.7577197E-009  0.3768673E+03  0.7561462E-02  0.9720591E-01
         22   -1    0    0    0    0  0.00000000000E+00  0.00000000000E+00  0.30722774749E+04  0.30722774749E+04  0.00000000000E+00 0.  1.
         22   -1    0    0    0    0 -0.00000000000E+00 -0.00000000000E+00 -0.82744382445E+03  0.82744382445E+03  0.00000000000E+00 0. -1.
        -24    2    1    2    0    0  0.34554934211E+02  0.35182194249E+03 -0.72439424495E+03  0.80954867706E+03  0.75161930046E+02 0.  0.
         25    2    1    2    0    0 -0.38349367137E+02 -0.38608828137E+03  0.63670443190E+03  0.75602599475E+03  0.12509171099E+03 0.  0.
         24    2    1    2    0    0  0.37944329257E+01  0.34266338879E+02  0.23325234635E+04  0.23341466276E+04  0.79913649676E+02 0.  0.
        -11    1    5    5    0    0 -0.15080933894E+02  0.54151073551E+02  0.18420505644E+04  0.18429080430E+04  0.00000000000E+00 0.  1.
         12    1    5    5    0    0  0.18875366820E+02 -0.19884734672E+02  0.49047289916E+03  0.49123858455E+03  0.00000000000E+00 0. -1.
         13    1    3    3    0    0  0.56648008929E+02  0.25768092852E+03 -0.55436843417E+03  0.61394854722E+03  0.00000000000E+00 0. -1.
        -14    1    3    3    0    0 -0.22093074717E+02  0.94141013973E+02 -0.17002581078E+03  0.19560012984E+03  0.00000000000E+00 0.  1.
          5    1    4    4  501    0 -0.19506593126E+02 -0.13408930432E+03  0.34142484664E+03  0.36735384443E+03  0.41800000000E+01 0. -1.
         -5    1    4    4    0  501 -0.18842774011E+02 -0.25199897704E+03  0.29527958526E+03  0.38867215032E+03  0.41800000000E+01 0. -1.
</event>
<event>
11    1  0.7577197E-009  0.1958819E+03  0.7561462E-02  0.1057475E+00
         22   -1    0    0    0    0  0.00000000000E+00  0.00000000000E+00  0.95801627718E+03  0.95801627718E+03  0.00000000000E+00 0.  1.
         22   -1    0    0    0    0 -0.00000000000E+00 -0.00000000000E+00 -0.85016886984E+03  0.85016886984E+03  0.00000000000E+00 0.  1.
         24    2    1    2    0    0  0.80711581203E+02 -0.53419272293E+02 -0.75726346651E+03  0.76765597823E+03  0.80496988778E+02 0.  0.
         25    2    1    2    0    0 -0.47022534462E+02 -0.10068634033E+03  0.10346718617E+02  0.16764456084E+03  0.12509510909E+03 0.  0.
        -24    2    1    2    0    0 -0.33689046741E+02  0.15410561262E+03  0.85476415524E+03  0.87288460796E+03  0.80139166562E+02 0.  0.
        -13    1    3    3    0    0 -0.41092160220E+01 -0.33975773295E+02 -0.31945558559E+03  0.32128353520E+03  0.00000000000E+00 0.  1.
         14    1    3    3    0    0  0.84820797225E+02 -0.19443498997E+02 -0.43780788092E+03  0.44637244303E+03  0.00000000000E+00 0. -1.
         13    1    5    5    0    0 -0.49293512400E+02  0.13729668483E+03  0.61671388258E+03  0.63373199619E+03  0.00000000000E+00 0. -1.
        -14    1    5    5    0    0  0.15604465658E+02  0.16808927793E+02  0.23805027266E+03  0.23915261176E+03  0.00000000000E+00 0.  1.
          5    1    4    4  501    0  0.26213314957E+02 -0.59535796516E+02  0.42259103416E+02  0.77684961024E+02  0.41800000000E+01 0.  1.
         -5    1    4    4    0  501 -0.73235849418E+02 -0.41150543813E+02 -0.31912384799E+02  0.89959599819E+02  0.41800000000E+01 0.  1.
</event>
<event>
11    1  0.7577197E-009  0.1919711E+03  0.7561462E-02  0.1060351E+00
         22   -1    0    0    0    0  0.00000000000E+00  0.00000000000E+00  0.96753083554E+03  0.96753083554E+03  0.00000000000E+00 0.  1.
         22   -1    0    0    0    0 -0.00000000000E+00 -0.00000000000E+00 -0.12473945030E+03  0.12473945030E+03  0.00000000000E+00 0.  1.
        -24    2    1    2    0    0  0.80606326887E+02 -0.14685013400E+03  0.35402715269E+01  0.18578564231E+03  0.80258517163E+02 0.  0.
         25    2    1    2    0    0 -0.23908618982E+02  0.94754034907E+02  0.18908925015E+03  0.24688440038E+03  0.12508882219E+03 0.  0.
         24    2    1    2    0    0 -0.56697707905E+02  0.52096099091E+02  0.65016186356E+03  0.65960024314E+03  0.80208467755E+02 0.  0.
        -11    1    5    5    0    0 -0.63734941157E+02  0.16078417433E+02  0.52710518205E+03  0.53118784924E+03  0.00000000000E+00 0.  1.
         12    1    5    5    0    0  0.70372332520E+01  0.36017681658E+02  0.12305668150E+03  0.12841239390E+03  0.00000000000E+00 0. -1.
         13    1    3    3    0    0  0.57517987875E+02 -0.53556641475E+02 -0.29810752868E+02  0.84055420777E+02  0.00000000000E+00 0. -1.
        -14    1    3    3    0    0  0.23088339012E+02 -0.93293492523E+02  0.33351024395E+02  0.10173022154E+03  0.00000000000E+00 0.  1.
          5    1    4    4  501    0 -0.21972163485E+02  0.36669872453E+02 -0.59180314859E+01  0.43358401846E+02  0.41800000000E+01 0.  1.
         -5    1    4    4    0  501 -0.19364554965E+01  0.58084162454E+02  0.19500728164E+03  0.20352599854E+03  0.41800000000E+01 0.  1.
</event>
<event>
11    1  0.7609320E-009  0.1283457E+03  0.7561462E-02  0.1121318E+00
         22   -1    0    0    0    0  0.00000000000E+00  0.00000000000E+00  0.46239298484E+03  0.46239298484E+03  0.00000000000E+00 0. -1.
         22   -1    0    0    0    0 -0.00000000000E+00 -0.00000000000E+00 -0.27725006842E+04  0.27725006842E+04  0.00000000000E+00 0. -1.
         24    2    1    2    0    0  0.11565682662E+03 -0.23217021605E+02 -0.25093153658E+04  0.25134810083E+04  0.83711662729E+02 0.  0.
         25    2    1    2    0    0 -0.23990792571E+02 -0.66056078040E+01 -0.23569112571E+03  0.26798697878E+03  0.12509005506E+03 0.  0.
        -24    2    1    2    0    0 -0.91666034050E+02  0.29822629409E+02  0.43489879213E+03  0.45342568197E+03  0.84651276710E+02 0.  0.
        -11    1    3    3    0    0  0.98848941859E+02 -0.35252381205E+02 -0.13830764514E+04  0.13870523833E+04  0.00000000000E+00 0.  1.
         12    1    3    3    0    0  0.16807884762E+02  0.12035359600E+02 -0.11262389144E+04  0.11264286250E+04  0.00000000000E+00 0. -1.
         13    1    5    5    0    0 -0.49267170972E+02 -0.24782678227E+02  0.13860950630E+03  0.14917784859E+03  0.00000000000E+00 0. -1.
        -14    1    5    5    0    0 -0.42398863078E+02  0.54605307636E+02  0.29628928584E+03  0.30424783338E+03  0.00000000000E+00 0.  1.
          5    1    4    4  501    0  0.16526346901E+02  0.12713273763E+02  0.60252613933E+01  0.22102571039E+02  0.41800000000E+01 0. -1.
         -5    1    4    4    0  501 -0.40517139471E+02 -0.19318881567E+02 -0.24171638711E+03  0.24588440775E+03  0.41800000000E+01 0. -1.
</event>
<event>
11    1  0.7577197E-009  0.1649084E+03  0.7561462E-02  0.1082549E+00
         22   -1    0    0    0    0  0.00000000000E+00  0.00000000000E+00  0.21006567875E+03  0.21006567875E+03  0.00000000000E+00 0. -1.
         22   -1    0    0    0    0 -0.00000000000E+00 -0.00000000000E+00 -0.39443963842E+03  0.39443963842E+03  0.00000000000E+00 0. -1.
        -24    2    1    2    0    0 -0.82966533614E+02 -0.67680199888E+02 -0.23493363500E+03  0.27106280163E+03  0.82566182049E+02 0.  0.
         25    2    1    2    0    0  0.12052772996E+03  0.17990979286E+02 -0.58388454578E+02  0.18413961853E+03  0.12509028123E+03 0.  0.
         24    2    1    2    0    0 -0.37561196350E+02  0.49689220601E+02  0.10894812991E+03  0.14930289701E+03  0.80881381838E+02 0.  0.
        -11    1    5    5    0    0 -0.41586480686E+01  0.62756682457E+02  0.86647835490E+02  0.10706793611E+03  0.00000000000E+00 0.  1.
         12    1    5    5    0    0 -0.33402548282E+02 -0.13067461856E+02  0.22300294423E+02  0.42234960902E+02  0.00000000000E+00 0. -1.
         13    1    3    3    0    0 -0.79360964929E+02 -0.58797425412E+02 -0.24049009214E+03  0.25998227710E+03  0.00000000000E+00 0. -1.
        -14    1    3    3    0    0 -0.36055686842E+01 -0.88827744754E+01  0.55564571406E+01  0.11080524531E+02  0.00000000000E+00 0.  1.
          5    1    4    4  501    0  0.31782452906E+02  0.50377313381E+02 -0.66325859664E+02  0.89244552082E+02  0.41800000000E+01 0.  1.
         -5    1    4    4    0  501  0.88745277058E+02 -0.32386334094E+02  0.79374050862E+01  0.94895066446E+02  0.41800000000E+01 0.  1.
</event>
<event>
11    1  0.7577197E-009  0.2752939E+03  0.7561462E-02  0.1011226E+00
         22   -1    0    0    0    0  0.00000000000E+00  0.00000000000E+00  0.38895479415E+04  0.38895479415E+04  0.00000000000E+00 0.  1.
         22   -1    0    0    0    0 -0.00000000000E+00 -0.00000000000E+00 -0.26691315412E+03  0.26691315412E+03  0.00000000000E+00 0. -1.
        -24    2    1    2    0    0 -0.28787199628E+02 -0.14017704859E+02  0.35054488291E+02  0.92520611786E+02  0.79410626141E+02 0.  0.
         25    2    1    2    0    0 -0.89099935683E+01 -0.22864780018E+03 -0.16096571679E+03  0.30645756270E+03  0.12508825381E+03 0.  0.
         24    2    1    2    0    0  0.37697193196E+02  0.24266550504E+03  0.37485460159E+04  0.37574829211E+04  0.82298503296E+02 0.  0.
        -13    1    5    5    0    0 -0.73613516330E+01  0.14677671906E+03  0.25640103315E+04  0.25682185606E+04  0.00000000000E+00 0.  1.
         14    1    5    5    0    0  0.45058544829E+02  0.95888785981E+02  0.11845356844E+04  0.11892643606E+04  0.00000000000E+00 0. -1.
         13    1    3    3    0    0  0.91929970941E+01 -0.38989480014E+02  0.18762594784E+02  0.44234892454E+02  0.00000000000E+00 0. -1.
        -14    1    3    3    0    0 -0.37980196722E+02  0.24971775155E+02  0.16291893507E+02  0.48285719333E+02  0.00000000000E+00 0.  1.
          5    1    4    4  501    0  0.48853770654E+02 -0.12906930198E+03 -0.12371949638E+03  0.18539029588E+03  0.41800000000E+01 0.  1.
         -5    1    4    4    0  501 -0.57763764222E+02 -0.99578498208E+02 -0.37246220412E+02  0.12106726683E+03  0.41800000000E+01 0.  1.
</event>
<event>
11    1  0.7577197E-009  0.1949647E+03  0.7561462E-02  0.1058143E+00
         22   -1    0    0    0    0  0.00000000000E+00  0.00000000000E+00  0.82036164971E+03  0.82036164971E+03  0.00000000000E+00 0.  1.
         22   -1    0    0    0    0 -0.00000000000E+00 -0.00000000000E+00 -0.25702007984E+03  0.25702007984E+03  0.00000000000E+00 0.  1.
        -24    2    1    2    0    0 -0.96924795811E+02  0.11003284939E+03 -0.16232476775E+03  0.23244453090E+03  0.78609705067E+02 0.  0.
         25    2    1    2    0    0  0.95391927372E+02 -0.13617058100E+03  0.13454115739E+03  0.24777225360E+03  0.12509084573E+03 0.  0.
         24    2    1    2    0    0  0.15328684393E+01  0.26137731614E+02  0.59112518023E+03  0.59716494504E+03  0.80569610819E+02 0.  0.
        -11    1    5    5    0    0 -0.24104073218E+02  0.39038882188E+02  0.48701285408E+03  0.48916925569E+03  0.00000000000E+00 0.  1.
         12    1    5    5    0    0  0.25636941657E+02 -0.12901150574E+02  0.10411232614E+03  0.10799568935E+03  0.00000000000E+00 0. -1.
         11    1    3    3    0    0  0.65934698623E+01  0.16815722165E+02  0.61638745438E+00  0.18072694604E+02  0.00000000000E+00 0. -1.
        -12    1    3    3    0    0 -0.10351826567E+03  0.93217127224E+02 -0.16294115521E+03  0.21437183629E+03  0.00000000000E+00 0.  1.
          5    1    4    4  501    0  0.85715522683E+02 -0.10999170338E+03  0.15821385265E+03  0.21093700769E+03  0.41800000000E+01 0.  1.
         -5    1    4    4    0  501  0.96764046883E+01 -0.26178877620E+02 -0.23672695255E+02  0.36835245917E+02  0.41800000000E+01 0.  1.
</event>
<event>
11    1  0.7577197E-009  0.2988621E+03  0.7561462E-02  0.1000674E+00
         22   -1    0    0    0    0  0.00000000000E+00  0.00000000000E+00  0.10271910547E+04  0.10271910547E+04  0.00000000000E+00 0.  1.
         22   -1    0    0    0    0 -0.00000000000E+00 -0.00000000000E+00 -0.39176266121E+03  0.39176266121E+03  0.00000000000E+00 0. -1.
        -24    2    1    2    0    0 -0.42429578553E+02  0.22896743122E+03 -0.92031588085E+02  0.26305832041E+03  0.80644361443E+02 0.  0.
         25    2    1    2    0    0  0.20491116692E+03 -0.31625807009E+03 -0.44516298582E+01  0.39708347664E+03  0.12509083574E+03 0.  0.
         24    2    1    2    0    0 -0.16248158837E+03  0.87290638865E+02  0.73191161142E+03  0.75881191886E+03  0.77980760924E+02 0.  0.
        -13    1    5    5    0    0 -0.85128259776E+02  0.70691047404E+02  0.54022009837E+03  0.55143612457E+03  0.00000000000E+00 0.  1.
         14    1    5    5    0    0 -0.77353328596E+02  0.16599591461E+02  0.19169151305E+03  0.20737579429E+03  0.00000000000E+00 0. -1.
         13    1    3    3    0    0 -0.13931913749E+02  0.19605045967E+03 -0.50593683548E+02  0.20295221549E+03  0.00000000000E+00 0. -1.
        -14    1    3    3    0    0 -0.28497664804E+02  0.32916971549E+02 -0.41437904537E+02  0.60106104912E+02  0.00000000000E+00 0.  1.
          5    1    4    4  501    0  0.78432905671E+02 -0.30026428274E+02  0.34397834445E+00  0.84088630670E+02  0.41800000000E+01 0. -1.
         -5    1    4    4    0  501  0.12647826125E+03 -0.28623164181E+03 -0.47956082027E+01  0.31299484597E+03  0.41800000000E+01 0. -1.
</event>
<event>
11    1  0.7577197E-009  0.1608826E+03  0.7561462E-02  0.1086250E+00
         22   -1    0    0    0    0  0.00000000000E+00  0.00000000000E+00  0.13958275364E+04  0.13958275364E+04  0.00000000000E+00 0. -1.
         22   -1    0    0    0    0 -0.00000000000E+00 -0.00000000000E+00 -0.11237134799E+03  0.11237134799E+03  0.00000000000E+00 0.  1.
         24    2    1    2    0    0 -0.87261971293E+02 -0.66955215428E+02 -0.46902363063E+02  0.14276093676E+03  0.77994877370E+02 0.  0.
         25    2    1    2    0    0  0.47865901682E+02  0.12001776287E+02  0.28749396731E+03  0.31738803995E+03  0.12508876643E+03 0.  0.
        -24    2    1    2    0    0  0.39396069611E+02  0.54953439141E+02  0.10428645842E+04  0.10480499077E+04  0.79184198522E+02 0.  0.
        -11    1    3    3    0    0 -0.33658813197E+01 -0.47846378961E+02 -0.24441102037E+02  0.53832820895E+02  0.00000000000E+00 0.  1.
         12    1    3    3    0    0 -0.83896089973E+02 -0.19108836467E+02 -0.22461261026E+02  0.88928115862E+02  0.00000000000E+00 0. -1.
         11    1    5    5    0    0 -0.17364339323E+02  0.66927561227E+01  0.46901449837E+03  0.46938354567E+03  0.00000000000E+00 0. -1.
        -12    1    5    5    0    0  0.56760408933E+02  0.48260683019E+02  0.57385008578E+03  0.57866636199E+03  0.00000000000E+00 0.  1.
          5    1    4    4  501    0 -0.77626038855E+01  0.52675067128E+02  0.63383164062E+02  0.82884368868E+02  0.41800000000E+01 0.  1.
         -5    1    4    4    0  501  0.55628505567E+02 -0.40673290841E+02  0.22411080325E+03  0.23450367108E+03  0.41800000000E+01 0.  1.
</event>
<event>
11    1  0.7577197E-009  0.1755726E+03  0.7561462E-02  0.1073281E+00
         22   -1    0    0    0    0  0.00000000000E+00  0.00000000000E+00  0.41532109830E+03  0.41532109830E+03  0.00000000000E+00 0. -1.
         22   -1    0    0    0    0 -0.00000000000E+00 -0.00000000000E+00 -0.12119206335E+04  0.12119206335E+04  0.00000000000E+00 0.  1.
         24    2    1    2    0    0 -0.62097247862E+02  0.10406023137E+03 -0.11037783767E+04  0.11132525521E+04  0.79498050699E+02 0.  0.
         25    2    1    2    0    0  0.54018216066E+02 -0.17909713838E+03  0.45081258998E+02  0.22950705251E+03  0.12508962626E+03 0.  0.
        -24    2    1    2    0    0  0.80790317957E+01  0.75036907010E+02  0.26209758244E+03  0.28448212719E+03  0.80864886074E+02 0.  0.
        -13    1    3    3    0    0 -0.72984916164E+02  0.65173380869E+02 -0.91416249522E+03  0.91938426962E+03  0.00000000000E+00 0.  1.
         14    1    3    3    0    0  0.10887668302E+02  0.38886850499E+02 -0.18961588145E+03  0.19386828250E+03  0.00000000000E+00 0. -1.
         11    1    5    5    0    0 -0.85642536065E+01  0.81092377860E+02  0.25018347286E+03  0.26313701807E+03  0.00000000000E+00 0. -1.
        -12    1    5    5    0    0  0.16643285402E+02 -0.60554708496E+01  0.11914109584E+02  0.21345109121E+02  0.00000000000E+00 0.  1.
          5    1    4    4  501    0  0.40689550519E+01 -0.37643097954E+02  0.67757846991E+02  0.77731315746E+02  0.41800000000E+01 0. -1.
         -5    1    4    4    0  501  0.49949261015E+02 -0.14145404042E+03 -0.22676587993E+02  0.15177573677E+03  0.41800000000E+01 0. -1.
</event>
<event>
11    1  0.7577197E-009  0.1505596E+03  0.7561462E-02  0.1096308E+00
         22   -1    0    0    0    0  0.00000000000E+00  0.00000000000E+00  0.29118747475E+04  0.29118747475E+04  0.00000000000E+00 0. -1.
         22   -1    0    0    0    0 -0.00000000000E+00 -0.00000000000E+00 -0.17807464370E+03  0.17807464370E+03  0.00000000000E+00 0.  1.
        -24    2    1    2    0    0 -0.70128607260E+02 -0.75854728149E+01 -0.14419470659E+03  0.17968557411E+03  0.80741756103E+02 0.  0.
         25    2    1    2    0    0  0.15044342992E+02  0.74901109415E+02  0.34980815282E+03  0.37927493631E+03  0.12508886878E+03 0.  0.
         24    2    1    2    0    0  0.55084264269E+02 -0.67315636600E+02  0.25281866576E+04  0.25309888808E+04  0.81309704037E+02 0.  0.
        -13    1    5    5    0    0 -0.95705458602E+00  0.38529586650E+01  0.61132647169E+01  0.72892557545E+01  0.00000000000E+00 0.  1.
         14    1    5    5    0    0  0.56041318855E+02 -0.71168595265E+02  0.25220733929E+04  0.25236996250E+04  0.00000000000E+00 0. -1.
         11    1    3    3    0    0 -0.72459755366E+02  0.18911372499E+02 -0.76967091283E+02  0.10738710024E+03  0.00000000000E+00 0. -1.
        -12    1    3    3    0    0  0.23311481057E+01 -0.26496845314E+02 -0.67227615311E+02  0.72298473867E+02  0.00000000000E+00 0.  1.
          5    1    4    4  501    0  0.82065062791E+01  0.10286465085E+03  0.32509523953E+03  0.34110536540E+03  0.41800000000E+01 0. -1.
         -5    1    4    4    0  501  0.68378367125E+01 -0.27963541436E+02  0.24712913281E+02  0.38169570909E+02  0.41800000000E+01 0. -1.
</event>
<event>
11    1  0.7577197E-009  0.1292958E+03  0.7561462E-02  0.1120137E+00
         22   -1    0    0    0    0  0.00000000000E+00  0.00000000000E+00  0.34277523537E+03  0.34277523537E+03  0.00000000000E+00 0.  1.
         22   -1    0    0    0    0 -0.00000000000E+00 -0.00000000000E+00 -0.61733599372E+03  0.61733599372E+03  0.00000000000E+00 0.  1.
        -24    2    1    2    0    0 -0.28626633684E+02 -0.17122735123E+02 -0.51095597999E+03  0.51833179276E+03  0.80493239957E+02 0.  0.
         25    2    1    2    0    0  0.23039189097E+02  0.10780977173E+02 -0.54477827776E+02  0.13878880115E+03  0.12508982334E+03 0.  0.
         24    2    1    2    0    0  0.55874445871E+01  0.63417579491E+01  0.29087304942E+03  0.30299063518E+03  0.84408273885E+02 0.  0.
        -13    1    5    5    0    0 -0.60385356366E+01 -0.36636048567E+02  0.92319267918E+02  0.99506337467E+02  0.00000000000E+00 0.  1.
         14    1    5    5    0    0  0.11625980224E+02  0.42977806516E+02  0.19855378150E+03  0.20348429771E+03  0.00000000000E+00 0. -1.
         13    1    3    3    0    0 -0.36071100861E+02  0.21046218864E+02 -0.16524779388E+03  0.17044324870E+03  0.00000000000E+00 0. -1.
        -14    1    3    3    0    0  0.74444671763E+01 -0.38168953986E+02 -0.34570818611E+03  0.34788854406E+03  0.00000000000E+00 0.  1.
          5    1    4    4  501    0  0.22056072320E+02 -0.43953532439E+02 -0.66274846730E+02  0.82632990078E+02  0.41800000000E+01 0. -1.
         -5    1    4    4    0  501  0.98311677687E+00  0.54734509613E+02  0.11797018954E+02  0.56155811074E+02  0.41800000000E+01 0. -1.
</event>
<event>
11    1  0.7577197E-009  0.1596599E+03  0.7561462E-02  0.1087398E+00
         22   -1    0    0    0    0  0.00000000000E+00  0.00000000000E+00  0.60314210910E+03  0.60314210910E+03  0.00000000000E+00 0. -1.
         22   -1    0    0    0    0 -0.00000000000E+00 -0.00000000000E+00 -0.55330253356E+03  0.55330253356E+03  0.00000000000E+00 0. -1.
        -24    2    1    2    0    0  0.20317994334E+02  0.14632216267E+02 -0.37646367843E+03  0.38564445034E+03  0.79811141157E+02 0.  0.
         25    2    1    2    0    0 -0.11614221702E+02 -0.11293616921E+03 -0.12176148084E+03  0.20823024715E+03  0.12507801225E+03 0.  0.
         24    2    1    2    0    0 -0.87037726311E+01  0.98303952948E+02  0.54806473481E+03  0.56256994517E+03  0.79815830776E+02 0.  0.
        -13    1    5    5    0    0  0.17289068184E+02  0.88554187561E+02  0.30913782788E+03  0.32203563877E+03  0.00000000000E+00 0.  1.
         14    1    5    5    0    0 -0.25992840815E+02  0.97497653877E+01  0.23892690693E+03  0.24053430640E+03  0.00000000000E+00 0. -1.
         13    1    3    3    0    0  0.29039251643E+00  0.44455526107E+02 -0.25975990995E+03  0.26353669374E+03  0.00000000000E+00 0. -1.
        -14    1    3    3    0    0  0.20027601817E+02 -0.29823309840E+02 -0.11670376848E+03  0.12210775660E+03  0.00000000000E+00 0.  1.
          5    1    4    4  501    0 -0.44574085928E+02 -0.12561483461E+03 -0.96761908961E+02  0.16476126740E+03  0.41800000000E+01 0.  1.
         -5    1    4    4    0  501  0.32959864226E+02  0.12678665396E+02 -0.24999571880E+02  0.43468979746E+02  0.41800000000E+01 0.  1.
</event>
<event>
11    1  0.7577197E-009  0.1294566E+03  0.7561462E-02  0.1119938E+00
         22   -1    0    0    0    0  0.00000000000E+00  0.00000000000E+00  0.37493143948E+03  0.37493143948E+03  0.00000000000E+00 0.  1.
         22   -1    0    0    0    0 -0.00000000000E+00 -0.00000000000E+00 -0.35887747883E+03  0.35887747883E+03  0.00000000000E+00 0.  1.
         24    2    1    2    0    0 -0.12655575189E+02  0.38702469282E+02 -0.24680653733E+03  0.25745875004E+03  0.60938463948E+02 0.  0.
         25    2    1    2    0    0 -0.96592976326E+01 -0.61944238511E+02 -0.52389707596E+02  0.14941020449E+03  0.12509331328E+03 0.  0.
        -24    2    1    2    0    0  0.22314872821E+02  0.23241769229E+02  0.31525020558E+03  0.32693996379E+03  0.80429561815E+02 0.  0.
        -11    1    3    3    0    0 -0.97653228207E+01  0.52742181734E+02 -0.22541350066E+03  0.23170745681E+03  0.00000000000E+00 0.  1.
         12    1    3    3    0    0 -0.28902523680E+01 -0.14039712453E+02 -0.21393036673E+02  0.25751293222E+02  0.00000000000E+00 0. -1.
         13    1    5    5    0    0 -0.25102449529E+02  0.14561589418E+02  0.54238189676E+02  0.61513852733E+02  0.00000000000E+00 0. -1.
        -14    1    5    5    0    0  0.47417322350E+02  0.86801798112E+01  0.26101201591E+03  0.26542611105E+03  0.00000000000E+00 0.  1.
          5    1    4    4  501    0 -0.31383481482E+02  0.32389766677E+01 -0.71252716075E+02  0.78037400186E+02  0.41800000000E+01 0.  1.
         -5    1    4    4    0  501  0.21724183849E+02 -0.65183215179E+02  0.18863008479E+02  0.71372804301E+02  0.41800000000E+01 0.  1.
</event>
<event>
11    1  0.7577197E-009  0.1112375E+04  0.7561462E-02  0.8578910E-01
         22   -1    0    0    0    0  0.00000000000E+00  0.00000000000E+00  0.22946796318E+04  0.22946796318E+04  0.00000000000E+00 0.  1.
         22   -1    0    0    0    0 -0.00000000000E+00 -0.00000000000E+00 -0.22995648135E+04  0.22995648135E+04  0.00000000000E+00 0.  1.
         24    2    1    2    0    0  0.10753715483E+04  0.26372386483E+03 -0.19959470375E+04  0.22841359612E+04  0.86592544820E+02 0.  0.
         25    2    1    2    0    0 -0.10470233670E+04 -0.25878721591E+03  0.18676571389E+04  0.21603280451E+04  0.12508125205E+03 0.  0.
        -24    2    1    2    0    0 -0.28348181291E+02 -0.49366489179E+01  0.12340471683E+03  0.14978043905E+03  0.79859037682E+02 0.  0.
        -13    1    3    3    0    0  0.55920613327E+03  0.12253135469E+03 -0.11155143302E+04  0.12538331840E+04  0.00000000000E+00 0.  1.
         14    1    3    3    0    0  0.51616541506E+03  0.14119251014E+03 -0.88043270730E+03  0.10303027772E+04  0.00000000000E+00 0. -1.
         11    1    5    5    0    0 -0.13055131107E+02  0.30687366663E+02  0.18935185249E+02  0.38349604448E+02  0.00000000000E+00 0. -1.
        -12    1    5    5    0    0 -0.15293050184E+02 -0.35624015581E+02  0.10446953158E+03  0.11143083460E+03  0.00000000000E+00 0.  1.
          5    1    4    4  501    0 -0.82696926929E+03 -0.21972351294E+03  0.13778772658E+04  0.16219493908E+04  0.41800000000E+01 0.  1.
         -5    1    4    4    0  501 -0.22005409776E+03 -0.39063702976E+02  0.48977987313E+03  0.53837865425E+03  0.41800000000E+01 0.  1.
</event>
<event>
11    1  0.7577197E-009  0.1452686E+03  0.7561462E-02  0.1101814E+00
         22   -1    0    0    0    0  0.00000000000E+00  0.00000000000E+00  0.11034279109E+03  0.11034279109E+03  0.00000000000E+00 0.  1.
         22   -1    0    0    0    0 -0.00000000000E+00 -0.00000000000E+00 -0.22236757948E+04  0.22236757948E+04  0.00000000000E+00 0. -1.
         24    2    1    2    0    0  0.33887709656E+02 -0.66200814949E+02 -0.17349988965E+04  0.17383151739E+04  0.77379250043E+02 0.  0.
         25    2    1    2    0    0 -0.74622697747E+01  0.74474254018E+02 -0.45696041445E+03  0.47964903741E+03  0.12509308029E+03 0.  0.
        -24    2    1    2    0    0 -0.26425439882E+02 -0.82734390688E+01  0.78626307175E+02  0.11605437460E+03  0.80745080443E+02 0.  0.
        -13    1    3    3    0    0  0.33109329994E+02 -0.19282182646E+02 -0.28581037864E+03  0.28836713204E+03  0.00000000000E+00 0.  1.
         14    1    3    3    0    0  0.77837966240E+00 -0.46918632303E+02 -0.14491885178E+04  0.14499480419E+04  0.00000000000E+00 0. -1.
         11    1    5    5    0    0  0.11761599137E+02 -0.56631512925E+01 -0.11965610304E+02  0.17708255893E+02  0.00000000000E+00 0. -1.
        -12    1    5    5    0    0 -0.38187039019E+02 -0.26102877763E+01  0.90591917479E+02  0.98346118702E+02  0.00000000000E+00 0.  1.
          5    1    4    4  501    0  0.41206329592E+01 -0.54049136049E+01  0.58122757204E+01  0.98715579374E+01  0.41800000000E+01 0.  1.
         -5    1    4    4    0  501 -0.11582902734E+02  0.79879167622E+02 -0.46277269017E+03  0.46977747948E+03  0.41800000000E+01 0.  1.
</event>
<event>
11    1  0.7577197E-009  0.3689631E+03  0.7561462E-02  0.9746051E-01
         22   -1    0    0    0    0  0.00000000000E+00  0.00000000000E+00  0.29408588838E+03  0.29408588838E+03  0.00000000000E+00 0. -1.
         22   -1    0    0    0    0 -0.00000000000E+00 -0.00000000000E+00 -0.72166081680E+03  0.72166081680E+03  0.00000000000E+00 0.  1.
        -24    2    1    2    0    0 -0.28947069739E+03 -0.25222324193E+03 -0.21874678046E+03  0.44950687011E+03  0.82440426372E+02 0.  0.
         25    2    1    2    0    0  0.29557935748E+03  0.13373977038E+03 -0.23630460119E+03  0.42040515863E+03  0.12508856906E+03 0.  0.
         24    2    1    2    0    0 -0.61086600916E+01  0.11848347155E+03  0.27476453243E+02  0.14583467644E+03  0.80231842868E+02 0.  0.
        -11    1    5    5    0    0 -0.10359493759E+02  0.57502677560E+02 -0.26619841064E+02  0.64206642770E+02  0.00000000000E+00 0.  1.
         12    1    5    5    0    0  0.42508336674E+01  0.60980793992E+02  0.54096294308E+02  0.81628033668E+02  0.00000000000E+00 0. -1.
         11    1    3    3    0    0 -0.38903549234E+02 -0.76241122830E+02 -0.35451631080E+02  0.92644552455E+02  0.00000000000E+00 0. -1.
        -12    1    3    3    0    0 -0.25056714816E+03 -0.17598211910E+03 -0.18329514938E+03  0.35686231766E+03  0.00000000000E+00 0.  1.
          5    1    4    4  501    0  0.18517964890E+03  0.55032356269E+02 -0.20395275340E+03  0.28095241701E+03  0.41800000000E+01 0.  1.
         -5    1    4    4    0  501  0.11039970858E+03  0.78707414109E+02 -0.32351847793E+02  0.13945274162E+03  0.41800000000E+01 0.  1.
</event>
<event>
11    1  0.7577197E-009  0.6086897E+03  0.7561462E-02  0.9178867E-01
         22   -1    0    0    0    0  0.00000000000E+00  0.00000000000E+00  0.62658301095E+03  0.62658301095E+03  0.00000000000E+00 0.  1.
         22   -1    0    0    0    0 -0.00000000000E+00 -0.00000000000E+00 -0.10076523529E+04  0.10076523529E+04  0.00000000000E+00 0.  1.
         24    2    1    2    0    0  0.31291945238E+02  0.35135216442E+02 -0.24641915750E+02  0.96333021172E+02  0.80368885055E+02 0.  0.
         25    2    1    2    0    0  0.51334331845E+03  0.22728477811E+03 -0.64398843340E+03  0.86345091530E+03  0.12508656134E+03 0.  0.
        -24    2    1    2    0    0 -0.54463526368E+03 -0.26241999456E+03  0.28756100722E+03  0.67445142735E+03  0.81863123475E+02 0.  0.
        -11    1    3    3    0    0  0.37287478255E+02  0.56148018967E+02 -0.61036045497E+01  0.67677249183E+02  0.00000000000E+00 0.  1.
         12    1    3    3    0    0 -0.59955330174E+01 -0.21012802524E+02 -0.18538311200E+02  0.28655771988E+02  0.00000000000E+00 0. -1.
         13    1    5    5    0    0 -0.29187970636E+03 -0.95289472489E+02  0.14754450713E+03  0.34065118249E+03  0.00000000000E+00 0. -1.
        -14    1    5    5    0    0 -0.25275555733E+03 -0.16713052207E+03  0.14001650009E+03  0.33380024485E+03  0.00000000000E+00 0.  1.
          5    1    4    4  501    0  0.25559217994E+03  0.68132368139E+02 -0.23067505067E+03  0.35099548920E+03  0.41800000000E+01 0.  1.
         -5    1    4    4    0  501  0.25775113851E+03  0.15915240997E+03 -0.41331338273E+03  0.51245542611E+03  0.41800000000E+01 0.  1.
</event>
<event>
11    1  0.7577197E-009  0.1908612E+03  0.7561462E-02  0.1061181E+00
         22   -1    0    0    0    0  0.00000000000E+00  0.00000000000E+00  0.14255277683E+04  0.14255277683E+04  0.00000000000E+00 0. -1.
         22   -1    0    0    0    0 -0.00000000000E+00 -0.00000000000E+00 -0.73290559774E+03  0.73290559774E+03  0.00000000000E+00 0. -1.
         24    2    1    2    0    0 -0.31345692397E+02 -0.48840163730E+02 -0.61966678683E+03  0.62738712703E+03  0.79118685772E+02 0.  0.
         25    2    1    2    0    0 -0.21414514922E+02  0.18126475923E+03  0.13175748286E+02  0.22167126943E+03  0.12509619082E+03 0.  0.
        -24    2    1    2    0    0  0.52760207319E+02 -0.13242459550E+03  0.12991132091E+04  0.13093749696E+04  0.80297994761E+02 0.  0.
        -13    1    3    3    0    0 -0.36740207100E+02 -0.34813673510E+00 -0.12411437147E+03  0.12943856157E+03  0.00000000000E+00 0.  1.
         14    1    3    3    0    0  0.53945147028E+01 -0.48492026995E+02 -0.49555241536E+03  0.49794856545E+03  0.00000000000E+00 0. -1.
         11    1    5    5    0    0  0.87549677599E+01 -0.99297528735E+02  0.10213666040E+04  0.10262194640E+04  0.00000000000E+00 0. -1.
        -12    1    5    5    0    0  0.44005239559E+02 -0.33127066766E+02  0.27774660510E+03  0.28315550552E+03  0.00000000000E+00 0.  1.
          5    1    4    4  501    0  0.37481928606E+02  0.36942324274E+02 -0.28866577849E+02  0.60169610366E+02  0.41800000000E+01 0. -1.
         -5    1    4    4    0  501 -0.58896443528E+02  0.14432243496E+03  0.42042326136E+02  0.16150165906E+03  0.41800000000E+01 0. -1.
</event>
<event>
11    1  0.7577197E-009  0.1991907E+03  0.7561462E-02  0.1055097E+00
         22   -1    0    0    0    0  0.00000000000E+00  0.00000000000E+00  0.47598297411E+03  0.47598297411E+03  0.00000000000E+00 0. -1.
         22   -1    0    0    0    0 -0.00000000000E+00 -0.00000000000E+00 -0.42951199016E+03  0.42951199016E+03  0.00000000000E+00 0.  1.
         24    2    1    2    0    0 -0.12339585938E+03  0.95502356434E+02 -0.27048338129E+03  0.32217871819E+03  0.79313483747E+02 0.  0.
         25    2    1    2    0    0  0.11656103307E+03 -0.97774629152E+02 -0.53438385258E+02  0.20407934121E+03  0.12508542662E+03 0.  0.
        -24    2    1    2    0    0  0.68348263051E+01  0.22722727180E+01  0.37039275050E+03  0.37923690487E+03  0.81104638066E+02 0.  0.
        -11    1    3    3    0    0 -0.92376369892E+02  0.41316575417E+02 -0.21901473788E+03  0.24126315203E+03  0.00000000000E+00 0.  1.
         12    1    3    3    0    0 -0.31019489484E+02  0.54185781017E+02 -0.51468643408E+02  0.80915566157E+02  0.00000000000E+00 0. -1.
         13    1    5    5    0    0  0.24035631498E+02  0.17839661118E+02  0.33838235331E+03  0.33970366810E+03  0.00000000000E+00 0. -1.
        -14    1    5    5    0    0 -0.17200805193E+02 -0.15567388400E+02  0.32010397193E+02  0.39533236767E+02  0.00000000000E+00 0.  1.
          5    1    4    4  501    0  0.92358381982E+02 -0.12248817483E+03 -0.18224586566E+02  0.15454135903E+03  0.41800000000E+01 0. -1.
         -5    1    4    4    0  501  0.24202651088E+02  0.24713545678E+02 -0.35213798692E+02  0.49537982175E+02  0.41800000000E+01 0. -1.
</event>
<event>
11    1  0.7577197E-009  0.1440996E+03  0.7561462E-02  0.1103065E+00
         22   -1    0    0    0    0  0.00000000000E+00  0.00000000000E+00  0.37971598426E+03  0.37971598426E+03  0.00000000000E+00 0. -1.
         22   -1    0    0    0    0 -0.00000000000E+00 -0.00000000000E+00 -0.57971379759E+03  0.57971379759E+03  0.00000000000E+00 0. -1.
        -24    2    1    2    0    0  0.76520278784E+01  0.25409877136E+02 -0.40262006637E+03  0.41153354748E+03  0.80948918885E+02 0.  0.
         25    2    1    2    0    0 -0.74802543564E+02 -0.54926284763E+00 -0.13168710088E+03  0.19642971434E+03  0.12508963956E+03 0.  0.
         24    2    1    2    0    0  0.67150515686E+02 -0.24860614288E+02  0.33430935391E+03  0.35146652003E+03  0.81478393992E+02 0.  0.
        -11    1    5    5    0    0  0.46534337309E+02  0.14564227444E+02  0.26251361940E+03  0.26700367346E+03  0.00000000000E+00 0.  1.
         12    1    5    5    0    0  0.20616178377E+02 -0.39424841732E+02  0.71795734516E+02  0.84462846573E+02  0.00000000000E+00 0. -1.
         13    1    3    3    0    0  0.10709501459E+02  0.39207638805E+02 -0.91832213121E+02  0.10042453748E+03  0.00000000000E+00 0. -1.
        -14    1    3    3    0    0 -0.30574735810E+01 -0.13797761669E+02 -0.31078785325E+03  0.31110901000E+03  0.00000000000E+00 0.  1.
          5    1    4    4  501    0 -0.22085290891E+02  0.34347763980E+01  0.23338562549E+02  0.32584024682E+02  0.41800000000E+01 0.  1.
         -5    1    4    4    0  501 -0.52717252674E+02 -0.39840392457E+01 -0.15502566343E+03  0.16384568966E+03  0.41800000000E+01 0.  1.
</event>
<event>
11    1  0.7577197E-009  0.1701883E+03  0.7561462E-02  0.1077868E+00
         22   -1    0    0    0    0  0.00000000000E+00  0.00000000000E+00  0.40918601656E+03  0.40918601656E+03  0.00000000000E+00 0. -1.
         22   -1    0    0    0    0 -0.00000000000E+00 -0.00000000000E+00 -0.54287466669E+03  0.54287466669E+03  0.00000000000E+00 0.  1.
        -24    2    1    2    0    0 -0.16933041482E+02  0.34755732086E+02 -0.42528153418E+03  0.43523485920E+03  0.84085138639E+02 0.  0.
         25    2    1    2    0    0  0.11555747496E+03 -0.84607481186E+02  0.26744870276E+00  0.19015620032E+03  0.12508938045E+03 0.  0.
         24    2    1    2    0    0 -0.98624433483E+02  0.49851749099E+02  0.29132543534E+03  0.32666962373E+03  0.98135406560E+02 0.  0.
        -11    1    5    5    0    0 -0.11142389581E+02  0.11985889732E+02 -0.35699768891E+01  0.16749899499E+02  0.00000000000E+00 0.  1.
         12    1    5    5    0    0 -0.87482043902E+02  0.37865859368E+02  0.29489541223E+03  0.30991972423E+03  0.00000000000E+00 0. -1.
         13    1    3    3    0    0  0.22743579485E+02  0.29292642404E+02 -0.86779275800E+02  0.94371457630E+02  0.00000000000E+00 0. -1.
        -14    1    3    3    0    0 -0.39676620967E+02  0.54630896818E+01 -0.33850225838E+03  0.34086340157E+03  0.00000000000E+00 0.  1.
          5    1    4    4  501    0  0.48916699962E+02 -0.90145390581E+02  0.42344412987E+02  0.11103853696E+03  0.41800000000E+01 0. -1.
         -5    1    4    4    0  501  0.66640775002E+02  0.55379093953E+01 -0.42076964285E+02  0.79117663368E+02  0.41800000000E+01 0. -1.
</event>
<event>
11    1  0.7577197E-009  0.1605846E+03  0.7561462E-02  0.1086529E+00
         22   -1    0    0    0    0  0.00000000000E+00  0.00000000000E+00  0.14265160953E+03  0.14265160953E+03  0.00000000000E+00 0. -1.
         22   -1    0    0    0    0 -0.00000000000E+00 -0.00000000000E+00 -0.98831481245E+03  0.98831481245E+03  0.00000000000E+00 0. -1.
        -24    2    1    2    0    0 -0.48507065024E+02 -0.90491084623E+02 -0.68386278447E+03  0.69621239548E+03  0.80633863135E+02 0.  0.
         25    2    1    2    0    0  0.65828466914E+02  0.70175386153E+02 -0.25979126276E+03  0.30396948219E+03  0.12509186233E+03 0.  0.
         24    2    1    2    0    0 -0.17321401889E+02  0.20315698470E+02  0.97990844307E+02  0.13078454430E+03  0.82399228718E+02 0.  0.
        -13    1    5    5    0    0  0.22102767125E+02  0.19707328635E+02  0.53365583725E+01  0.30089698765E+02  0.00000000000E+00 0.  1.
         14    1    5    5    0    0 -0.39424169015E+02  0.60836983527E+00  0.92654285934E+02  0.10069484554E+03  0.00000000000E+00 0. -1.
         11    1    3    3    0    0 -0.53966134563E+02 -0.73262834808E+02 -0.66018153800E+03  0.66642287607E+03  0.00000000000E+00 0. -1.
        -12    1    3    3    0    0  0.54590695385E+01 -0.17228249814E+02 -0.23681246472E+02  0.29789519405E+02  0.00000000000E+00 0.  1.
          5    1    4    4  501    0  0.13409998268E+02  0.46213289687E+01 -0.20067975957E+03  0.20122381329E+03  0.41800000000E+01 0.  1.
         -5    1    4    4    0  501  0.52418468646E+02  0.65554057184E+02 -0.59111503189E+02  0.10274566890E+03  0.41800000000E+01 0.  1.
</event>
<event>
11    1  0.7577197E-009  0.1409687E+03  0.7561462E-02  0.1106481E+00
         22   -1    0    0    0    0  0.00000000000E+00  0.00000000000E+00  0.14555592649E+04  0.14555592649E+04  0.00000000000E+00 0.  1.
         22   -1    0    0    0    0 -0.00000000000E+00 -0.00000000000E+00 -0.26891521244E+04  0.26891521244E+04  0.00000000000E+00 0.  1.
        -24    2    1    2    0    0 -0.49823222778E+02  0.41680224342E+02 -0.26731471253E+04  0.26752183312E+04  0.82812868849E+02 0.  0.
         25    2    1    2    0    0  0.33592738119E+02 -0.90978556549E+02  0.48908951079E+03  0.51406377630E+03  0.12508975471E+03 0.  0.
         24    2    1    2    0    0  0.16230484659E+02  0.49298332207E+02  0.95046475508E+03  0.95542928186E+03  0.82268510412E+02 0.  0.
        -13    1    5    5    0    0  0.42949974440E+02  0.88077433782E+01  0.60335608804E+03  0.60494697753E+03  0.00000000000E+00 0.  1.
         14    1    5    5    0    0 -0.26719489780E+02  0.40490588828E+02  0.34710866704E+03  0.35048230433E+03  0.00000000000E+00 0. -1.
         13    1    3    3    0    0 -0.14070771845E+02  0.61846103453E+02 -0.14602554028E+04  0.14616322276E+04  0.00000000000E+00 0. -1.
        -14    1    3    3    0    0 -0.35752450933E+02 -0.20165879111E+02 -0.12128917225E+04  0.12135861036E+04  0.00000000000E+00 0.  1.
          5    1    4    4  501    0  0.25157496266E+02 -0.11176102774E+03  0.26391076943E+03  0.28773215594E+03  0.41800000000E+01 0.  1.
         -5    1    4    4    0  501  0.84352418530E+01  0.20782471196E+02  0.22517874136E+03  0.22633162036E+03  0.41800000000E+01 0.  1.
</event>
<event>
11    1  0.7577197E-009  0.1962841E+03  0.7561462E-02  0.1057183E+00
         22   -1    0    0    0    0  0.00000000000E+00  0.00000000000E+00  0.30268329154E+02  0.30268329154E+02  0.00000000000E+00 0. -1.
         22   -1    0    0    0    0 -0.00000000000E+00 -0.00000000000E+00 -0.28369357353E+04  0.28369357353E+04  0.00000000000E+00 0.  1.
         24    2    1    2    0    0 -0.12959638520E+02 -0.14030062098E+02 -0.11808473958E+04  0.11838258056E+04  0.81720076551E+02 0.  0.
         25    2    1    2    0    0  0.15657658462E+03 -0.27310851102E+02 -0.13050581566E+04  0.13206387151E+04  0.12509082403E+03 0.  0.
        -24    2    1    2    0    0 -0.14361694610E+03  0.41340913200E+02 -0.32076185375E+03  0.36273954379E+03  0.79730242021E+02 0.  0.
        -11    1    3    3    0    0 -0.26493169160E+01 -0.47140341045E+02 -0.80441395785E+03  0.80579839056E+03  0.00000000000E+00 0.  1.
         12    1    3    3    0    0 -0.10310321604E+02  0.33110278947E+02 -0.37643343793E+03  0.37802741500E+03  0.00000000000E+00 0. -1.
         11    1    5    5    0    0 -0.15042900311E+03  0.28797929966E+02 -0.27464998957E+03  0.31446911218E+03  0.00000000000E+00 0. -1.
        -12    1    5    5    0    0  0.68120570037E+01  0.12542983235E+02 -0.46111864177E+02  0.48270431601E+02  0.00000000000E+00 0.  1.
          5    1    4    4  501    0  0.36671917595E+02 -0.59924505827E+02 -0.31270297694E+03  0.32052519421E+03  0.41800000000E+01 0. -1.
         -5    1    4    4    0  501  0.11990466703E+03  0.32613654725E+02 -0.99235517970E+03  0.10001135209E+04  0.41800000000E+01 0. -1.
</event>
<event>
11    1  0.7577197E-009  0.1293724E+03  0.7561462E-02  0.1120043E+00
         22   -1    0    0    0    0  0.00000000000E+00  0.00000000000E+00  0.24092780744E+04  0.24092780744E+04  0.00000000000E+00 0. -1.
         22   -1    0    0    0    0 -0.00000000000E+00 -0.00000000000E+00 -0.16258316888E+03  0.16258316888E+03  0.00000000000E+00 0. -1.
        -24    2    1    2    0    0  0.42830133331E+01  0.35685067427E+02 -0.12895959748E+03  0.16664494373E+03  0.99238053435E+02 0.  0.
         25    2    1    2    0    0  0.19135806460E+02  0.10455702668E+02  0.27908840788E+03  0.30661490448E+03  0.12508740715E+03 0.  0.
         24    2    1    2    0    0 -0.23418819793E+02 -0.46140770095E+02  0.20965660951E+04  0.20986013950E+04  0.76557248953E+02 0.  0.
        -11    1    5    5    0    0 -0.12288472455E+02 -0.53475834872E+02  0.76367074095E+03  0.76563938773E+03  0.00000000000E+00 0.  1.
         12    1    5    5    0    0 -0.11130347338E+02  0.73350647768E+01  0.13328953542E+04  0.13329620073E+04  0.00000000000E+00 0. -1.
         13    1    3    3    0    0 -0.23807607362E+02  0.43094881724E+02 -0.12847917347E+03  0.13758949457E+03  0.00000000000E+00 0. -1.
        -14    1    3    3    0    0  0.28090620695E+02 -0.74098142975E+01 -0.48042400541E+00  0.29055449165E+02  0.00000000000E+00 0.  1.
          5    1    4    4  501    0 -0.22910284720E+02  0.20650412009E+02  0.80991924535E+01  0.32161933718E+02  0.41800000000E+01 0. -1.
         -5    1    4    4    0  501  0.42046091179E+02 -0.10194709340E+02  0.27098921543E+03  0.27445297076E+03  0.41800000000E+01 0. -1.
</event>
<event>
11    1  0.7577197E-009  0.1312470E+03  0.7561462E-02  0.1117746E+00
         22   -1    0    0    0    0  0.00000000000E+00  0.00000000000E+00  0.27884533678E+03  0.27884533678E+03  0.00000000000E+00 0.  1.
         22   -1    0    0    0    0 -0.00000000000E+00 -0.00000000000E+00 -0.49782063987E+03  0.49782063987E+03  0.00000000000E+00 0. -1.
        -24    2    1    2    0    0 -0.13685351487E+02 -0.40486756790E+02 -0.34974917564E+03  0.36128771835E+03  0.79861525468E+02 0.  0.
         25    2    1    2    0    0 -0.18129493179E+02  0.29551576569E+02 -0.10300182550E+03  0.16569941828E+03  0.12507976240E+03 0.  0.
         24    2    1    2    0    0  0.31814844666E+02  0.10935180221E+02  0.23377569805E+03  0.24967884001E+03  0.80973351430E+02 0.  0.
        -13    1    5    5    0    0  0.52131207874E+01  0.43335043453E+02  0.14638133924E+03  0.15275011979E+03  0.00000000000E+00 0.  1.
         14    1    5    5    0    0  0.26601723878E+02 -0.32399863232E+02  0.87394358818E+02  0.96928720222E+02  0.00000000000E+00 0. -1.
         11    1    3    3    0    0 -0.16963696497E+01 -0.53372248595E+02 -0.33208864248E+03  0.33635448719E+03  0.00000000000E+00 0. -1.
        -12    1    3    3    0    0 -0.11988981837E+02  0.12885491805E+02 -0.17660533160E+02  0.24933231159E+02  0.00000000000E+00 0.  1.
          5    1    4    4  501    0 -0.57183882778E+02  0.26630220732E+02 -0.10885484660E+03  0.12588095620E+03  0.41800000000E+01 0. -1.
         -5    1    4    4    0  501  0.39054389599E+02  0.29213558371E+01  0.58530210908E+01  0.39818462085E+02  0.41800000000E+01 0. -1.
</event>
<event>
11    1  0.7577197E-009  0.3824291E+03  0.7561462E-02  0.9703073E-01
         22   -1    0    0    0    0  0.00000000000E+00  0.00000000000E+00  0.48292107563E+03  0.48292107563E+03  0.00000000000E+00 0.  1.
         22   -1    0    0    0    0 -0.00000000000E+00 -0.00000000000E+00 -0.13998551903E+04  0.13998551903E+04  0.00000000000E+00 0. -1.
         24    2    1    2    0    0 -0.34009667647E+02 -0.38632358668E+02 -0.43979779048E+03  0.45002239647E+03  0.80305318520E+02 0.  0.
         25    2    1    2    0    0  0.22523312600E+03 -0.26943852633E+03 -0.83671003649E+03  0.91600178890E+03  0.12509401094E+03 0.  0.
        -24    2    1    2    0    0 -0.19122345836E+03  0.30807088500E+03  0.35957371226E+03  0.51675208061E+03  0.79154134779E+02 0.  0.
        -13    1    3    3    0    0 -0.19472184151E+02 -0.60052233944E+02 -0.22561864657E+03  0.23428446478E+03  0.00000000000E+00 0.  1.
         14    1    3    3    0    0 -0.14537483496E+02  0.21419875276E+02 -0.21417914390E+03  0.21573793168E+03  0.00000000000E+00 0. -1.
         11    1    5    5    0    0 -0.78420340428E+02  0.15665762664E+03  0.12294635616E+03  0.21402609250E+03  0.00000000000E+00 0. -1.
        -12    1    5    5    0    0 -0.11280311793E+03  0.15141325836E+03  0.23662735610E+03  0.30272598811E+03  0.00000000000E+00 0.  1.
          5    1    4    4  501    0  0.64971230578E+02 -0.15495995044E+02 -0.98913710812E+02  0.11942688664E+03  0.41800000000E+01 0. -1.
         -5    1    4    4    0  501  0.16026189543E+03 -0.25394253129E+03 -0.73779632568E+03  0.79657490226E+03  0.41800000000E+01 0. -1.
</event>
<event>
11    1  0.7577197E-009  0.4752205E+03  0.7561462E-02  0.9450663E-01
         22   -1    0    0    0    0  0.00000000000E+00  0.00000000000E+00  0.72748823920E+03  0.72748823920E+03  0.00000000000E+00 0. -1.
         22   -1    0    0    0    0 -0.00000000000E+00 -0.00000000000E+00 -0.51069238260E+03  0.51069238260E+03  0.00000000000E+00 0.  1.
        -24    2    1    2    0    0  0.46912395622E+03 -0.12069967961E+03 -0.21541524958E+03  0.53586744593E+03  0.78131241541E+02 0.  0.
         25    2    1    2    0    0 -0.36935969021E+03  0.14535973855E+03  0.28405497536E+03  0.50387558033E+03  0.12508931640E+03 0.  0.
         24    2    1    2    0    0 -0.99764266006E+02 -0.24660058939E+02  0.14815613083E+03  0.19843759554E+03  0.82862614883E+02 0.  0.
        -11    1    5    5    0    0 -0.31769043920E+02  0.30490473291E+02  0.57286623451E+02  0.72254400140E+02  0.00000000000E+00 0.  1.
         12    1    5    5    0    0 -0.67995222086E+02 -0.55150532230E+02  0.90869507374E+02  0.12618319540E+03  0.00000000000E+00 0. -1.
         11    1    3    3    0    0  0.87177305925E+02  0.81728761169E+01 -0.37979543799E+02  0.95441732589E+02  0.00000000000E+00 0. -1.
        -12    1    3    3    0    0  0.38194665029E+03 -0.12887255573E+03 -0.17743570578E+03  0.44042571334E+03  0.00000000000E+00 0.  1.
          5    1    4    4  501    0 -0.26501784633E+03  0.14176784937E+03  0.15616652196E+03  0.33873003553E+03  0.41800000000E+01 0. -1.
         -5    1    4    4    0  501 -0.10434184388E+03  0.35918891779E+01  0.12788845340E+03  0.16514554480E+03  0.41800000000E+01 0. -1.
</event>
<event>
11    1  0.9439799E-009  0.1454794E+03  0.7561462E-02  0.1101590E+00
         22   -1    0    0    0    0  0.00000000000E+00  0.00000000000E+00  0.12221925875E+04  0.12221925875E+04  0.00000000000E+00 0.  1.
         22   -1    0    0    0    0 -0.00000000000E+00 -0.00000000000E+00 -0.15164582551E+04  0.15164582551E+04  0.00000000000E+00 0. -1.
        -24    2    1    2    0    0  0.46941331471E+02  0.31569820368E+02 -0.12411476898E+04  0.12450110087E+04  0.80029254291E+02 0.  0.
         25    2    1    2    0    0  0.13911761963E+02 -0.74466332608E+02 -0.25126119745E+03  0.29071981001E+03  0.12508815601E+03 0.  0.
         24    2    1    2    0    0 -0.60853093433E+02  0.42896512240E+02  0.11981432197E+04  0.12029200238E+04  0.76981810373E+02 0.  0.
        -13    1    5    5    0    0 -0.76866418120E+02  0.43318049494E+02  0.10939758406E+04  0.10975281497E+04  0.00000000000E+00 0.  1.
         14    1    5    5    0    0  0.16013324686E+02 -0.42153725398E+00  0.10416737913E+03  0.10539187415E+03  0.00000000000E+00 0. -1.
         13    1    3    3    0    0  0.25647620889E+02 -0.85733198011E+01 -0.94593706398E+03  0.94632353414E+03  0.00000000000E+00 0. -1.
        -14    1    3    3    0    0  0.21293710582E+02  0.40143140169E+02 -0.29521062586E+03  0.29868747452E+03  0.00000000000E+00 0.  1.
          5    1    4    4  501    0  0.37162725639E+02 -0.60381398229E+02 -0.48271882842E+02  0.85875657216E+02  0.41800000000E+01 0. -1.
         -5    1    4    4    0  501 -0.23250963677E+02 -0.14084934379E+02 -0.20298931461E+03  0.20484415279E+03  0.41800000000E+01 0. -1.
</event>
<event>
11    1  0.7577197E-009  0.1350339E+03  0.7561462E-02  0.1113234E+00
         22   -1    0    0    0    0  0.00000000000E+00  0.00000000000E+00  0.85482822263E+03  0.85482822263E+03  0.00000000000E+00 0.  1.
         22   -1    0    0    0    0 -0.00000000000E+00 -0.00000000000E+00 -0.13599350092E+03  0.13599350092E+03  0.00000000000E+00 0.  1.
         24    2    1    2    0    0 -0.42494841094E+01  0.56639733165E+01 -0.68394517319E+02  0.10010431008E+03  0.72752485787E+02 0.  0.
         25    2    1    2    0    0  0.34242924153E+02  0.35506610222E+02  0.40942298887E+02  0.14055936938E+03  0.12508943704E+03 0.  0.
        -24    2    1    2    0    0 -0.29993440044E+02 -0.41170583538E+02  0.74628694014E+03  0.75015804409E+03  0.56553255455E+02 0.  0.
        -11    1    3    3    0    0 -0.31488061326E+02 -0.17539023958E+02 -0.25022694786E+02  0.43877677945E+02  0.00000000000E+00 0.  1.
         12    1    3    3    0    0  0.27238577217E+02  0.23202997274E+02 -0.43371822534E+02  0.56226632135E+02  0.00000000000E+00 0. -1.
         13    1    5    5    0    0 -0.20566446503E+02 -0.44592885156E+02  0.31937272967E+03  0.32312605062E+03  0.00000000000E+00 0. -1.
        -14    1    5    5    0    0 -0.94269935408E+01  0.34223016178E+01  0.42691421046E+03  0.42703199348E+03  0.00000000000E+00 0.  1.
          5    1    4    4  501    0  0.16532638793E+02 -0.21461830096E+02  0.69188106309E+02  0.74420459224E+02  0.41800000000E+01 0. -1.
         -5    1    4    4    0  501  0.17710285360E+02  0.56968440318E+02 -0.28245807422E+02  0.66138910156E+02  0.41800000000E+01 0. -1.
</event>
<event>
11    1  0.7577197E-009  0.3549397E+03  0.7561462E-02  0.9792946E-01
         22   -1    0    0    0    0  0.00000000000E+00  0.00000000000E+00  0.14840650331E+04  0.14840650331E+04  0.00000000000E+00 0.  1.
         22   -1    0    0    0    0 -0.00000000000E+00 -0.00000000000E+00 -0.51030648534E+03  0.51030648534E+03  0.00000000000E+00 0.  1.
         24    2    1    2    0    0 -0.15454891108E+02 -0.42838886234E+02 -0.47908837062E+02  0.10609965994E+03  0.82993116207E+02 0.  0.
         25    2    1    2    0    0 -0.29597444607E+03  0.15828205584E+03 -0.33429694977E+03  0.48995663475E+03  0.12509584874E+03 0.  0.
        -24    2    1    2    0    0  0.31142933718E+03 -0.11544316961E+03  0.13559643346E+04  0.13983152238E+04  0.79566518310E+02 0.  0.
        -11    1    3    3    0    0 -0.14283830891E+02 -0.63367151502E+02 -0.54197509539E+02  0.84597835402E+02  0.00000000000E+00 0.  1.
         12    1    3    3    0    0 -0.11710602169E+01  0.20528265268E+02  0.62886724767E+01  0.21501824538E+02  0.00000000000E+00 0. -1.
         13    1    5    5    0    0  0.18423080529E+03 -0.10739137329E+03  0.80055674270E+03  0.82847148107E+03  0.00000000000E+00 0. -1.
        -14    1    5    5    0    0  0.12719853190E+03 -0.80517963167E+01  0.55540759191E+03  0.56984374270E+03  0.00000000000E+00 0.  1.
          5    1    4    4  501    0 -0.11772346186E+03  0.11533195912E+03 -0.10150831121E+03  0.19360186959E+03  0.41800000000E+01 0. -1.
         -5    1    4    4    0  501 -0.17825098421E+03  0.42950096725E+02 -0.23278863857E+03  0.29635476515E+03  0.41800000000E+01 0. -1.
</event>
<event>
11    1  0.7577197E-009  0.2401166E+03  0.7561462E-02  0.1029300E+00
         22   -1    0    0    0    0  0.00000000000E+00  0.00000000000E+00  0.12871728564E+04  0.12871728564E+04  0.00000000000E+00 0. -1.
         22   -1    0    0    0    0 -0.00000000000E+00 -0.00000000000E+00 -0.30007267226E+03  0.30007267226E+03  0.00000000000E+00 0.  1.
         24    2    1    2    0    0  0.90853334595E+02  0.20513639068E+02 -0.81652105586E+02  0.14781255211E+03  0.80661926707E+02 0.  0.
         25    2    1    2    0    0 -0.16560974034E+03  0.16939907536E+03 -0.72306859133E+02  0.27748432477E+03  0.12508651322E+03 0.  0.
        -24    2    1    2    0    0  0.74756405745E+02 -0.18991271443E+03  0.11410591488E+04  0.11619486517E+04  0.80332614101E+02 0.  0.
        -11    1    3    3    0    0  0.90345498657E+02 -0.11342914937E+02 -0.64896172894E+02  0.11181450757E+03  0.00000000000E+00 0.  1.
         12    1    3    3    0    0  0.50783593846E+00  0.31856554005E+02 -0.16755932691E+02  0.35998044541E+02  0.00000000000E+00 0. -1.
         13    1    5    5    0    0  0.45898397089E+02 -0.15954777874E+03  0.72399023454E+03  0.74278127081E+03  0.00000000000E+00 0. -1.
        -14    1    5    5    0    0  0.28858008657E+02 -0.30364935689E+02  0.41706891428E+03  0.41916738094E+03  0.00000000000E+00 0.  1.
          5    1    4    4  501    0 -0.36776990680E+02  0.66831823857E+02 -0.82501240155E+02  0.11244094784E+03  0.41800000000E+01 0.  1.
         -5    1    4    4    0  501 -0.12883274966E+03  0.10256725150E+03  0.10194381022E+02  0.16504337694E+03  0.41800000000E+01 0.  1.
</event>
<event>
11    1  0.7577197E-009  0.3730511E+03  0.7561462E-02  0.9732799E-01
         22   -1    0    0    0    0  0.00000000000E+00  0.00000000000E+00  0.76383462437E+03  0.76383462437E+03  0.00000000000E+00 0.  1.
         22   -1    0    0    0    0 -0.00000000000E+00 -0.00000000000E+00 -0.78780883543E+03  0.78780883543E+03  0.00000000000E+00 0. -1.
        -24    2    1    2    0    0  0.33073573123E+02  0.10893259038E+02 -0.33610825012E+03  0.35028898726E+03  0.92309774460E+02 0.  0.
         25    2    1    2    0    0  0.26886218425E+03 -0.19547185730E+03 -0.31686004228E+03  0.47596633177E+03  0.12509013340E+03 0.  0.
         24    2    1    2    0    0 -0.30193575737E+03  0.18457859826E+03  0.62899408135E+03  0.72538814077E+03  0.72937918013E+02 0.  0.
        -13    1    5    5    0    0 -0.22844651341E+03  0.11263600440E+03  0.49275504040E+03  0.55469109314E+03  0.00000000000E+00 0.  1.
         14    1    5    5    0    0 -0.73489243965E+02  0.71942593858E+02  0.13623904095E+03  0.17069704763E+03  0.00000000000E+00 0. -1.
         13    1    3    3    0    0 -0.17178671478E+02 -0.20895151799E+02 -0.19915952222E+03  0.20098813252E+03  0.00000000000E+00 0. -1.
        -14    1    3    3    0    0  0.50252244602E+02  0.31788410837E+02 -0.13694872790E+03  0.14930085473E+03  0.00000000000E+00 0.  1.
          5    1    4    4  501    0  0.91036639317E+02 -0.23810820161E+02 -0.15206281357E+03  0.17887201158E+03  0.41800000000E+01 0.  1.
         -5    1    4    4    0  501  0.17782554493E+03 -0.17166103714E+03 -0.16479722871E+03  0.29709432019E+03  0.41800000000E+01 0.  1.
</event>
<event>
11    1  0.7577197E-009  0.1355512E+03  0.7561462E-02  0.1112630E+00
         22   -1    0    0    0    0  0.00000000000E+00  0.00000000000E+00  0.40866050283E+03  0.40866050283E+03  0.00000000000E+00 0.  1.
         22   -1    0    0    0    0 -0.00000000000E+00 -0.00000000000E+00 -0.37835858420E+03  0.37835858420E+03  0.00000000000E+00 0.  1.
         24    2    1    2    0    0 -0.39393338275E+02  0.30433364219E+02 -0.26780355969E+03  0.28466779017E+03  0.82698122239E+02 0.  0.
         25    2    1    2    0    0  0.42691197694E+02 -0.54450026431E+02 -0.44403436519E+02  0.14968705255E+03  0.12508878762E+03 0.  0.
        -24    2    1    2    0    0 -0.32978594194E+01  0.24016662212E+02  0.34250891484E+03  0.35266424431E+03  0.80448968492E+02 0.  0.
        -11    1    3    3    0    0 -0.30349734804E+02  0.48288683484E+02 -0.25407300910E+03  0.26039584733E+03  0.00000000000E+00 0.  1.
         12    1    3    3    0    0 -0.90436034710E+01 -0.17855319264E+02 -0.13730550590E+02  0.24271942841E+02  0.00000000000E+00 0. -1.
         11    1    5    5    0    0 -0.12386432706E+02 -0.27090938451E+02  0.16714980207E+03  0.16978338845E+03  0.00000000000E+00 0. -1.
        -12    1    5    5    0    0  0.90885732867E+01  0.51107600663E+02  0.17535911276E+03  0.18288085586E+03  0.00000000000E+00 0.  1.
          5    1    4    4  501    0  0.39231974313E+02 -0.87535070366E+02 -0.59458458579E+02  0.11293501250E+03  0.41800000000E+01 0. -1.
         -5    1    4    4    0  501  0.34592233811E+01  0.33085043934E+02  0.15055022060E+02  0.36752040049E+02  0.41800000000E+01 0. -1.
</event>
<event>
11    1  0.7577197E-009  0.3373879E+03  0.7561462E-02  0.9855022E-01
         22   -1    0    0    0    0  0.00000000000E+00  0.00000000000E+00  0.15930183987E+04  0.15930183987E+04  0.00000000000E+00 0. -1.
         22   -1    0    0    0    0 -0.00000000000E+00 -0.00000000000E+00 -0.41811470855E+03  0.41811470855E+03  0.00000000000E+00 0.  1.
         24    2    1    2    0    0 -0.11399800268E+03  0.26659686822E+03 -0.21388439215E+03  0.36929112323E+03  0.80993615371E+02 0.  0.
         25    2    1    2    0    0  0.10731732359E+03 -0.48345678837E+03  0.46881357190E+03  0.69331149460E+03  0.12508872525E+03 0.  0.
        -24    2    1    2    0    0  0.66806790874E+01  0.21685992014E+03  0.91997451042E+03  0.94853048944E+03  0.79272524502E+02 0.  0.
        -13    1    3    3    0    0 -0.19887566674E+02  0.14751298753E+03 -0.11562434478E+03  0.18847966973E+03  0.00000000000E+00 0.  1.
         14    1    3    3    0    0 -0.94110436004E+02  0.11908388070E+03 -0.98260047368E+02  0.18081145350E+03  0.00000000000E+00 0. -1.
         11    1    5    5    0    0 -0.33714424714E+02  0.13660594522E+03  0.53254305563E+03  0.55081753131E+03  0.00000000000E+00 0. -1.
        -12    1    5    5    0    0  0.40395103801E+02  0.80253974923E+02  0.38743145479E+03  0.39771295813E+03  0.00000000000E+00 0.  1.
          5    1    4    4  501    0  0.68056154577E+02 -0.18461154579E+03  0.11285349507E+03  0.22686217570E+03  0.41800000000E+01 0.  1.
         -5    1    4    4    0  501  0.39261169014E+02 -0.29884524258E+03  0.35596007683E+03  0.46644931890E+03  0.41800000000E+01 0.  1.
</event>
<event>
11    1  0.7577197E-009  0.3188925E+03  0.7561462E-02  0.9924980E-01
         22   -1    0    0    0    0  0.00000000000E+00  0.00000000000E+00  0.59628592995E+03  0.59628592995E+03  0.00000000000E+00 0. -1.
         22   -1    0    0    0    0 -0.00000000000E+00 -0.00000000000E+00 -0.95099353204E+03  0.95099353204E+03  0.00000000000E+00 0.  1.
        -24    2    1    2    0    0  0.18791907782E+03 -0.23123147145E+03 -0.52528334559E+03  0.60918261521E+03  0.79995576891E+02 0.  0.
         25    2    1    2    0    0 -0.15800207902E+03  0.23968995730E+03 -0.31499802396E+03  0.44417090776E+03  0.12509239622E+03 0.  0.
         24    2    1    2    0    0 -0.29916998801E+02 -0.84584858503E+01  0.48557376746E+03  0.49392593901E+03  0.84937487502E+02 0.  0.
        -11    1    5    5    0    0 -0.17685516030E+02 -0.13360340190E+02  0.26008906559E+02  0.34172201972E+02  0.00000000000E+00 0.  1.
         12    1    5    5    0    0 -0.12231482771E+02  0.49018543397E+01  0.45956486090E+03  0.45975373704E+03  0.00000000000E+00 0. -1.
         11    1    3    3    0    0  0.64849241438E+02 -0.40919949277E+02 -0.88483181123E+02  0.11708603548E+03  0.00000000000E+00 0. -1.
        -12    1    3    3    0    0  0.12306983638E+03 -0.19031152217E+03 -0.43680016447E+03  0.49209657973E+03  0.00000000000E+00 0.  1.
          5    1    4    4  501    0 -0.15917629855E+03  0.23345406571E+03 -0.24572137131E+03  0.37447878382E+03  0.41800000000E+01 0.  1.
         -5    1    4    4    0  501  0.11742195309E+01  0.62358915915E+01 -0.69276652652E+02  0.69692123932E+02  0.41800000000E+01 0.  1.
</event>
<event>
11    1  0.7577197E-009  0.2241133E+03  0.7561462E-02  0.1038671E+00
         22   -1    0    0    0    0  0.00000000000E+00  0.00000000000E+00  0.59554847988E+03  0.59554847988E+03  0.00000000000E+00 0. -1.
         22   -1    0    0    0    0 -0.00000000000E+00 -0.00000000000E+00 -0.11234682283E+04  0.11234682283E+04  0.00000000000E+00 0.  1.
        -24    2    1    2    0    0  0.15539064329E+03 -0.73975846260E+02 -0.72869515349E+03  0.75302357637E+03  0.80182304775E+02 0.  0.
         25    2    1    2    0    0 -0.22172591774E+03  0.97188543795E+02 -0.32804879057E+03  0.42646356682E+03  0.12508864532E+03 0.  0.
         24    2    1    2    0    0  0.66335274450E+02 -0.23212697535E+02  0.52882419559E+03  0.53952956504E+03  0.80609700075E+02 0.  0.
        -11    1    5    5    0    0  0.77716027720E+02 -0.34469296241E+01  0.31378641746E+03  0.32328559830E+03  0.00000000000E+00 0.  1.
         12    1    5    5    0    0 -0.11380753270E+02 -0.19765767911E+02  0.21503777813E+03  0.21624396673E+03  0.00000000000E+00 0. -1.
         11    1    3    3    0    0  0.81532080551E+01 -0.20956104152E+02 -0.21093872031E+03  0.21213386535E+03  0.00000000000E+00 0. -1.
        -12    1    3    3    0    0  0.14723743524E+03 -0.53019742108E+02 -0.51775643318E+03  0.54088971102E+03  0.00000000000E+00 0.  1.
          5    1    4    4  501    0 -0.20586294485E+03  0.12441929593E+03 -0.28539064696E+03  0.37326265154E+03  0.41800000000E+01 0. -1.
         -5    1    4    4    0  501 -0.15862972888E+02 -0.27230752133E+02 -0.42658143602E+02  0.53200915275E+02  0.41800000000E+01 0. -1.
</event>
<event>
11    1  0.7577197E-009  0.1311017E+03  0.7561462E-02  0.1117923E+00
         22   -1    0    0    0    0  0.00000000000E+00  0.00000000000E+00  0.23247915148E+04  0.23247915148E+04  0.00000000000E+00 0. -1.
         22   -1    0    0    0    0 -0.00000000000E+00 -0.00000000000E+00 -0.57114612147E+03  0.57114612147E+03  0.00000000000E+00 0.  1.
        -24    2    1    2    0    0 -0.30101637657E+02  0.16258987461E+02 -0.45586841178E+03  0.46392857930E+03  0.79014268139E+02 0.  0.
         25    2    1    2    0    0  0.13733695995E+02  0.19640998011E+02 -0.73620663420E+02  0.14711315501E+03  0.12509154682E+03 0.  0.
         24    2    1    2    0    0  0.16367941662E+02 -0.35899985473E+02  0.22831344686E+04  0.22848959020E+04  0.80557823112E+02 0.  0.
        -11    1    5    5    0    0  0.64145044398E+01 -0.26906279538E+02  0.22183922218E+03  0.22355700446E+03  0.00000000000E+00 0.  1.
         12    1    5    5    0    0  0.99534372221E+01 -0.89937059345E+01  0.20612952464E+04  0.20613388975E+04  0.00000000000E+00 0. -1.
         11    1    3    3    0    0 -0.30013353746E+02  0.40490173985E+01 -0.54300525807E+02  0.62175099903E+02  0.00000000000E+00 0. -1.
        -12    1    3    3    0    0 -0.88283910584E-01  0.12209970063E+02 -0.40156788598E+03  0.40175347940E+03  0.00000000000E+00 0.  1.
          5    1    4    4  501    0 -0.11488596313E+02 -0.59739704043E+00  0.33222269916E+02  0.35405315234E+02  0.41800000000E+01 0.  1.
         -5    1    4    4    0  501  0.25222292308E+02  0.20238395052E+02 -0.10684293334E+03  0.11170783978E+03  0.41800000000E+01 0.  1.
</event>
<event>
11    1  0.7577197E-009  0.1655736E+03  0.7561462E-02  0.1081949E+00
         22   -1    0    0    0    0  0.00000000000E+00  0.00000000000E+00  0.27775452635E+04  0.27775452635E+04  0.00000000000E+00 0.  1.
         22   -1    0    0    0    0 -0.00000000000E+00 -0.00000000000E+00 -0.78916498443E+02  0.78916498443E+02  0.00000000000E+00 0.  1.
         24    2    1    2    0    0 -0.98118139306E+02  0.33363566377E+02  0.60526549430E+01  0.13265877962E+03  0.82591890373E+02 0.  0.
         25    2    1    2    0    0  0.17590683560E+03  0.47123692267E+00  0.83340606544E+03  0.86090528105E+03  0.12509514840E+03 0.  0.
        -24    2    1    2    0    0 -0.77788696299E+02 -0.33834803299E+02  0.18591700447E+04  0.18628977013E+04  0.81723406805E+02 0.  0.
        -11    1    3    3    0    0 -0.91098631617E+02  0.74176736285E+01 -0.21787197177E+02  0.93960973416E+02  0.00000000000E+00 0.  1.
         12    1    3    3    0    0 -0.70195076889E+01  0.25945892748E+02  0.27839852120E+02  0.38697806201E+02  0.00000000000E+00 0. -1.
         13    1    5    5    0    0 -0.26105491010E+02 -0.19751837448E+02  0.18520918501E+03  0.18807996692E+03  0.00000000000E+00 0. -1.
        -14    1    5    5    0    0 -0.51683205289E+02 -0.14082965851E+02  0.16739608596E+04  0.16748177343E+04  0.00000000000E+00 0.  1.
          5    1    4    4  501    0 -0.55499594117E+01 -0.30358243456E+02  0.99522368968E+02  0.10428134694E+03  0.41800000000E+01 0.  1.
         -5    1    4    4    0  501  0.18145679502E+03  0.30829480378E+02  0.73388369648E+03  0.75662393411E+03  0.41800000000E+01 0.  1.
</event>
<event>
11    1  0.7577197E-009  0.1941275E+03  0.7561462E-02  0.1058756E+00
         22   -1    0    0    0    0  0.00000000000E+00  0.00000000000E+00  0.16666684850E+04  0.16666684850E+04  0.00000000000E+00 0. -1.
         22   -1    0    0    0    0 -0.00000000000E+00 -0.00000000000E+00 -0.29673553921E+03  0.29673553921E+03  0.00000000000E+00 0.  1.
        -24    2    1    2    0    0  0.32108612101E+02  0.13976271321E+03 -0.21895001251E+03  0.27291314242E+03  0.77316856848E+02 0.  0.
         25    2    1    2    0    0  0.40483949562E+02 -0.23365093191E+03  0.33827860978E+03  0.43163755998E+03  0.12508739824E+03 0.  0.
         24    2    1    2    0    0 -0.72592561663E+02  0.93888218698E+02  0.12506043486E+04  0.12588533218E+04  0.81337394065E+02 0.  0.
        -11    1    5    5    0    0 -0.35307453675E+02 -0.72854108001E+01  0.31323483443E+03  0.31530264033E+03  0.00000000000E+00 0.  1.
         12    1    5    5    0    0 -0.37285107988E+02  0.10117362950E+03  0.93736951413E+03  0.94355068152E+03  0.00000000000E+00 0. -1.
         11    1    3    3    0    0 -0.20652159166E+02  0.41282226454E+02 -0.35963297835E+02  0.58515747372E+02  0.00000000000E+00 0. -1.
        -12    1    3    3    0    0  0.52760771267E+02  0.98480486757E+02 -0.18298671468E+03  0.21439739505E+03  0.00000000000E+00 0.  1.
          5    1    4    4  501    0  0.81039391677E+01 -0.16057850901E+03  0.12457694219E+03  0.20344045397E+03  0.41800000000E+01 0. -1.
         -5    1    4    4    0  501  0.32380010394E+02 -0.73072422898E+02  0.21370166759E+03  0.22819710601E+03  0.41800000000E+01 0. -1.
</event>
<event>
11    1  0.7577197E-009  0.1582403E+03  0.7561462E-02  0.1088744E+00
         22   -1    0    0    0    0  0.00000000000E+00  0.00000000000E+00  0.76297066381E+03  0.76297066381E+03  0.00000000000E+00 0. -1.
         22   -1    0    0    0    0 -0.00000000000E+00 -0.00000000000E+00 -0.36462659809E+03  0.36462659809E+03  0.00000000000E+00 0.  1.
         24    2    1    2    0    0 -0.16945378689E+02 -0.93389897978E+02 -0.27632646059E+03  0.30264469985E+03  0.78922003393E+02 0.  0.
         25    2    1    2    0    0 -0.39536511181E+01  0.11422756779E+03  0.27108397273E+02  0.17159643657E+03  0.12508758228E+03 0.  0.
        -24    2    1    2    0    0  0.20899029807E+02 -0.20837669810E+02  0.64756212903E+03  0.65335612549E+03  0.81648869091E+02 0.  0.
        -13    1    3    3    0    0 -0.99885398797E+01 -0.10035749588E+03 -0.27474706233E+03  0.29267276294E+03  0.00000000000E+00 0.  1.
         14    1    3    3    0    0 -0.69568388092E+01  0.69675979004E+01 -0.15793982547E+01  0.99719369014E+01  0.00000000000E+00 0. -1.
         11    1    5    5    0    0  0.39774457631E+02  0.17172861069E+02  0.27623646554E+03  0.27961312475E+03  0.00000000000E+00 0. -1.
        -12    1    5    5    0    0 -0.18875427824E+02 -0.38010530879E+02  0.37132566349E+03  0.37374300074E+03  0.00000000000E+00 0.  1.
          5    1    4    4  501    0 -0.32677129596E+02 -0.15204170079E+02  0.11353713314E+02  0.38017637913E+02  0.41800000000E+01 0. -1.
         -5    1    4    4    0  501  0.28723478478E+02  0.12943173787E+03  0.15754683959E+02  0.13357879865E+03  0.41800000000E+01 0. -1.
</event>
<event>
11    1  0.7577197E-009  0.1445078E+03  0.7561462E-02  0.1102627E+00
         22   -1    0    0    0    0  0.00000000000E+00  0.00000000000E+00  0.58817845363E+03  0.58817845363E+03  0.00000000000E+00 0.  1.
         22   -1    0    0    0    0 -0.00000000000E+00 -0.00000000000E+00 -0.12526733286E+03  0.12526733286E+03  0.00000000000E+00 0.  1.
         24    2    1    2    0    0 -0.11872578291E+02  0.15379269775E+02 -0.69423518154E+02  0.10852919239E+03  0.81126325405E+02 0.  0.
         25    2    1    2    0    0  0.42525231713E+01 -0.84366795364E+02  0.16912987301E+03  0.22668924436E+03  0.12508900611E+03 0.  0.
        -24    2    1    2    0    0  0.76200551201E+01  0.68987525590E+02  0.36320476591E+03  0.37822734975E+03  0.79503975934E+02 0.  0.
        -13    1    3    3    0    0 -0.33722286695E+02  0.36747159254E+02 -0.28468558015E+02  0.57428260714E+02  0.00000000000E+00 0.  1.
         14    1    3    3    0    0  0.21849708403E+02 -0.21367889480E+02 -0.40954960139E+02  0.51100931676E+02  0.00000000000E+00 0. -1.
         13    1    5    5    0    0  0.34058172919E+02  0.22525204809E+02  0.77854148006E+02  0.87912526729E+02  0.00000000000E+00 0. -1.
        -14    1    5    5    0    0 -0.26438117798E+02  0.46462320781E+02  0.28535061790E+03  0.29031482302E+03  0.00000000000E+00 0.  1.
          5    1    4    4  501    0 -0.46280902933E+02 -0.11139514546E+02  0.17606493658E+02  0.50926140434E+02  0.41800000000E+01 0. -1.
         -5    1    4    4    0  501  0.50533426104E+02 -0.73227280819E+02  0.15152337935E+03  0.17576310392E+03  0.41800000000E+01 0. -1.
</event>
<event>
11    1  0.7577197E-009  0.2599653E+03  0.7561462E-02  0.1018721E+00
         22   -1    0    0    0    0  0.00000000000E+00  0.00000000000E+00  0.11484835112E+04  0.11484835112E+04  0.00000000000E+00 0. -1.
         22   -1    0    0    0    0 -0.00000000000E+00 -0.00000000000E+00 -0.13887397843E+03  0.13887397843E+03  0.00000000000E+00 0.  1.
        -24    2    1    2    0    0 -0.44466607392E+02 -0.31097320486E+01 -0.49725800601E+02  0.10548767896E+03  0.81658101624E+02 0.  0.
         25    2    1    2    0    0 -0.17776826222E+03  0.97503105947E+02  0.31294788567E+03  0.39331031092E+03  0.12509280876E+03 0.  0.
         24    2    1    2    0    0  0.22223486962E+03 -0.94393373898E+02  0.74638744770E+03  0.78855949976E+03  0.80208579797E+02 0.  0.
        -13    1    5    5    0    0  0.14650571179E+03 -0.24718017007E+02  0.49823175297E+03  0.51991324625E+03  0.00000000000E+00 0.  1.
         14    1    5    5    0    0  0.75729157823E+02 -0.69675356891E+02  0.24815569472E+03  0.26864625351E+03  0.00000000000E+00 0. -1.
         11    1    3    3    0    0 -0.11787099977E+02  0.61407055025E+01  0.22240762824E+02  0.25909371296E+02  0.00000000000E+00 0. -1.
        -12    1    3    3    0    0 -0.32679507415E+02 -0.92504375511E+01 -0.71966563424E+02  0.79578307665E+02  0.00000000000E+00 0.  1.
          5    1    4    4  501    0 -0.17120023856E+03  0.11878364123E+03  0.24484401305E+03  0.32153559404E+03  0.41800000000E+01 0. -1.
         -5    1    4    4    0  501 -0.65680236652E+01 -0.21280535285E+02  0.68103872623E+02  0.71774716879E+02  0.41800000000E+01 0. -1.
</event>
<event>
11    1  0.7577197E-009  0.1640784E+03  0.7561462E-02  0.1083303E+00
         22   -1    0    0    0    0  0.00000000000E+00  0.00000000000E+00  0.12302458168E+04  0.12302458168E+04  0.00000000000E+00 0. -1.
         22   -1    0    0    0    0 -0.00000000000E+00 -0.00000000000E+00 -0.12701892489E+04  0.12701892489E+04  0.00000000000E+00 0.  1.
        -24    2    1    2    0    0  0.97475999281E+02  0.44032027666E+02 -0.11526341034E+04  0.11602763190E+04  0.78964359972E+02 0.  0.
         25    2    1    2    0    0 -0.69925978680E+02 -0.73280362690E+02 -0.54069258318E+02  0.16979819108E+03  0.12509311311E+03 0.  0.
         24    2    1    2    0    0 -0.27550020601E+02  0.29248335025E+02  0.11667599295E+04  0.11703605557E+04  0.82465922218E+02 0.  0.
        -11    1    5    5    0    0 -0.37051331244E+01  0.63688564071E+01  0.71080056001E+01  0.10237875122E+02  0.00000000000E+00 0.  1.
         12    1    5    5    0    0 -0.23844887477E+02  0.22879478618E+02  0.11596519239E+04  0.11601226805E+04  0.00000000000E+00 0. -1.
         13    1    3    3    0    0  0.39653652248E+02 -0.12954191221E+02 -0.20686774651E+03  0.21103195908E+03  0.00000000000E+00 0. -1.
        -14    1    3    3    0    0  0.57822347033E+02  0.56986218887E+02 -0.94576635687E+03  0.94924435987E+03  0.00000000000E+00 0.  1.
          5    1    4    4  501    0 -0.61844331592E+02 -0.14190148893E+02 -0.82034797865E+02  0.10379432613E+03  0.41800000000E+01 0. -1.
         -5    1    4    4    0  501 -0.80816470874E+01 -0.59090213798E+02  0.27965539547E+02  0.66003864951E+02  0.41800000000E+01 0. -1.
</event>
<event>
11    1  0.7577197E-009  0.1384732E+03  0.7561462E-02  0.1109275E+00
         22   -1    0    0    0    0  0.00000000000E+00  0.00000000000E+00  0.19382657467E+03  0.19382657467E+03  0.00000000000E+00 0.  1.
         22   -1    0    0    0    0 -0.00000000000E+00 -0.00000000000E+00 -0.74222020617E+03  0.74222020617E+03  0.00000000000E+00 0. -1.
        -24    2    1    2    0    0  0.43235049170E+02  0.30453980620E+02 -0.60280357367E+03  0.61014849007E+03  0.78181309128E+02 0.  0.
         25    2    1    2    0    0 -0.59334082384E+02  0.28763901060E+02 -0.75944757092E+02  0.16051052706E+03  0.12509247712E+03 0.  0.
         24    2    1    2    0    0  0.16099033214E+02 -0.59217881679E+02  0.13035469926E+03  0.16538776371E+03  0.81208548708E+02 0.  0.
        -13    1    5    5    0    0  0.37293940931E+02 -0.64385175191E+02  0.12010273200E+03  0.14128324404E+03  0.00000000000E+00 0.  1.
         14    1    5    5    0    0 -0.21194907717E+02  0.51672935114E+01  0.10251967264E+02  0.24104519662E+02  0.00000000000E+00 0. -1.
         13    1    3    3    0    0  0.28418692932E+02  0.33947016594E+01 -0.53375213617E+03  0.53451893229E+03  0.00000000000E+00 0. -1.
        -14    1    3    3    0    0  0.14816356238E+02  0.27059278960E+02 -0.69051437494E+02  0.75629557780E+02  0.00000000000E+00 0.  1.
          5    1    4    4  501    0 -0.36038991191E+02  0.76029318414E+02 -0.26980088301E+02  0.88457129217E+02  0.41800000000E+01 0.  1.
         -5    1    4    4    0  501 -0.23295091193E+02 -0.47265417354E+02 -0.48964668791E+02  0.72053397846E+02  0.41800000000E+01 0.  1.
</event>
<event>
11    1  0.8788018E-009  0.1541425E+03  0.7561462E-02  0.1092720E+00
         22   -1    0    0    0    0  0.00000000000E+00  0.00000000000E+00  0.22092268133E+04  0.22092268133E+04  0.00000000000E+00 0. -1.
         22   -1    0    0    0    0 -0.00000000000E+00 -0.00000000000E+00 -0.14526487348E+04  0.14526487348E+04  0.00000000000E+00 0.  1.
         24    2    1    2    0    0 -0.67562470289E+02  0.44796588921E+01 -0.11219331583E+04  0.11268868050E+04  0.80963602532E+02 0.  0.
         25    2    1    2    0    0 -0.81437572392E+01  0.44913987940E+02 -0.31284899755E+03  0.34000813622E+03  0.12508976910E+03 0.  0.
        -24    2    1    2    0    0  0.75706227528E+02 -0.49393646832E+02  0.21913602344E+04  0.21949806069E+04  0.87801040485E+02 0.  0.
        -13    1    3    3    0    0 -0.60058368743E+02 -0.28802489608E+02 -0.88591841496E+03  0.88841883649E+03  0.00000000000E+00 0.  1.
         14    1    3    3    0    0 -0.75041015464E+01  0.33282148500E+02 -0.23601474335E+03  0.23846796856E+03  0.00000000000E+00 0. -1.
         13    1    5    5    0    0  0.62593395417E+02 -0.49581007442E+02  0.89526274049E+03  0.89881676885E+03  0.00000000000E+00 0. -1.
        -14    1    5    5    0    0  0.13112832111E+02  0.18736060999E+00  0.12960974939E+04  0.12961638381E+04  0.00000000000E+00 0.  1.
          5    1    4    4  501    0 -0.62454011649E+02  0.42920848769E+01 -0.11786962509E+03  0.13352769931E+03  0.41800000000E+01 0.  1.
         -5    1    4    4    0  501  0.54310254410E+02  0.40621903063E+02 -0.19497937246E+03  0.20648043691E+03  0.41800000000E+01 0.  1.
</event>
<event>
11    1  0.7577197E-009  0.8971106E+03  0.7561462E-02  0.8783549E-01
         22   -1    0    0    0    0  0.00000000000E+00  0.00000000000E+00  0.74217306995E+03  0.74217306995E+03  0.00000000000E+00 0. -1.
         22   -1    0    0    0    0 -0.00000000000E+00 -0.00000000000E+00 -0.34949635424E+04  0.34949635424E+04  0.00000000000E+00 0. -1.
        -24    2    1    2    0    0 -0.14483212831E+02 -0.64076117111E+03 -0.20599937461E+04  0.21589253872E+04  0.81240088367E+02 0.  0.
         25    2    1    2    0    0 -0.14724171199E+03  0.12782336527E+04 -0.39447430634E+03  0.13515989811E+04  0.12509370356E+03 0.  0.
         24    2    1    2    0    0  0.16172492482E+03 -0.63747248162E+03 -0.29832242004E+03  0.72661224400E+03  0.80268117656E+02 0.  0.
        -11    1    5    5    0    0  0.27539793690E+02 -0.31761780129E+02 -0.15705563449E+02  0.44876671408E+02  0.00000000000E+00 0.  1.
         12    1    5    5    0    0  0.13418513113E+03 -0.60571070149E+03 -0.28261685660E+03  0.68173557260E+03  0.00000000000E+00 0. -1.
         13    1    3    3    0    0 -0.45407315824E+02 -0.31313991469E+03 -0.10547791919E+04  0.11012164066E+04  0.00000000000E+00 0. -1.
        -14    1    3    3    0    0  0.30924102993E+02 -0.32762125642E+03 -0.10052145541E+04  0.10577089806E+04  0.00000000000E+00 0.  1.
          5    1    4    4  501    0 -0.39460401183E+02  0.69173798765E+03 -0.16204623166E+03  0.71157221729E+03  0.41800000000E+01 0.  1.
         -5    1    4    4    0  501 -0.10778131080E+03  0.58649566507E+03 -0.23242807468E+03  0.64002676382E+03  0.41800000000E+01 0.  1.
</event>
<event>
11    1  0.8756301E-009  0.2330278E+03  0.7561462E-02  0.1033350E+00
         22   -1    0    0    0    0  0.00000000000E+00  0.00000000000E+00  0.11218098319E+04  0.11218098319E+04  0.00000000000E+00 0.  1.
         22   -1    0    0    0    0 -0.00000000000E+00 -0.00000000000E+00 -0.64071713325E+03  0.64071713325E+03  0.00000000000E+00 0. -1.
        -24    2    1    2    0    0  0.42872048880E+02  0.33995651968E+02 -0.31089992471E+03  0.32708027196E+03  0.85609720182E+02 0.  0.
         25    2    1    2    0    0  0.98667479458E+02 -0.17078694035E+03 -0.26705432926E+03  0.35478162388E+03  0.12509410603E+03 0.  0.
         24    2    1    2    0    0 -0.14153952834E+03  0.13679128839E+03  0.10590469526E+04  0.10806650693E+04  0.86667465119E+02 0.  0.
        -11    1    5    5    0    0 -0.89261882123E+02  0.12631061319E+03  0.64948833453E+03  0.66765047091E+03  0.00000000000E+00 0.  1.
         12    1    5    5    0    0 -0.52277646215E+02  0.10480675197E+02  0.40955861804E+03  0.41301459836E+03  0.00000000000E+00 0. -1.
         13    1    3    3    0    0 -0.11922479202E+02  0.42344014488E+02 -0.17183717275E+03  0.17737862050E+03  0.00000000000E+00 0. -1.
        -14    1    3    3    0    0  0.54794528081E+02 -0.83483625203E+01 -0.13906275196E+03  0.14970165145E+03  0.00000000000E+00 0.  1.
          5    1    4    4  501    0  0.31824489228E+02 -0.27768559794E+01  0.31081421211E-01  0.32217734399E+02  0.41800000000E+01 0.  1.
         -5    1    4    4    0  501  0.66842990230E+02 -0.16801008438E+03 -0.26708541068E+03  0.32256388948E+03  0.41800000000E+01 0.  1.
</event>
<event>
11    1  0.7577197E-009  0.1380628E+03  0.7561462E-02  0.1109741E+00
         22   -1    0    0    0    0  0.00000000000E+00  0.00000000000E+00  0.15633166665E+03  0.15633166665E+03  0.00000000000E+00 0.  1.
         22   -1    0    0    0    0 -0.00000000000E+00 -0.00000000000E+00 -0.76921078607E+03  0.76921078607E+03  0.00000000000E+00 0.  1.
        -24    2    1    2    0    0  0.19892014102E+02 -0.30230940431E+02 -0.67220249865E+03  0.67782701573E+03  0.79269553331E+02 0.  0.
         25    2    1    2    0    0  0.22798890087E+02  0.65418587913E+02  0.29621990360E+02  0.14602145189E+03  0.12508165759E+03 0.  0.
         24    2    1    2    0    0 -0.42690904190E+02 -0.35187647482E+02  0.29701388866E+02  0.10169398510E+03  0.79992563833E+02 0.  0.
        -11    1    5    5    0    0 -0.36923374465E+02 -0.59685268172E+02  0.30476632580E+02  0.76514651878E+02  0.00000000000E+00 0.  1.
         12    1    5    5    0    0 -0.57675297243E+01  0.24497620689E+02 -0.77524371364E+00  0.25179333220E+02  0.00000000000E+00 0. -1.
         13    1    3    3    0    0 -0.58631329244E+00  0.25448687642E+02 -0.28114368452E+03  0.28229373144E+03  0.00000000000E+00 0. -1.
        -14    1    3    3    0    0  0.20478327395E+02 -0.55679628073E+02 -0.39105881413E+03  0.39553328429E+03  0.00000000000E+00 0.  1.
          5    1    4    4  501    0  0.31678720807E+02  0.97590290499E+02  0.23436752446E+01  0.10271500068E+03  0.41800000000E+01 0.  1.
         -5    1    4    4    0  501 -0.88798307200E+01 -0.32171702586E+02  0.27278315116E+02  0.43306451210E+02  0.41800000000E+01 0.  1.
</event>
<event>
11    1  0.7577197E-009  0.1419779E+03  0.7561462E-02  0.1105370E+00
         22   -1    0    0    0    0  0.00000000000E+00  0.00000000000E+00  0.66771769115E+03  0.66771769115E+03  0.00000000000E+00 0.  1.
         22   -1    0    0    0    0 -0.00000000000E+00 -0.00000000000E+00 -0.26540943554E+03  0.26540943554E+03  0.00000000000E+00 0. -1.
        -24    2    1    2    0    0 -0.12495762744E+02 -0.32456261120E+02 -0.23100223319E+03  0.24693693485E+03  0.80039147193E+02 0.  0.
         25    2    1    2    0    0 -0.14888230288E+02 -0.38526161701E+02  0.20100642745E+03  0.24032561544E+03  0.12508754144E+03 0.  0.
         24    2    1    2    0    0  0.27383993032E+02  0.70982422821E+02  0.43230406135E+03  0.44586457640E+03  0.78230630828E+02 0.  0.
        -13    1    5    5    0    0 -0.71779819471E+00  0.77400790923E+02  0.35550623794E+03  0.36383524140E+03  0.00000000000E+00 0.  1.
         14    1    5    5    0    0  0.28101791226E+02 -0.64183681024E+01  0.76797823409E+02  0.82029334994E+02  0.00000000000E+00 0. -1.
         11    1    3    3    0    0  0.13845095257E+02 -0.52065145961E+02 -0.12966217271E+03  0.14040920596E+03  0.00000000000E+00 0. -1.
        -12    1    3    3    0    0 -0.26340858001E+02  0.19608884841E+02 -0.10134006048E+03  0.10652772890E+03  0.00000000000E+00 0.  1.
          5    1    4    4  501    0  0.93182859825E+01 -0.80672319351E+02  0.14328633164E+03  0.16475223458E+03  0.41800000000E+01 0.  1.
         -5    1    4    4    0  501 -0.24206516270E+02  0.42146157651E+02  0.57720095805E+02  0.75573380858E+02  0.41800000000E+01 0.  1.
</event>
<event>
11    1  0.7577197E-009  0.1989398E+03  0.7561462E-02  0.1055276E+00
         22   -1    0    0    0    0  0.00000000000E+00  0.00000000000E+00  0.18079934789E+04  0.18079934789E+04  0.00000000000E+00 0.  1.
         22   -1    0    0    0    0 -0.00000000000E+00 -0.00000000000E+00 -0.25225458107E+03  0.25225458107E+03  0.00000000000E+00 0. -1.
        -24    2    1    2    0    0  0.18157282605E+03 -0.21005484908E+02 -0.18773172468E+03  0.27432472985E+03  0.81246140851E+02 0.  0.
         25    2    1    2    0    0 -0.38491489537E+02  0.10445019699E+03  0.46664148700E+03  0.49577559635E+03  0.12509087149E+03 0.  0.
         24    2    1    2    0    0 -0.14308133651E+03 -0.83444712078E+02  0.12768291355E+04  0.12901477337E+04  0.82178128610E+02 0.  0.
        -13    1    5    5    0    0 -0.75484573581E+02 -0.89086955685E+02  0.77149003440E+03  0.78027641237E+03  0.00000000000E+00 0.  1.
         14    1    5    5    0    0 -0.67596762930E+02  0.56422436068E+01  0.50533910108E+03  0.50987132137E+03  0.00000000000E+00 0. -1.
         13    1    3    3    0    0  0.95890184826E+02 -0.39429491724E+02 -0.14096097703E+03  0.17498459763E+03  0.00000000000E+00 0. -1.
        -14    1    3    3    0    0  0.85682641222E+02  0.18424006816E+02 -0.46770747648E+02  0.99340132220E+02  0.00000000000E+00 0.  1.
          5    1    4    4  501    0 -0.32145487898E+02  0.50150118750E+02  0.57236717581E+02  0.82715663827E+02  0.41800000000E+01 0. -1.
         -5    1    4    4    0  501 -0.63460016394E+01  0.54300078236E+02  0.40940476942E+03  0.41305993253E+03  0.41800000000E+01 0. -1.
</event>
<event>
11    1  0.7577197E-009  0.1714224E+03  0.7561462E-02  0.1076800E+00
         22   -1    0    0    0    0  0.00000000000E+00  0.00000000000E+00  0.66552613504E+03  0.66552613504E+03  0.00000000000E+00 0. -1.
         22   -1    0    0    0    0 -0.00000000000E+00 -0.00000000000E+00 -0.53274009983E+03  0.53274009983E+03  0.00000000000E+00 0. -1.
         24    2    1    2    0    0  0.32475986457E+02  0.24486415474E+02 -0.48991033697E+03  0.49809412728E+03  0.80195680193E+02 0.  0.
         25    2    1    2    0    0 -0.12291232499E+03 -0.74572127634E+02  0.33128600818E+03  0.38218621549E+03  0.12508973675E+03 0.  0.
        -24    2    1    2    0    0  0.90436338534E+02  0.50085712159E+02  0.29141036400E+03  0.31798589210E+03  0.74213997596E+02 0.  0.
        -13    1    3    3    0    0  0.90408329811E+00 -0.20518156517E+01  0.28412910026E+01  0.36194265622E+01  0.00000000000E+00 0.  1.
         14    1    3    3    0    0  0.31571903159E+02  0.26538231126E+02 -0.49275162797E+03  0.49447470072E+03  0.00000000000E+00 0. -1.
         11    1    5    5    0    0  0.86003313157E+02  0.65537698462E+02  0.22465609710E+03  0.24932332774E+03  0.00000000000E+00 0. -1.
        -12    1    5    5    0    0  0.44330253769E+01 -0.15451986303E+02  0.66754266898E+02  0.68662564355E+02  0.00000000000E+00 0.  1.
          5    1    4    4  501    0 -0.25008864153E+02 -0.62743270640E+02  0.50159163128E+02  0.84235238128E+02  0.41800000000E+01 0. -1.
         -5    1    4    4    0  501 -0.97903460838E+02 -0.11828856993E+02  0.28112684505E+03  0.29795097736E+03  0.41800000000E+01 0. -1.
</event>
<event>
11    1  0.7577197E-009  0.1284104E+03  0.7561462E-02  0.1121238E+00
         22   -1    0    0    0    0  0.00000000000E+00  0.00000000000E+00  0.76405983554E+02  0.76405983554E+02  0.00000000000E+00 0.  1.
         22   -1    0    0    0    0 -0.00000000000E+00 -0.00000000000E+00 -0.12065937764E+04  0.12065937764E+04  0.00000000000E+00 0. -1.
         24    2    1    2    0    0 -0.23687498811E+02 -0.14820843261E+02 -0.95727799248E+03  0.96104453630E+03  0.80278832021E+02 0.  0.
         25    2    1    2    0    0  0.14636737561E+02  0.49866604104E+02 -0.20215877766E+03  0.24334596765E+03  0.12509267083E+03 0.  0.
        -24    2    1    2    0    0  0.90507612501E+01 -0.35045760843E+02  0.29248977323E+02  0.78609255974E+02  0.63354485382E+02 0.  0.
        -13    1    3    3    0    0 -0.48202586662E+02 -0.89341967593E+01 -0.37103250664E+03  0.37425717123E+03  0.00000000000E+00 0.  1.
         14    1    3    3    0    0  0.24515087851E+02 -0.58866465018E+01 -0.58624548584E+03  0.58678736507E+03  0.00000000000E+00 0. -1.
         13    1    5    5    0    0  0.14679282927E+02  0.14028968434E+02  0.19714312897E+02  0.28301014744E+02  0.00000000000E+00 0. -1.
        -14    1    5    5    0    0 -0.56285216771E+01 -0.49074729277E+02  0.95346644266E+01  0.50308241230E+02  0.00000000000E+00 0.  1.
          5    1    4    4  501    0 -0.19238577837E+02 -0.17483029114E+02  0.12665809796E+01  0.26360117822E+02  0.41800000000E+01 0.  1.
         -5    1    4    4    0  501  0.33875315398E+02  0.67349633219E+02 -0.20342535864E+03  0.21698584983E+03  0.41800000000E+01 0.  1.
</event>
<event>
11    1  0.7577197E-009  0.1397625E+03  0.7561462E-02  0.1107824E+00
         22   -1    0    0    0    0  0.00000000000E+00  0.00000000000E+00  0.91819019871E+03  0.91819019871E+03  0.00000000000E+00 0.  1.
         22   -1    0    0    0    0 -0.00000000000E+00 -0.00000000000E+00 -0.82718831590E+02  0.82718831590E+02  0.00000000000E+00 0. -1.
        -24    2    1    2    0    0  0.13932375437E+02  0.31406348457E+01 -0.23869188439E+00  0.81969068378E+02  0.80714908935E+02 0.  0.
         25    2    1    2    0    0  0.34009525755E+02  0.38256067968E+02  0.80974466957E+02  0.15755830596E+03  0.12509029099E+03 0.  0.
         24    2    1    2    0    0 -0.47941901193E+02 -0.41396702814E+02  0.75473559205E+03  0.76138165596E+03  0.77872326509E+02 0.  0.
        -13    1    5    5    0    0 -0.61846322386E+02 -0.43569042557E+02  0.44949617719E+03  0.45581799259E+03  0.00000000000E+00 0.  1.
         14    1    5    5    0    0  0.13904421193E+02  0.21723397428E+01  0.30523941486E+03  0.30556366338E+03  0.00000000000E+00 0. -1.
         13    1    3    3    0    0  0.70724171935E+01 -0.11273903779E+02 -0.38379904574E+02  0.40621879159E+02  0.00000000000E+00 0. -1.
        -14    1    3    3    0    0  0.68599582438E+01  0.14414538624E+02  0.38141212689E+02  0.41347189218E+02  0.00000000000E+00 0.  1.
          5    1    4    4  501    0  0.36953429136E+02  0.30381277190E+02 -0.22940874315E+02  0.53219677216E+02  0.41800000000E+01 0.  1.
         -5    1    4    4    0  501 -0.29439033805E+01  0.78747907782E+01  0.10391534127E+03  0.10433862875E+03  0.41800000000E+01 0.  1.
</event>
<event>
11    1  0.1005322E-008  0.1796192E+03  0.7561462E-02  0.1069951E+00
         22   -1    0    0    0    0  0.00000000000E+00  0.00000000000E+00  0.59031013574E+03  0.59031013574E+03  0.00000000000E+00 0. -1.
         22   -1    0    0    0    0 -0.00000000000E+00 -0.00000000000E+00 -0.59052415262E+03  0.59052415262E+03  0.00000000000E+00 0. -1.
         24    2    1    2    0    0  0.82304066133E+02 -0.11629202641E+03 -0.48053551755E+03  0.50776040109E+03  0.81292352551E+02 0.  0.
         25    2    1    2    0    0 -0.86196325521E+02  0.13093742038E+02 -0.22017288195E+02  0.15405556304E+03  0.12508838039E+03 0.  0.
        -24    2    1    2    0    0  0.38922593882E+01  0.10319828438E+03  0.50233878886E+03  0.51901832423E+03  0.79816831028E+02 0.  0.
        -11    1    3    3    0    0 -0.90703878219E+01  0.61167679059E+00 -0.68586727404E+01  0.11388040898E+02  0.00000000000E+00 0.  1.
         12    1    3    3    0    0  0.91374453955E+02 -0.11690370320E+03 -0.47367684481E+03  0.49637236019E+03  0.00000000000E+00 0. -1.
         11    1    5    5    0    0 -0.65196716385E+01  0.99732494238E+02  0.49674777194E+03  0.50670250192E+03  0.00000000000E+00 0. -1.
        -12    1    5    5    0    0  0.10411931027E+02  0.34657901376E+01  0.55910169157E+01  0.12315822309E+02  0.00000000000E+00 0.  1.
          5    1    4    4  501    0 -0.82206468328E+01 -0.21982345009E+02 -0.56842697271E+02  0.61639006801E+02  0.41800000000E+01 0. -1.
         -5    1    4    4    0  501 -0.77975678688E+02  0.35076087047E+02  0.34825409075E+02  0.92416556237E+02  0.41800000000E+01 0. -1.
</event>
<event>
11    1  0.7577197E-009  0.1682204E+03  0.7561462E-02  0.1079591E+00
         22   -1    0    0    0    0  0.00000000000E+00  0.00000000000E+00  0.15301463760E+04  0.15301463760E+04  0.00000000000E+00 0. -1.
         22   -1    0    0    0    0 -0.00000000000E+00 -0.00000000000E+00 -0.62398648580E+03  0.62398648580E+03  0.00000000000E+00 0.  1.
         24    2    1    2    0    0 -0.72434914262E+02  0.81279469898E+02 -0.50557468964E+03  0.52348880154E+03  0.81126996095E+02 0.  0.
         25    2    1    2    0    0  0.52415833769E+02 -0.15531923746E+03 -0.82551555056E+01  0.20636498599E+03  0.12508746818E+03 0.  0.
        -24    2    1    2    0    0  0.20019080493E+02  0.74039767560E+02  0.14199897354E+04  0.14242790743E+04  0.79481961165E+02 0.  0.
        -11    1    3    3    0    0  0.22260908435E+01  0.56605823662E+02 -0.19002406581E+03  0.19828847758E+03  0.00000000000E+00 0.  1.
         12    1    3    3    0    0 -0.74661005105E+02  0.24673646237E+02 -0.31555062383E+03  0.32520032396E+03  0.00000000000E+00 0. -1.
         13    1    5    5    0    0  0.64963670201E+01  0.53487798756E+02  0.13268942622E+04  0.13279877750E+04  0.00000000000E+00 0. -1.
        -14    1    5    5    0    0  0.13522713473E+02  0.20551968804E+02  0.93095473160E+02  0.96291299318E+02  0.00000000000E+00 0.  1.
          5    1    4    4  501    0  0.80590979844E+02 -0.15817579194E+03 -0.68876967522E+01  0.17770593675E+03  0.41800000000E+01 0.  1.
         -5    1    4    4    0  501 -0.28175146076E+02  0.28565544837E+01 -0.13674587534E+01  0.28659049240E+02  0.41800000000E+01 0.  1.
</event>
<event>
11    1  0.7577197E-009  0.1310611E+03  0.7561462E-02  0.1117972E+00
         22   -1    0    0    0    0  0.00000000000E+00  0.00000000000E+00  0.49480765867E+03  0.49480765867E+03  0.00000000000E+00 0.  1.
         22   -1    0    0    0    0 -0.00000000000E+00 -0.00000000000E+00 -0.21022376917E+03  0.21022376917E+03  0.00000000000E+00 0. -1.
        -24    2    1    2    0    0  0.38020392817E+02  0.29624695403E+01 -0.16408941583E+03  0.18719258271E+03  0.81617400966E+02 0.  0.
         25    2    1    2    0    0 -0.67015643151E+02 -0.16316976785E+02  0.15632208115E+03  0.21175735149E+03  0.12508893915E+03 0.  0.
         24    2    1    2    0    0  0.28995250334E+02  0.13354507244E+02  0.29235122418E+03  0.30608149364E+03  0.84838523452E+02 0.  0.
        -11    1    5    5    0    0  0.21261317021E+02  0.39440570249E+02  0.25989642032E+03  0.26373045231E+03  0.00000000000E+00 0.  1.
         12    1    5    5    0    0  0.77339333129E+01 -0.26086063004E+02  0.32454803867E+02  0.42351041329E+02  0.00000000000E+00 0. -1.
         13    1    3    3    0    0  0.12132897307E+02 -0.25393174219E+02 -0.13783599157E+03  0.14067971092E+03  0.00000000000E+00 0. -1.
        -14    1    3    3    0    0  0.25887495511E+02  0.28355643759E+02 -0.26253424261E+02  0.46512871791E+02  0.00000000000E+00 0.  1.
          5    1    4    4  501    0 -0.19436128237E+02 -0.66701241000E+02  0.10257189907E+03  0.12395678889E+03  0.41800000000E+01 0. -1.
         -5    1    4    4    0  501 -0.47579514914E+02  0.50384264215E+02  0.53750182075E+02  0.87800562601E+02  0.41800000000E+01 0. -1.
</event>
<event>
11    1  0.7577197E-009  0.1504143E+03  0.7561462E-02  0.1096456E+00
         22   -1    0    0    0    0  0.00000000000E+00  0.00000000000E+00  0.21980033043E+04  0.21980033043E+04  0.00000000000E+00 0.  1.
         22   -1    0    0    0    0 -0.00000000000E+00 -0.00000000000E+00 -0.69276380414E+02  0.69276380414E+02  0.00000000000E+00 0.  1.
        -24    2    1    2    0    0 -0.82692048705E+02  0.41898271157E+02  0.16525230220E+02  0.12813324226E+03  0.86899968309E+02 0.  0.
         25    2    1    2    0    0  0.48707320116E+02  0.39780800271E+02  0.42229508306E+03  0.44490577322E+03  0.12511232857E+03 0.  0.
         24    2    1    2    0    0  0.33984728589E+02 -0.81679071428E+02  0.16899066106E+04  0.16942406693E+04  0.82708284123E+02 0.  0.
        -13    1    5    5    0    0  0.13274160418E+02 -0.11048659223E+02  0.10457368636E+04  0.10458794692E+04  0.00000000000E+00 0.  1.
         14    1    5    5    0    0  0.20710568172E+02 -0.70630412205E+02  0.64416974704E+03  0.64836120007E+03  0.00000000000E+00 0. -1.
         13    1    3    3    0    0 -0.76122812973E+02  0.49237869387E+02  0.42666912977E+02  0.10019738469E+03  0.00000000000E+00 0. -1.
        -14    1    3    3    0    0 -0.65692357323E+01 -0.73395982301E+01 -0.26141682757E+02  0.27935857561E+02  0.00000000000E+00 0.  1.
          5    1    4    4  501    0 -0.23124002657E+02 -0.11593139392E+02  0.24886561896E+03  0.25024126174E+03  0.41800000000E+01 0. -1.
         -5    1    4    4    0  501  0.71831322773E+02  0.51373939662E+02  0.17342946411E+03  0.19466451148E+03  0.41800000000E+01 0. -1.
</event>
<event>
11    1  0.7577197E-009  0.1919372E+03  0.7561462E-02  0.1060376E+00
         22   -1    0    0    0    0  0.00000000000E+00  0.00000000000E+00  0.11980064299E+03  0.11980064299E+03  0.00000000000E+00 0.  1.
         22   -1    0    0    0    0 -0.00000000000E+00 -0.00000000000E+00 -0.81951821226E+03  0.81951821226E+03  0.00000000000E+00 0.  1.
        -24    2    1    2    0    0 -0.38266688272E+01  0.12773400255E+02 -0.50533812692E+03  0.51189293578E+03  0.80560238526E+02 0.  0.
         25    2    1    2    0    0 -0.14227980099E+03 -0.22347601841E+02 -0.17463100542E+03  0.25862833942E+03  0.12509865235E+03 0.  0.
         24    2    1    2    0    0  0.14610646982E+03  0.95742015861E+01 -0.19748436932E+02  0.16879758005E+03  0.81632447040E+02 0.  0.
        -13    1    5    5    0    0  0.10709460134E+03  0.36866490773E+02 -0.35423473251E+02  0.11867271900E+03  0.00000000000E+00 0.  1.
         14    1    5    5    0    0  0.39011868480E+02 -0.27292289187E+02  0.15675036319E+02  0.50124861047E+02  0.00000000000E+00 0. -1.
         13    1    3    3    0    0 -0.29210829084E+02  0.36524565143E+02 -0.30373423917E+03  0.30731385331E+03  0.00000000000E+00 0. -1.
        -14    1    3    3    0    0  0.25384160257E+02 -0.23751164889E+02 -0.20160388776E+03  0.20457908247E+03  0.00000000000E+00 0.  1.
          5    1    4    4  501    0 -0.60435690745E+02  0.22565178872E+02 -0.14792852193E+03  0.16143723243E+03  0.41800000000E+01 0. -1.
         -5    1    4    4    0  501 -0.81844110247E+02 -0.44912780713E+02 -0.26702483485E+02  0.97191106989E+02  0.41800000000E+01 0. -1.
</event>
<event>
11    1  0.7577197E-009  0.1720256E+03  0.7561462E-02  0.1076282E+00
         22   -1    0    0    0    0  0.00000000000E+00  0.00000000000E+00  0.13434242056E+04  0.13434242056E+04  0.00000000000E+00 0. -1.
         22   -1    0    0    0    0 -0.00000000000E+00 -0.00000000000E+00 -0.56765307516E+02  0.56765307516E+02  0.00000000000E+00 0. -1.
        -24    2    1    2    0    0  0.17706850492E+01 -0.25905681886E+02  0.20858269469E+02  0.86667994670E+02  0.80012712836E+02 0.  0.
         25    2    1    2    0    0 -0.39492072728E+02 -0.92288066362E+02  0.34084889301E+03  0.37670020576E+03  0.12509342969E+03 0.  0.
         24    2    1    2    0    0  0.37721387679E+02  0.11819374825E+03  0.92495173560E+03  0.93682131269E+03  0.81888909474E+02 0.  0.
        -11    1    5    5    0    0 -0.12788650992E+02  0.13768147194E+02  0.33770336437E+03  0.33822577338E+03  0.00000000000E+00 0.  1.
         12    1    5    5    0    0  0.50510038671E+02  0.10442560106E+03  0.58724837123E+03  0.59859553931E+03  0.00000000000E+00 0. -1.
         13    1    3    3    0    0  0.10026115685E+01 -0.24206651776E+02 -0.28425264271E+02  0.37349201719E+02  0.00000000000E+00 0. -1.
        -14    1    3    3    0    0  0.76807348067E+00 -0.16990301101E+01  0.49283533741E+02  0.49318792951E+02  0.00000000000E+00 0.  1.
          5    1    4    4  501    0  0.80604589799E+00  0.30540307899E+02  0.73634973956E+02  0.79830707789E+02  0.41800000000E+01 0.  1.
         -5    1    4    4    0  501 -0.40298118626E+02 -0.12282837426E+03  0.26721391906E+03  0.29686949797E+03  0.41800000000E+01 0.  1.
</event>
<event>
11    1  0.7577197E-009  0.1346990E+03  0.7561462E-02  0.1113627E+00
         22   -1    0    0    0    0  0.00000000000E+00  0.00000000000E+00  0.22096323486E+03  0.22096323486E+03  0.00000000000E+00 0. -1.
         22   -1    0    0    0    0 -0.00000000000E+00 -0.00000000000E+00 -0.14623388340E+04  0.14623388340E+04  0.00000000000E+00 0. -1.
        -24    2    1    2    0    0 -0.44905383190E+02 -0.18700239128E+02 -0.13291922837E+04  0.13327139481E+04  0.83714681965E+02 0.  0.
         25    2    1    2    0    0  0.83905912588E+02  0.22022775105E+02 -0.70582241018E+02  0.16779756926E+03  0.12509583011E+03 0.  0.
         24    2    1    2    0    0 -0.39000529397E+02 -0.33225359774E+01  0.15839892558E+03  0.18279055152E+03  0.82401975477E+02 0.  0.
        -11    1    5    5    0    0  0.21188296827E+02 -0.14258295296E+02  0.75926359220E+02  0.80106522403E+02  0.00000000000E+00 0.  1.
         12    1    5    5    0    0 -0.60188826225E+02  0.10935759318E+02  0.82472566359E+02  0.10268402912E+03  0.00000000000E+00 0. -1.
         11    1    3    3    0    0 -0.29536105561E+02 -0.21534469999E+02 -0.12900392998E+04  0.12905570542E+04  0.00000000000E+00 0. -1.
        -12    1    3    3    0    0 -0.15369277629E+02  0.28342308713E+01 -0.39152983905E+02  0.42156893958E+02  0.00000000000E+00 0.  1.
          5    1    4    4  501    0  0.65861277440E+02  0.72300492550E+02 -0.37506027844E+02  0.10482959321E+03  0.41800000000E+01 0. -1.
         -5    1    4    4    0  501  0.18044635148E+02 -0.50277717445E+02 -0.33076213174E+02  0.62967976043E+02  0.41800000000E+01 0. -1.
</event>
<event>
11    1  0.7577197E-009  0.1281834E+03  0.7561462E-02  0.1121521E+00
         22   -1    0    0    0    0  0.00000000000E+00  0.00000000000E+00  0.12940079122E+04  0.12940079122E+04  0.00000000000E+00 0. -1.
         22   -1    0    0    0    0 -0.00000000000E+00 -0.00000000000E+00 -0.38395787624E+02  0.38395787624E+02  0.00000000000E+00 0.  1.
        -24    2    1    2    0    0 -0.28196768563E+02  0.28519007511E+02  0.95283520082E+02  0.13058150638E+03  0.79775867677E+02 0.  0.
         25    2    1    2    0    0  0.11381231279E+02  0.47835566661E+01  0.19238704128E+03  0.22980695056E+03  0.12508415580E+03 0.  0.
         24    2    1    2    0    0  0.16815537283E+02 -0.33302564177E+02  0.96794156323E+03  0.97201524289E+03  0.80690392972E+02 0.  0.
        -11    1    5    5    0    0 -0.47077207729E+01 -0.46368778246E+02  0.29995678181E+03  0.30355608573E+03  0.00000000000E+00 0.  1.
         12    1    5    5    0    0  0.21523258056E+02  0.13066214068E+02  0.66798478142E+03  0.66845915716E+03  0.00000000000E+00 0. -1.
         13    1    3    3    0    0  0.23795643079E+02 -0.78632744466E+01  0.35057985304E+02  0.43094385344E+02  0.00000000000E+00 0. -1.
        -14    1    3    3    0    0 -0.51992411641E+02  0.36382281958E+02  0.60225534778E+02  0.87487121041E+02  0.00000000000E+00 0.  1.
          5    1    4    4  501    0  0.54356185579E+01 -0.51684926146E+02  0.35947191642E+02  0.63328907513E+02  0.41800000000E+01 0.  1.
         -5    1    4    4    0  501  0.59456127215E+01  0.56468482812E+02  0.15643984964E+03  0.16647804304E+03  0.41800000000E+01 0.  1.
</event>
<event>
11    1  0.7577197E-009  0.1439525E+03  0.7561462E-02  0.1103223E+00
         22   -1    0    0    0    0  0.00000000000E+00  0.00000000000E+00  0.10349547504E+04  0.10349547504E+04  0.00000000000E+00 0.  1.
         22   -1    0    0    0    0 -0.00000000000E+00 -0.00000000000E+00 -0.14758961415E+03  0.14758961415E+03  0.00000000000E+00 0.  1.
         24    2    1    2    0    0  0.23654133938E+02  0.11199106407E+02 -0.11817397726E+03  0.14496818690E+03  0.79785639515E+02 0.  0.
         25    2    1    2    0    0 -0.87166368783E+02 -0.72566398668E+01  0.52842711945E+03  0.55003337130E+03  0.12510337448E+03 0.  0.
        -24    2    1    2    0    0  0.63512234845E+02 -0.39424665406E+01  0.47711199405E+03  0.48754280633E+03  0.77542157077E+02 0.  0.
        -13    1    3    3    0    0  0.51095245090E+02  0.19458989285E+02 -0.85722061101E+02  0.10167422532E+03  0.00000000000E+00 0.  1.
         14    1    3    3    0    0 -0.27441111152E+02 -0.82598828777E+01 -0.32451916163E+02  0.43293961577E+02  0.00000000000E+00 0. -1.
         11    1    5    5    0    0 -0.13993032741E+02 -0.14466664294E+02  0.63954968321E+02  0.67047202134E+02  0.00000000000E+00 0. -1.
        -12    1    5    5    0    0  0.77505267586E+02  0.10524197754E+02  0.41315702573E+03  0.42049560420E+03  0.00000000000E+00 0.  1.
          5    1    4    4  501    0 -0.61041808426E+02  0.56145337771E+02  0.31867857739E+03  0.32932037504E+03  0.41800000000E+01 0. -1.
         -5    1    4    4    0  501 -0.26124560357E+02 -0.63401977638E+02  0.20974854206E+03  0.22071299626E+03  0.41800000000E+01 0. -1.
</event>
<event>
11    1  0.7577197E-009  0.1565447E+03  0.7561462E-02  0.1090373E+00
         22   -1    0    0    0    0  0.00000000000E+00  0.00000000000E+00  0.15804712785E+04  0.15804712785E+04  0.00000000000E+00 0.  1.
         22   -1    0    0    0    0 -0.00000000000E+00 -0.00000000000E+00 -0.36602083293E+04  0.36602083293E+04  0.00000000000E+00 0. -1.
         24    2    1    2    0    0  0.13117979152E+02  0.39961976462E+02 -0.33109564984E+04  0.33122221883E+04  0.81325578451E+02 0.  0.
         25    2    1    2    0    0  0.48185967727E+02 -0.11118302063E+03 -0.32430624514E+03  0.36811057413E+03  0.12508917854E+03 0.  0.
        -24    2    1    2    0    0 -0.61303946879E+02  0.71221044165E+02  0.15555256927E+04  0.15603468453E+04  0.78685996093E+02 0.  0.
        -11    1    3    3    0    0  0.19443683813E+02 -0.91785583156E+01 -0.22563872390E+04  0.22564896798E+04  0.00000000000E+00 0.  1.
         12    1    3    3    0    0 -0.63257046613E+01  0.49140534778E+02 -0.10545692594E+04  0.10557325085E+04  0.00000000000E+00 0. -1.
         11    1    5    5    0    0 -0.81586047730E+01 -0.15929470583E+02  0.13889871844E+03  0.14004700943E+03  0.00000000000E+00 0. -1.
        -12    1    5    5    0    0 -0.53145342106E+02  0.87150514748E+02  0.14166269742E+04  0.14202998359E+04  0.00000000000E+00 0.  1.
          5    1    4    4  501    0  0.72201912338E+02 -0.11382181062E+03 -0.31357947912E+03  0.34134745179E+03  0.41800000000E+01 0. -1.
         -5    1    4    4    0  501 -0.24015944611E+02  0.26387899974E+01 -0.10726766027E+02  0.26763122344E+02  0.41800000000E+01 0. -1.
</event>
<event>
11    1  0.7577197E-009  0.1417554E+03  0.7561462E-02  0.1105614E+00
         22   -1    0    0    0    0  0.00000000000E+00  0.00000000000E+00  0.65230154910E+03  0.65230154910E+03  0.00000000000E+00 0.  1.
         22   -1    0    0    0    0 -0.00000000000E+00 -0.00000000000E+00 -0.17982247817E+04  0.17982247817E+04  0.00000000000E+00 0.  1.
        -24    2    1    2    0    0  0.32958625785E+02 -0.12554451480E+02 -0.14444068591E+04  0.14470692482E+04  0.80338963672E+02 0.  0.
         25    2    1    2    0    0  0.26652280974E+02 -0.18274812814E+02 -0.33621525656E+03  0.36018427152E+03  0.12509075841E+03 0.  0.
         24    2    1    2    0    0 -0.59610906759E+02  0.30829264294E+02  0.63469888305E+03  0.64327281112E+03  0.80332643709E+02 0.  0.
        -11    1    5    5    0    0 -0.73106298418E+01 -0.15074688110E+02  0.34220693849E+03  0.34261681260E+03  0.00000000000E+00 0.  1.
         12    1    5    5    0    0 -0.52300276918E+02  0.45903952404E+02  0.29249194457E+03  0.30065599852E+03  0.00000000000E+00 0. -1.
         11    1    3    3    0    0  0.30907041102E+02  0.31058739970E+02 -0.66764525169E+03  0.66908151419E+03  0.00000000000E+00 0. -1.
        -12    1    3    3    0    0  0.20515846827E+01 -0.43613191451E+02 -0.77676160741E+03  0.77798773398E+03  0.00000000000E+00 0.  1.
          5    1    4    4  501    0  0.54080982131E+02  0.27650811080E+02 -0.93256978946E+02  0.11137170423E+03  0.41800000000E+01 0.  1.
         -5    1    4    4    0  501 -0.27428701157E+02 -0.45925623893E+02 -0.24295827762E+03  0.24881256729E+03  0.41800000000E+01 0.  1.
</event>
<event>
11    1  0.7577197E-009  0.1631806E+03  0.7561462E-02  0.1084123E+00
         22   -1    0    0    0    0  0.00000000000E+00  0.00000000000E+00  0.70144594479E+03  0.70144594479E+03  0.00000000000E+00 0. -1.
         22   -1    0    0    0    0 -0.00000000000E+00 -0.00000000000E+00 -0.11738575296E+03  0.11738575296E+03  0.00000000000E+00 0.  1.
         24    2    1    2    0    0 -0.83211076334E+02  0.55362143779E+02 -0.32202938416E+02  0.13280434559E+03  0.81307532108E+02 0.  0.
         25    2    1    2    0    0  0.95272354616E+02 -0.99204369774E+02  0.28494576433E+03  0.34023588198E+03  0.12509211902E+03 0.  0.
        -24    2    1    2    0    0 -0.12061278282E+02  0.43842225995E+02  0.33131736592E+03  0.34579147017E+03  0.87937072228E+02 0.  0.
        -11    1    3    3    0    0 -0.52444553682E+02  0.66296681800E+02 -0.47261981451E+02  0.96847179201E+02  0.00000000000E+00 0.  1.
         12    1    3    3    0    0 -0.30766522652E+02 -0.10934538021E+02  0.15059043035E+02  0.35957166392E+02  0.00000000000E+00 0. -1.
         13    1    5    5    0    0 -0.27490169858E+02  0.14917642211E+00  0.25522042296E+03  0.25669670038E+03  0.00000000000E+00 0. -1.
        -14    1    5    5    0    0  0.15428891577E+02  0.43693049573E+02  0.76096942959E+02  0.89094769790E+02  0.00000000000E+00 0.  1.
          5    1    4    4  501    0  0.41275049179E+02 -0.11211989825E+03  0.24200520543E+03  0.26992312447E+03  0.41800000000E+01 0. -1.
         -5    1    4    4    0  501  0.53997305437E+02  0.12915528473E+02  0.42940558903E+02  0.70312757513E+02  0.41800000000E+01 0. -1.
</event>
<event>
11    1  0.7577197E-009  0.1437328E+03  0.7561462E-02  0.1103460E+00
         22   -1    0    0    0    0  0.00000000000E+00  0.00000000000E+00  0.14532489342E+04  0.14532489342E+04  0.00000000000E+00 0. -1.
         22   -1    0    0    0    0 -0.00000000000E+00 -0.00000000000E+00 -0.13703110473E+03  0.13703110473E+03  0.00000000000E+00 0.  1.
        -24    2    1    2    0    0  0.26681629441E+02 -0.14952338582E+02 -0.46889440805E+02  0.98608745207E+02  0.81176247717E+02 0.  0.
         25    2    1    2    0    0 -0.73968340745E+02 -0.37404211195E+02  0.28549781923E+02  0.15275411516E+03  0.12509332197E+03 0.  0.
         24    2    1    2    0    0  0.47286711305E+02  0.52356549777E+02  0.13345574883E+04  0.13389171786E+04  0.81720743887E+02 0.  0.
        -11    1    5    5    0    0  0.20065795966E+02  0.39754608514E+02  0.24935378386E+03  0.25329898261E+03  0.00000000000E+00 0.  1.
         12    1    5    5    0    0  0.27220915338E+02  0.12601941263E+02  0.10852037045E+04  0.10856181960E+04  0.00000000000E+00 0. -1.
         13    1    3    3    0    0 -0.12716923682E+01 -0.54537571604E+01  0.22507081846E+02  0.23193305108E+02  0.00000000000E+00 0. -1.
        -14    1    3    3    0    0  0.27953321809E+02 -0.94985814217E+01 -0.69396522651E+02  0.75415440098E+02  0.00000000000E+00 0.  1.
          5    1    4    4  501    0 -0.88597164447E+02 -0.55393122139E+02 -0.12608657666E+02  0.10532951237E+03  0.41800000000E+01 0. -1.
         -5    1    4    4    0  501  0.14628823702E+02  0.17988910943E+02  0.41158439589E+02  0.47424602785E+02  0.41800000000E+01 0. -1.
</event>
<event>
11    1  0.7577197E-009  0.1372525E+03  0.7561462E-02  0.1110666E+00
         22   -1    0    0    0    0  0.00000000000E+00  0.00000000000E+00  0.11354566073E+03  0.11354566073E+03  0.00000000000E+00 0.  1.
         22   -1    0    0    0    0 -0.00000000000E+00 -0.00000000000E+00 -0.44963539014E+03  0.44963539014E+03  0.00000000000E+00 0.  1.
        -24    2    1    2    0    0  0.22934005894E+02  0.38883500888E+01 -0.12573376013E+03  0.15108979043E+03  0.80486386685E+02 0.  0.
         25    2    1    2    0    0 -0.40682373578E+02  0.49226321680E+02 -0.26483536925E+03  0.29979362819E+03  0.12514056269E+03 0.  0.
         24    2    1    2    0    0  0.17748367684E+02 -0.53114671769E+02  0.54479399969E+02  0.11229763225E+03  0.80663376292E+02 0.  0.
        -11    1    5    5    0    0 -0.25015935168E+01 -0.69410538790E+02  0.50789327681E+02  0.86044387798E+02  0.00000000000E+00 0.  1.
         12    1    5    5    0    0  0.20249961201E+02  0.16295867021E+02  0.36900722876E+01  0.26253244449E+02  0.00000000000E+00 0. -1.
         11    1    3    3    0    0  0.71194606551E+01  0.23586336711E+01  0.11067292661E+02  0.13369174981E+02  0.00000000000E+00 0. -1.
        -12    1    3    3    0    0  0.15814545239E+02  0.15297164177E+01 -0.13680105280E+03  0.13772061545E+03  0.00000000000E+00 0.  1.
          5    1    4    4  501    0 -0.79952458767E+02  0.71293179594E+01 -0.18059971935E+03  0.19767891609E+03  0.41800000000E+01 0. -1.
         -5    1    4    4    0  501  0.39270085189E+02  0.42097003721E+02 -0.84235649901E+02  0.10211471210E+03  0.41800000000E+01 0. -1.
</event>
<event>
11    1  0.7577197E-009  0.1947005E+03  0.7561462E-02  0.1058336E+00
         22   -1    0    0    0    0  0.00000000000E+00  0.00000000000E+00  0.64473408326E+03  0.64473408326E+03  0.00000000000E+00 0. -1.
         22   -1    0    0    0    0 -0.00000000000E+00 -0.00000000000E+00 -0.12095409202E+04  0.12095409202E+04  0.00000000000E+00 0.  1.
         24    2    1    2    0    0  0.18017138274E+02 -0.21668153386E+01 -0.11454644545E+04  0.11483763278E+04  0.79687271537E+02 0.  0.
         25    2    1    2    0    0 -0.16040863974E+03  0.26148635796E+02  0.18233793050E+03  0.27442830047E+03  0.12509631626E+03 0.  0.
        -24    2    1    2    0    0  0.14239150146E+03 -0.23981820457E+02  0.39831968710E+03  0.43147037521E+03  0.81594387945E+02 0.  0.
        -11    1    3    3    0    0 -0.22566088705E+02 -0.23535404373E+02 -0.64185544083E+03  0.64268308718E+03  0.00000000000E+00 0.  1.
         12    1    3    3    0    0  0.40583226980E+02  0.21368589034E+02 -0.50360901369E+03  0.50569324059E+03  0.00000000000E+00 0. -1.
         13    1    5    5    0    0  0.14990905186E+03 -0.32191610069E+02  0.38285447086E+03  0.41241553008E+03  0.00000000000E+00 0. -1.
        -14    1    5    5    0    0 -0.75175504000E+01  0.82097896118E+01  0.15465216243E+02  0.19054845130E+02  0.00000000000E+00 0.  1.
          5    1    4    4  501    0 -0.14311773251E+03  0.60697540550E+02  0.17632519902E+03  0.23510619941E+03  0.41800000000E+01 0.  1.
         -5    1    4    4    0  501 -0.17290907223E+02 -0.34548904755E+02  0.60127314822E+01  0.39322101065E+02  0.41800000000E+01 0.  1.
</event>
<event>
11    1  0.7577197E-009  0.1316687E+03  0.7561462E-02  0.1117235E+00
         22   -1    0    0    0    0  0.00000000000E+00  0.00000000000E+00  0.33950730340E+03  0.33950730340E+03  0.00000000000E+00 0. -1.
         22   -1    0    0    0    0 -0.00000000000E+00 -0.00000000000E+00 -0.70484319725E+03  0.70484319725E+03  0.00000000000E+00 0.  1.
        -24    2    1    2    0    0 -0.33621273841E+02  0.22398127319E+02 -0.52276375370E+03  0.53030129625E+03  0.79406904336E+02 0.  0.
         25    2    1    2    0    0  0.55913730700E+02  0.39555290925E+01 -0.14479465209E+03  0.19938881796E+03  0.12509363677E+03 0.  0.
         24    2    1    2    0    0 -0.22292456860E+02 -0.26353656411E+02  0.30222251195E+03  0.31466038644E+03  0.80506168854E+02 0.  0.
        -13    1    5    5    0    0 -0.14026671075E+02  0.24598171301E+02  0.17645076610E+03  0.17870839485E+03  0.00000000000E+00 0.  1.
         14    1    5    5    0    0 -0.82657857848E+01 -0.50951827712E+02  0.12577174585E+03  0.13595199158E+03  0.00000000000E+00 0. -1.
         13    1    3    3    0    0 -0.55048309740E+02 -0.29163981587E+01 -0.29082963201E+03  0.29600793341E+03  0.00000000000E+00 0. -1.
        -14    1    3    3    0    0  0.21427035900E+02  0.25314525477E+02 -0.23193412169E+03  0.23429336284E+03  0.00000000000E+00 0.  1.
          5    1    4    4  501    0  0.39937789278E+02  0.42864756778E+02 -0.14571794867E+03  0.15711017583E+03  0.41800000000E+01 0. -1.
         -5    1    4    4    0  501  0.15975941422E+02 -0.38909227686E+02  0.92329657345E+00  0.42278642126E+02  0.41800000000E+01 0. -1.
</event>
<event>
11    1  0.7577197E-009  0.1524807E+03  0.7561462E-02  0.1094371E+00
         22   -1    0    0    0    0  0.00000000000E+00  0.00000000000E+00  0.35162404822E+03  0.35162404822E+03  0.00000000000E+00 0.  1.
         22   -1    0    0    0    0 -0.00000000000E+00 -0.00000000000E+00 -0.22813969704E+04  0.22813969704E+04  0.00000000000E+00 0. -1.
         24    2    1    2    0    0  0.41713472206E+02  0.76324950260E+02 -0.21842052427E+04  0.21873653745E+04  0.79052056321E+02 0.  0.
         25    2    1    2    0    0 -0.74337445726E+02 -0.69993620663E+02 -0.15439092356E+02  0.16220635479E+03  0.12508946075E+03 0.  0.
        -24    2    1    2    0    0  0.32623973520E+02 -0.63313295965E+01  0.26987141290E+03  0.28344928928E+03  0.80053174274E+02 0.  0.
        -13    1    3    3    0    0  0.52068620689E+01 -0.14106000935E+02 -0.13379285125E+03  0.13463512811E+03  0.00000000000E+00 0.  1.
         14    1    3    3    0    0  0.36506610137E+02  0.90430951195E+02 -0.20504123915E+04  0.20527302464E+04  0.00000000000E+00 0. -1.
         13    1    5    5    0    0  0.53467334006E+02 -0.22445380873E+02  0.15238724407E+03  0.16304730321E+03  0.00000000000E+00 0. -1.
        -14    1    5    5    0    0 -0.20843360486E+02  0.16114051276E+02  0.11748416883E+03  0.12040198608E+03  0.00000000000E+00 0.  1.
          5    1    4    4  501    0 -0.12103749652E+02 -0.55727357896E+02  0.46086428016E+02  0.73440250687E+02  0.41800000000E+01 0. -1.
         -5    1    4    4    0  501 -0.62233696075E+02 -0.14266262767E+02 -0.61525520372E+02  0.88766104103E+02  0.41800000000E+01 0. -1.
</event>
<event>
11    1  0.7577197E-009  0.1518851E+03  0.7561462E-02  0.1094968E+00
         22   -1    0    0    0    0  0.00000000000E+00  0.00000000000E+00  0.28657355782E+03  0.28657355782E+03  0.00000000000E+00 0. -1.
         22   -1    0    0    0    0 -0.00000000000E+00 -0.00000000000E+00 -0.93642410076E+03  0.93642410076E+03  0.00000000000E+00 0.  1.
        -24    2    1    2    0    0  0.24714319520E+02  0.10354740027E+02 -0.85092337494E+03  0.85419426487E+03  0.69708205263E+02 0.  0.
         25    2    1    2    0    0  0.39875570959E+02  0.54202163108E+02  0.98311319759E+01  0.14238208698E+03  0.12509225352E+03 0.  0.
         24    2    1    2    0    0 -0.64589890479E+02 -0.64556903135E+02  0.19124170003E+03  0.22642130673E+03  0.79710555242E+02 0.  0.
        -11    1    5    5    0    0  0.75877071962E+01  0.10092953707E+02  0.58183865016E+01  0.13903044145E+02  0.00000000000E+00 0.  1.
         12    1    5    5    0    0 -0.72177597675E+02 -0.74649856842E+02  0.18542331353E+03  0.21251826259E+03  0.00000000000E+00 0. -1.
         13    1    3    3    0    0 -0.63642670471E+01  0.30122230241E+02 -0.21358759537E+03  0.21579507303E+03  0.00000000000E+00 0. -1.
        -14    1    3    3    0    0  0.31078586567E+02 -0.19767490214E+02 -0.63733577958E+03  0.63839919184E+03  0.00000000000E+00 0.  1.
          5    1    4    4  501    0 -0.55794902685E+00 -0.17644074166E+02 -0.41419496672E+02  0.45218046893E+02  0.41800000000E+01 0. -1.
         -5    1    4    4    0  501  0.40433519985E+02  0.71846237273E+02  0.51250628648E+02  0.97164040084E+02  0.41800000000E+01 0. -1.
</event>
<event>
11    1  0.7577197E-009  0.1292305E+03  0.7561462E-02  0.1120218E+00
         22   -1    0    0    0    0  0.00000000000E+00  0.00000000000E+00  0.27442895482E+03  0.27442895482E+03  0.00000000000E+00 0. -1.
         22   -1    0    0    0    0 -0.00000000000E+00 -0.00000000000E+00 -0.41630719959E+03  0.41630719959E+03  0.00000000000E+00 0. -1.
         24    2    1    2    0    0  0.34209521610E+01  0.31923141042E+02 -0.32765842619E+03  0.33907044675E+03  0.81104462039E+02 0.  0.
         25    2    1    2    0    0 -0.11674958227E+02 -0.34085185265E+02 -0.19068033110E+02  0.13157844997E+03  0.12510473255E+03 0.  0.
        -24    2    1    2    0    0  0.82540060663E+01  0.21620442229E+01  0.20484821453E+03  0.22008725769E+03  0.80017541524E+02 0.  0.
        -11    1    3    3    0    0 -0.11511398452E+02 -0.12603643378E+01 -0.27395695322E+03  0.27420159195E+03  0.00000000000E+00 0.  1.
         12    1    3    3    0    0  0.14932350613E+02  0.33183505380E+02 -0.53701472966E+02  0.64868854799E+02  0.00000000000E+00 0. -1.
         11    1    5    5    0    0 -0.77010117029E+01  0.70300136025E+01  0.20304095457E+03  0.20330852393E+03  0.00000000000E+00 0. -1.
        -12    1    5    5    0    0  0.15955017769E+02 -0.48679693796E+01  0.18072599588E+01  0.16778733756E+02  0.00000000000E+00 0.  1.
          5    1    4    4  501    0  0.42047673856E+02  0.19825953938E+02  0.13649843911E+02  0.48629887570E+02  0.41800000000E+01 0. -1.
         -5    1    4    4    0  501 -0.53722632084E+02 -0.53911139203E+02 -0.32717877020E+02  0.82948562404E+02  0.41800000000E+01 0. -1.
</event>
<event>
11    1  0.7577197E-009  0.1336685E+03  0.7561462E-02  0.1114842E+00
         22   -1    0    0    0    0  0.00000000000E+00  0.00000000000E+00  0.12532711253E+04  0.12532711253E+04  0.00000000000E+00 0. -1.
         22   -1    0    0    0    0 -0.00000000000E+00 -0.00000000000E+00 -0.28475560551E+03  0.28475560551E+03  0.00000000000E+00 0.  1.
         24    2    1    2    0    0  0.30402221808E+02  0.35604923874E+02 -0.26312162261E+03  0.27950635408E+03  0.81846246023E+02 0.  0.
         25    2    1    2    0    0 -0.15014777577E+02 -0.72324790634E+02  0.47781817049E+03  0.49941331934E+03  0.12508853105E+03 0.  0.
        -24    2    1    2    0    0 -0.15387444231E+02  0.36719866760E+02  0.75381897192E+03  0.75910705740E+03  0.80095943243E+02 0.  0.
        -11    1    3    3    0    0 -0.28199913145E+02  0.94299110273E+01 -0.72109754989E+02  0.77999840307E+02  0.00000000000E+00 0.  1.
         12    1    3    3    0    0  0.58602134953E+02  0.26175012846E+02 -0.19101186762E+03  0.20150651377E+03  0.00000000000E+00 0. -1.
         11    1    5    5    0    0 -0.28396365873E+02  0.57736146032E+02  0.57479043333E+03  0.57838037519E+03  0.00000000000E+00 0. -1.
        -12    1    5    5    0    0  0.13008921641E+02 -0.21016279272E+02  0.17902853858E+03  0.18072668221E+03  0.00000000000E+00 0.  1.
          5    1    4    4  501    0 -0.12965263328E+02 -0.88364214403E+02  0.17859832664E+03  0.19972773247E+03  0.41800000000E+01 0.  1.
         -5    1    4    4    0  501 -0.20495142493E+01  0.16039423769E+02  0.29921984385E+03  0.29968558687E+03  0.41800000000E+01 0.  1.
</event>
<event>
11    1  0.7577197E-009  0.1679447E+03  0.7561462E-02  0.1079834E+00
         22   -1    0    0    0    0  0.00000000000E+00  0.00000000000E+00  0.10342307239E+03  0.10342307239E+03  0.00000000000E+00 0. -1.
         22   -1    0    0    0    0 -0.00000000000E+00 -0.00000000000E+00 -0.13794324913E+04  0.13794324913E+04  0.00000000000E+00 0. -1.
        -24    2    1    2    0    0  0.15718493186E+02 -0.74338474335E+02 -0.95469066791E+03  0.96108802823E+03  0.80514885654E+02 0.  0.
         25    2    1    2    0    0  0.61820988387E+02  0.14658178292E+03 -0.33198024876E+03  0.38880183444E+03  0.12509167521E+03 0.  0.
         24    2    1    2    0    0 -0.77539481573E+02 -0.72243308585E+02  0.10661497814E+02  0.13296570098E+03  0.79591100408E+02 0.  0.
        -11    1    5    5    0    0  0.38097660563E+01  0.12554445778E+02  0.81199216689E+01  0.15429243472E+02  0.00000000000E+00 0.  1.
         12    1    5    5    0    0 -0.81349247629E+02 -0.84797754363E+02  0.25415761449E+01  0.11753645751E+03  0.00000000000E+00 0. -1.
         13    1    3    3    0    0 -0.98024797581E+01 -0.83134278757E+02 -0.71934521335E+03  0.72419951180E+03  0.00000000000E+00 0. -1.
        -14    1    3    3    0    0  0.25520972944E+02  0.87958044215E+01 -0.23534545456E+03  0.23688851643E+03  0.00000000000E+00 0.  1.
          5    1    4    4  501    0 -0.29243418215E+02  0.77438700873E+00 -0.62447979189E+02  0.69086899546E+02  0.41800000000E+01 0. -1.
         -5    1    4    4    0  501  0.91064406602E+02  0.14580739591E+03 -0.26953226957E+03  0.31971493489E+03  0.41800000000E+01 0. -1.
</event>
<event>
11    1  0.8381486E-009  0.2046574E+03  0.7561462E-02  0.1051278E+00
         22   -1    0    0    0    0  0.00000000000E+00  0.00000000000E+00  0.91118510773E+03  0.91118510773E+03  0.00000000000E+00 0. -1.
         22   -1    0    0    0    0 -0.00000000000E+00 -0.00000000000E+00 -0.43926795198E+03  0.43926795198E+03  0.00000000000E+00 0.  1.
        -24    2    1    2    0    0  0.95183283027E+02 -0.40938060337E+02 -0.34868520493E+03  0.37239014110E+03  0.79732445686E+02 0.  0.
         25    2    1    2    0    0 -0.85037418056E+02 -0.12700187315E+03  0.77962238781E+02  0.21233347227E+03  0.12508618836E+03 0.  0.
         24    2    1    2    0    0 -0.10145864972E+02  0.16793993349E+03  0.74264012191E+03  0.76572944634E+03  0.80749455019E+02 0.  0.
        -11    1    5    5    0    0  0.70918707381E+01  0.48764551303E+02  0.95314935905E+02  0.10729964166E+03  0.00000000000E+00 0.  1.
         12    1    5    5    0    0 -0.17237735710E+02  0.11917538218E+03  0.64732518600E+03  0.65842980468E+03  0.00000000000E+00 0. -1.
         11    1    3    3    0    0  0.60788618549E+02 -0.51540890692E+02 -0.14417164737E+03  0.16473367435E+03  0.00000000000E+00 0. -1.
        -12    1    3    3    0    0  0.34394664478E+02  0.10602830354E+02 -0.20451355757E+03  0.20765646675E+03  0.00000000000E+00 0.  1.
          5    1    4    4  501    0 -0.67859674721E+02 -0.62581057605E+02 -0.19241735368E+02  0.94387716384E+02  0.41800000000E+01 0. -1.
         -5    1    4    4    0  501 -0.17177743335E+02 -0.64420815544E+02  0.97203974149E+02  0.11794575589E+03  0.41800000000E+01 0. -1.
</event>
<event>
11    1  0.7577197E-009  0.1430772E+03  0.7561462E-02  0.1104170E+00
         22   -1    0    0    0    0  0.00000000000E+00  0.00000000000E+00  0.55643966835E+03  0.55643966835E+03  0.00000000000E+00 0.  1.
         22   -1    0    0    0    0 -0.00000000000E+00 -0.00000000000E+00 -0.47567625381E+03  0.47567625381E+03  0.00000000000E+00 0. -1.
         24    2    1    2    0    0 -0.50094474227E+02  0.15117268363E+01 -0.40982583109E+03  0.42132047042E+03  0.83916537719E+02 0.  0.
         25    2    1    2    0    0  0.58029637601E+01 -0.58901053583E+02  0.35711665001E+02  0.14291911603E+03  0.12509013633E+03 0.  0.
        -24    2    1    2    0    0  0.44291510467E+02  0.57389326747E+02  0.45487758063E+03  0.46787633570E+03  0.82093723436E+02 0.  0.
        -13    1    3    3    0    0 -0.59636841249E+02 -0.39762674656E+01 -0.15301788585E+03  0.16427670842E+03  0.00000000000E+00 0.  1.
         14    1    3    3    0    0  0.95423670219E+01  0.54879943018E+01 -0.25680794524E+03  0.25704376201E+03  0.00000000000E+00 0. -1.
         11    1    5    5    0    0  0.16654746751E+02 -0.38368967219E+01  0.14524552361E+02  0.22429110261E+02  0.00000000000E+00 0. -1.
        -12    1    5    5    0    0  0.27636763716E+02  0.61226223469E+02  0.44035302827E+03  0.44544722544E+03  0.00000000000E+00 0.  1.
          5    1    4    4  501    0 -0.52390308772E+02  0.24149640218E+01  0.48707418576E+01  0.52837231482E+02  0.41800000000E+01 0.  1.
         -5    1    4    4    0  501  0.58193272532E+02 -0.61316017605E+02  0.30840923143E+02  0.90081884545E+02  0.41800000000E+01 0.  1.
</event>
<event>
11    1  0.7577197E-009  0.1422223E+03  0.7561462E-02  0.1105102E+00
         22   -1    0    0    0    0  0.00000000000E+00  0.00000000000E+00  0.10284972362E+04  0.10284972362E+04  0.00000000000E+00 0.  1.
         22   -1    0    0    0    0 -0.00000000000E+00 -0.00000000000E+00 -0.49610803757E+03  0.49610803757E+03  0.00000000000E+00 0.  1.
         24    2    1    2    0    0 -0.15661104951E+02 -0.30547879850E+02 -0.45358688411E+03  0.46193289959E+03  0.80389670452E+02 0.  0.
         25    2    1    2    0    0 -0.24247686698E+02  0.83484213324E+02  0.12998439869E+03  0.20027958454E+03  0.12513354424E+03 0.  0.
        -24    2    1    2    0    0  0.39908791648E+02 -0.52936333474E+02  0.85599168406E+03  0.86239278964E+03  0.81268649530E+02 0.  0.
        -11    1    3    3    0    0  0.86141652983E+01 -0.17891437046E+02 -0.40987510195E+03  0.41035582920E+03  0.00000000000E+00 0.  1.
         12    1    3    3    0    0 -0.24275270249E+02 -0.12656442804E+02 -0.43711782169E+02  0.51577070395E+02  0.00000000000E+00 0. -1.
         13    1    5    5    0    0  0.60626676406E+01 -0.18419071691E+02  0.35274278142E+02  0.40252861256E+02  0.00000000000E+00 0. -1.
        -14    1    5    5    0    0  0.33846124008E+02 -0.34517261782E+02  0.82071740591E+03  0.82213992838E+03  0.00000000000E+00 0.  1.
          5    1    4    4  501    0  0.34910769844E+02  0.54964613534E+02  0.13707836301E+02  0.66672691322E+02  0.41800000000E+01 0. -1.
         -5    1    4    4    0  501 -0.59158456542E+02  0.28519599790E+02  0.11627656239E+03  0.13360689322E+03  0.41800000000E+01 0. -1.
</event>
<event>
11    1  0.7577197E-009  0.1447382E+03  0.7561462E-02  0.1102380E+00
         22   -1    0    0    0    0  0.00000000000E+00  0.00000000000E+00  0.15380759491E+04  0.15380759491E+04  0.00000000000E+00 0. -1.
         22   -1    0    0    0    0 -0.00000000000E+00 -0.00000000000E+00 -0.48865872746E+03  0.48865872746E+03  0.00000000000E+00 0.  1.
         24    2    1    2    0    0 -0.28787121332E+02  0.19292685157E+02 -0.47351946677E+03  0.48157417916E+03  0.80573559992E+02 0.  0.
         25    2    1    2    0    0  0.85306519396E+02  0.17812203808E+02  0.77172036333E+03  0.78663558612E+03  0.12509496117E+03 0.  0.
        -24    2    1    2    0    0 -0.56519398064E+02 -0.37104888964E+02  0.75121632506E+03  0.75852491126E+03  0.80391907676E+02 0.  0.
        -11    1    3    3    0    0 -0.54074709532E+02  0.19762966743E+02 -0.24570485831E+03  0.25235991453E+03  0.00000000000E+00 0.  1.
         12    1    3    3    0    0  0.25287588201E+02 -0.47028158653E+00 -0.22781460846E+03  0.22921426463E+03  0.00000000000E+00 0. -1.
         11    1    5    5    0    0 -0.31851694876E+02 -0.41100805760E+01  0.62354604682E+03  0.62437256164E+03  0.00000000000E+00 0. -1.
        -12    1    5    5    0    0 -0.24667703188E+02 -0.32994808388E+02  0.12767027824E+03  0.13415234962E+03  0.00000000000E+00 0.  1.
          5    1    4    4  501    0  0.98866014561E+01 -0.35016538221E+02  0.46304629654E+03  0.46449246278E+03  0.41800000000E+01 0. -1.
         -5    1    4    4    0  501  0.75419917940E+02  0.52828742029E+02  0.30867406679E+03  0.32214312334E+03  0.41800000000E+01 0. -1.
</event>
<event>
11    1  0.7577197E-009  0.1481609E+03  0.7561462E-02  0.1098773E+00
         22   -1    0    0    0    0  0.00000000000E+00  0.00000000000E+00  0.29968770897E+03  0.29968770897E+03  0.00000000000E+00 0. -1.
         22   -1    0    0    0    0 -0.00000000000E+00 -0.00000000000E+00 -0.14003186568E+04  0.14003186568E+04  0.00000000000E+00 0.  1.
         24    2    1    2    0    0 -0.12301367777E+02  0.32166845205E+02 -0.12746265048E+04  0.12774931030E+04  0.78293498463E+02 0.  0.
         25    2    1    2    0    0  0.56083605609E+02 -0.94133666033E+02 -0.49064918707E+02  0.17339177630E+03  0.12510325312E+03 0.  0.
        -24    2    1    2    0    0 -0.43782237833E+02  0.61966820829E+02  0.22306047573E+03  0.24912148643E+03  0.80924458211E+02 0.  0.
        -13    1    3    3    0    0 -0.41971706343E+02  0.35087507912E+02 -0.91437248857E+03  0.91600753556E+03  0.00000000000E+00 0.  1.
         14    1    3    3    0    0  0.29670338567E+02 -0.29206627069E+01 -0.36025401626E+03  0.36148556747E+03  0.00000000000E+00 0. -1.
         11    1    5    5    0    0 -0.43385742360E+02  0.53401743379E+02  0.22872191447E+03  0.23884677723E+03  0.00000000000E+00 0. -1.
        -12    1    5    5    0    0 -0.39649547236E+00  0.85650774493E+01 -0.56614387456E+01  0.10274709195E+02  0.00000000000E+00 0.  1.
          5    1    4    4  501    0  0.29511041788E+02 -0.11597121759E+03 -0.63874758393E+02  0.13571176094E+03  0.41800000000E+01 0.  1.
         -5    1    4    4    0  501  0.26572563821E+02  0.21837551556E+02  0.14809839687E+02  0.37680015360E+02  0.41800000000E+01 0.  1.
</event>
<event>
11    1  0.7577197E-009  0.1265372E+03  0.7561462E-02  0.1123598E+00
         22   -1    0    0    0    0  0.00000000000E+00  0.00000000000E+00  0.26565434616E+04  0.26565434616E+04  0.00000000000E+00 0.  1.
         22   -1    0    0    0    0 -0.00000000000E+00 -0.00000000000E+00 -0.30366015869E+03  0.30366015869E+03  0.00000000000E+00 0.  1.
        -24    2    1    2    0    0 -0.10025426854E+02  0.52213042620E+01 -0.28568442454E+03  0.29705447566E+03  0.80610172351E+02 0.  0.
         25    2    1    2    0    0 -0.60080084013E+01 -0.16350267156E+02  0.33415245479E+03  0.35721729274E+03  0.12507159466E+03 0.  0.
         24    2    1    2    0    0  0.16033435255E+02  0.11128962894E+02  0.23044152726E+04  0.23059318518E+04  0.81308251907E+02 0.  0.
        -13    1    5    5    0    0 -0.12462104361E+02 -0.30500467943E+02  0.82966484742E+03  0.83031881927E+03  0.00000000000E+00 0.  1.
         14    1    5    5    0    0  0.28495539616E+02  0.41629430837E+02  0.14747504252E+04  0.14756130326E+04  0.00000000000E+00 0. -1.
         11    1    3    3    0    0  0.14404291836E+02 -0.26225986686E+02 -0.51938193889E+02  0.59940487030E+02  0.00000000000E+00 0. -1.
        -12    1    3    3    0    0 -0.24429718689E+02  0.31447290948E+02 -0.23374623065E+03  0.23711398863E+03  0.00000000000E+00 0.  1.
          5    1    4    4  501    0 -0.48423926154E+02 -0.28879669850E+02  0.28667481664E+03  0.29219656885E+03  0.41800000000E+01 0. -1.
         -5    1    4    4    0  501  0.42415917752E+02  0.12529402694E+02  0.47477638153E+02  0.65020723890E+02  0.41800000000E+01 0. -1.
</event>
<event>
11    1  0.7577197E-009  0.1265619E+03  0.7561462E-02  0.1123567E+00
         22   -1    0    0    0    0  0.00000000000E+00  0.00000000000E+00  0.26319846680E+03  0.26319846680E+03  0.00000000000E+00 0.  1.
         22   -1    0    0    0    0 -0.00000000000E+00 -0.00000000000E+00 -0.29928163763E+03  0.29928163763E+03  0.00000000000E+00 0.  1.
        -24    2    1    2    0    0  0.90619718584E+01  0.20840308047E+02 -0.24296832065E+03  0.25575710460E+03  0.76561438976E+02 0.  0.
         25    2    1    2    0    0 -0.19959068327E+02 -0.30197725530E+02  0.72133846023E+02  0.14886758504E+03  0.12509196256E+03 0.  0.
         24    2    1    2    0    0  0.10897096468E+02  0.93574174832E+01  0.13475130379E+03  0.15785541479E+03  0.80957458782E+02 0.  0.
        -13    1    5    5    0    0  0.22793180970E+02  0.34403855893E+02  0.11902850764E+03  0.12597991915E+03  0.00000000000E+00 0.  1.
         14    1    5    5    0    0 -0.11896084502E+02 -0.25046438410E+02  0.15722796156E+02  0.31875495642E+02  0.00000000000E+00 0. -1.
         13    1    3    3    0    0 -0.16935398369E+02 -0.19011814073E+00 -0.85618489429E+01  0.18977595215E+02  0.00000000000E+00 0. -1.
        -14    1    3    3    0    0  0.25997370227E+02  0.21030426187E+02 -0.23440647171E+03  0.23677950938E+03  0.00000000000E+00 0.  1.
          5    1    4    4  501    0 -0.37531771166E+01 -0.38709574922E+02  0.10442712071E+03  0.11151239155E+03  0.41800000000E+01 0. -1.
         -5    1    4    4    0  501 -0.16205891210E+02  0.85118493920E+01 -0.32293274690E+02  0.37355193484E+02  0.41800000000E+01 0. -1.
</event>
<event>
11    1  0.7577197E-009  0.1727506E+03  0.7561462E-02  0.1075662E+00
         22   -1    0    0    0    0  0.00000000000E+00  0.00000000000E+00  0.44946261064E+03  0.44946261064E+03  0.00000000000E+00 0.  1.
         22   -1    0    0    0    0 -0.00000000000E+00 -0.00000000000E+00 -0.42754477579E+03  0.42754477579E+03  0.00000000000E+00 0. -1.
        -24    2    1    2    0    0 -0.57381418342E+01 -0.13005032421E+02 -0.27758229152E+03  0.28947268704E+03  0.80873053841E+02 0.  0.
         25    2    1    2    0    0  0.84988865752E+02 -0.76694052146E+02 -0.75422030019E+02  0.18558430942E+03  0.12509183968E+03 0.  0.
         24    2    1    2    0    0 -0.79250723918E+02  0.89699084568E+02  0.37492215639E+03  0.40195038996E+03  0.81675514258E+02 0.  0.
        -13    1    5    5    0    0 -0.88666723595E+02  0.84104558249E+02  0.26895379711E+03  0.29541751737E+03  0.00000000000E+00 0.  1.
         14    1    5    5    0    0  0.94159996770E+01  0.55945263186E+01  0.10596835928E+03  0.10653287259E+03  0.00000000000E+00 0. -1.
         13    1    3    3    0    0 -0.34488475540E+02  0.34376023190E+01 -0.22262575829E+03  0.22530756824E+03  0.00000000000E+00 0. -1.
        -14    1    3    3    0    0  0.28750333706E+02 -0.16442634740E+02 -0.54956533232E+02  0.64165118798E+02  0.00000000000E+00 0.  1.
          5    1    4    4  501    0 -0.28845504686E+02 -0.35044414921E+02 -0.63858594910E+01  0.46026359395E+02  0.41800000000E+01 0. -1.
         -5    1    4    4    0  501  0.11383437044E+03 -0.41649637225E+02 -0.69036170528E+02  0.13955795002E+03  0.41800000000E+01 0. -1.
</event>
<event>
11    1  0.7577197E-009  0.1263928E+03  0.7561462E-02  0.1123782E+00
         22   -1    0    0    0    0  0.00000000000E+00  0.00000000000E+00  0.24787622912E+03  0.24787622912E+03  0.00000000000E+00 0.  1.
         22   -1    0    0    0    0 -0.00000000000E+00 -0.00000000000E+00 -0.42516310594E+03  0.42516310594E+03  0.00000000000E+00 0.  1.
         24    2    1    2    0    0 -0.16201487144E+02 -0.89267541396E+01 -0.31654286704E+03  0.32650812604E+03  0.77884495069E+02 0.  0.
         25    2    1    2    0    0  0.79792614660E+01  0.13281083290E+02 -0.54369142159E+02  0.13728902848E+03  0.12510882437E+03 0.  0.
        -24    2    1    2    0    0  0.82222256777E+01 -0.43543291506E+01  0.19362513238E+03  0.20924218054E+03  0.78772032152E+02 0.  0.
        -11    1    3    3    0    0  0.12780255123E+01  0.24982896718E+02 -0.23671127679E+03  0.23802942473E+03  0.00000000000E+00 0.  1.
         12    1    3    3    0    0 -0.17479512656E+02 -0.33909650857E+02 -0.79831590248E+02  0.88478701310E+02  0.00000000000E+00 0. -1.
         13    1    5    5    0    0 -0.22725783748E+02 -0.47614061940E+01  0.14308160739E+02  0.27273718111E+02  0.00000000000E+00 0. -1.
        -14    1    5    5    0    0  0.30948009425E+02  0.40707704343E+00  0.17931697164E+03  0.18196846243E+03  0.00000000000E+00 0.  1.
          5    1    4    4  501    0 -0.54237038895E+02  0.27311686083E+02 -0.36287988873E+02  0.70865189770E+02  0.41800000000E+01 0.  1.
         -5    1    4    4    0  501  0.62216300361E+02 -0.14030602792E+02 -0.18081153287E+02  0.66423838714E+02  0.41800000000E+01 0.  1.
</event>
<event>
11    1  0.7577197E-009  0.1485816E+03  0.7561462E-02  0.1098337E+00
         22   -1    0    0    0    0  0.00000000000E+00  0.00000000000E+00  0.69963086418E+03  0.69963086418E+03  0.00000000000E+00 0. -1.
         22   -1    0    0    0    0 -0.00000000000E+00 -0.00000000000E+00 -0.66641853420E+02  0.66641853420E+02  0.00000000000E+00 0. -1.
        -24    2    1    2    0    0 -0.93603974946E+02 -0.31906512104E+01  0.44209345844E+02  0.13047970850E+03  0.79363742923E+02 0.  0.
         25    2    1    2    0    0  0.41337652063E+02 -0.64463443315E+01  0.23545404176E+03  0.26988243469E+03  0.12509023120E+03 0.  0.
         24    2    1    2    0    0  0.52266322883E+02  0.96369955419E+01  0.35332562315E+03  0.36591057440E+03  0.78910786900E+02 0.  0.
        -11    1    5    5    0    0  0.60037555454E+01 -0.30953216237E+00  0.27014759500E+03  0.27021447773E+03  0.00000000000E+00 0.  1.
         12    1    5    5    0    0  0.46262567337E+02  0.99465277043E+01  0.83178028154E+02  0.95696096668E+02  0.00000000000E+00 0. -1.
         13    1    3    3    0    0 -0.55224524817E+02 -0.30166098137E+02  0.53573607029E+02  0.82643045613E+02  0.00000000000E+00 0. -1.
        -14    1    3    3    0    0 -0.38379450129E+02  0.26975446927E+02 -0.93642611849E+01  0.47836662892E+02  0.00000000000E+00 0.  1.
          5    1    4    4  501    0  0.65806077821E+02  0.38202044890E+02  0.17408368387E+03  0.19003272745E+03  0.41800000000E+01 0. -1.
         -5    1    4    4    0  501 -0.24468425759E+02 -0.44648389222E+02  0.61370357883E+02  0.79849707237E+02  0.41800000000E+01 0. -1.
</event>
<event>
11    1  0.7577197E-009  0.1372198E+03  0.7561462E-02  0.1110703E+00
         22   -1    0    0    0    0  0.00000000000E+00  0.00000000000E+00  0.11331660919E+03  0.11331660919E+03  0.00000000000E+00 0.  1.
         22   -1    0    0    0    0 -0.00000000000E+00 -0.00000000000E+00 -0.60658377078E+03  0.60658377078E+03  0.00000000000E+00 0.  1.
         24    2    1    2    0    0  0.13640264366E+02 -0.28052871438E+02 -0.45190387192E+03  0.46005461620E+03  0.80374871819E+02 0.  0.
         25    2    1    2    0    0 -0.49090467945E+02  0.62135253329E+02 -0.65596735090E+02  0.16193203434E+03  0.12509351838E+03 0.  0.
        -24    2    1    2    0    0  0.35450203580E+02 -0.34082381891E+02  0.24233445428E+02  0.97913729430E+02  0.81126523680E+02 0.  0.
        -11    1    3    3    0    0  0.33502342678E+02 -0.45138481732E+02 -0.36448023959E+03  0.36878955320E+03  0.00000000000E+00 0.  1.
         12    1    3    3    0    0 -0.19862078312E+02  0.17085610295E+02 -0.87423632333E+02  0.91265063000E+02  0.00000000000E+00 0. -1.
         13    1    5    5    0    0  0.25433162717E+02 -0.35159321893E+02 -0.23348747790E+02  0.49276644620E+02  0.00000000000E+00 0. -1.
        -14    1    5    5    0    0  0.10017040863E+02  0.10769400011E+01  0.47582193217E+02  0.48637084810E+02  0.00000000000E+00 0.  1.
          5    1    4    4  501    0 -0.50947299662E+01 -0.16743372161E+02  0.27043512195E+02  0.32482622071E+02  0.41800000000E+01 0.  1.
         -5    1    4    4    0  501 -0.43995737979E+02  0.78878625490E+02 -0.92640247285E+02  0.12944941227E+03  0.41800000000E+01 0.  1.
</event>
<event>
11    1  0.7577197E-009  0.1396705E+03  0.7561462E-02  0.1107927E+00
         22   -1    0    0    0    0  0.00000000000E+00  0.00000000000E+00  0.15035424877E+03  0.15035424877E+03  0.00000000000E+00 0. -1.
         22   -1    0    0    0    0 -0.00000000000E+00 -0.00000000000E+00 -0.88107402337E+03  0.88107402337E+03  0.00000000000E+00 0. -1.
         24    2    1    2    0    0  0.46126047500E+02 -0.14413255315E+02 -0.53611349512E+03  0.54406896494E+03  0.79107551925E+02 0.  0.
         25    2    1    2    0    0 -0.56100572343E+02  0.74300074406E+02 -0.30164060601E+03  0.33957366684E+03  0.12512171971E+03 0.  0.
        -24    2    1    2    0    0  0.99745248437E+01 -0.59886819090E+02  0.10703432654E+03  0.14778564035E+03  0.81843302658E+02 0.  0.
        -13    1    3    3    0    0  0.20160071414E+01  0.12098376189E+02 -0.11109546761E+02  0.16548625938E+02  0.00000000000E+00 0.  1.
         14    1    3    3    0    0  0.44110040358E+02 -0.26511631504E+02 -0.52500394836E+03  0.52752033900E+03  0.00000000000E+00 0. -1.
         13    1    5    5    0    0 -0.21098840932E+02  0.30817087708E+01  0.58933562682E+02  0.62672345002E+02  0.00000000000E+00 0. -1.
        -14    1    5    5    0    0  0.31073365776E+02 -0.62968527861E+02  0.48100763856E+02  0.85113295349E+02  0.00000000000E+00 0.  1.
          5    1    4    4  501    0  0.38409085397E+01  0.38555479999E+02 -0.10789124222E+02  0.40437052537E+02  0.41800000000E+01 0. -1.
         -5    1    4    4    0  501 -0.59941480883E+02  0.35744594407E+02 -0.29085148179E+03  0.29913661431E+03  0.41800000000E+01 0. -1.
</event>
<event>
11    1  0.7577197E-009  0.1583372E+03  0.7561462E-02  0.1088652E+00
         22   -1    0    0    0    0  0.00000000000E+00  0.00000000000E+00  0.70398777673E+03  0.70398777673E+03  0.00000000000E+00 0.  1.
         22   -1    0    0    0    0 -0.00000000000E+00 -0.00000000000E+00 -0.21565430603E+03  0.21565430603E+03  0.00000000000E+00 0.  1.
         24    2    1    2    0    0  0.44382535995E+02  0.16870762962E+01 -0.11048995762E+03  0.13689855606E+03  0.67531682845E+02 0.  0.
         25    2    1    2    0    0 -0.13645426773E+03  0.17355228441E+02  0.15686007289E+02  0.18658484675E+03  0.12508750168E+03 0.  0.
        -24    2    1    2    0    0  0.92071731738E+02 -0.19042304738E+02  0.58313742104E+03  0.59615867995E+03  0.80722405264E+02 0.  0.
        -11    1    3    3    0    0  0.47307338905E+02 -0.13383465500E+02 -0.11114466580E+03  0.12153286880E+03  0.00000000000E+00 0.  1.
         12    1    3    3    0    0 -0.29248029099E+01  0.15070541796E+02  0.65470817849E+00  0.15365687258E+02  0.00000000000E+00 0. -1.
         13    1    5    5    0    0  0.78372216227E+02 -0.39864453314E+02  0.32054559038E+03  0.33238660386E+03  0.00000000000E+00 0. -1.
        -14    1    5    5    0    0  0.13699515511E+02  0.20822148577E+02  0.26259183066E+03  0.26377207609E+03  0.00000000000E+00 0.  1.
          5    1    4    4  501    0 -0.41296331056E+02 -0.42958118380E+02  0.39161034189E+02  0.71427206946E+02  0.41800000000E+01 0. -1.
         -5    1    4    4    0  501 -0.95157936677E+02  0.60313346821E+02 -0.23475026900E+02  0.11515763980E+03  0.41800000000E+01 0. -1.
</event>
<event>
11    1  0.7577197E-009  0.2154443E+03  0.7561462E-02  0.1044109E+00
         22   -1    0    0    0    0  0.00000000000E+00  0.00000000000E+00  0.50716743365E+03  0.50716743365E+03  0.00000000000E+00 0.  1.
         22   -1    0    0    0    0 -0.00000000000E+00 -0.00000000000E+00 -0.39047032789E+03  0.39047032789E+03  0.00000000000E+00 0. -1.
        -24    2    1    2    0    0 -0.74158682423E+02 -0.48721922382E+02 -0.20693494632E+03  0.23979851681E+03  0.82510125173E+02 0.  0.
         25    2    1    2    0    0  0.21222086465E+03  0.13556345500E+03 -0.65795349167E+01  0.28125639149E+03  0.12508685683E+03 0.  0.
         24    2    1    2    0    0 -0.13806218222E+03 -0.86841532614E+02  0.33021158700E+03  0.37658285324E+03  0.78564210780E+02 0.  0.
        -13    1    5    5    0    0 -0.60892634236E+02 -0.45897936140E+02  0.23640523773E+03  0.24839881214E+03  0.00000000000E+00 0.  1.
         14    1    5    5    0    0 -0.77169547986E+02 -0.40943596474E+02  0.93806349274E+02  0.12818404110E+03  0.00000000000E+00 0. -1.
         13    1    3    3    0    0 -0.49712086971E+02 -0.38285459416E+02 -0.20355140616E+03  0.21300291769E+03  0.00000000000E+00 0. -1.
        -14    1    3    3    0    0 -0.24446595453E+02 -0.10436462966E+02 -0.33835401646E+01  0.26795599126E+02  0.00000000000E+00 0.  1.
          5    1    4    4  501    0  0.82837365265E+02  0.11748090217E+03  0.26957547252E+02  0.14631463772E+03  0.41800000000E+01 0.  1.
         -5    1    4    4    0  501  0.12938349938E+03  0.18082552827E+02 -0.33537082169E+02  0.13494175376E+03  0.41800000000E+01 0.  1.
</event>
<event>
11    1  0.7577197E-009  0.1526454E+03  0.7561462E-02  0.1094206E+00
         22   -1    0    0    0    0  0.00000000000E+00  0.00000000000E+00  0.11064066190E+04  0.11064066190E+04  0.00000000000E+00 0. -1.
         22   -1    0    0    0    0 -0.00000000000E+00 -0.00000000000E+00 -0.53659199914E+03  0.53659199914E+03  0.00000000000E+00 0. -1.
         24    2    1    2    0    0  0.67630226434E+02 -0.32592255679E+02 -0.35698999752E+03  0.37403439363E+03  0.82606093188E+02 0.  0.
         25    2    1    2    0    0 -0.14611770896E+03  0.67811253376E+02 -0.10573845103E+03  0.22972713856E+03  0.12508072277E+03 0.  0.
        -24    2    1    2    0    0  0.78487482523E+02 -0.35218997698E+02  0.10325430684E+04  0.10392370860E+04  0.80423068814E+02 0.  0.
        -13    1    3    3    0    0  0.19978940564E+02 -0.71804739457E+01 -0.11105330643E+02  0.23959249589E+02  0.00000000000E+00 0.  1.
         14    1    3    3    0    0  0.47651285870E+02 -0.25411781733E+02 -0.34588466687E+03  0.35007514404E+03  0.00000000000E+00 0. -1.
         11    1    5    5    0    0  0.88695914425E+02 -0.18452381932E+02  0.66146488353E+03  0.66764005855E+03  0.00000000000E+00 0. -1.
        -12    1    5    5    0    0 -0.10208431902E+02 -0.16766615766E+02  0.37107818489E+03  0.37159702742E+03  0.00000000000E+00 0.  1.
          5    1    4    4  501    0 -0.99807908475E+02  0.75627351224E+02 -0.12664431442E+03  0.17814985159E+03  0.41800000000E+01 0.  1.
         -5    1    4    4    0  501 -0.46309800482E+02 -0.78160978473E+01  0.20905863394E+02  0.51577286963E+02  0.41800000000E+01 0.  1.
</event>
<event>
11    1  0.7577197E-009  0.1453338E+03  0.7561462E-02  0.1101744E+00
         22   -1    0    0    0    0  0.00000000000E+00  0.00000000000E+00  0.41306380362E+03  0.41306380362E+03  0.00000000000E+00 0. -1.
         22   -1    0    0    0    0 -0.00000000000E+00 -0.00000000000E+00 -0.37872624053E+03  0.37872624053E+03  0.00000000000E+00 0. -1.
        -24    2    1    2    0    0 -0.41509522111E+02  0.16608169755E+01 -0.33100260737E+03  0.34291514548E+03  0.79386851435E+02 0.  0.
         25    2    1    2    0    0  0.86437459019E+01 -0.72885432595E+02  0.17051876875E+03  0.22384787932E+03  0.12507686418E+03 0.  0.
         24    2    1    2    0    0  0.32865776209E+02  0.71224615619E+02  0.19482140171E+03  0.22502701935E+03  0.80800221285E+02 0.  0.
        -11    1    5    5    0    0  0.22394532821E+02 -0.44417594230E+01  0.97774298802E+01  0.24836313376E+02  0.00000000000E+00 0.  1.
         12    1    5    5    0    0  0.10471243388E+02  0.75666375042E+02  0.18504397183E+03  0.20019070598E+03  0.00000000000E+00 0. -1.
         13    1    3    3    0    0  0.42467177225E+01  0.17435662787E+02 -0.23222601478E+03  0.23291835241E+03  0.00000000000E+00 0. -1.
        -14    1    3    3    0    0 -0.45756239833E+02 -0.15774845812E+02 -0.98776592587E+02  0.10999679308E+03  0.00000000000E+00 0.  1.
          5    1    4    4  501    0 -0.66998517019E+01  0.29705810060E+02  0.81458661119E+02  0.87064970198E+02  0.41800000000E+01 0. -1.
         -5    1    4    4    0  501  0.15343597604E+02 -0.10259124266E+03  0.89060107628E+02  0.13678290912E+03  0.41800000000E+01 0. -1.
</event>
<event>
11    1  0.7577197E-009  0.2095482E+03  0.7561462E-02  0.1047970E+00
         22   -1    0    0    0    0  0.00000000000E+00  0.00000000000E+00  0.22587092233E+03  0.22587092233E+03  0.00000000000E+00 0.  1.
         22   -1    0    0    0    0 -0.00000000000E+00 -0.00000000000E+00 -0.99777181985E+03  0.99777181985E+03  0.00000000000E+00 0. -1.
        -24    2    1    2    0    0 -0.14428607104E+03  0.45931669943E+02 -0.61905371337E+03  0.64242561174E+03  0.80962818496E+02 0.  0.
         25    2    1    2    0    0  0.26341728762E+03 -0.26641324876E+02 -0.26707861500E+03  0.39632946386E+03  0.12509048613E+03 0.  0.
         24    2    1    2    0    0 -0.11913121658E+03 -0.19290345066E+02  0.11423143086E+03  0.18488766659E+03  0.81057172934E+02 0.  0.
        -13    1    5    5    0    0 -0.69424983922E+02  0.25859586383E+02  0.37877556666E+02  0.83206104941E+02  0.00000000000E+00 0.  1.
         14    1    5    5    0    0 -0.49706232658E+02 -0.45149931450E+02  0.76353874190E+02  0.10168156165E+03  0.00000000000E+00 0. -1.
         11    1    3    3    0    0 -0.55351254363E+02  0.55100120600E+02 -0.36009771413E+03  0.36847001014E+03  0.00000000000E+00 0. -1.
        -12    1    3    3    0    0 -0.88934816680E+02 -0.91684506578E+01 -0.25895599924E+03  0.27395560160E+03  0.00000000000E+00 0.  1.
          5    1    4    4  501    0  0.86752700842E+02  0.48791567785E+02 -0.10751196995E+03  0.14657061190E+03  0.41800000000E+01 0.  1.
         -5    1    4    4    0  501  0.17666458678E+03 -0.75432892662E+02 -0.15956664506E+03  0.24975885196E+03  0.41800000000E+01 0.  1.
</event>
<event>
11    1  0.7577197E-009  0.1277513E+03  0.7561462E-02  0.1122063E+00
         22   -1    0    0    0    0  0.00000000000E+00  0.00000000000E+00  0.72669874070E+03  0.72669874070E+03  0.00000000000E+00 0.  1.
         22   -1    0    0    0    0 -0.00000000000E+00 -0.00000000000E+00 -0.13814662222E+04  0.13814662222E+04  0.00000000000E+00 0. -1.
        -24    2    1    2    0    0 -0.24234924682E+02  0.20399610587E+02 -0.91747918896E+03  0.92167510915E+03  0.81935761231E+02 0.  0.
         25    2    1    2    0    0  0.25948870355E+02 -0.46105120999E+02 -0.44823430591E+03  0.46835973561E+03  0.12509125822E+03 0.  0.
         24    2    1    2    0    0 -0.17139456727E+01  0.25705510412E+02  0.71094601342E+03  0.71813011810E+03  0.97994498050E+02 0.  0.
        -13    1    5    5    0    0 -0.42679023594E+02  0.38038603943E+02  0.46357869845E+03  0.46709061658E+03  0.00000000000E+00 0.  1.
         14    1    5    5    0    0  0.40965077922E+02 -0.12333093531E+02  0.24736731497E+03  0.25103950152E+03  0.00000000000E+00 0. -1.
         13    1    3    3    0    0 -0.24409861754E+02  0.39777186902E+02 -0.85469830190E+03  0.85597152594E+03  0.00000000000E+00 0. -1.
        -14    1    3    3    0    0  0.17493707229E+00 -0.19377576315E+02 -0.62780887059E+02  0.65703583211E+02  0.00000000000E+00 0.  1.
          5    1    4    4  501    0  0.45767219361E+02 -0.75441244045E+02 -0.39159783249E+03  0.40143785880E+03  0.41800000000E+01 0.  1.
         -5    1    4    4    0  501 -0.19818349007E+02  0.29336123046E+02 -0.56636473426E+02  0.66921876803E+02  0.41800000000E+01 0.  1.
</event>
<event>
11    1  0.7577197E-009  0.1381367E+03  0.7561462E-02  0.1109657E+00
         22   -1    0    0    0    0  0.00000000000E+00  0.00000000000E+00  0.13694751072E+04  0.13694751072E+04  0.00000000000E+00 0.  1.
         22   -1    0    0    0    0 -0.00000000000E+00 -0.00000000000E+00 -0.81731000112E+03  0.81731000112E+03  0.00000000000E+00 0.  1.
        -24    2    1    2    0    0 -0.90774311185E+01  0.57235171357E+02 -0.78304234690E+03  0.78944041047E+03  0.81869286309E+02 0.  0.
         25    2    1    2    0    0 -0.90209067015E+01 -0.11088022228E+03  0.21331343470E+03  0.27115606152E+03  0.12508871981E+03 0.  0.
         24    2    1    2    0    0  0.18098337820E+02  0.53645050922E+02  0.11218940183E+04  0.11261886363E+04  0.80307627501E+02 0.  0.
        -13    1    5    5    0    0  0.26776945155E+02  0.72481159659E+02  0.91566408919E+03  0.91891852061E+03  0.00000000000E+00 0.  1.
         14    1    5    5    0    0 -0.86786073352E+01 -0.18836108737E+02  0.20622992910E+03  0.20727011573E+03  0.00000000000E+00 0. -1.
         11    1    3    3    0    0  0.26641182989E+02  0.30988312882E+02 -0.17182001444E+03  0.17661298234E+03  0.00000000000E+00 0. -1.
        -12    1    3    3    0    0 -0.35718614107E+02  0.26246858476E+02 -0.61122233246E+03  0.61282742813E+03  0.00000000000E+00 0.  1.
          5    1    4    4  501    0 -0.43298888436E+02 -0.12161667797E+03  0.18287387627E+03  0.22388777797E+03  0.41800000000E+01 0.  1.
         -5    1    4    4    0  501  0.34277981735E+02  0.10736455691E+02  0.30439558425E+02  0.47268283549E+02  0.41800000000E+01 0.  1.
</event>
<event>
11    1  0.7577197E-009  0.1805852E+03  0.7561462E-02  0.1069170E+00
         22   -1    0    0    0    0  0.00000000000E+00  0.00000000000E+00  0.25535697119E+03  0.25535697119E+03  0.00000000000E+00 0.  1.
         22   -1    0    0    0    0 -0.00000000000E+00 -0.00000000000E+00 -0.23270260296E+04  0.23270260296E+04  0.00000000000E+00 0. -1.
         24    2    1    2    0    0  0.15814519976E+02 -0.27416399727E+02 -0.20329804072E+04  0.20350976651E+04  0.87243406895E+02 0.  0.
         25    2    1    2    0    0 -0.20851516146E+02  0.15503351326E+03 -0.22901415952E+03  0.30424537499E+03  0.12509031531E+03 0.  0.
        -24    2    1    2    0    0  0.50369961702E+01 -0.12761711353E+03  0.19032550833E+03  0.24303996078E+03  0.80827745338E+02 0.  0.
        -13    1    3    3    0    0  0.18632943646E+02  0.12772395272E+02 -0.15047870829E+03  0.15216491816E+03  0.00000000000E+00 0.  1.
         14    1    3    3    0    0 -0.28184236701E+01 -0.40188794999E+02 -0.18825016990E+04  0.18829327469E+04  0.00000000000E+00 0. -1.
         11    1    5    5    0    0  0.12972683236E+02  0.60877022378E+01  0.68674439415E+01  0.15890639231E+02  0.00000000000E+00 0. -1.
        -12    1    5    5    0    0 -0.79356870663E+01 -0.13370481577E+03  0.18345806439E+03  0.22714932154E+03  0.00000000000E+00 0.  1.
          5    1    4    4  501    0 -0.11792470091E+02  0.16033533659E+03 -0.13620329011E+03  0.21074935622E+03  0.41800000000E+01 0.  1.
         -5    1    4    4    0  501 -0.90590460555E+01 -0.53018233301E+01 -0.92810869407E+02  0.93496018772E+02  0.41800000000E+01 0.  1.
</event>
<event>
11    1  0.7577197E-009  0.1813898E+03  0.7561462E-02  0.1068524E+00
         22   -1    0    0    0    0  0.00000000000E+00  0.00000000000E+00  0.23729129282E+03  0.23729129282E+03  0.00000000000E+00 0. -1.
         22   -1    0    0    0    0 -0.00000000000E+00 -0.00000000000E+00 -0.20595928258E+04  0.20595928258E+04  0.00000000000E+00 0. -1.
        -24    2    1    2    0    0  0.34013439679E+02 -0.12660416062E+03 -0.19424426567E+04  0.19485566722E+04  0.81265629787E+02 0.  0.
         25    2    1    2    0    0 -0.42055014358E+02  0.13231149115E+03 -0.18868154248E+02  0.18782441448E+03  0.12508816293E+03 0.  0.
         24    2    1    2    0    0  0.80415746790E+01 -0.57073305295E+01  0.13900927796E+03  0.16050303196E+03  0.79626649824E+02 0.  0.
        -13    1    5    5    0    0  0.22654409582E+02 -0.33956511767E+02  0.42675436710E+02  0.59054719230E+02  0.00000000000E+00 0.  1.
         14    1    5    5    0    0 -0.14612834903E+02  0.28249181237E+02  0.96333841255E+02  0.10144831273E+03  0.00000000000E+00 0. -1.
         13    1    3    3    0    0  0.30837635855E+02 -0.13538944672E+03 -0.16082131988E+04  0.16141966902E+04  0.00000000000E+00 0. -1.
        -14    1    3    3    0    0  0.31758038248E+01  0.87852860946E+01 -0.33422945793E+03  0.33435998195E+03  0.00000000000E+00 0.  1.
          5    1    4    4  501    0  0.22815434233E+01  0.54201961675E+02  0.50521808480E+02  0.74249468833E+02  0.41800000000E+01 0.  1.
         -5    1    4    4    0  501 -0.44336557782E+02  0.78109529478E+02 -0.69389962729E+02  0.11357494565E+03  0.41800000000E+01 0.  1.
</event>
<event>
11    1  0.7577197E-009  0.1508335E+03  0.7561462E-02  0.1096030E+00
         22   -1    0    0    0    0  0.00000000000E+00  0.00000000000E+00  0.17754575981E+04  0.17754575981E+04  0.00000000000E+00 0. -1.
         22   -1    0    0    0    0 -0.00000000000E+00 -0.00000000000E+00 -0.15112964428E+03  0.15112964428E+03  0.00000000000E+00 0. -1.
         24    2    1    2    0    0  0.24671646515E+02 -0.32200424564E+02 -0.11602473381E+03  0.14673924034E+03  0.80156773361E+02 0.  0.
         25    2    1    2    0    0  0.57134091068E+02 -0.13047094143E+01  0.25422869488E+03  0.28904216170E+03  0.12508850992E+03 0.  0.
        -24    2    1    2    0    0 -0.81805737583E+02  0.33505133979E+02  0.14861239927E+04  0.14908058403E+04  0.78248060899E+02 0.  0.
        -13    1    3    3    0    0 -0.95285322708E+01 -0.43886099480E+02 -0.31624172666E+02  0.54926049845E+02  0.00000000000E+00 0.  1.
         14    1    3    3    0    0  0.34200178786E+02  0.11685674915E+02 -0.84400561146E+02  0.91813190495E+02  0.00000000000E+00 0. -1.
         11    1    5    5    0    0 -0.15590674304E+02 -0.24977407928E+02  0.32955458010E+03  0.33086728653E+03  0.00000000000E+00 0. -1.
        -12    1    5    5    0    0 -0.66215063279E+02  0.58482541907E+02  0.11565694126E+04  0.11599385538E+04  0.00000000000E+00 0.  1.
          5    1    4    4  501    0 -0.39886411391E+02 -0.36372496393E+01  0.69165947795E+02  0.80034718297E+02  0.41800000000E+01 0. -1.
         -5    1    4    4    0  501  0.97020502459E+02  0.23325402251E+01  0.18506274708E+03  0.20900744341E+03  0.41800000000E+01 0. -1.
</event>
<event>
11    1  0.7577197E-009  0.1527440E+03  0.7561462E-02  0.1094108E+00
         22   -1    0    0    0    0  0.00000000000E+00  0.00000000000E+00  0.12906284484E+04  0.12906284484E+04  0.00000000000E+00 0.  1.
         22   -1    0    0    0    0 -0.00000000000E+00 -0.00000000000E+00 -0.80719112370E+03  0.80719112370E+03  0.00000000000E+00 0.  1.
        -24    2    1    2    0    0  0.46814329112E+02 -0.73933995946E+02 -0.78622828911E+03  0.79884395715E+03  0.11108072789E+03 0.  0.
         25    2    1    2    0    0 -0.68745318806E+02  0.74412820234E+02  0.51077030392E+03  0.53553433093E+03  0.12509008581E+03 0.  0.
         24    2    1    2    0    0  0.21930989694E+02 -0.47882428793E+00  0.75889530986E+03  0.76344128399E+03  0.80245281424E+02 0.  0.
        -13    1    5    5    0    0 -0.19196355512E+02 -0.95068208047E+01  0.54610562195E+03  0.54652559870E+03  0.00000000000E+00 0.  1.
         14    1    5    5    0    0  0.41127345206E+02  0.90279965168E+01  0.21278968791E+03  0.21691568529E+03  0.00000000000E+00 0. -1.
         13    1    3    3    0    0  0.16280093836E+02  0.18569640965E+02 -0.45787096553E+02  0.52022410859E+02  0.00000000000E+00 0. -1.
        -14    1    3    3    0    0  0.30534235276E+02 -0.92503636911E+02 -0.74044119256E+03  0.74682154629E+03  0.00000000000E+00 0.  1.
          5    1    4    4  501    0 -0.47898703348E+01 -0.26644533425E+02  0.21084739064E+03  0.21261930429E+03  0.41800000000E+01 0.  1.
         -5    1    4    4    0  501 -0.63955448471E+02  0.10105735366E+03  0.29992291328E+03  0.32291502664E+03  0.41800000000E+01 0.  1.
</event>
<event>
11    1  0.7577197E-009  0.3107633E+03  0.7561462E-02  0.9957361E-01
         22   -1    0    0    0    0  0.00000000000E+00  0.00000000000E+00  0.60931390707E+03  0.60931390707E+03  0.00000000000E+00 0.  1.
         22   -1    0    0    0    0 -0.00000000000E+00 -0.00000000000E+00 -0.74722100227E+03  0.74722100227E+03  0.00000000000E+00 0.  1.
         24    2    1    2    0    0 -0.17114084072E+03  0.17470509784E+03 -0.50681866514E+03  0.56787680716E+03  0.76209252688E+02 0.  0.
         25    2    1    2    0    0  0.28456927422E+03  0.10986411414E+03  0.40334223825E+02  0.33214602875E+03  0.12507733367E+03 0.  0.
        -24    2    1    2    0    0 -0.11342843349E+03 -0.28456921198E+03  0.32857734612E+03  0.45651207344E+03  0.81206864735E+02 0.  0.
        -13    1    3    3    0    0 -0.90307060695E+02  0.13186510927E+03 -0.26671794678E+03  0.31093767123E+03  0.00000000000E+00 0.  1.
         14    1    3    3    0    0 -0.80833780027E+02  0.42839988574E+02 -0.24010071836E+03  0.25693913593E+03  0.00000000000E+00 0. -1.
         13    1    5    5    0    0 -0.93805947062E+02 -0.12909366045E+03  0.15130390913E+03  0.21990361932E+03  0.00000000000E+00 0. -1.
        -14    1    5    5    0    0 -0.19622486431E+02 -0.15547555153E+03  0.17727343699E+03  0.23660845412E+03  0.00000000000E+00 0.  1.
          5    1    4    4  501    0  0.18278020209E+03  0.12494075670E+03 -0.28221850432E+00  0.22144152052E+03  0.41800000000E+01 0.  1.
         -5    1    4    4    0  501  0.10178907212E+03 -0.15076642562E+02  0.40616442329E+02  0.11070450823E+03  0.41800000000E+01 0.  1.
</event>
<event>
11    1  0.1091693E-008  0.2372386E+03  0.7561462E-02  0.1030926E+00
         22   -1    0    0    0    0  0.00000000000E+00  0.00000000000E+00  0.79484129149E+03  0.79484129149E+03  0.00000000000E+00 0. -1.
         22   -1    0    0    0    0 -0.00000000000E+00 -0.00000000000E+00 -0.65963192795E+03  0.65963192795E+03  0.00000000000E+00 0. -1.
        -24    2    1    2    0    0  0.90797945847E+02  0.41859586172E+01 -0.41358800642E+03  0.43098152194E+03  0.80176330572E+02 0.  0.
         25    2    1    2    0    0 -0.24113598204E+03 -0.13076010536E+03 -0.11795768853E+03  0.32373920605E+03  0.12509312636E+03 0.  0.
         24    2    1    2    0    0  0.15033803619E+03  0.12657414674E+03  0.66675505849E+03  0.69975249145E+03  0.80428238315E+02 0.  0.
        -13    1    5    5    0    0  0.18226467827E+02  0.26047105172E+02  0.23571526946E+03  0.23784941470E+03  0.00000000000E+00 0.  1.
         14    1    5    5    0    0  0.13211156836E+03  0.10052704157E+03  0.43103978903E+03  0.46190307675E+03  0.00000000000E+00 0. -1.
         11    1    3    3    0    0  0.80118951922E+02  0.12888818406E+00 -0.41167493132E+03  0.41939875077E+03  0.00000000000E+00 0. -1.
        -12    1    3    3    0    0  0.10678993925E+02  0.40570704332E+01 -0.19130750980E+01  0.11582771174E+02  0.00000000000E+00 0.  1.
          5    1    4    4  501    0 -0.13560374114E+03 -0.29744950978E+01 -0.52514925396E+02  0.14550777306E+03  0.41800000000E+01 0. -1.
         -5    1    4    4    0  501 -0.10553224090E+03 -0.12778561026E+03 -0.65442763131E+02  0.17823143299E+03  0.41800000000E+01 0. -1.
</event>
<event>
11    1  0.7577197E-009  0.1808857E+03  0.7561462E-02  0.1068929E+00
         22   -1    0    0    0    0  0.00000000000E+00  0.00000000000E+00  0.31623159702E+03  0.31623159702E+03  0.00000000000E+00 0.  1.
         22   -1    0    0    0    0 -0.00000000000E+00 -0.00000000000E+00 -0.11582420546E+04  0.11582420546E+04  0.00000000000E+00 0.  1.
        -24    2    1    2    0    0 -0.53665269199E+02 -0.18379091142E+02 -0.10547934572E+04  0.10594010581E+04  0.80768882922E+02 0.  0.
         25    2    1    2    0    0  0.16646169637E+02  0.14198961118E+03  0.52243216280E+02  0.19701478099E+03  0.12508927067E+03 0.  0.
         24    2    1    2    0    0  0.37019099562E+02 -0.12361052004E+03  0.16053978342E+03  0.21805781246E+03  0.71597577606E+02 0.  0.
        -13    1    5    5    0    0 -0.23459772950E+01 -0.85149999617E+02  0.62587021833E+02  0.10570317567E+03  0.00000000000E+00 0.  1.
         14    1    5    5    0    0  0.39365076857E+02 -0.38460520421E+02  0.97952761583E+02  0.11235463679E+03  0.00000000000E+00 0. -1.
         13    1    3    3    0    0 -0.19873212243E+02 -0.47308883007E+02 -0.43564608298E+03  0.43865770778E+03  0.00000000000E+00 0. -1.
        -14    1    3    3    0    0 -0.33792056956E+02  0.28929791865E+02 -0.61914737425E+03  0.62074335035E+03  0.00000000000E+00 0.  1.
          5    1    4    4  501    0  0.14028715205E+02  0.16535182057E+03  0.43687539323E+02  0.17165110809E+03  0.41800000000E+01 0. -1.
         -5    1    4    4    0  501  0.26174544323E+01 -0.23362209387E+02  0.85556769563E+01  0.25363672907E+02  0.41800000000E+01 0. -1.
</event>
<event>
11    1  0.7577197E-009  0.1721611E+03  0.7561462E-02  0.1076166E+00
         22   -1    0    0    0    0  0.00000000000E+00  0.00000000000E+00  0.10759256838E+04  0.10759256838E+04  0.00000000000E+00 0. -1.
         22   -1    0    0    0    0 -0.00000000000E+00 -0.00000000000E+00 -0.32622926548E+03  0.32622926548E+03  0.00000000000E+00 0. -1.
        -24    2    1    2    0    0 -0.68706598020E+01 -0.74551082011E+02 -0.27864771717E+03  0.29955520726E+03  0.80521438879E+02 0.  0.
         25    2    1    2    0    0  0.11577034869E+03  0.10490728938E+03  0.29550653125E+03  0.35690367997E+03  0.12509122177E+03 0.  0.
         24    2    1    2    0    0 -0.10889968888E+03 -0.30356207366E+02  0.73283760424E+03  0.74569606204E+03  0.78936817696E+02 0.  0.
        -11    1    5    5    0    0  0.40020990055E+01 -0.81116560425E+01  0.89689730309E+01  0.12738062546E+02  0.00000000000E+00 0.  1.
         12    1    5    5    0    0 -0.11290178789E+03 -0.22244551323E+02  0.72386863121E+03  0.73295799949E+03  0.00000000000E+00 0. -1.
         13    1    3    3    0    0  0.11645268971E+02 -0.33589000380E+02 -0.23224126076E+03  0.23494645440E+03  0.00000000000E+00 0. -1.
        -14    1    3    3    0    0 -0.18515928773E+02 -0.40962081631E+02 -0.46406456410E+02  0.64608752862E+02  0.00000000000E+00 0.  1.
          5    1    4    4  501    0  0.29159845752E+01 -0.25542129468E+02  0.25324921990E+02  0.36328052764E+02  0.41800000000E+01 0.  1.
         -5    1    4    4    0  501  0.11285436411E+03  0.13044941884E+03  0.27018160926E+03  0.32057562720E+03  0.41800000000E+01 0.  1.
</event>
<event>
11    1  0.7577197E-009  0.1487859E+03  0.7561462E-02  0.1098126E+00
         22   -1    0    0    0    0  0.00000000000E+00  0.00000000000E+00  0.10248080717E+04  0.10248080717E+04  0.00000000000E+00 0.  1.
         22   -1    0    0    0    0 -0.00000000000E+00 -0.00000000000E+00 -0.56707581058E+03  0.56707581058E+03  0.00000000000E+00 0. -1.
         24    2    1    2    0    0 -0.65008608607E+02  0.24941727123E+02 -0.50090841018E+03  0.51166673742E+03  0.77752207973E+02 0.  0.
         25    2    1    2    0    0  0.14167384590E+03 -0.23238825301E+02  0.10143508360E+03  0.21575499673E+03  0.12509844450E+03 0.  0.
        -24    2    1    2    0    0 -0.76665237290E+02 -0.17029018227E+01  0.85720558768E+03  0.86446214810E+03  0.81319908208E+02 0.  0.
        -13    1    3    3    0    0  0.10746301681E+02  0.78122533883E+01 -0.21459859482E+03  0.21500946770E+03  0.00000000000E+00 0.  1.
         14    1    3    3    0    0 -0.75754910288E+02  0.17129473735E+02 -0.28630981537E+03  0.29665726972E+03  0.00000000000E+00 0. -1.
         13    1    5    5    0    0  0.10417722682E+02  0.30293742289E+01  0.20233552514E+02  0.22958717330E+02  0.00000000000E+00 0. -1.
        -14    1    5    5    0    0 -0.87082959972E+02 -0.47322760516E+01  0.83697203517E+03  0.84150343077E+03  0.00000000000E+00 0.  1.
          5    1    4    4  501    0  0.11655292163E+03 -0.11589585744E+01  0.85534351050E+01  0.11694682714E+03  0.41800000000E+01 0.  1.
         -5    1    4    4    0  501  0.25120924265E+02 -0.22079866726E+02  0.92881648495E+02  0.98808169590E+02  0.41800000000E+01 0.  1.
</event>
<event>
11    1  0.7577197E-009  0.1543735E+03  0.7561462E-02  0.1092492E+00
         22   -1    0    0    0    0  0.00000000000E+00  0.00000000000E+00  0.18855829002E+03  0.18855829002E+03  0.00000000000E+00 0.  1.
         22   -1    0    0    0    0 -0.00000000000E+00 -0.00000000000E+00 -0.26002253342E+03  0.26002253342E+03  0.00000000000E+00 0. -1.
        -24    2    1    2    0    0 -0.92190135261E+02  0.18089230034E+02 -0.92532685211E+02  0.15436054378E+03  0.80241126377E+02 0.  0.
         25    2    1    2    0    0 -0.14023966012E+02 -0.64880674394E+02 -0.30231677988E+02  0.14480358293E+03  0.12509176529E+03 0.  0.
         24    2    1    2    0    0  0.10621410127E+03  0.46791444360E+02  0.51300119804E+02  0.14941669673E+03  0.78884551053E+02 0.  0.
        -13    1    5    5    0    0  0.89919155789E+02  0.33384540230E+02  0.71941615912E+02  0.11989819934E+03  0.00000000000E+00 0.  1.
         14    1    5    5    0    0  0.16294945483E+02  0.13406904129E+02 -0.20641496108E+02  0.29518497391E+02  0.00000000000E+00 0. -1.
         11    1    3    3    0    0 -0.35769766993E+02 -0.14366805622E+02 -0.78966027866E+02  0.87872150830E+02  0.00000000000E+00 0. -1.
        -12    1    3    3    0    0 -0.56420368268E+02  0.32456035656E+02 -0.13566657344E+02  0.66488392954E+02  0.00000000000E+00 0.  1.
          5    1    4    4  501    0 -0.60741865099E+02 -0.47517495814E+02  0.13453849393E+02  0.78396205569E+02  0.41800000000E+01 0. -1.
         -5    1    4    4    0  501  0.46717899088E+02 -0.17363178580E+02 -0.43685527381E+02  0.66407377362E+02  0.41800000000E+01 0. -1.
</event>
<event>
11    1  0.7577197E-009  0.1491430E+03  0.7561462E-02  0.1097758E+00
         22   -1    0    0    0    0  0.00000000000E+00  0.00000000000E+00  0.26701342072E+04  0.26701342072E+04  0.00000000000E+00 0.  1.
         22   -1    0    0    0    0 -0.00000000000E+00 -0.00000000000E+00 -0.71473416134E+03  0.71473416134E+03  0.00000000000E+00 0. -1.
        -24    2    1    2    0    0  0.13885434216E+02 -0.23647326314E+02 -0.61745276251E+03  0.62372707516E+03  0.83878179741E+02 0.  0.
         25    2    1    2    0    0  0.65812015400E+02  0.39878819097E+02 -0.34847655643E+02  0.15094187921E+03  0.12509016833E+03 0.  0.
         24    2    1    2    0    0 -0.79697449616E+02 -0.16231492784E+02  0.26077004640E+04  0.26101994141E+04  0.80150650694E+02 0.  0.
        -11    1    5    5    0    0 -0.45847849972E+02 -0.19502962420E+00  0.22639677641E+04  0.22644319597E+04  0.00000000000E+00 0.  1.
         12    1    5    5    0    0 -0.33849599644E+02 -0.16036463159E+02  0.34373269992E+03  0.34576745443E+03  0.00000000000E+00 0. -1.
         11    1    3    3    0    0 -0.83356129320E+01  0.74095845276E+00 -0.53289140833E+03  0.53295711322E+03  0.00000000000E+00 0. -1.
        -12    1    3    3    0    0  0.22221047148E+02 -0.24388284767E+02 -0.84561354181E+02  0.90769961943E+02  0.00000000000E+00 0.  1.
          5    1    4    4  501    0  0.54349310770E+02  0.50076729572E+02 -0.76444938724E+02  0.10640877540E+03  0.41800000000E+01 0.  1.
         -5    1    4    4    0  501  0.11462704630E+02 -0.10197910474E+02  0.41597283081E+02  0.44533103813E+02  0.41800000000E+01 0.  1.
</event>
<event>
11    1  0.7577197E-009  0.3260742E+03  0.7561462E-02  0.9897225E-01
         22   -1    0    0    0    0  0.00000000000E+00  0.00000000000E+00  0.61406564459E+03  0.61406564459E+03  0.00000000000E+00 0. -1.
         22   -1    0    0    0    0 -0.00000000000E+00 -0.00000000000E+00 -0.42136233539E+03  0.42136233539E+03  0.00000000000E+00 0.  1.
        -24    2    1    2    0    0 -0.57540680071E+02 -0.54667076290E+02 -0.65171481796E+02  0.13067782063E+03  0.80808116378E+02 0.  0.
         25    2    1    2    0    0  0.34763410788E+03  0.81243772671E+02 -0.14191526683E+03  0.40402734392E+03  0.12509247827E+03 0.  0.
         24    2    1    2    0    0 -0.29009342780E+03 -0.26576696381E+02  0.39979005782E+03  0.50072281543E+03  0.77657774352E+02 0.  0.
        -11    1    5    5    0    0 -0.20481810905E+03 -0.51140506189E+02  0.30437031738E+03  0.37041476654E+03  0.00000000000E+00 0.  1.
         12    1    5    5    0    0 -0.85275318752E+02  0.24563809808E+02  0.95419740443E+02  0.13030804889E+03  0.00000000000E+00 0. -1.
         11    1    3    3    0    0 -0.32554969949E+02 -0.61036349702E+02 -0.75949893290E+02  0.10273095125E+03  0.00000000000E+00 0. -1.
        -12    1    3    3    0    0 -0.24985710122E+02  0.63692734117E+01  0.10778411494E+02  0.27946869385E+02  0.00000000000E+00 0.  1.
          5    1    4    4  501    0  0.24267951356E+03  0.55125339729E+01 -0.57640338024E+02  0.24952678273E+03  0.41800000000E+01 0.  1.
         -5    1    4    4    0  501  0.10495459432E+03  0.75731238698E+02 -0.84274928801E+02  0.15450056119E+03  0.41800000000E+01 0.  1.
</event>
<event>
11    1  0.7577197E-009  0.1413203E+03  0.7561462E-02  0.1106093E+00
         22   -1    0    0    0    0  0.00000000000E+00  0.00000000000E+00  0.26882202494E+03  0.26882202494E+03  0.00000000000E+00 0. -1.
         22   -1    0    0    0    0 -0.00000000000E+00 -0.00000000000E+00 -0.40220035769E+03  0.40220035769E+03  0.00000000000E+00 0. -1.
        -24    2    1    2    0    0  0.78369825485E+01  0.62302558121E+02 -0.30286618244E+03  0.31967588709E+03  0.80757174794E+02 0.  0.
         25    2    1    2    0    0 -0.26291542016E+02 -0.90031858409E+02 -0.50886991746E+01  0.15641553737E+03  0.12507175845E+03 0.  0.
         24    2    1    2    0    0  0.18454559467E+02  0.27729300288E+02  0.17457654887E+03  0.19493095816E+03  0.80072605655E+02 0.  0.
        -13    1    5    5    0    0  0.42561015958E+02 -0.32475612981E+01  0.58641054406E+02  0.72531096749E+02  0.00000000000E+00 0.  1.
         14    1    5    5    0    0 -0.24106456491E+02  0.30976861586E+02  0.11593549446E+03  0.12239986142E+03  0.00000000000E+00 0. -1.
         13    1    3    3    0    0 -0.47895389207E+00  0.59988211658E+02 -0.30495106470E+03  0.31079569945E+03  0.00000000000E+00 0. -1.
        -14    1    3    3    0    0  0.83159364406E+01  0.23143464632E+01  0.20848822672E+01  0.88801876390E+01  0.00000000000E+00 0.  1.
          5    1    4    4  501    0 -0.61692917584E+02 -0.39534448048E+02 -0.41862067711E+02  0.84491974623E+02  0.41800000000E+01 0. -1.
         -5    1    4    4    0  501  0.35401375569E+02 -0.50497410361E+02  0.36773368537E+02  0.71923562751E+02  0.41800000000E+01 0. -1.
</event>
<event>
11    1  0.7577197E-009  0.2784091E+03  0.7561462E-02  0.1009767E+00
         22   -1    0    0    0    0  0.00000000000E+00  0.00000000000E+00  0.43107041791E+03  0.43107041791E+03  0.00000000000E+00 0. -1.
         22   -1    0    0    0    0 -0.00000000000E+00 -0.00000000000E+00 -0.76118185414E+03  0.76118185414E+03  0.00000000000E+00 0.  1.
         24    2    1    2    0    0  0.46571504681E+01  0.35734320456E+02 -0.47442482036E+03  0.48248504478E+03  0.80089185013E+02 0.  0.
         25    2    1    2    0    0  0.15783859789E+03 -0.21838080171E+03 -0.13731018102E+03  0.32726792339E+03  0.12508801032E+03 0.  0.
        -24    2    1    2    0    0 -0.16249574836E+03  0.18264648126E+03  0.28162356515E+03  0.38249930387E+03  0.85025170757E+02 0.  0.
        -11    1    3    3    0    0  0.19705482843E+02  0.74580690142E+01 -0.40995868755E+03  0.41049976169E+03  0.00000000000E+00 0.  1.
         12    1    3    3    0    0 -0.15048332374E+02  0.28276251442E+02 -0.64466132813E+02  0.71985283098E+02  0.00000000000E+00 0. -1.
         11    1    5    5    0    0 -0.67315219632E+02  0.13587770441E+03  0.14782639230E+03  0.21177046916E+03  0.00000000000E+00 0. -1.
        -12    1    5    5    0    0 -0.95180528730E+02  0.46768776846E+02  0.13379717285E+03  0.17072883471E+03  0.00000000000E+00 0.  1.
          5    1    4    4  501    0  0.67860452547E+02 -0.18663910575E+03 -0.70762523632E+02  0.21086489505E+03  0.41800000000E+01 0.  1.
         -5    1    4    4    0  501  0.89978145347E+02 -0.31741695969E+02 -0.66547657384E+02  0.11640302834E+03  0.41800000000E+01 0.  1.
</event>
<event>
11    1  0.7577197E-009  0.1978027E+03  0.7561462E-02  0.1056088E+00
         22   -1    0    0    0    0  0.00000000000E+00  0.00000000000E+00  0.30643773948E+03  0.30643773948E+03  0.00000000000E+00 0. -1.
         22   -1    0    0    0    0 -0.00000000000E+00 -0.00000000000E+00 -0.34687834432E+04  0.34687834432E+04  0.00000000000E+00 0. -1.
         24    2    1    2    0    0  0.11505945154E+03  0.82538176480E+02 -0.25278723174E+04  0.25331566788E+04  0.81811233042E+02 0.  0.
         25    2    1    2    0    0 -0.23858688380E+03 -0.96279434908E+02 -0.89596174151E+03  0.94052541676E+03  0.12508871498E+03 0.  0.
        -24    2    1    2    0    0  0.12352743226E+03  0.13741258428E+02  0.26148835521E+03  0.30153908719E+03  0.84272252193E+02 0.  0.
        -13    1    3    3    0    0  0.61261004719E+01 -0.56615401687E+01 -0.24842797407E+02  0.26205852917E+02  0.00000000000E+00 0.  1.
         14    1    3    3    0    0  0.10893335107E+03  0.88199716649E+02 -0.25030295200E+04  0.25069508258E+04  0.00000000000E+00 0. -1.
         11    1    5    5    0    0  0.11234595798E+03 -0.20429620351E+02  0.19658315523E+03  0.22734097867E+03  0.00000000000E+00 0. -1.
        -12    1    5    5    0    0  0.11181474277E+02  0.34170878780E+02  0.64905199976E+02  0.74198108517E+02  0.00000000000E+00 0.  1.
          5    1    4    4  501    0 -0.24598539103E+03 -0.10397152402E+03 -0.88585651456E+03  0.92524490120E+03  0.41800000000E+01 0. -1.
         -5    1    4    4    0  501  0.73985072303E+01  0.76920891102E+01 -0.10105226952E+02  0.15280515563E+02  0.41800000000E+01 0. -1.
</event>
<event>
11    1  0.7577197E-009  0.1618592E+03  0.7561462E-02  0.1085342E+00
         22   -1    0    0    0    0  0.00000000000E+00  0.00000000000E+00  0.24033496375E+04  0.24033496375E+04  0.00000000000E+00 0.  1.
         22   -1    0    0    0    0 -0.00000000000E+00 -0.00000000000E+00 -0.11076045419E+03  0.11076045419E+03  0.00000000000E+00 0. -1.
         24    2    1    2    0    0  0.13130647237E+02 -0.62228359802E+02 -0.74193823804E+02  0.12858143402E+03  0.83568409245E+02 0.  0.
         25    2    1    2    0    0 -0.11029363542E+03  0.32977424566E+02  0.13218075391E+04  0.13326946836E+04  0.12509097744E+03 0.  0.
        -24    2    1    2    0    0  0.97162988183E+02  0.29250935237E+02  0.10449754680E+04  0.10528339741E+04  0.78672643180E+02 0.  0.
        -13    1    3    3    0    0  0.48755183999E+02 -0.33465756512E+02 -0.39104605786E+02  0.70895662910E+02  0.00000000000E+00 0.  1.
         14    1    3    3    0    0 -0.35624536763E+02 -0.28762603290E+02 -0.35089218018E+02  0.57685771111E+02  0.00000000000E+00 0. -1.
         11    1    5    5    0    0 -0.27697257369E+01  0.19437746482E+02  0.70003162504E+02  0.72704471180E+02  0.00000000000E+00 0. -1.
        -12    1    5    5    0    0  0.99932713920E+02  0.98131887546E+01  0.97497230550E+03  0.98012950291E+03  0.00000000000E+00 0.  1.
          5    1    4    4  501    0  0.34525503392E+01  0.25631752547E+02  0.70142591575E+03  0.70191501945E+03  0.41800000000E+01 0.  1.
         -5    1    4    4    0  501 -0.11374618576E+03  0.73456720184E+01  0.62038162335E+03  0.63077966412E+03  0.41800000000E+01 0.  1.
</event>
<event>
11    1  0.7577197E-009  0.1688931E+03  0.7561462E-02  0.1078999E+00
         22   -1    0    0    0    0  0.00000000000E+00  0.00000000000E+00  0.72267153368E+02  0.72267153368E+02  0.00000000000E+00 0.  1.
         22   -1    0    0    0    0 -0.00000000000E+00 -0.00000000000E+00 -0.25785255594E+04  0.25785255594E+04  0.00000000000E+00 0. -1.
         24    2    1    2    0    0 -0.55928121161E+02  0.18967407023E+02 -0.20431164857E+04  0.20455528785E+04  0.80460470482E+02 0.  0.
         25    2    1    2    0    0 -0.54274542258E+02 -0.67848165409E+02 -0.43164473678E+03  0.45772699601E+03  0.12509086540E+03 0.  0.
        -24    2    1    2    0    0  0.11020266342E+03  0.48880758386E+02 -0.31497183531E+02  0.14751283823E+03  0.78955742721E+02 0.  0.
        -13    1    3    3    0    0  0.86289236198E+00 -0.12544814475E+02 -0.56816209126E+02  0.58191052344E+02  0.00000000000E+00 0.  1.
         14    1    3    3    0    0 -0.56791013523E+02  0.31512221499E+02 -0.19863002766E+04  0.19873618261E+04  0.00000000000E+00 0. -1.
         11    1    5    5    0    0  0.77984685199E+01 -0.10422586182E+00 -0.33077645228E+02  0.33984666956E+02  0.00000000000E+00 0. -1.
        -12    1    5    5    0    0  0.10240419490E+03  0.48984984248E+02  0.15804616968E+01  0.11352817128E+03  0.00000000000E+00 0.  1.
          5    1    4    4  501    0 -0.44757612910E+02 -0.40152072319E+02 -0.42247949264E+03  0.42675733963E+03  0.41800000000E+01 0.  1.
         -5    1    4    4    0  501 -0.95169293475E+01 -0.27696093091E+02 -0.91652441377E+01  0.30969656388E+02  0.41800000000E+01 0.  1.
</event>
<event>
11    1  0.7577197E-009  0.1545757E+03  0.7561462E-02  0.1092293E+00
         22   -1    0    0    0    0  0.00000000000E+00  0.00000000000E+00  0.19239133955E+03  0.19239133955E+03  0.00000000000E+00 0. -1.
         22   -1    0    0    0    0 -0.00000000000E+00 -0.00000000000E+00 -0.23843508900E+04  0.23843508900E+04  0.00000000000E+00 0.  1.
         24    2    1    2    0    0  0.10730954336E+03  0.74831432643E+02 -0.21557793825E+04  0.21613323745E+04  0.82811867932E+02 0.  0.
         25    2    1    2    0    0 -0.25445182449E+02  0.36426963364E+01 -0.17820308658E+03  0.21923723853E+03  0.12509156704E+03 0.  0.
        -24    2    1    2    0    0 -0.81864360907E+02 -0.78474128979E+02  0.14202291865E+03  0.19617261654E+03  0.73845944736E+02 0.  0.
        -13    1    3    3    0    0  0.92768741452E+02  0.19821990242E+02 -0.11293398746E+04  0.11333170356E+04  0.00000000000E+00 0.  1.
         14    1    3    3    0    0  0.14540801904E+02  0.55009442401E+02 -0.10264395079E+04  0.10280153389E+04  0.00000000000E+00 0. -1.
         13    1    5    5    0    0 -0.71557490838E+02 -0.84117576506E+02  0.14661681883E+03  0.18355580278E+03  0.00000000000E+00 0. -1.
        -14    1    5    5    0    0 -0.10306870069E+02  0.56434475264E+01 -0.45939001787E+01  0.12616813760E+02  0.00000000000E+00 0.  1.
          5    1    4    4  501    0  0.30853078075E+02 -0.34696704086E+02 -0.28309276305E+02  0.54540454949E+02  0.41800000000E+01 0. -1.
         -5    1    4    4    0  501 -0.56298260524E+02  0.38339400423E+02 -0.14989381028E+03  0.16469678358E+03  0.41800000000E+01 0. -1.
</event>
<event>
11    1  0.7577197E-009  0.2030046E+03  0.7561462E-02  0.1052419E+00
         22   -1    0    0    0    0  0.00000000000E+00  0.00000000000E+00  0.28109986335E+03  0.28109986335E+03  0.00000000000E+00 0.  1.
         22   -1    0    0    0    0 -0.00000000000E+00 -0.00000000000E+00 -0.52139439075E+03  0.52139439075E+03  0.00000000000E+00 0. -1.
        -24    2    1    2    0    0  0.11105818826E+03  0.31592664442E+01 -0.24661914136E+03  0.28180195500E+03  0.79040741500E+02 0.  0.
         25    2    1    2    0    0 -0.13903243011E+03  0.15076722012E+03 -0.15172360471E+03  0.28412696218E+03  0.12508919668E+03 0.  0.
         24    2    1    2    0    0  0.27974241858E+02 -0.15392648657E+03  0.15804821867E+03  0.23656533691E+03  0.80672162041E+02 0.  0.
        -13    1    5    5    0    0  0.10321249401E+02 -0.12099727905E+03  0.15790747671E+03  0.19920251236E+03  0.00000000000E+00 0.  1.
         14    1    5    5    0    0  0.17652992456E+02 -0.32929207517E+02  0.14074195520E+00  0.37362824554E+02  0.00000000000E+00 0. -1.
         13    1    3    3    0    0  0.12248799517E+03 -0.36157407950E+01 -0.22910507167E+03  0.25981823725E+03  0.00000000000E+00 0. -1.
        -14    1    3    3    0    0 -0.11429806916E+02  0.67750072392E+01 -0.17514069683E+02  0.21983717750E+02  0.00000000000E+00 0.  1.
          5    1    4    4  501    0 -0.10443561392E+03  0.10605997557E+03 -0.32932116671E+02  0.15250413955E+03  0.41800000000E+01 0. -1.
         -5    1    4    4    0  501 -0.34596816198E+02  0.44707244551E+02 -0.11879148804E+03  0.13162282263E+03  0.41800000000E+01 0. -1.
</event>
<event>
11    1  0.7577197E-009  0.1385123E+03  0.7561462E-02  0.1109231E+00
         22   -1    0    0    0    0  0.00000000000E+00  0.00000000000E+00  0.13786227698E+04  0.13786227698E+04  0.00000000000E+00 0.  1.
         22   -1    0    0    0    0 -0.00000000000E+00 -0.00000000000E+00 -0.12443861426E+04  0.12443861426E+04  0.00000000000E+00 0. -1.
        -24    2    1    2    0    0  0.39147864876E+02  0.14258842003E+02 -0.12297424645E+04  0.12330749536E+04  0.80445276050E+02 0.  0.
         25    2    1    2    0    0  0.20366715873E+02  0.18814006874E+02  0.38926937270E+03  0.40980829961E+03  0.12507369003E+03 0.  0.
         24    2    1    2    0    0 -0.59514580749E+02 -0.33072848876E+02  0.97470971902E+03  0.98012565914E+03  0.77145788692E+02 0.  0.
        -13    1    5    5    0    0 -0.65318825905E+02  0.12163338755E+01  0.51996466766E+03  0.52405274935E+03  0.00000000000E+00 0.  1.
         14    1    5    5    0    0  0.58042451556E+01 -0.34289182752E+02  0.45474505135E+03  0.45607290979E+03  0.00000000000E+00 0. -1.
         11    1    3    3    0    0  0.40185654354E+02  0.43532577872E+02 -0.93683938616E+03  0.93871082215E+03  0.00000000000E+00 0. -1.
        -12    1    3    3    0    0 -0.10377894787E+01 -0.29273735870E+02 -0.29290307832E+03  0.29436413149E+03  0.00000000000E+00 0.  1.
          5    1    4    4  501    0  0.68902454786E+02 -0.12270424816E+02  0.20162415213E+03  0.21346635033E+03  0.41800000000E+01 0.  1.
         -5    1    4    4    0  501 -0.48535738913E+02  0.31084431690E+02  0.18764522056E+03  0.19634194928E+03  0.41800000000E+01 0.  1.
</event>
<event>
11    1  0.7577197E-009  0.1791308E+03  0.7561462E-02  0.1070348E+00
         22   -1    0    0    0    0  0.00000000000E+00  0.00000000000E+00  0.18570809841E+03  0.18570809841E+03  0.00000000000E+00 0. -1.
         22   -1    0    0    0    0 -0.00000000000E+00 -0.00000000000E+00 -0.11714005748E+04  0.11714005748E+04  0.00000000000E+00 0.  1.
         24    2    1    2    0    0  0.11802821731E+03 -0.43785382214E+02 -0.58126480327E+03  0.60012437607E+03  0.80203961622E+02 0.  0.
         25    2    1    2    0    0 -0.13596256765E+03  0.49288621531E+01 -0.55384627295E+03  0.58386869095E+03  0.12508733238E+03 0.  0.
        -24    2    1    2    0    0  0.17934350344E+02  0.38856520061E+02  0.14941859988E+03  0.17311560614E+03  0.76234014889E+02 0.  0.
        -13    1    3    3    0    0  0.49503359805E+02  0.18140340117E+02 -0.28362850135E+03  0.28848705578E+03  0.00000000000E+00 0.  1.
         14    1    3    3    0    0  0.68524857504E+02 -0.61925722331E+02 -0.29763630192E+03  0.31163732030E+03  0.00000000000E+00 0. -1.
         13    1    5    5    0    0  0.71143039980E+01  0.91421870509E+01  0.13949057964E+03  0.13997076378E+03  0.00000000000E+00 0. -1.
        -14    1    5    5    0    0  0.10820046346E+02  0.29714333010E+02  0.99280202420E+01  0.33144842361E+02  0.00000000000E+00 0.  1.
          5    1    4    4  501    0 -0.54718367707E+02  0.44069799511E+02 -0.39446890858E+03  0.40069868883E+03  0.41800000000E+01 0. -1.
         -5    1    4    4    0  501 -0.81244199947E+02 -0.39140937358E+02 -0.15937736437E+03  0.18317000212E+03  0.41800000000E+01 0. -1.
</event>
<event>
11    1  0.7577197E-009  0.1585511E+03  0.7561462E-02  0.1088448E+00
         22   -1    0    0    0    0  0.00000000000E+00  0.00000000000E+00  0.44485286788E+03  0.44485286788E+03  0.00000000000E+00 0.  1.
         22   -1    0    0    0    0 -0.00000000000E+00 -0.00000000000E+00 -0.17975697294E+04  0.17975697294E+04  0.00000000000E+00 0. -1.
         24    2    1    2    0    0  0.54990572287E+02 -0.33361730363E+02 -0.16878062714E+04  0.16908077798E+04  0.77485293222E+02 0.  0.
         25    2    1    2    0    0 -0.11590212663E+01  0.11463021409E+03 -0.23328819108E+02  0.17125911057E+03  0.12507605622E+03 0.  0.
        -24    2    1    2    0    0 -0.53831551021E+02 -0.81268483731E+02  0.35841822891E+03  0.38035570689E+03  0.81880611958E+02 0.  0.
        -13    1    3    3    0    0  0.13545202555E+02  0.12072669133E+02 -0.89598618983E+02  0.91417363645E+02  0.00000000000E+00 0.  1.
         14    1    3    3    0    0  0.41445369732E+02 -0.45434399496E+02 -0.15982076524E+04  0.15993904162E+04  0.00000000000E+00 0. -1.
         13    1    5    5    0    0 -0.20505186769E+02  0.11079854723E+02  0.32653691169E+02  0.40118442294E+02  0.00000000000E+00 0. -1.
        -14    1    5    5    0    0 -0.33326364251E+02 -0.92348338454E+02  0.32576453774E+03  0.34023726460E+03  0.00000000000E+00 0.  1.
          5    1    4    4  501    0  0.35691974674E+02 -0.99771214696E+01  0.65360019254E+01  0.37863593730E+02  0.41800000000E+01 0.  1.
         -5    1    4    4    0  501 -0.36850995940E+02  0.12460733556E+03 -0.29864821034E+02  0.13339551684E+03  0.41800000000E+01 0.  1.
</event>
<event>
11    1  0.7577197E-009  0.1646140E+03  0.7561462E-02  0.1082816E+00
         22   -1    0    0    0    0  0.00000000000E+00  0.00000000000E+00  0.11677486115E+03  0.11677486115E+03  0.00000000000E+00 0.  1.
         22   -1    0    0    0    0 -0.00000000000E+00 -0.00000000000E+00 -0.53370934673E+03  0.53370934673E+03  0.00000000000E+00 0.  1.
         24    2    1    2    0    0  0.59823453912E+02  0.98035015857E+02 -0.35848092395E+03  0.38516964408E+03  0.81592719731E+02 0.  0.
         25    2    1    2    0    0 -0.39310712588E+02 -0.72076915629E+02 -0.89195837944E+02  0.17419677916E+03  0.12509279145E+03 0.  0.
        -24    2    1    2    0    0 -0.20512741324E+02 -0.25958100228E+02  0.30742276307E+02  0.91117784640E+02  0.79137649706E+02 0.  0.
        -13    1    3    3    0    0  0.38315954018E+01  0.81058800389E+02 -0.23277334461E+03  0.24651296153E+03  0.00000000000E+00 0.  1.
         14    1    3    3    0    0  0.55991858510E+02  0.16976215468E+02 -0.12570757934E+03  0.13865668255E+03  0.00000000000E+00 0. -1.
         13    1    5    5    0    0 -0.38941000988E+02 -0.44792547877E+02  0.23001007248E+02  0.63653909838E+02  0.00000000000E+00 0. -1.
        -14    1    5    5    0    0  0.18428259664E+02  0.18834447649E+02  0.77412690591E+01  0.27463874802E+02  0.00000000000E+00 0.  1.
          5    1    4    4  501    0 -0.60371343818E+02  0.37921109953E+01 -0.70827536538E+02  0.93236750223E+02  0.41800000000E+01 0. -1.
         -5    1    4    4    0  501  0.21060631230E+02 -0.75869026624E+02 -0.18368301407E+02  0.80960028935E+02  0.41800000000E+01 0. -1.
</event>
<event>
11    1  0.7577197E-009  0.2369452E+03  0.7561462E-02  0.1031093E+00
         22   -1    0    0    0    0  0.00000000000E+00  0.00000000000E+00  0.38802140894E+04  0.38802140894E+04  0.00000000000E+00 0. -1.
         22   -1    0    0    0    0 -0.00000000000E+00 -0.00000000000E+00 -0.12845825872E+03  0.12845825872E+03  0.00000000000E+00 0. -1.
        -24    2    1    2    0    0  0.14399068106E+03  0.16677809308E+03  0.17588585228E+02  0.24059505397E+03  0.95017751505E+02 0.  0.
         25    2    1    2    0    0 -0.12312420662E+03 -0.68476904776E+01  0.52009181590E+03  0.54895266604E+03  0.12508825473E+03 0.  0.
         24    2    1    2    0    0 -0.20866474439E+02 -0.15993040260E+03  0.32140754295E+04  0.32191246281E+04  0.80432338530E+02 0.  0.
        -13    1    5    5    0    0 -0.35747750357E+02 -0.11390575364E+03  0.16555959006E+04  0.16598946377E+04  0.00000000000E+00 0.  1.
         14    1    5    5    0    0  0.14881275917E+02 -0.46024648959E+02  0.15584795289E+04  0.15592299904E+04  0.00000000000E+00 0. -1.
         13    1    3    3    0    0  0.13169407213E+03  0.16730879281E+03  0.38457783644E+02  0.21636673013E+03  0.00000000000E+00 0. -1.
        -14    1    3    3    0    0  0.12296608930E+02 -0.53069973194E+00 -0.20869198416E+02  0.24228323836E+02  0.00000000000E+00 0.  1.
          5    1    4    4  501    0 -0.96550795972E+02  0.46031351659E+02  0.24223238463E+03  0.26483002493E+03  0.41800000000E+01 0. -1.
         -5    1    4    4    0  501 -0.26573410647E+02 -0.52879042137E+02  0.27785943127E+03  0.28412264112E+03  0.41800000000E+01 0. -1.
</event>
<event>
11    1  0.7577197E-009  0.4111865E+03  0.7561462E-02  0.9617316E-01
         22   -1    0    0    0    0  0.00000000000E+00  0.00000000000E+00  0.13911412128E+04  0.13911412128E+04  0.00000000000E+00 0.  1.
         22   -1    0    0    0    0 -0.00000000000E+00 -0.00000000000E+00 -0.22261305814E+03  0.22261305814E+03  0.00000000000E+00 0.  1.
        -24    2    1    2    0    0  0.22904102782E+03 -0.27857280298E+03  0.24615815920E+03  0.44417609829E+03  0.81461450770E+02 0.  0.
         25    2    1    2    0    0 -0.20528562740E+03  0.38447401119E+03  0.32569748651E+03  0.55828973130E+03  0.12508444052E+03 0.  0.
         24    2    1    2    0    0 -0.23755400424E+02 -0.10590120821E+03  0.59667250890E+03  0.61128844131E+03  0.76655662914E+02 0.  0.
        -13    1    5    5    0    0  0.27704602241E+02 -0.47065359760E+02  0.25685234395E+03  0.26259440144E+03  0.00000000000E+00 0.  1.
         14    1    5    5    0    0 -0.51460002665E+02 -0.58835848454E+02  0.33982016495E+03  0.34869403987E+03  0.00000000000E+00 0. -1.
         13    1    3    3    0    0  0.73001449127E+02 -0.75876822619E+02  0.11773009146E+03  0.15794580786E+03  0.00000000000E+00 0. -1.
        -14    1    3    3    0    0  0.15603957870E+03 -0.20269598036E+03  0.12842806774E+03  0.28623029042E+03  0.00000000000E+00 0.  1.
          5    1    4    4  501    0 -0.10870998684E+03  0.31659507792E+03  0.22840344390E+03  0.40526029930E+03  0.41800000000E+01 0. -1.
         -5    1    4    4    0  501 -0.96575640564E+02  0.67878933272E+02  0.97294042612E+02  0.15302943201E+03  0.41800000000E+01 0. -1.
</event>
<event>
11    1  0.7577197E-009  0.2144625E+03  0.7561462E-02  0.1044743E+00
         22   -1    0    0    0    0  0.00000000000E+00  0.00000000000E+00  0.42341571747E+03  0.42341571747E+03  0.00000000000E+00 0. -1.
         22   -1    0    0    0    0 -0.00000000000E+00 -0.00000000000E+00 -0.63063603076E+03  0.63063603076E+03  0.00000000000E+00 0.  1.
        -24    2    1    2    0    0  0.14192126185E+03  0.10024527199E+03 -0.51597068917E+03  0.54992742833E+03  0.77483322239E+02 0.  0.
         25    2    1    2    0    0 -0.17910324757E+03 -0.53035939214E+02  0.55559426642E+02  0.23157179279E+03  0.12509141134E+03 0.  0.
         24    2    1    2    0    0  0.37181985715E+02 -0.47209332774E+02  0.25319094923E+03  0.27255252711E+03  0.81043211299E+02 0.  0.
        -11    1    5    5    0    0  0.47200970714E+02  0.44422697048E+01  0.10230473048E+03  0.11275603432E+03  0.00000000000E+00 0.  1.
         12    1    5    5    0    0 -0.10018984999E+02 -0.51651602479E+02  0.15088621875E+03  0.15979649279E+03  0.00000000000E+00 0. -1.
         13    1    3    3    0    0  0.78635137864E+02  0.84576736528E+02 -0.40578249586E+03  0.42189589144E+03  0.00000000000E+00 0. -1.
        -14    1    3    3    0    0  0.63286123989E+02  0.15668535460E+02 -0.11018819330E+03  0.12803153688E+03  0.00000000000E+00 0.  1.
          5    1    4    4  501    0 -0.35161676217E+02  0.36313345599E+02 -0.64194968331E+01  0.51124210337E+02  0.41800000000E+01 0. -1.
         -5    1    4    4    0  501 -0.14394157135E+03 -0.89349284813E+02  0.61978923475E+02  0.18044758246E+03  0.41800000000E+01 0. -1.
</event>
<event>
11    1  0.7577197E-009  0.1600976E+03  0.7561462E-02  0.1086986E+00
         22   -1    0    0    0    0  0.00000000000E+00  0.00000000000E+00  0.98466249046E+03  0.98466249046E+03  0.00000000000E+00 0. -1.
         22   -1    0    0    0    0 -0.00000000000E+00 -0.00000000000E+00 -0.70079368367E+03  0.70079368367E+03  0.00000000000E+00 0.  1.
        -24    2    1    2    0    0 -0.67885047869E+02 -0.72939014252E+02 -0.64286120882E+03  0.65566730219E+03  0.81857179464E+02 0.  0.
         25    2    1    2    0    0  0.49252978069E+02  0.97950995999E+02  0.91001784093E+02  0.18961446987E+03  0.12510822918E+03 0.  0.
         24    2    1    2    0    0  0.18632069800E+02 -0.25011981747E+02  0.83572823152E+03  0.84017440207E+03  0.80489724073E+02 0.  0.
        -11    1    5    5    0    0 -0.24457491685E+02  0.79060936242E+01  0.14027987652E+03  0.14261528309E+03  0.00000000000E+00 0.  1.
         12    1    5    5    0    0  0.43089561485E+02 -0.32918075371E+02  0.69544835501E+03  0.69755911898E+03  0.00000000000E+00 0. -1.
         11    1    3    3    0    0 -0.30616468954E+02 -0.26614335854E+02 -0.80225842918E+02  0.89899259820E+02  0.00000000000E+00 0. -1.
        -12    1    3    3    0    0 -0.37268578915E+02 -0.46324678398E+02 -0.56263536590E+03  0.56576804237E+03  0.00000000000E+00 0.  1.
          5    1    4    4  501    0  0.29393080989E+02  0.11196517625E+03  0.10902098574E+03  0.15906980114E+03  0.41800000000E+01 0.  1.
         -5    1    4    4    0  501  0.19859897079E+02 -0.14014180248E+02 -0.18019201646E+02  0.30544668732E+02  0.41800000000E+01 0.  1.
</event>
<event>
11    1  0.7577197E-009  0.1809544E+03  0.7561462E-02  0.1068873E+00
         22   -1    0    0    0    0  0.00000000000E+00  0.00000000000E+00  0.14488144520E+04  0.14488144520E+04  0.00000000000E+00 0. -1.
         22   -1    0    0    0    0 -0.00000000000E+00 -0.00000000000E+00 -0.11764298876E+03  0.11764298876E+03  0.00000000000E+00 0. -1.
         24    2    1    2    0    0  0.10103287977E+02  0.35203093918E+02 -0.52250236318E+02  0.12645466393E+03  0.10917582418E+03 0.  0.
         25    2    1    2    0    0  0.96823724170E+02 -0.10589874052E+03  0.38543496157E+03  0.42988003270E+03  0.12508939248E+03 0.  0.
        -24    2    1    2    0    0 -0.10692701215E+03  0.70695646598E+02  0.99798673802E+03  0.10101227441E+04  0.89102012382E+02 0.  0.
        -13    1    3    3    0    0 -0.26322647021E+02  0.26870386739E+02  0.21824992751E+02  0.43488271273E+02  0.00000000000E+00 0.  1.
         14    1    3    3    0    0  0.36425934998E+02  0.83327071785E+01 -0.74075229069E+02  0.82966392660E+02  0.00000000000E+00 0. -1.
         11    1    5    5    0    0 -0.89678428973E+02  0.35893763944E+02  0.89250311723E+03  0.89771509801E+03  0.00000000000E+00 0. -1.
        -12    1    5    5    0    0 -0.17248583174E+02  0.34801882653E+02  0.10548362078E+03  0.11240764614E+03  0.00000000000E+00 0.  1.
          5    1    4    4  501    0  0.14871345590E+02  0.28020420545E+02  0.48046926362E+02  0.57725907702E+02  0.41800000000E+01 0.  1.
         -5    1    4    4    0  501  0.81952378579E+02 -0.13391916106E+03  0.33738803521E+03  0.37215412500E+03  0.41800000000E+01 0.  1.
</event>
<event>
11    1  0.7577197E-009  0.3062546E+03  0.7561462E-02  0.9975784E-01
         22   -1    0    0    0    0  0.00000000000E+00  0.00000000000E+00  0.91956127362E+03  0.91956127362E+03  0.00000000000E+00 0. -1.
         22   -1    0    0    0    0 -0.00000000000E+00 -0.00000000000E+00 -0.56109109751E+03  0.56109109751E+03  0.00000000000E+00 0.  1.
        -24    2    1    2    0    0 -0.16075273752E+02  0.44844413453E+02 -0.35283468342E+03  0.36430320362E+03  0.77169129201E+02 0.  0.
         25    2    1    2    0    0 -0.16930706176E+03  0.17232089781E+03 -0.69694211838E+02  0.28082758608E+03  0.12508987552E+03 0.  0.
         24    2    1    2    0    0  0.18538233551E+03 -0.21716531126E+03  0.78099907137E+03  0.83552158142E+03  0.81298098411E+02 0.  0.
        -11    1    5    5    0    0  0.13470639111E+03 -0.14333128076E+03  0.42306609200E+03  0.46655609100E+03  0.00000000000E+00 0.  1.
         12    1    5    5    0    0  0.50675944403E+02 -0.73834030509E+02  0.35793297937E+03  0.36896549042E+03  0.00000000000E+00 0. -1.
         11    1    3    3    0    0 -0.21155798173E+02  0.57944431854E+02 -0.16854261748E+03  0.17947629060E+03  0.00000000000E+00 0. -1.
        -12    1    3    3    0    0  0.50805244211E+01 -0.13100018401E+02 -0.18429206593E+03  0.18482691302E+03  0.00000000000E+00 0.  1.
          5    1    4    4  501    0 -0.11153720271E+03  0.18156937257E+03 -0.49614114076E+02  0.21883102468E+03  0.41800000000E+01 0. -1.
         -5    1    4    4    0  501 -0.57769859049E+02 -0.92484747628E+01 -0.20080097763E+02  0.61996561406E+02  0.41800000000E+01 0. -1.
</event>
<event>
11    1  0.7577197E-009  0.2343949E+03  0.7561462E-02  0.1032557E+00
         22   -1    0    0    0    0  0.00000000000E+00  0.00000000000E+00  0.10401415962E+04  0.10401415962E+04  0.00000000000E+00 0.  1.
         22   -1    0    0    0    0 -0.00000000000E+00 -0.00000000000E+00 -0.46851018221E+03  0.46851018221E+03  0.00000000000E+00 0.  1.
         24    2    1    2    0    0  0.16740847084E+03  0.78111748441E+02 -0.32062125911E+03  0.37876859649E+03  0.80874078304E+02 0.  0.
         25    2    1    2    0    0 -0.31543451788E+03 -0.17451260192E+03  0.24355851950E+03  0.45268299216E+03  0.12509019015E+03 0.  0.
        -24    2    1    2    0    0  0.14802604704E+03  0.96400853483E+02  0.64869415357E+03  0.67720018973E+03  0.81185940577E+02 0.  0.
        -11    1    3    3    0    0  0.17570646678E+03  0.79067885032E+02 -0.31245747310E+03  0.36708877047E+03  0.00000000000E+00 0.  1.
         12    1    3    3    0    0 -0.82979959400E+01 -0.95613659138E+00 -0.81637860113E+01  0.11679826019E+02  0.00000000000E+00 0. -1.
         11    1    5    5    0    0  0.17889906706E+02  0.12816395697E+02  0.19922466558E+02  0.29685239335E+02  0.00000000000E+00 0. -1.
        -12    1    5    5    0    0  0.13013614034E+03  0.83584457786E+02  0.62877168701E+03  0.64751495040E+03  0.00000000000E+00 0.  1.
          5    1    4    4  501    0 -0.25291865959E+03 -0.74818240117E+02  0.17151228576E+03  0.31464194570E+03  0.41800000000E+01 0.  1.
         -5    1    4    4    0  501 -0.62515858286E+02 -0.99694361807E+02  0.72046233743E+02  0.13804104647E+03  0.41800000000E+01 0.  1.
</event>
<event>
11    1  0.7577197E-009  0.5910469E+03  0.7561462E-02  0.9210328E-01
         22   -1    0    0    0    0  0.00000000000E+00  0.00000000000E+00  0.14511619965E+04  0.14511619965E+04  0.00000000000E+00 0.  1.
         22   -1    0    0    0    0 -0.00000000000E+00 -0.00000000000E+00 -0.34233131467E+03  0.34233131467E+03  0.00000000000E+00 0.  1.
        -24    2    1    2    0    0  0.13752133768E+01 -0.73980807474E+02 -0.26069851751E+02  0.11352552553E+03  0.82057033158E+02 0.  0.
         25    2    1    2    0    0  0.22643185990E+03  0.57980903830E+03  0.38129994661E+03  0.74059942523E+03  0.12509177145E+03 0.  0.
         24    2    1    2    0    0 -0.22780707327E+03 -0.50582823083E+03  0.75360058698E+03  0.93936836041E+03  0.82102436714E+02 0.  0.
        -11    1    5    5    0    0 -0.16634362259E+03 -0.27055944012E+03  0.43184765107E+03  0.53606436661E+03  0.00000000000E+00 0.  1.
         12    1    5    5    0    0 -0.61463450683E+02 -0.23526879071E+03  0.32175293590E+03  0.40330399380E+03  0.00000000000E+00 0. -1.
         11    1    3    3    0    0 -0.10423861965E+02  0.15874573237E+02  0.77386071106E+00  0.19006783897E+02  0.00000000000E+00 0. -1.
        -12    1    3    3    0    0  0.11799075342E+02 -0.89855380711E+02 -0.26843712462E+02  0.94518741635E+02  0.00000000000E+00 0.  1.
          5    1    4    4  501    0  0.10807585644E+03  0.27047946642E+03  0.10629308079E+03  0.31008905805E+03  0.41800000000E+01 0. -1.
         -5    1    4    4    0  501  0.11835600345E+03  0.30932957189E+03  0.27500686582E+03  0.43051036718E+03  0.41800000000E+01 0. -1.
</event>
<event>
11    1  0.7577197E-009  0.1282394E+03  0.7561462E-02  0.1121451E+00
         22   -1    0    0    0    0  0.00000000000E+00  0.00000000000E+00  0.41840465876E+03  0.41840465876E+03  0.00000000000E+00 0.  1.
         22   -1    0    0    0    0 -0.00000000000E+00 -0.00000000000E+00 -0.98945866055E+02  0.98945866055E+02  0.00000000000E+00 0. -1.
         24    2    1    2    0    0 -0.48152563339E+01 -0.29634739370E+02  0.32563598632E+01  0.84543659524E+02  0.78965954785E+02 0.  0.
         25    2    1    2    0    0 -0.10245452585E+02  0.50643765470E+02  0.36190359158E+02  0.14009320464E+03  0.12508638460E+03 0.  0.
        -24    2    1    2    0    0  0.15060708919E+02 -0.21009026100E+02  0.28001207368E+03  0.29271366065E+03  0.81279281436E+02 0.  0.
        -13    1    3    3    0    0 -0.51937988990E+00 -0.17965182294E+02  0.41020400179E+02  0.44784938999E+02  0.00000000000E+00 0.  1.
         14    1    3    3    0    0 -0.42958764440E+01 -0.11669557076E+02 -0.37764040316E+02  0.39758720525E+02  0.00000000000E+00 0. -1.
         13    1    5    5    0    0 -0.22837502153E+02  0.16235125723E+02  0.14379904808E+03  0.14650357348E+03  0.00000000000E+00 0. -1.
        -14    1    5    5    0    0  0.37898211072E+02 -0.37244151824E+02  0.13621302560E+03  0.14621008717E+03  0.00000000000E+00 0.  1.
          5    1    4    4  501    0  0.96184560174E+01 -0.39585553662E+02  0.48048446792E+00  0.40954047665E+02  0.41800000000E+01 0.  1.
         -5    1    4    4    0  501 -0.19863908602E+02  0.90229319132E+02  0.35709874690E+02  0.99139156978E+02  0.41800000000E+01 0.  1.
</event>
<event>
11    1  0.7577197E-009  0.1547282E+03  0.7561462E-02  0.1092143E+00
         22   -1    0    0    0    0  0.00000000000E+00  0.00000000000E+00  0.10449050655E+03  0.10449050655E+03  0.00000000000E+00 0.  1.
         22   -1    0    0    0    0 -0.00000000000E+00 -0.00000000000E+00 -0.46545786990E+03  0.46545786990E+03  0.00000000000E+00 0.  1.
        -24    2    1    2    0    0  0.65272350383E+02  0.12509647275E+02 -0.23513001479E+03  0.25780644570E+03  0.82225717346E+02 0.  0.
         25    2    1    2    0    0 -0.37523349337E+02  0.83391094977E+02 -0.88964256840E+02  0.17867430719E+03  0.12509113713E+03 0.  0.
         24    2    1    2    0    0 -0.27749001047E+02 -0.95900742253E+02 -0.36873091723E+02  0.13346762355E+03  0.80542052487E+02 0.  0.
        -11    1    5    5    0    0 -0.17685905191E+02 -0.10940426939E+03 -0.27464924661E+02  0.11417708829E+03  0.00000000000E+00 0.  1.
         12    1    5    5    0    0 -0.10063095856E+02  0.13503527135E+02 -0.94081670621E+01  0.19290535263E+02  0.00000000000E+00 0. -1.
         13    1    3    3    0    0 -0.66586767496E+01 -0.46554024311E+00  0.39820186101E+01  0.77724626718E+01  0.00000000000E+00 0. -1.
        -14    1    3    3    0    0  0.71931027133E+02  0.12975187518E+02 -0.23911203340E+03  0.25003398303E+03  0.00000000000E+00 0.  1.
          5    1    4    4  501    0  0.40241361316E+02  0.55412272062E+02 -0.21476233881E+02  0.71892893093E+02  0.41800000000E+01 0.  1.
         -5    1    4    4    0  501 -0.77764710652E+02  0.27978822915E+02 -0.67488022960E+02  0.10678141410E+03  0.41800000000E+01 0.  1.
</event>
<event>
11    1  0.7577197E-009  0.4747546E+03  0.7561462E-02  0.9451772E-01
         22   -1    0    0    0    0  0.00000000000E+00  0.00000000000E+00  0.14814597375E+04  0.14814597375E+04  0.00000000000E+00 0.  1.
         22   -1    0    0    0    0 -0.00000000000E+00 -0.00000000000E+00 -0.28339952149E+03  0.28339952149E+03  0.00000000000E+00 0. -1.
        -24    2    1    2    0    0 -0.38108592377E+03 -0.25890306194E+03  0.75910039894E+02  0.47354239080E+03  0.78884630595E+02 0.  0.
         25    2    1    2    0    0  0.36415524596E+03  0.26698643049E+03  0.58599544735E+03  0.75028435006E+03  0.12508055170E+03 0.  0.
         24    2    1    2    0    0  0.16930677816E+02 -0.80833685422E+01  0.53615472873E+03  0.54103251810E+03  0.70016453805E+02 0.  0.
        -13    1    5    5    0    0 -0.33612284288E+01 -0.91397112057E+00  0.49099027861E+03  0.49100263430E+03  0.00000000000E+00 0.  1.
         14    1    5    5    0    0  0.20291906245E+02 -0.71693974216E+01  0.45164450124E+02  0.50029883804E+02  0.00000000000E+00 0. -1.
         11    1    3    3    0    0 -0.10625607918E+03 -0.35975748635E+02  0.29285294333E+01  0.11221936168E+03  0.00000000000E+00 0. -1.
        -12    1    3    3    0    0 -0.27482984460E+03 -0.22292731331E+03  0.72981510461E+02  0.36132302912E+03  0.00000000000E+00 0.  1.
          5    1    4    4  501    0  0.43620880687E+02  0.68626666173E+02  0.17245789674E+03  0.19071339515E+03  0.41800000000E+01 0. -1.
         -5    1    4    4    0  501  0.32053436527E+03  0.19835976431E+03  0.41353755061E+03  0.55957095491E+03  0.41800000000E+01 0. -1.
</event>
<event>
11    1  0.7577197E-009  0.1556777E+03  0.7561462E-02  0.1091214E+00
         22   -1    0    0    0    0  0.00000000000E+00  0.00000000000E+00  0.86869674204E+03  0.86869674204E+03  0.00000000000E+00 0. -1.
         22   -1    0    0    0    0 -0.00000000000E+00 -0.00000000000E+00 -0.12184488442E+03  0.12184488442E+03  0.00000000000E+00 0.  1.
        -24    2    1    2    0    0  0.24138006651E+02 -0.44853778648E+02 -0.64232499957E+02  0.11769376309E+03  0.84448226719E+02 0.  0.
         25    2    1    2    0    0  0.56631769487E+00  0.12593207821E+03  0.29923940108E+03  0.34792383592E+03  0.12509023705E+03 0.  0.
         24    2    1    2    0    0 -0.24704324345E+02 -0.81078299565E+02  0.51184495650E+03  0.52492402745E+03  0.79849738897E+02 0.  0.
        -13    1    5    5    0    0  0.29392276805E+02 -0.29808750442E+02  0.17656374071E+03  0.18145859602E+03  0.00000000000E+00 0.  1.
         14    1    5    5    0    0 -0.54096601150E+02 -0.51269549123E+02  0.33528121579E+03  0.34346543142E+03  0.00000000000E+00 0. -1.
         13    1    3    3    0    0  0.19654662307E+01  0.43451765391E+01  0.18396052362E+02  0.19004166890E+02  0.00000000000E+00 0. -1.
        -14    1    3    3    0    0  0.22172540420E+02 -0.49198955187E+02 -0.82628552319E+02  0.98689596202E+02  0.00000000000E+00 0.  1.
          5    1    4    4  501    0  0.57124954868E+02  0.36956182515E+02  0.15392248984E+03  0.16834080068E+03  0.41800000000E+01 0. -1.
         -5    1    4    4    0  501 -0.56558637173E+02  0.88975895698E+02  0.14531691124E+03  0.17958303524E+03  0.41800000000E+01 0. -1.
</event>
<event>
11    1  0.7577197E-009  0.1301642E+03  0.7561462E-02  0.1119067E+00
         22   -1    0    0    0    0  0.00000000000E+00  0.00000000000E+00  0.30777599935E+03  0.30777599935E+03  0.00000000000E+00 0.  1.
         22   -1    0    0    0    0 -0.00000000000E+00 -0.00000000000E+00 -0.29047322546E+03  0.29047322546E+03  0.00000000000E+00 0. -1.
         24    2    1    2    0    0 -0.19412187177E+02 -0.29213814718E+02 -0.20522976312E+03  0.22278761394E+03  0.79276637631E+02 0.  0.
         25    2    1    2    0    0  0.98297076222E+01  0.44076063738E+02 -0.53367075674E+01  0.13310038136E+03  0.12509160053E+03 0.  0.
        -24    2    1    2    0    0  0.95824795548E+01 -0.14862249021E+02  0.22786924458E+03  0.24236122950E+03  0.80634127885E+02 0.  0.
        -13    1    3    3    0    0 -0.26764895714E+02 -0.13046703355E+02 -0.18159447049E+02  0.34876089633E+02  0.00000000000E+00 0.  1.
         14    1    3    3    0    0  0.73527085366E+01 -0.16167111363E+02 -0.18707031608E+03  0.18791152431E+03  0.00000000000E+00 0. -1.
         11    1    5    5    0    0  0.52315920254E+01  0.27061934125E+01 -0.56380404193E+01  0.81535598161E+01  0.00000000000E+00 0. -1.
        -12    1    5    5    0    0  0.43508875294E+01 -0.17568442433E+02  0.23350728500E+03  0.23420766969E+03  0.00000000000E+00 0.  1.
          5    1    4    4  501    0 -0.45250718952E+02  0.24739038710E+01  0.30918987419E+02  0.55020032252E+02  0.41800000000E+01 0. -1.
         -5    1    4    4    0  501  0.55080426574E+02  0.41602159867E+02 -0.36255694986E+02  0.78080349104E+02  0.41800000000E+01 0. -1.
</event>
<event>
11    1  0.7577197E-009  0.4588432E+03  0.7561462E-02  0.9490503E-01
         22   -1    0    0    0    0  0.00000000000E+00  0.00000000000E+00  0.23386267015E+04  0.23386267015E+04  0.00000000000E+00 0. -1.
         22   -1    0    0    0    0 -0.00000000000E+00 -0.00000000000E+00 -0.89066876949E+03  0.89066876949E+03  0.00000000000E+00 0.  1.
         24    2    1    2    0    0  0.16605346775E+01 -0.38120440192E+02 -0.78162184615E+03  0.78688959573E+03  0.82502122099E+02 0.  0.
         25    2    1    2    0    0  0.31356040597E+03 -0.28246598306E+03  0.56478537741E+03  0.71605660025E+03  0.12508945774E+03 0.  0.
        -24    2    1    2    0    0 -0.31522094065E+03  0.32058642326E+03  0.16647944007E+04  0.17263492750E+04  0.81249777694E+02 0.  0.
        -11    1    3    3    0    0  0.33264391499E+02 -0.43137073185E+02 -0.60023732118E+03  0.60270404725E+03  0.00000000000E+00 0.  1.
         12    1    3    3    0    0 -0.31603856821E+02  0.50166329935E+01 -0.18138452497E+03  0.18418554849E+03  0.00000000000E+00 0. -1.
         13    1    5    5    0    0 -0.27314445764E+03  0.27821711572E+03  0.15304527751E+04  0.15793347825E+04  0.00000000000E+00 0. -1.
        -14    1    5    5    0    0 -0.42076483014E+02  0.42369307533E+02  0.13434162561E+03  0.14701449253E+03  0.00000000000E+00 0.  1.
          5    1    4    4  501    0  0.11832758097E+03 -0.32369182113E+02  0.16527668456E+03  0.20587140459E+03  0.41800000000E+01 0. -1.
         -5    1    4    4    0  501  0.19523282501E+03 -0.25009680095E+03  0.39950869285E+03  0.51018519566E+03  0.41800000000E+01 0. -1.
</event>
<event>
11    1  0.7577197E-009  0.1671092E+03  0.7561462E-02  0.1080575E+00
         22   -1    0    0    0    0  0.00000000000E+00  0.00000000000E+00  0.12681458046E+04  0.12681458046E+04  0.00000000000E+00 0. -1.
         22   -1    0    0    0    0 -0.00000000000E+00 -0.00000000000E+00 -0.18175948890E+03  0.18175948890E+03  0.00000000000E+00 0. -1.
        -24    2    1    2    0    0  0.32162855762E+02  0.59234003061E+02 -0.60429102475E+02  0.12072750248E+03  0.79877011838E+02 0.  0.
         25    2    1    2    0    0  0.77597666992E+02 -0.79764881399E+02 -0.66879677091E+01  0.16757604849E+03  0.12511262482E+03 0.  0.
         24    2    1    2    0    0 -0.10976052275E+03  0.20530878338E+02  0.11535033858E+04  0.11616017425E+04  0.79244291015E+02 0.  0.
        -13    1    5    5    0    0  0.44435281402E+01  0.21223028575E+02  0.13741181137E+03  0.13911206917E+03  0.00000000000E+00 0.  1.
         14    1    5    5    0    0 -0.11420405089E+03 -0.69215023668E+00  0.10160915745E+04  0.10224896733E+04  0.00000000000E+00 0. -1.
         11    1    3    3    0    0 -0.49445044496E+01  0.20093673362E+02 -0.63419649158E+02  0.66710237091E+02  0.00000000000E+00 0. -1.
        -12    1    3    3    0    0  0.37107360212E+02  0.39140329698E+02  0.29905466830E+01  0.54017265390E+02  0.00000000000E+00 0.  1.
          5    1    4    4  501    0 -0.32800076344E+02 -0.32205913175E+02 -0.10095925836E+02  0.47248978509E+02  0.41800000000E+01 0.  1.
         -5    1    4    4    0  501  0.11039774334E+03 -0.47558968224E+02  0.34079581271E+01  0.12032706998E+03  0.41800000000E+01 0.  1.
</event>
<event>
11    1  0.7577197E-009  0.2086971E+03  0.7561462E-02  0.1048538E+00
         22   -1    0    0    0    0  0.00000000000E+00  0.00000000000E+00  0.11744100336E+04  0.11744100336E+04  0.00000000000E+00 0. -1.
         22   -1    0    0    0    0 -0.00000000000E+00 -0.00000000000E+00 -0.15795687734E+03  0.15795687734E+03  0.00000000000E+00 0. -1.
        -24    2    1    2    0    0 -0.67502383865E+02 -0.14519084123E+03 -0.20207783396E+02  0.18084866868E+03  0.81614546798E+02 0.  0.
         25    2    1    2    0    0  0.46469182586E+02  0.18387586785E+03  0.17924919062E+03  0.28939321835E+03  0.12509373600E+03 0.  0.
         24    2    1    2    0    0  0.21033201279E+02 -0.38685026614E+02  0.85741174901E+03  0.86212502386E+03  0.78522115319E+02 0.  0.
        -13    1    5    5    0    0  0.32211961912E+02  0.29550947364E+01  0.15234401779E+03  0.15574030574E+03  0.00000000000E+00 0.  1.
         14    1    5    5    0    0 -0.11178760633E+02 -0.41640121351E+02  0.70506773122E+03  0.70638471812E+03  0.00000000000E+00 0. -1.
         13    1    3    3    0    0  0.83859869838E+00 -0.94734533349E+02 -0.12273460070E+02  0.95529958017E+02  0.00000000000E+00 0. -1.
        -14    1    3    3    0    0 -0.68340982564E+02 -0.50456307885E+02 -0.79343233255E+01  0.85318710667E+02  0.00000000000E+00 0.  1.
          5    1    4    4  501    0  0.40152916195E+02  0.17404613975E+03  0.91430449861E+02  0.20070205530E+03  0.41800000000E+01 0.  1.
         -5    1    4    4    0  501  0.63162663913E+01  0.98297280988E+01  0.87818740756E+02  0.88691163053E+02  0.41800000000E+01 0.  1.
</event>
<event>
11    1  0.7577197E-009  0.1372972E+03  0.7561462E-02  0.1110615E+00
         22   -1    0    0    0    0  0.00000000000E+00  0.00000000000E+00  0.10605465989E+03  0.10605465989E+03  0.00000000000E+00 0.  1.
         22   -1    0    0    0    0 -0.00000000000E+00 -0.00000000000E+00 -0.69938091812E+03  0.69938091812E+03  0.00000000000E+00 0. -1.
        -24    2    1    2    0    0 -0.17071460645E+02 -0.26270257242E+02 -0.48001826524E+03  0.48757007103E+03  0.79532873804E+02 0.  0.
         25    2    1    2    0    0  0.34552080302E+02  0.75320227157E+02 -0.15292935828E+03  0.21424445349E+03  0.12508522836E+03 0.  0.
         24    2    1    2    0    0 -0.17480619658E+02 -0.49049969915E+02  0.39621365289E+02  0.10362105349E+03  0.80349228535E+02 0.  0.
        -11    1    5    5    0    0 -0.41827652002E+02 -0.14789495560E+02  0.42572159519E+02  0.61487156521E+02  0.00000000000E+00 0.  1.
         12    1    5    5    0    0  0.24347032344E+02 -0.34260474354E+02 -0.29507942304E+01  0.42133896966E+02  0.00000000000E+00 0. -1.
         13    1    3    3    0    0 -0.39092251368E+02 -0.13493565020E+02 -0.12548866462E+03  0.13212753446E+03  0.00000000000E+00 0. -1.
        -14    1    3    3    0    0  0.22020790724E+02 -0.12776692222E+02 -0.35452960062E+03  0.35544253657E+03  0.00000000000E+00 0.  1.
          5    1    4    4  501    0  0.41102290458E+02  0.65058383004E+02 -0.17357490568E+03  0.18991501194E+03  0.41800000000E+01 0.  1.
         -5    1    4    4    0  501 -0.65502101552E+01  0.10261844152E+02  0.20645547398E+02  0.24329441544E+02  0.41800000000E+01 0.  1.
</event>
<event>
11    1  0.7577197E-009  0.1744141E+03  0.7561462E-02  0.1074253E+00
         22   -1    0    0    0    0  0.00000000000E+00  0.00000000000E+00  0.34472393142E+04  0.34472393142E+04  0.00000000000E+00 0.  1.
         22   -1    0    0    0    0 -0.00000000000E+00 -0.00000000000E+00 -0.13471112961E+03  0.13471112961E+03  0.00000000000E+00 0. -1.
         24    2    1    2    0    0 -0.39209677189E+02  0.37257105153E+02 -0.10739282077E+03  0.14406094646E+03  0.79340076071E+02 0.  0.
         25    2    1    2    0    0  0.13826822595E+03  0.25152520826E+02  0.13466216825E+04  0.13597016885E+04  0.12509186404E+03 0.  0.
        -24    2    1    2    0    0 -0.99058548764E+02 -0.62409625979E+02  0.20732993229E+04  0.20781878088E+04  0.81159897506E+02 0.  0.
        -13    1    3    3    0    0 -0.20140816963E+02  0.24478720972E+02  0.24984729843E+01  0.31797840424E+02  0.00000000000E+00 0.  1.
         14    1    3    3    0    0 -0.19068860225E+02  0.12778384181E+02 -0.10989129376E+03  0.11226310603E+03  0.00000000000E+00 0. -1.
         11    1    5    5    0    0 -0.38915398839E+02 -0.17016745951E+02  0.27047701036E+03  0.27379151017E+03  0.00000000000E+00 0. -1.
        -12    1    5    5    0    0 -0.60143149925E+02 -0.45392880028E+02  0.18028223125E+04  0.18043962987E+04  0.00000000000E+00 0.  1.
          5    1    4    4  501    0  0.92538226816E+02 -0.37804429425E+02  0.52923830439E+03  0.53861224785E+03  0.41800000000E+01 0.  1.
         -5    1    4    4    0  501  0.45729999137E+02  0.62956950251E+02  0.81738337811E+03  0.82108944069E+03  0.41800000000E+01 0.  1.
</event>
<event>
11    1  0.7577197E-009  0.1539315E+03  0.7561462E-02  0.1092928E+00
         22   -1    0    0    0    0  0.00000000000E+00  0.00000000000E+00  0.13309873188E+04  0.13309873188E+04  0.00000000000E+00 0.  1.
         22   -1    0    0    0    0 -0.00000000000E+00 -0.00000000000E+00 -0.15321198656E+04  0.15321198656E+04  0.00000000000E+00 0. -1.
        -24    2    1    2    0    0 -0.15353150655E+01 -0.90138848950E+02 -0.14635494235E+04  0.14681008491E+04  0.72220625196E+02 0.  0.
         25    2    1    2    0    0 -0.54056565781E+02  0.72035010368E+02  0.28138920518E+02  0.15668778368E+03  0.12509239659E+03 0.  0.
         24    2    1    2    0    0  0.55591880846E+02  0.18103838582E+02  0.12342779562E+04  0.12383185516E+04  0.81071301802E+02 0.  0.
        -13    1    5    5    0    0  0.51007278776E+02  0.12743663345E+02  0.12272017045E+04  0.12283273859E+04  0.00000000000E+00 0.  1.
         14    1    5    5    0    0  0.45846020704E+01  0.53601752370E+01  0.70762517414E+01  0.99911657689E+01  0.00000000000E+00 0. -1.
         11    1    3    3    0    0 -0.65533932398E+01 -0.85936970989E+02 -0.81976975198E+03  0.82428790856E+03  0.00000000000E+00 0. -1.
        -12    1    3    3    0    0  0.50180781743E+01 -0.42018779611E+01 -0.64377967155E+03  0.64381294052E+03  0.00000000000E+00 0.  1.
          5    1    4    4  501    0 -0.85694263702E+02  0.12666649699E+02  0.14849611676E+02  0.87988261790E+02  0.41800000000E+01 0.  1.
         -5    1    4    4    0  501  0.31637697921E+02  0.59368360669E+02  0.13289308842E+02  0.68699521889E+02  0.41800000000E+01 0.  1.
</event>
<event>
11    1  0.7577197E-009  0.1270554E+03  0.7561462E-02  0.1122941E+00
         22   -1    0    0    0    0  0.00000000000E+00  0.00000000000E+00  0.30313591133E+03  0.30313591133E+03  0.00000000000E+00 0.  1.
         22   -1    0    0    0    0 -0.00000000000E+00 -0.00000000000E+00 -0.17831159309E+03  0.17831159309E+03  0.00000000000E+00 0. -1.
         24    2    1    2    0    0  0.36342102327E+01 -0.80018839577E+01 -0.10869848916E+03  0.13562473178E+03  0.80631685425E+02 0.  0.
         25    2    1    2    0    0  0.30661739033E+01 -0.14635928569E+02  0.36379483150E+02  0.13113017368E+03  0.12509214135E+03 0.  0.
        -24    2    1    2    0    0 -0.67003841360E+01  0.22637812527E+02  0.19714332424E+03  0.21469259896E+03  0.81670411111E+02 0.  0.
        -13    1    3    3    0    0  0.18073659872E+02  0.25610453132E+02 -0.14431627620E+02  0.34508323149E+02  0.00000000000E+00 0.  1.
         14    1    3    3    0    0 -0.14439449639E+02 -0.33612337089E+02 -0.94266861535E+02  0.10111640863E+03  0.00000000000E+00 0. -1.
         13    1    5    5    0    0 -0.18666456633E+02 -0.22898927145E+02  0.34746631203E+02  0.45608396678E+02  0.00000000000E+00 0. -1.
        -14    1    5    5    0    0  0.11966072497E+02  0.45536739672E+02  0.16239669304E+03  0.16908420228E+03  0.00000000000E+00 0.  1.
          5    1    4    4  501    0  0.32837738425E+02  0.46903740616E+02  0.14211474011E+02  0.59141494250E+02  0.41800000000E+01 0.  1.
         -5    1    4    4    0  501 -0.29771564522E+02 -0.61539669185E+02  0.22168009139E+02  0.71988679434E+02  0.41800000000E+01 0.  1.
</event>
<event>
11    1  0.7577197E-009  0.1383392E+03  0.7561462E-02  0.1109427E+00
         22   -1    0    0    0    0  0.00000000000E+00  0.00000000000E+00  0.10205560344E+03  0.10205560344E+03  0.00000000000E+00 0.  1.
         22   -1    0    0    0    0 -0.00000000000E+00 -0.00000000000E+00 -0.13348774013E+04  0.13348774013E+04  0.00000000000E+00 0. -1.
        -24    2    1    2    0    0 -0.42463522174E+02  0.22594449781E+02 -0.83029476732E+03  0.83561348640E+03  0.80912533936E+02 0.  0.
         25    2    1    2    0    0  0.83488827951E+02 -0.61102065486E+02 -0.45763398369E+03  0.48557234691E+03  0.12509114379E+03 0.  0.
         24    2    1    2    0    0 -0.41025305777E+02  0.38507615704E+02  0.55106953160E+02  0.11574717141E+03  0.84821690748E+02 0.  0.
        -11    1    5    5    0    0 -0.33471228093E+02  0.57411102162E+02  0.65135808596E+02  0.93053916215E+02  0.00000000000E+00 0.  1.
         12    1    5    5    0    0 -0.75540776843E+01 -0.18903486458E+02 -0.10028855437E+02  0.22693255194E+02  0.00000000000E+00 0. -1.
         11    1    3    3    0    0 -0.40304018868E+02  0.33931369565E+02 -0.81367954114E+03  0.81538343585E+03  0.00000000000E+00 0. -1.
        -12    1    3    3    0    0 -0.21595033060E+01 -0.11336919783E+02 -0.16615226172E+02  0.20230050555E+02  0.00000000000E+00 0.  1.
          5    1    4    4  501    0  0.25679711441E+02 -0.67903309332E+02 -0.10249322026E+03  0.12566876938E+03  0.41800000000E+01 0. -1.
         -5    1    4    4    0  501  0.57809116511E+02  0.68012438468E+01 -0.35514076343E+03  0.35990357753E+03  0.41800000000E+01 0. -1.
</event>
<event>
11    1  0.7577197E-009  0.1289004E+03  0.7561462E-02  0.1120627E+00
         22   -1    0    0    0    0  0.00000000000E+00  0.00000000000E+00  0.18310620571E+04  0.18310620571E+04  0.00000000000E+00 0. -1.
         22   -1    0    0    0    0 -0.00000000000E+00 -0.00000000000E+00 -0.10252143336E+03  0.10252143336E+03  0.00000000000E+00 0. -1.
        -24    2    1    2    0    0  0.15492595240E+02 -0.32558473525E+00 -0.52191157649E+02  0.98564093156E+02  0.82163477350E+02 0.  0.
         25    2    1    2    0    0  0.52852121030E+01  0.24024225864E+02  0.13019664075E+03  0.18221973984E+03  0.12509105255E+03 0.  0.
         24    2    1    2    0    0 -0.20777807343E+02 -0.23698641129E+02  0.16505351406E+04  0.16527996574E+04  0.80542624678E+02 0.  0.
        -13    1    5    5    0    0 -0.10879381742E+02  0.14510295990E+02  0.92308965235E+02  0.94073666345E+02  0.00000000000E+00 0.  1.
         14    1    5    5    0    0 -0.98984256012E+01 -0.38208937119E+02  0.15582261754E+04  0.15587259911E+04  0.00000000000E+00 0. -1.
         13    1    3    3    0    0 -0.29511229751E+02 -0.14360371608E+02 -0.76301828816E+01  0.33694994360E+02  0.00000000000E+00 0. -1.
        -14    1    3    3    0    0  0.45003824991E+02  0.14034786873E+02 -0.44560974767E+02  0.64869098796E+02  0.00000000000E+00 0.  1.
          5    1    4    4  501    0 -0.47914615266E+02  0.45100373131E+02  0.92405555907E+02  0.11351701712E+03  0.41800000000E+01 0. -1.
         -5    1    4    4    0  501  0.53199827369E+02 -0.21076147267E+02  0.37791084841E+02  0.68702722720E+02  0.41800000000E+01 0. -1.
</event>
<event>
11    1  0.7577197E-009  0.1510075E+03  0.7561462E-02  0.1095854E+00
         22   -1    0    0    0    0  0.00000000000E+00  0.00000000000E+00  0.54626920724E+03  0.54626920724E+03  0.00000000000E+00 0. -1.
         22   -1    0    0    0    0 -0.00000000000E+00 -0.00000000000E+00 -0.52135460831E+03  0.52135460831E+03  0.00000000000E+00 0.  1.
        -24    2    1    2    0    0  0.62898126893E+02 -0.33645180536E+02 -0.46621389747E+03  0.47690601626E+03  0.70680815033E+02 0.  0.
         25    2    1    2    0    0  0.31227926928E+01  0.92380749472E+02  0.11051107236E+03  0.19079785166E+03  0.12508864208E+03 0.  0.
         24    2    1    2    0    0 -0.66020919586E+02 -0.58735568935E+02  0.38061742405E+03  0.39991994763E+03  0.85192207055E+02 0.  0.
        -13    1    5    5    0    0 -0.54244969997E+02  0.41951859812E+01  0.22831494674E+03  0.23470797017E+03  0.00000000000E+00 0.  1.
         14    1    5    5    0    0 -0.11775949588E+02 -0.62930754916E+02  0.15230247731E+03  0.16521197746E+03  0.00000000000E+00 0. -1.
         13    1    3    3    0    0  0.45263799813E+02 -0.28730701126E+02 -0.13600943836E+03  0.14619450087E+03  0.00000000000E+00 0. -1.
        -14    1    3    3    0    0  0.17634327080E+02 -0.49144794100E+01 -0.33020445911E+03  0.33071151540E+03  0.00000000000E+00 0.  1.
          5    1    4    4  501    0 -0.48336686433E+02  0.71599196005E+02  0.10322405026E+03  0.13466832247E+03  0.41800000000E+01 0.  1.
         -5    1    4    4    0  501  0.51459479126E+02  0.20781553467E+02  0.72870220939E+01  0.56129529192E+02  0.41800000000E+01 0.  1.
</event>
<event>
11    1  0.7577197E-009  0.1516927E+03  0.7561462E-02  0.1095162E+00
         22   -1    0    0    0    0  0.00000000000E+00  0.00000000000E+00  0.52951145803E+03  0.52951145803E+03  0.00000000000E+00 0.  1.
         22   -1    0    0    0    0 -0.00000000000E+00 -0.00000000000E+00 -0.85084496388E+02  0.85084496388E+02  0.00000000000E+00 0.  1.
        -24    2    1    2    0    0  0.63588284629E+02 -0.67010465083E+02  0.21547518443E+02  0.12303173333E+03  0.78349470210E+02 0.  0.
         25    2    1    2    0    0 -0.27161569289E+02  0.66673339822E+02  0.16746279840E+03  0.22107615731E+03  0.12509114035E+03 0.  0.
         24    2    1    2    0    0 -0.36426715340E+02  0.33712526144E+00  0.25541664480E+03  0.27048806378E+03  0.81234912211E+02 0.  0.
        -11    1    5    5    0    0 -0.57083627720E+02 -0.18972509605E+02  0.15851373618E+03  0.16954380329E+03  0.00000000000E+00 0.  1.
         12    1    5    5    0    0  0.20656912380E+02  0.19309634867E+02  0.96902908616E+02  0.10094426049E+03  0.00000000000E+00 0. -1.
         13    1    3    3    0    0  0.10470375068E+02  0.11529580795E+02  0.23503954183E+02  0.28195670760E+02  0.00000000000E+00 0. -1.
        -14    1    3    3    0    0  0.53117909562E+02 -0.78540045879E+02 -0.19564357404E+01  0.94836062569E+02  0.00000000000E+00 0.  1.
          5    1    4    4  501    0 -0.52849069200E+02 -0.57660908159E+01  0.11824396652E+03  0.12971268225E+03  0.41800000000E+01 0. -1.
         -5    1    4    4    0  501  0.25687499911E+02  0.72439430638E+02  0.49218831876E+02  0.91363475055E+02  0.41800000000E+01 0. -1.
</event>
<event>
11    1  0.7577197E-009  0.1735659E+03  0.7561462E-02  0.1074969E+00
         22   -1    0    0    0    0  0.00000000000E+00  0.00000000000E+00  0.40036775135E+03  0.40036775135E+03  0.00000000000E+00 0. -1.
         22   -1    0    0    0    0 -0.00000000000E+00 -0.00000000000E+00 -0.76284536973E+03  0.76284536973E+03  0.00000000000E+00 0. -1.
         24    2    1    2    0    0  0.10374506264E+03 -0.60291782096E+02 -0.70735349300E+03  0.72193075344E+03  0.80230366416E+02 0.  0.
         25    2    1    2    0    0 -0.94906476018E+02  0.99921855665E+02  0.25098459610E+03  0.31246849349E+03  0.12510665655E+03 0.  0.
        -24    2    1    2    0    0 -0.88385866210E+01 -0.39630073569E+02  0.93891278513E+02  0.12881387415E+03  0.78286516386E+02 0.  0.
        -11    1    3    3    0    0  0.63754468390E+02  0.44279401528E+01 -0.41246482775E+03  0.41738647921E+03  0.00000000000E+00 0.  1.
         12    1    3    3    0    0  0.39990594249E+02 -0.64719722249E+02 -0.29488866524E+03  0.30454427423E+03  0.00000000000E+00 0. -1.
         11    1    5    5    0    0 -0.80005264711E+01 -0.58509653409E+02  0.92656441461E+02  0.10987540266E+03  0.00000000000E+00 0. -1.
        -12    1    5    5    0    0 -0.83806014998E+00  0.18879579839E+02  0.12348370516E+01  0.18938471487E+02  0.00000000000E+00 0.  1.
          5    1    4    4  501    0  0.72583187873E+01  0.49201734972E+02  0.18050956812E+02  0.53073565527E+02  0.41800000000E+01 0.  1.
         -5    1    4    4    0  501 -0.10216479481E+03  0.50720120693E+02  0.23293363929E+03  0.25939492796E+03  0.41800000000E+01 0.  1.
</event>
<event>
11    1  0.7577197E-009  0.1277515E+03  0.7561462E-02  0.1122063E+00
         22   -1    0    0    0    0  0.00000000000E+00  0.00000000000E+00  0.86327206021E+03  0.86327206021E+03  0.00000000000E+00 0.  1.
         22   -1    0    0    0    0 -0.00000000000E+00 -0.00000000000E+00 -0.10305633195E+04  0.10305633195E+04  0.00000000000E+00 0. -1.
        -24    2    1    2    0    0 -0.22168181878E+02 -0.27009150193E+01 -0.88935211164E+03  0.89659448815E+03  0.11151580370E+03 0.  0.
         25    2    1    2    0    0  0.69879169779E+02 -0.47605684727E+02 -0.91541554198E+02  0.17656913665E+03  0.12508958504E+03 0.  0.
         24    2    1    2    0    0 -0.47710987901E+02  0.50306599746E+02  0.81360240655E+03  0.82067175490E+03  0.82135016921E+02 0.  0.
        -11    1    5    5    0    0 -0.45095811471E+02 -0.10373598264E+02  0.31408370632E+03  0.31747412230E+03  0.00000000000E+00 0.  1.
         12    1    5    5    0    0 -0.26151764302E+01  0.60680198010E+02  0.49951870023E+03  0.50319763261E+03  0.00000000000E+00 0. -1.
         11    1    3    3    0    0 -0.37763438133E+02  0.47493605743E+02 -0.43475091108E+03  0.43896477596E+03  0.00000000000E+00 0. -1.
        -12    1    3    3    0    0  0.15595256255E+02 -0.50194520763E+02 -0.45460120056E+03  0.45762971219E+03  0.00000000000E+00 0.  1.
          5    1    4    4  501    0  0.67332909687E+02 -0.68928754942E+01  0.86003079461E+01  0.68356932027E+02  0.41800000000E+01 0.  1.
         -5    1    4    4    0  501  0.25462600928E+01 -0.40712809232E+02 -0.10014186214E+03  0.10821220462E+03  0.41800000000E+01 0.  1.
</event>
<event>
11    1  0.7577197E-009  0.1403450E+03  0.7561462E-02  0.1107174E+00
         22   -1    0    0    0    0  0.00000000000E+00  0.00000000000E+00  0.93598117360E+02  0.93598117360E+02  0.00000000000E+00 0. -1.
         22   -1    0    0    0    0 -0.00000000000E+00 -0.00000000000E+00 -0.85371376008E+03  0.85371376008E+03  0.00000000000E+00 0. -1.
         24    2    1    2    0    0  0.67776433633E+01 -0.17122712765E+02 -0.63302127190E+03  0.63749596708E+03  0.73116712362E+02 0.  0.
         25    2    1    2    0    0  0.58130007226E+02  0.13665790859E+02 -0.15045187581E+03  0.20456920678E+03  0.12508773660E+03 0.  0.
        -24    2    1    2    0    0 -0.64907650590E+02  0.34569219056E+01  0.23357504985E+02  0.10524670358E+03  0.79412481147E+02 0.  0.
        -13    1    3    3    0    0 -0.92025588696E+01 -0.40871311606E+02 -0.25754889315E+03  0.26093405980E+03  0.00000000000E+00 0.  1.
         14    1    3    3    0    0  0.15980202233E+02  0.23748598841E+02 -0.37547237875E+03  0.37656190728E+03  0.00000000000E+00 0. -1.
         13    1    5    5    0    0 -0.79702089773E+02 -0.94961214160E+01  0.28059017991E+02  0.85028865257E+02  0.00000000000E+00 0. -1.
        -14    1    5    5    0    0  0.14794439184E+02  0.12953043322E+02 -0.47015130067E+01  0.20217838327E+02  0.00000000000E+00 0.  1.
          5    1    4    4  501    0  0.56174627084E+01 -0.51423419195E+01  0.21797684660E+02  0.23465102264E+02  0.41800000000E+01 0.  1.
         -5    1    4    4    0  501  0.52512544518E+02  0.18808132779E+02 -0.17224956047E+03  0.18110410451E+03  0.41800000000E+01 0.  1.
</event>
<event>
11    1  0.7577197E-009  0.1457138E+03  0.7561462E-02  0.1101341E+00
         22   -1    0    0    0    0  0.00000000000E+00  0.00000000000E+00  0.13590063964E+04  0.13590063964E+04  0.00000000000E+00 0.  1.
         22   -1    0    0    0    0 -0.00000000000E+00 -0.00000000000E+00 -0.51024417077E+03  0.51024417077E+03  0.00000000000E+00 0.  1.
         24    2    1    2    0    0 -0.91941951084E+01 -0.29086076871E+02 -0.33764693149E+03  0.34861574166E+03  0.81221622105E+02 0.  0.
         25    2    1    2    0    0  0.47685843315E+02 -0.35308522550E+02 -0.13563630739E+03  0.19381759765E+03  0.12508965528E+03 0.  0.
        -24    2    1    2    0    0 -0.38491648206E+02  0.64394599421E+02  0.13220454646E+04  0.13268172279E+04  0.83734547955E+02 0.  0.
        -13    1    3    3    0    0  0.22777730000E+02 -0.44875225827E+01 -0.26073770235E+03  0.26176919656E+03  0.00000000000E+00 0.  1.
         14    1    3    3    0    0 -0.31971925109E+02 -0.24598554288E+02 -0.76909229138E+02  0.86846545094E+02  0.00000000000E+00 0. -1.
         11    1    5    5    0    0 -0.52387383093E+02  0.33012461836E+02  0.46751999699E+03  0.47160280759E+03  0.00000000000E+00 0. -1.
        -12    1    5    5    0    0  0.13895734886E+02  0.31382137585E+02  0.85452546756E+03  0.85521442032E+03  0.00000000000E+00 0.  1.
          5    1    4    4  501    0 -0.16887996158E+02 -0.37614478834E+02  0.22301656302E+01  0.41503005565E+02  0.41800000000E+01 0.  1.
         -5    1    4    4    0  501  0.64573839472E+02  0.23059562845E+01 -0.13786647302E+03  0.15231459208E+03  0.41800000000E+01 0.  1.
</event>
<event>
11    1  0.7577197E-009  0.1293592E+03  0.7561462E-02  0.1120059E+00
         22   -1    0    0    0    0  0.00000000000E+00  0.00000000000E+00  0.32205650540E+03  0.32205650540E+03  0.00000000000E+00 0. -1.
         22   -1    0    0    0    0 -0.00000000000E+00 -0.00000000000E+00 -0.44552649989E+03  0.44552649989E+03  0.00000000000E+00 0.  1.
         24    2    1    2    0    0 -0.44286150097E+01 -0.10639861198E+02 -0.27307174792E+03  0.28506784915E+03  0.81010368643E+02 0.  0.
         25    2    1    2    0    0 -0.28663372947E+02  0.84681089655E+01 -0.13403015275E+03  0.18575404688E+03  0.12508871358E+03 0.  0.
        -24    2    1    2    0    0  0.33091987957E+02  0.21717522325E+01  0.28363190619E+03  0.29676110927E+03  0.80748384433E+02 0.  0.
        -11    1    3    3    0    0 -0.29373976781E+02 -0.15027403821E+02 -0.24518729616E+03  0.24739737989E+03  0.00000000000E+00 0.  1.
         12    1    3    3    0    0  0.24945361772E+02  0.43875426229E+01 -0.27884451763E+02  0.37670469260E+02  0.00000000000E+00 0. -1.
         13    1    5    5    0    0  0.60094234614E+02 -0.14894208673E+00  0.20182917315E+03  0.21058574109E+03  0.00000000000E+00 0. -1.
        -14    1    5    5    0    0 -0.27002246657E+02  0.23206943192E+01  0.81802733042E+02  0.86175368173E+02  0.00000000000E+00 0.  1.
          5    1    4    4  501    0 -0.66299881694E+02 -0.24379803310E+02 -0.45845391641E+02  0.84316792259E+02  0.41800000000E+01 0. -1.
         -5    1    4    4    0  501  0.37636508747E+02  0.32847912276E+02 -0.88184761113E+02  0.10143725462E+03  0.41800000000E+01 0. -1.
</event>
<event>
11    1  0.7577197E-009  0.1440321E+03  0.7561462E-02  0.1103138E+00
         22   -1    0    0    0    0  0.00000000000E+00  0.00000000000E+00  0.11745635303E+03  0.11745635303E+03  0.00000000000E+00 0.  1.
         22   -1    0    0    0    0 -0.00000000000E+00 -0.00000000000E+00 -0.10387027017E+04  0.10387027017E+04  0.00000000000E+00 0. -1.
        -24    2    1    2    0    0  0.45078135299E+02 -0.55141458063E+02 -0.87735978640E+03  0.88347939461E+03  0.75518390048E+02 0.  0.
         25    2    1    2    0    0 -0.58613563383E+02  0.47165390334E+02 -0.99228113423E+02  0.17650110271E+03  0.12508515862E+03 0.  0.
         24    2    1    2    0    0  0.13535428084E+02  0.79760677298E+01  0.55341551141E+02  0.96178557424E+02  0.77076599274E+02 0.  0.
        -11    1    5    5    0    0  0.42075417560E+02 -0.84841211111E+00  0.50791577960E+02  0.65960935087E+02  0.00000000000E+00 0.  1.
         12    1    5    5    0    0 -0.28539989476E+02  0.88244798409E+01  0.45499731814E+01  0.30217622337E+02  0.00000000000E+00 0. -1.
         13    1    3    3    0    0  0.10133014914E+02 -0.66060957797E+02 -0.53075013518E+03  0.53494152403E+03  0.00000000000E+00 0. -1.
        -14    1    3    3    0    0  0.34945120385E+02  0.10919499733E+02 -0.34660965122E+03  0.34853787058E+03  0.00000000000E+00 0.  1.
          5    1    4    4  501    0 -0.63737900689E+02 -0.86205777850E+01 -0.23295134952E+01  0.64495995060E+02  0.41800000000E+01 0. -1.
         -5    1    4    4    0  501  0.51243373064E+01  0.55785968119E+02 -0.96898599928E+02  0.11200510765E+03  0.41800000000E+01 0. -1.
</event>
<event>
11    1  0.7577197E-009  0.1976877E+03  0.7561462E-02  0.1056171E+00
         22   -1    0    0    0    0  0.00000000000E+00  0.00000000000E+00  0.17351975847E+04  0.17351975847E+04  0.00000000000E+00 0. -1.
         22   -1    0    0    0    0 -0.00000000000E+00 -0.00000000000E+00 -0.15765756842E+03  0.15765756842E+03  0.00000000000E+00 0.  1.
         24    2    1    2    0    0  0.62083044874E+02 -0.56751712019E+02 -0.97018108592E+02  0.15200039143E+03  0.81342143574E+02 0.  0.
         25    2    1    2    0    0 -0.18558370322E+03  0.11836397081E+03  0.56652182267E+03  0.62051972509E+03  0.12508562337E+03 0.  0.
        -24    2    1    2    0    0  0.12350065834E+03 -0.61612258795E+02  0.11080363022E+04  0.11203350366E+04  0.91420261483E+02 0.  0.
        -11    1    3    3    0    0  0.59124295176E+02 -0.14359035642E+02 -0.90436000539E+02  0.10899786410E+03  0.00000000000E+00 0.  1.
         12    1    3    3    0    0  0.29587496978E+01 -0.42392676377E+02 -0.65821080530E+01  0.43002527328E+02  0.00000000000E+00 0. -1.
         11    1    5    5    0    0  0.57082654702E+02 -0.74833544483E+02  0.75675985282E+03  0.76259029871E+03  0.00000000000E+00 0. -1.
        -12    1    5    5    0    0  0.66418003640E+02  0.13221285688E+02  0.35127644939E+03  0.35774473790E+03  0.00000000000E+00 0.  1.
          5    1    4    4  501    0 -0.20152920529E+03  0.10673490508E+03  0.47665336139E+03  0.52841485584E+03  0.41800000000E+01 0. -1.
         -5    1    4    4    0  501  0.15945502074E+02  0.11629065737E+02  0.89868461276E+02  0.92104869244E+02  0.41800000000E+01 0. -1.
</event>
<event>
11    1  0.7577197E-009  0.1344565E+03  0.7561462E-02  0.1113911E+00
         22   -1    0    0    0    0  0.00000000000E+00  0.00000000000E+00  0.71193040293E+03  0.71193040293E+03  0.00000000000E+00 0.  1.
         22   -1    0    0    0    0 -0.00000000000E+00 -0.00000000000E+00 -0.24128971590E+03  0.24128971590E+03  0.00000000000E+00 0.  1.
        -24    2    1    2    0    0  0.45363999234E+02  0.15654185650E+02 -0.18304184668E+03  0.20648022083E+03  0.82624560533E+02 0.  0.
         25    2    1    2    0    0 -0.49503402162E+02 -0.46036328868E+02  0.73814310704E+02  0.16020461056E+03  0.12508810646E+03 0.  0.
         24    2    1    2    0    0  0.41394029286E+01  0.30382143218E+02  0.57986822300E+03  0.58653528744E+03  0.82681788106E+02 0.  0.
        -13    1    5    5    0    0  0.14257134034E+02  0.31541662834E+02  0.88018120493E+02  0.94579764750E+02  0.00000000000E+00 0.  1.
         14    1    5    5    0    0 -0.10117731106E+02 -0.11595196161E+01  0.49185010251E+03  0.49195552269E+03  0.00000000000E+00 0. -1.
         13    1    3    3    0    0  0.46426854192E+02  0.11059918013E+02 -0.37067977212E+02  0.60430203634E+02  0.00000000000E+00 0. -1.
        -14    1    3    3    0    0 -0.10628549587E+01  0.45942676377E+01 -0.14597386946E+03  0.14605001719E+03  0.00000000000E+00 0.  1.
          5    1    4    4  501    0  0.23382996783E+02 -0.60157356397E+02  0.51177847349E+02  0.82476157321E+02  0.41800000000E+01 0.  1.
         -5    1    4    4    0  501 -0.72886398945E+02  0.14121027529E+02  0.22636463356E+02  0.77728453239E+02  0.41800000000E+01 0.  1.
</event>
<event>
11    1  0.7577197E-009  0.2020539E+03  0.7561462E-02  0.1053081E+00
         22   -1    0    0    0    0  0.00000000000E+00  0.00000000000E+00  0.75529878757E+03  0.75529878757E+03  0.00000000000E+00 0. -1.
         22   -1    0    0    0    0 -0.00000000000E+00 -0.00000000000E+00 -0.21015261275E+03  0.21015261275E+03  0.00000000000E+00 0. -1.
        -24    2    1    2    0    0 -0.16754750441E+03 -0.29748706277E+02 -0.10790445889E+03  0.22160776863E+03  0.92246837944E+02 0.  0.
         25    2    1    2    0    0  0.12039837759E+03  0.15507754776E+02  0.14408837256E+03  0.22614959972E+03  0.12508366226E+03 0.  0.
         24    2    1    2    0    0  0.47149126815E+02  0.14240951502E+02  0.50896226114E+03  0.51769403197E+03  0.80862120991E+02 0.  0.
        -13    1    5    5    0    0  0.64811654180E+02  0.13030866675E+02  0.26615870973E+03  0.27424589836E+03  0.00000000000E+00 0.  1.
         14    1    5    5    0    0 -0.17662527366E+02  0.12100848270E+01  0.24280355141E+03  0.24344813361E+03  0.00000000000E+00 0. -1.
         11    1    3    3    0    0 -0.96361163711E+02  0.26147769772E+02 -0.76577723516E+02  0.12583055064E+03  0.00000000000E+00 0. -1.
        -12    1    3    3    0    0 -0.71186340694E+02 -0.55896476049E+02 -0.31326735369E+02  0.95777217985E+02  0.00000000000E+00 0.  1.
          5    1    4    4  501    0  0.12687015198E+03 -0.28088381914E+02  0.10585267247E+03  0.16765217962E+03  0.41800000000E+01 0. -1.
         -5    1    4    4    0  501 -0.64717743883E+01  0.43596136690E+02  0.38235700084E+02  0.58497420105E+02  0.41800000000E+01 0. -1.
</event>
<event>
11    1  0.7577197E-009  0.2061152E+03  0.7561462E-02  0.1050282E+00
         22   -1    0    0    0    0  0.00000000000E+00  0.00000000000E+00  0.17813948954E+03  0.17813948954E+03  0.00000000000E+00 0.  1.
         22   -1    0    0    0    0 -0.00000000000E+00 -0.00000000000E+00 -0.89936024703E+03  0.89936024703E+03  0.00000000000E+00 0.  1.
         24    2    1    2    0    0  0.38671915099E+02 -0.87764078132E+01 -0.45528214314E+03  0.46406539870E+03  0.80636976989E+02 0.  0.
         25    2    1    2    0    0  0.35826966154E+02 -0.14077060797E+03 -0.35768598123E+03  0.40581537076E+03  0.12508764288E+03 0.  0.
        -24    2    1    2    0    0 -0.74498881254E+02  0.14954701578E+03  0.91747366888E+02  0.20761896711E+03  0.82302265675E+02 0.  0.
        -11    1    3    3    0    0  0.25158397421E+01 -0.26516176209E+02 -0.35500905051E+03  0.35600682998E+03  0.00000000000E+00 0.  1.
         12    1    3    3    0    0  0.36156075357E+02  0.17739768395E+02 -0.10027309263E+03  0.10805856872E+03  0.00000000000E+00 0. -1.
         11    1    5    5    0    0 -0.75684927466E+01  0.47556786639E+02 -0.95030823989E+01  0.49083995487E+02  0.00000000000E+00 0. -1.
        -12    1    5    5    0    0 -0.66930388507E+02  0.10199022914E+03  0.10125044929E+03  0.15853497162E+03  0.00000000000E+00 0.  1.
          5    1    4    4  501    0  0.51959831317E+02 -0.13630470639E+03 -0.35995617713E+03  0.38841307767E+03  0.41800000000E+01 0.  1.
         -5    1    4    4    0  501 -0.16132865163E+02 -0.44659015748E+01  0.22701958945E+01  0.17402293085E+02  0.41800000000E+01 0.  1.
</event>
<event>
11    1  0.7577197E-009  0.1712727E+03  0.7561462E-02  0.1076929E+00
         22   -1    0    0    0    0  0.00000000000E+00  0.00000000000E+00  0.10117590981E+04  0.10117590981E+04  0.00000000000E+00 0. -1.
         22   -1    0    0    0    0 -0.00000000000E+00 -0.00000000000E+00 -0.34218170660E+03  0.34218170660E+03  0.00000000000E+00 0.  1.
         24    2    1    2    0    0  0.22297930919E+02 -0.78080609040E-01 -0.31073696158E+03  0.32204430023E+03  0.81595760888E+02 0.  0.
         25    2    1    2    0    0 -0.13104984951E+03 -0.92241408624E+01  0.47642856984E+03  0.50979396269E+03  0.12508618788E+03 0.  0.
        -24    2    1    2    0    0  0.10875191859E+03  0.93022214714E+01  0.50388578325E+03  0.52210254180E+03  0.82320534892E+02 0.  0.
        -11    1    3    3    0    0  0.33901800203E+02  0.35267213780E+01 -0.30761654681E+03  0.30949912713E+03  0.00000000000E+00 0.  1.
         12    1    3    3    0    0 -0.11603869285E+02 -0.36048019871E+01 -0.31204147718E+01  0.12545173099E+02  0.00000000000E+00 0. -1.
         11    1    5    5    0    0  0.10476753684E+03  0.30037398785E+02  0.34462780864E+03  0.36145097675E+03  0.00000000000E+00 0. -1.
        -12    1    5    5    0    0  0.39843817500E+01 -0.20735177313E+02  0.15925797461E+03  0.16065156505E+03  0.00000000000E+00 0.  1.
          5    1    4    4  501    0 -0.72300706226E+02 -0.42284692153E+02  0.39592649769E+03  0.40471057719E+03  0.41800000000E+01 0. -1.
         -5    1    4    4    0  501 -0.58749143280E+02  0.33060551291E+02  0.80502072148E+02  0.10508338550E+03  0.41800000000E+01 0. -1.
</event>
<event>
11    1  0.7577197E-009  0.2429868E+03  0.7561462E-02  0.1027703E+00
         22   -1    0    0    0    0  0.00000000000E+00  0.00000000000E+00  0.19996065719E+04  0.19996065719E+04  0.00000000000E+00 0.  1.
         22   -1    0    0    0    0 -0.00000000000E+00 -0.00000000000E+00 -0.12129491112E+03  0.12129491112E+03  0.00000000000E+00 0.  1.
         24    2    1    2    0    0 -0.12270461846E+03 -0.17856383813E+03  0.18830394729E+02  0.22966261289E+03  0.73816423062E+02 0.  0.
         25    2    1    2    0    0  0.12162220312E+03  0.10338004684E+03  0.78724272589E+03  0.81294174705E+03  0.12507509842E+03 0.  0.
        -24    2    1    2    0    0  0.10824153440E+01  0.75183791296E+02  0.10722385401E+04  0.10782971231E+04  0.85880292068E+02 0.  0.
        -11    1    3    3    0    0 -0.59783017568E+02 -0.45665955604E+02 -0.19485927730E+02  0.77711582600E+02  0.00000000000E+00 0.  1.
         12    1    3    3    0    0 -0.62921600896E+02 -0.13289788253E+03  0.38316322459E+02  0.15195103029E+03  0.00000000000E+00 0. -1.
         11    1    5    5    0    0  0.34648944082E+02  0.58444147718E+02  0.46927128623E+03  0.47416432575E+03  0.00000000000E+00 0. -1.
        -12    1    5    5    0    0 -0.33566528738E+02  0.16739643578E+02  0.60296725390E+03  0.60413279731E+03  0.00000000000E+00 0.  1.
          5    1    4    4  501    0  0.79217290179E+02  0.13016953045E+03  0.59667562949E+03  0.61583988580E+03  0.41800000000E+01 0.  1.
         -5    1    4    4    0  501  0.42404912941E+02 -0.26789483613E+02  0.19056709641E+03  0.19710186125E+03  0.41800000000E+01 0.  1.
</event>
<event>
11    1  0.7577197E-009  0.1466465E+03  0.7561462E-02  0.1100355E+00
         22   -1    0    0    0    0  0.00000000000E+00  0.00000000000E+00  0.95106363543E+02  0.95106363543E+02  0.00000000000E+00 0.  1.
         22   -1    0    0    0    0 -0.00000000000E+00 -0.00000000000E+00 -0.16503639891E+04  0.16503639891E+04  0.00000000000E+00 0.  1.
        -24    2    1    2    0    0  0.43729825762E+02  0.62677287178E+02 -0.14047934419E+04  0.14092143256E+04  0.81238299279E+02 0.  0.
         25    2    1    2    0    0 -0.79221376897E+01 -0.88321776192E+02 -0.18333169774E+03  0.23900179902E+03  0.12509137510E+03 0.  0.
         24    2    1    2    0    0 -0.35807688072E+02  0.25644489014E+02  0.32867514061E+02  0.97254227976E+02  0.80238899773E+02 0.  0.
        -13    1    5    5    0    0  0.53388418460E+01 -0.25402434945E+02  0.87020203188E+01  0.27377218468E+02  0.00000000000E+00 0.  1.
         14    1    5    5    0    0 -0.41146529918E+02  0.51046923959E+02  0.24165493742E+02  0.69877009508E+02  0.00000000000E+00 0. -1.
         13    1    3    3    0    0 -0.21447001632E+02  0.14454741839E+01 -0.33545519485E+03  0.33614320018E+03  0.00000000000E+00 0. -1.
        -14    1    3    3    0    0  0.65176827394E+02  0.61231812994E+02 -0.10693382470E+04  0.10730711255E+04  0.00000000000E+00 0.  1.
          5    1    4    4  501    0 -0.16860718719E+02 -0.10823551648E+03 -0.18672020598E+03  0.21652048075E+03  0.41800000000E+01 0.  1.
         -5    1    4    4    0  501  0.89385810295E+01  0.19913740286E+02  0.33885082443E+01  0.22481318269E+02  0.41800000000E+01 0.  1.
</event>
<event>
11    1  0.7577197E-009  0.1368377E+03  0.7561462E-02  0.1111142E+00
         22   -1    0    0    0    0  0.00000000000E+00  0.00000000000E+00  0.10722922142E+04  0.10722922142E+04  0.00000000000E+00 0. -1.
         22   -1    0    0    0    0 -0.00000000000E+00 -0.00000000000E+00 -0.37103450206E+03  0.37103450206E+03  0.00000000000E+00 0.  1.
         24    2    1    2    0    0  0.50594987475E+02  0.23210698886E+02 -0.35296073029E+03  0.36601756285E+03  0.79303151830E+02 0.  0.
         25    2    1    2    0    0 -0.19967760474E+02 -0.42986419965E+02  0.63773778878E+03  0.65161623998E+03  0.12509073988E+03 0.  0.
        -24    2    1    2    0    0 -0.30627227001E+02  0.19775721079E+02  0.41648065361E+03  0.42569291339E+03  0.80182388974E+02 0.  0.
        -13    1    3    3    0    0  0.35585668147E+02  0.35012221164E+02 -0.33825083798E+03  0.34191493797E+03  0.00000000000E+00 0.  1.
         14    1    3    3    0    0  0.15009319329E+02 -0.11801522278E+02 -0.14709892307E+02  0.24102624888E+02  0.00000000000E+00 0. -1.
         11    1    5    5    0    0  0.23048562391E+02  0.22366484440E+02  0.11231974363E+03  0.11682131939E+03  0.00000000000E+00 0. -1.
        -12    1    5    5    0    0 -0.53675789392E+02 -0.25907633606E+01  0.30416090998E+03  0.30887159400E+03  0.00000000000E+00 0.  1.
          5    1    4    4  501    0  0.48354344240E+01  0.38376824847E+02  0.33090047810E+03  0.33317977267E+03  0.41800000000E+01 0.  1.
         -5    1    4    4    0  501 -0.24803194898E+02 -0.81363244812E+02  0.30683731068E+03  0.31843646730E+03  0.41800000000E+01 0.  1.
</event>
<event>
11    1  0.7577197E-009  0.1597200E+03  0.7561462E-02  0.1087341E+00
         22   -1    0    0    0    0  0.00000000000E+00  0.00000000000E+00  0.58650056819E+03  0.58650056819E+03  0.00000000000E+00 0. -1.
         22   -1    0    0    0    0 -0.00000000000E+00 -0.00000000000E+00 -0.36932638785E+03  0.36932638785E+03  0.00000000000E+00 0. -1.
        -24    2    1    2    0    0  0.12790292101E+02  0.50872421137E+02 -0.27948296611E+03  0.29598523477E+03  0.82127559606E+02 0.  0.
         25    2    1    2    0    0 -0.20211013389E+02 -0.14472901716E+03  0.52492678560E+02  0.19939283830E+03  0.12508816568E+03 0.  0.
         24    2    1    2    0    0  0.74207212872E+01  0.93856596021E+02  0.44416446789E+03  0.46044888298E+03  0.76596159013E+02 0.  0.
        -13    1    5    5    0    0  0.34482444807E+02  0.54299427815E+02  0.16307070726E+03  0.17529838113E+03  0.00000000000E+00 0.  1.
         14    1    5    5    0    0 -0.27061723520E+02  0.39557168206E+02  0.28109376063E+03  0.28515050185E+03  0.00000000000E+00 0. -1.
         11    1    3    3    0    0 -0.22133017656E+02  0.51251559767E+02 -0.22031861432E+03  0.22728150973E+03  0.00000000000E+00 0. -1.
        -12    1    3    3    0    0  0.34923309758E+02 -0.37913862974E+00 -0.59164351791E+02  0.68703725033E+02  0.00000000000E+00 0.  1.
          5    1    4    4  501    0  0.47557978340E+02 -0.23702145905E+02  0.97328770082E+01  0.54182601628E+02  0.41800000000E+01 0. -1.
         -5    1    4    4    0  501 -0.67768991729E+02 -0.12102687125E+03  0.42759801552E+02  0.14521023667E+03  0.41800000000E+01 0. -1.
</event>
<event>
11    1  0.7577197E-009  0.1315370E+03  0.7561462E-02  0.1117395E+00
         22   -1    0    0    0    0  0.00000000000E+00  0.00000000000E+00  0.26511254743E+03  0.26511254743E+03  0.00000000000E+00 0. -1.
         22   -1    0    0    0    0 -0.00000000000E+00 -0.00000000000E+00 -0.17279447999E+03  0.17279447999E+03  0.00000000000E+00 0.  1.
         24    2    1    2    0    0  0.33042838431E+02  0.41829637369E+01 -0.10612488466E+03  0.13560715283E+03  0.77572433220E+02 0.  0.
         25    2    1    2    0    0  0.82412146325E+01 -0.31182814121E+02  0.95400179786E+02  0.16058658113E+03  0.12508625113E+03 0.  0.
        -24    2    1    2    0    0 -0.41284053063E+02  0.26999850384E+02  0.10304277232E+03  0.14171329346E+03  0.83853918556E+02 0.  0.
        -13    1    3    3    0    0  0.19695366875E+02  0.23568927760E+02 -0.10772309881E+03  0.11201637313E+03  0.00000000000E+00 0.  1.
         14    1    3    3    0    0  0.13347471556E+02 -0.19385964024E+02  0.15982141491E+01  0.23590779693E+02  0.00000000000E+00 0. -1.
         11    1    5    5    0    0 -0.57724731647E+02  0.41382171049E+02  0.94598679060E+02  0.11829428898E+03  0.00000000000E+00 0. -1.
        -12    1    5    5    0    0  0.16440678583E+02 -0.14382320665E+02  0.84440932620E+01  0.23419004484E+02  0.00000000000E+00 0.  1.
          5    1    4    4  501    0  0.34745811737E+02 -0.69899673199E+02  0.39816887512E+02  0.87727377014E+02  0.41800000000E+01 0.  1.
         -5    1    4    4    0  501 -0.26504597105E+02  0.38716859078E+02  0.55583292274E+02  0.72859204117E+02  0.41800000000E+01 0.  1.
</event>
<event>
11    1  0.7577197E-009  0.1913619E+03  0.7561462E-02  0.1060806E+00
         22   -1    0    0    0    0  0.00000000000E+00  0.00000000000E+00  0.17696911345E+03  0.17696911345E+03  0.00000000000E+00 0. -1.
         22   -1    0    0    0    0 -0.00000000000E+00 -0.00000000000E+00 -0.22001162987E+04  0.22001162987E+04  0.00000000000E+00 0.  1.
         24    2    1    2    0    0 -0.14823216092E+03 -0.45023693405E+02 -0.16164280346E+04  0.16257857123E+04  0.79622138756E+02 0.  0.
         25    2    1    2    0    0  0.49694280126E+02  0.15166258084E+03 -0.51492511618E+03  0.55341425935E+03  0.12509359403E+03 0.  0.
        -24    2    1    2    0    0  0.98537880796E+02 -0.10663888744E+03  0.10820596555E+03  0.19788544042E+03  0.79803197194E+02 0.  0.
        -11    1    3    3    0    0 -0.67435030080E+02 -0.45235756591E+02 -0.51128640169E+03  0.51769444801E+03  0.00000000000E+00 0.  1.
         12    1    3    3    0    0 -0.80797130842E+02  0.21206318547E+00 -0.11051416329E+04  0.11080912643E+04  0.00000000000E+00 0. -1.
         13    1    5    5    0    0  0.24236495224E+02 -0.62917848643E+02  0.85213130649E+02  0.10866158941E+03  0.00000000000E+00 0. -1.
        -14    1    5    5    0    0  0.74301385571E+02 -0.43721038796E+02  0.22992834900E+02  0.89223851004E+02  0.00000000000E+00 0.  1.
          5    1    4    4  501    0  0.23865559789E+02  0.16143474588E+03 -0.35070774346E+03  0.38683864317E+03  0.41800000000E+01 0.  1.
         -5    1    4    4    0  501  0.25828720337E+02 -0.97721650346E+01 -0.16421737272E+03  0.16657561618E+03  0.41800000000E+01 0.  1.
</event>
<event>
11    1  0.7577197E-009  0.1507553E+03  0.7561462E-02  0.1096110E+00
         22   -1    0    0    0    0  0.00000000000E+00  0.00000000000E+00  0.18714207164E+03  0.18714207164E+03  0.00000000000E+00 0. -1.
         22   -1    0    0    0    0 -0.00000000000E+00 -0.00000000000E+00 -0.36726000301E+03  0.36726000301E+03  0.00000000000E+00 0. -1.
        -24    2    1    2    0    0  0.39907205203E+02  0.71314377967E+02 -0.18075056786E+03  0.21566610142E+03  0.84633173085E+02 0.  0.
         25    2    1    2    0    0  0.26314046851E+01 -0.99390852658E+02 -0.10928764195E+03  0.19358928394E+03  0.12509019262E+03 0.  0.
         24    2    1    2    0    0 -0.42538609888E+02  0.28076474691E+02  0.10992027844E+03  0.14514668929E+03  0.79920410645E+02 0.  0.
        -13    1    5    5    0    0 -0.25311871291E+02 -0.26913336993E+02  0.47805049235E+02  0.60418054162E+02  0.00000000000E+00 0.  1.
         14    1    5    5    0    0 -0.17226738597E+02  0.54989811684E+02  0.62115229205E+02  0.84728635129E+02  0.00000000000E+00 0. -1.
         13    1    3    3    0    0  0.67924715743E+00  0.74472264193E+02 -0.14248452127E+03  0.16077443302E+03  0.00000000000E+00 0. -1.
        -14    1    3    3    0    0  0.39227958046E+02 -0.31578862264E+01 -0.38266046589E+02  0.54891668397E+02  0.00000000000E+00 0.  1.
          5    1    4    4  501    0  0.47807914114E+02 -0.57686313575E+02 -0.10854760499E+03  0.13195969982E+03  0.41800000000E+01 0. -1.
         -5    1    4    4    0  501 -0.45176509429E+02 -0.41704539083E+02 -0.74003695869E+00  0.61629584122E+02  0.41800000000E+01 0. -1.
</event>
<event>
11    1  0.7577197E-009  0.1598753E+03  0.7561462E-02  0.1087195E+00
         22   -1    0    0    0    0  0.00000000000E+00  0.00000000000E+00  0.86508376072E+03  0.86508376072E+03  0.00000000000E+00 0.  1.
         22   -1    0    0    0    0 -0.00000000000E+00 -0.00000000000E+00 -0.13473377388E+04  0.13473377388E+04  0.00000000000E+00 0.  1.
         24    2    1    2    0    0 -0.81493029406E+02 -0.12225005965E+02 -0.12632862819E+04  0.12684118794E+04  0.78650499088E+02 0.  0.
         25    2    1    2    0    0  0.16818943109E+03 -0.26641818905E+02  0.70311988291E+02  0.22268373007E+03  0.12508715640E+03 0.  0.
        -24    2    1    2    0    0 -0.86696401683E+02  0.38866824870E+02  0.71072031556E+03  0.72132589009E+03  0.78490614891E+02 0.  0.
        -11    1    3    3    0    0 -0.33918956556E+02  0.13646546033E+02 -0.93295405527E+03  0.93367017361E+03  0.00000000000E+00 0.  1.
         12    1    3    3    0    0 -0.47574072851E+02 -0.25871551998E+02 -0.33033222664E+03  0.33474170575E+03  0.00000000000E+00 0. -1.
         13    1    5    5    0    0  0.90865648058E+01  0.23547524344E+02  0.11287161179E+03  0.11565920764E+03  0.00000000000E+00 0. -1.
        -14    1    5    5    0    0 -0.95782966489E+02  0.15319300526E+02  0.59784870376E+03  0.60566668245E+03  0.00000000000E+00 0.  1.
          5    1    4    4  501    0  0.18220502172E+03 -0.34617926995E+02  0.81491253138E+02  0.20262124160E+03  0.41800000000E+01 0.  1.
         -5    1    4    4    0  501 -0.14015590633E+02  0.79761080892E+01 -0.11179264847E+02  0.20062488469E+02  0.41800000000E+01 0.  1.
</event>
<event>
11    1  0.7577197E-009  0.1561846E+03  0.7561462E-02  0.1090722E+00
         22   -1    0    0    0    0  0.00000000000E+00  0.00000000000E+00  0.88638358824E+03  0.88638358824E+03  0.00000000000E+00 0.  1.
         22   -1    0    0    0    0 -0.00000000000E+00 -0.00000000000E+00 -0.39293680180E+03  0.39293680180E+03  0.00000000000E+00 0. -1.
        -24    2    1    2    0    0  0.84135694366E+02  0.40835968658E+02 -0.32392716361E+03  0.34627994127E+03  0.78959476935E+02 0.  0.
         25    2    1    2    0    0 -0.67749956646E+02 -0.72826760581E+02  0.60429796031E+02  0.17086688805E+03  0.12509971823E+03 0.  0.
         24    2    1    2    0    0 -0.16385737720E+02  0.31990791924E+02  0.75694415401E+03  0.76217356072E+03  0.81560904792E+02 0.  0.
        -11    1    5    5    0    0 -0.18066472805E+02  0.33644713816E+01  0.67687454440E+03  0.67712396647E+03  0.00000000000E+00 0.  1.
         12    1    5    5    0    0  0.16807350855E+01  0.28626320542E+02  0.80069609611E+02  0.85049594246E+02  0.00000000000E+00 0. -1.
         11    1    3    3    0    0  0.93711188950E+02  0.20128366830E+02 -0.28971548516E+03  0.30515897567E+03  0.00000000000E+00 0. -1.
        -12    1    3    3    0    0 -0.95754945843E+01  0.20707601827E+02 -0.34211678444E+02  0.41120965601E+02  0.00000000000E+00 0.  1.
          5    1    4    4  501    0 -0.77376581050E+02 -0.10189881596E+03  0.41278120688E+02  0.13450598364E+03  0.41800000000E+01 0. -1.
         -5    1    4    4    0  501  0.96266244042E+01  0.29072055374E+02  0.19151675343E+02  0.36360904411E+02  0.41800000000E+01 0. -1.
</event>
<event>
11    1  0.7577197E-009  0.1281321E+03  0.7561462E-02  0.1121586E+00
         22   -1    0    0    0    0  0.00000000000E+00  0.00000000000E+00  0.20805143440E+03  0.20805143440E+03  0.00000000000E+00 0.  1.
         22   -1    0    0    0    0 -0.00000000000E+00 -0.00000000000E+00 -0.70623111219E+03  0.70623111219E+03  0.00000000000E+00 0. -1.
        -24    2    1    2    0    0  0.26593209449E+02 -0.50705145999E+01 -0.42578811790E+03  0.43404008211E+03  0.79764419563E+02 0.  0.
         25    2    1    2    0    0 -0.23056786922E+02  0.32521451320E+02 -0.25046531097E+03  0.28278939543E+03  0.12509080680E+03 0.  0.
         24    2    1    2    0    0 -0.35364225271E+01 -0.27450936720E+02  0.17807375108E+03  0.19745306906E+03  0.80693205717E+02 0.  0.
        -13    1    5    5    0    0 -0.11304013739E+02 -0.23623490451E+02  0.18470118175E+03  0.18654859037E+03  0.00000000000E+00 0.  1.
         14    1    5    5    0    0  0.77675912123E+01 -0.38274462685E+01 -0.66274306777E+01  0.10904478693E+02  0.00000000000E+00 0. -1.
         13    1    3    3    0    0  0.48938825429E+02  0.43771921895E+00 -0.37621762105E+03  0.37938753092E+03  0.00000000000E+00 0. -1.
        -14    1    3    3    0    0 -0.22345615981E+02 -0.55082338189E+01 -0.49570496847E+02  0.54652551185E+02  0.00000000000E+00 0.  1.
          5    1    4    4  501    0 -0.64284489303E+02  0.54427638549E+02 -0.16573230212E+03  0.18595572529E+03  0.41800000000E+01 0.  1.
         -5    1    4    4    0  501  0.41227702381E+02 -0.21906187230E+02 -0.84733008854E+02  0.96833670136E+02  0.41800000000E+01 0.  1.
</event>
<event>
11    1  0.7577197E-009  0.1431409E+03  0.7561462E-02  0.1104101E+00
         22   -1    0    0    0    0  0.00000000000E+00  0.00000000000E+00  0.93799377518E+03  0.93799377518E+03  0.00000000000E+00 0. -1.
         22   -1    0    0    0    0 -0.00000000000E+00 -0.00000000000E+00 -0.60160298616E+03  0.60160298616E+03  0.00000000000E+00 0. -1.
         24    2    1    2    0    0  0.48013141635E+02 -0.48676929219E+02 -0.52496807433E+03  0.53544907002E+03  0.80246634285E+02 0.  0.
         25    2    1    2    0    0 -0.42564119544E+02  0.84208849752E+02  0.19717843186E+02  0.15791981033E+03  0.12508812296E+03 0.  0.
        -24    2    1    2    0    0 -0.54490220913E+01 -0.35531920533E+02  0.84164102016E+03  0.84622788098E+03  0.80310712314E+02 0.  0.
        -11    1    3    3    0    0 -0.14337245472E+02  0.11791259256E+02 -0.90501274176E+02  0.92385448150E+02  0.00000000000E+00 0.  1.
         12    1    3    3    0    0  0.62350387107E+02 -0.60468188475E+02 -0.43446680015E+03  0.44306362187E+03  0.00000000000E+00 0. -1.
         13    1    5    5    0    0  0.15632047528E+02 -0.10773262709E+02  0.72191247016E+03  0.72216205846E+03  0.00000000000E+00 0. -1.
        -14    1    5    5    0    0 -0.21081069620E+02 -0.24758657824E+02  0.11972855000E+03  0.12406582252E+03  0.00000000000E+00 0.  1.
          5    1    4    4  501    0 -0.75347019826E+02  0.41444175574E+02  0.46229471877E+02  0.97721182738E+02  0.41800000000E+01 0.  1.
         -5    1    4    4    0  501  0.32782900282E+02  0.42764674178E+02 -0.26511628691E+02  0.60198627595E+02  0.41800000000E+01 0.  1.
</event>
<event>
11    1  0.7577197E-009  0.1294328E+03  0.7561462E-02  0.1119968E+00
         22   -1    0    0    0    0  0.00000000000E+00  0.00000000000E+00  0.25437874485E+03  0.25437874485E+03  0.00000000000E+00 0. -1.
         22   -1    0    0    0    0 -0.00000000000E+00 -0.00000000000E+00 -0.14053806122E+04  0.14053806122E+04  0.00000000000E+00 0.  1.
         24    2    1    2    0    0 -0.31996757285E+02 -0.76844966201E+01 -0.11292641007E+04  0.11325917130E+04  0.80272880638E+02 0.  0.
         25    2    1    2    0    0  0.40185985546E+02 -0.13691145675E+02 -0.25064218803E+03  0.28332194987E+03  0.12508980753E+03 0.  0.
        -24    2    1    2    0    0 -0.81892282611E+01  0.21375642296E+02  0.22890442140E+03  0.24384569411E+03  0.80867217436E+02 0.  0.
        -11    1    3    3    0    0 -0.54298074023E+02 -0.14190043284E+02 -0.97224476821E+03  0.97386319752E+03  0.00000000000E+00 0.  1.
         12    1    3    3    0    0  0.22301316739E+02  0.65055466637E+01 -0.15701933248E+03  0.15872851551E+03  0.00000000000E+00 0. -1.
         13    1    5    5    0    0 -0.16426594204E+02  0.43340771963E+02  0.20567084203E+03  0.21082872379E+03  0.00000000000E+00 0. -1.
        -14    1    5    5    0    0  0.82373659431E+01 -0.21965129668E+02  0.23233579371E+02  0.33016970324E+02  0.00000000000E+00 0.  1.
          5    1    4    4  501    0  0.19859330453E+02 -0.28695795858E+02 -0.25494359697E+03  0.25735491397E+03  0.41800000000E+01 0. -1.
         -5    1    4    4    0  501  0.20326655093E+02  0.15004650183E+02  0.43014089400E+01  0.25967035896E+02  0.41800000000E+01 0. -1.
</event>
<event>
11    1  0.7577197E-009  0.1444811E+03  0.7561462E-02  0.1102655E+00
         22   -1    0    0    0    0  0.00000000000E+00  0.00000000000E+00  0.29755061067E+03  0.29755061067E+03  0.00000000000E+00 0.  1.
         22   -1    0    0    0    0 -0.00000000000E+00 -0.00000000000E+00 -0.20388754558E+04  0.20388754558E+04  0.00000000000E+00 0.  1.
         24    2    1    2    0    0  0.12938235898E+02  0.18958526691E+02 -0.18867331478E+04  0.18885946783E+04  0.80629176234E+02 0.  0.
         25    2    1    2    0    0 -0.61380602078E+02 -0.70295830144E+02 -0.96221102435E+02  0.18334479562E+03  0.12509089287E+03 0.  0.
        -24    2    1    2    0    0  0.48442366181E+02  0.51337303453E+02  0.24162940518E+03  0.26448659251E+03  0.81155447154E+02 0.  0.
        -11    1    3    3    0    0  0.12281078065E+02  0.99192498943E+01 -0.18647464571E+04  0.18648132790E+04  0.00000000000E+00 0.  1.
         12    1    3    3    0    0  0.65715783299E+00  0.90392767963E+01 -0.21986690774E+02  0.23781399299E+02  0.00000000000E+00 0. -1.
         11    1    5    5    0    0 -0.31615717332E+01  0.10872213390E+02 -0.25908732792E+01  0.11615213479E+02  0.00000000000E+00 0. -1.
        -12    1    5    5    0    0  0.51603937914E+02  0.40465090063E+02  0.24422027846E+03  0.25287137903E+03  0.00000000000E+00 0.  1.
          5    1    4    4  501    0  0.22465144878E+02 -0.61164063600E+02 -0.16800911793E+02  0.67420089347E+02  0.41800000000E+01 0. -1.
         -5    1    4    4    0  501 -0.83845746957E+02 -0.91317665437E+01 -0.79420190642E+02  0.11592470627E+03  0.41800000000E+01 0. -1.
</event>
<event>
11    1  0.8212124E-009  0.1534473E+03  0.7561462E-02  0.1093408E+00
         22   -1    0    0    0    0  0.00000000000E+00  0.00000000000E+00  0.13828666849E+04  0.13828666849E+04  0.00000000000E+00 0.  1.
         22   -1    0    0    0    0 -0.00000000000E+00 -0.00000000000E+00 -0.61459689808E+03  0.61459689808E+03  0.00000000000E+00 0. -1.
        -24    2    1    2    0    0  0.13894853453E+02 -0.55383082062E+02 -0.48900566472E+03  0.49940600392E+03  0.83782240946E+02 0.  0.
         25    2    1    2    0    0 -0.28964081689E+01 -0.34100493712E+02 -0.81929217266E+02  0.15339878992E+03  0.12509020448E+03 0.  0.
         24    2    1    2    0    0 -0.10998445284E+02  0.89483575774E+02  0.13392046688E+04  0.13446587891E+04  0.80683568086E+02 0.  0.
        -13    1    5    5    0    0 -0.25790199719E+02  0.63906641985E+02  0.12163696574E+04  0.12183202931E+04  0.00000000000E+00 0.  1.
         14    1    5    5    0    0  0.14791754435E+02  0.25576933788E+02  0.12283501139E+03  0.12633849597E+03  0.00000000000E+00 0. -1.
         11    1    3    3    0    0  0.40391672143E+02 -0.59311711057E+02 -0.40254600553E+03  0.40889198184E+03  0.00000000000E+00 0. -1.
        -12    1    3    3    0    0 -0.26496818690E+02  0.39286289950E+01 -0.86459659190E+02  0.90514022083E+02  0.00000000000E+00 0.  1.
          5    1    4    4  501    0 -0.33446417144E+02  0.79965389062E+01  0.19195206597E+02  0.39604744799E+02  0.41800000000E+01 0.  1.
         -5    1    4    4    0  501  0.30550008975E+02 -0.42097032618E+02 -0.10112442386E+03  0.11379404512E+03  0.41800000000E+01 0.  1.
</event>
<event>
11    1  0.7577197E-009  0.1459564E+03  0.7561462E-02  0.1101084E+00
         22   -1    0    0    0    0  0.00000000000E+00  0.00000000000E+00  0.25793372209E+03  0.25793372209E+03  0.00000000000E+00 0. -1.
         22   -1    0    0    0    0 -0.00000000000E+00 -0.00000000000E+00 -0.46867300914E+03  0.46867300914E+03  0.00000000000E+00 0.  1.
         24    2    1    2    0    0  0.16407978193E+02  0.44613479699E+02 -0.37405803267E+03  0.38558194061E+03  0.80588068579E+02 0.  0.
         25    2    1    2    0    0 -0.53012232004E+02  0.28054519244E+02 -0.34893552542E+01  0.13876674281E+03  0.12508669201E+03 0.  0.
        -24    2    1    2    0    0  0.36604253811E+02 -0.72667998942E+02  0.16680810087E+03  0.20225804781E+03  0.80391951857E+02 0.  0.
        -11    1    3    3    0    0  0.18948308620E+02  0.58415063268E+02 -0.36171985370E+03  0.36689591246E+03  0.00000000000E+00 0.  1.
         12    1    3    3    0    0 -0.25403304271E+01 -0.13801583570E+02 -0.12338178969E+02  0.18686028149E+02  0.00000000000E+00 0. -1.
         13    1    5    5    0    0  0.49723764421E+02 -0.83280076703E+02  0.13473239676E+03  0.16601458568E+03  0.00000000000E+00 0. -1.
        -14    1    5    5    0    0 -0.13119510610E+02  0.10612077761E+02  0.32075704111E+02  0.36243462132E+02  0.00000000000E+00 0.  1.
          5    1    4    4  501    0 -0.43782944878E+01  0.14468836174E+02  0.57428157818E+02  0.59531356386E+02  0.41800000000E+01 0.  1.
         -5    1    4    4    0  501 -0.48633937516E+02  0.13585683070E+02 -0.60917513072E+02  0.79235386424E+02  0.41800000000E+01 0.  1.
</event>
<event>
11    1  0.7577197E-009  0.1349532E+03  0.7561462E-02  0.1113329E+00
         22   -1    0    0    0    0  0.00000000000E+00  0.00000000000E+00  0.98856692767E+03  0.98856692767E+03  0.00000000000E+00 0.  1.
         22   -1    0    0    0    0 -0.00000000000E+00 -0.00000000000E+00 -0.97088246579E+02  0.97088246579E+02  0.00000000000E+00 0. -1.
        -24    2    1    2    0    0 -0.34406678724E+02  0.42631716945E+02 -0.43298940212E+02  0.10874820159E+03  0.83367201559E+02 0.  0.
         25    2    1    2    0    0  0.69698454700E+01 -0.23353211001E+02  0.20224104574E+03  0.23904784597E+03  0.12509388823E+03 0.  0.
         24    2    1    2    0    0  0.27436833254E+02 -0.19278505944E+02  0.73253657556E+03  0.73785912668E+03  0.81864617982E+02 0.  0.
        -13    1    5    5    0    0  0.28950025519E+02 -0.30458108240E+02  0.71904709742E+03  0.72027392611E+03  0.00000000000E+00 0.  1.
         14    1    5    5    0    0 -0.15131922650E+01  0.11179602296E+02  0.13489478146E+02  0.17585200567E+02  0.00000000000E+00 0. -1.
         11    1    3    3    0    0  0.38262779322E+01  0.66877875898E+01 -0.54540168651E+02  0.55081729295E+02  0.00000000000E+00 0. -1.
        -12    1    3    3    0    0 -0.38232956656E+02  0.35943929355E+02  0.11241228438E+02  0.53666472298E+02  0.00000000000E+00 0.  1.
          5    1    4    4  501    0 -0.30381437259E+02  0.17957936984E+02  0.17180703147E+03  0.17544414409E+03  0.41800000000E+01 0.  1.
         -5    1    4    4    0  501  0.37351282729E+02 -0.41311147985E+02  0.30434014263E+02  0.63603701885E+02  0.41800000000E+01 0.  1.
</event>
<event>
11    1  0.7577197E-009  0.1277967E+03  0.7561462E-02  0.1122006E+00
         22   -1    0    0    0    0  0.00000000000E+00  0.00000000000E+00  0.20003751407E+04  0.20003751407E+04  0.00000000000E+00 0.  1.
         22   -1    0    0    0    0 -0.00000000000E+00 -0.00000000000E+00 -0.98691491931E+02  0.98691491931E+02  0.00000000000E+00 0. -1.
        -24    2    1    2    0    0 -0.16052019473E+02 -0.22700507622E+02 -0.53362522233E+02  0.99453758804E+02  0.79186558113E+02 0.  0.
         25    2    1    2    0    0 -0.45283028299E+01  0.18286487476E+02  0.16638174447E+03  0.20901118089E+03  0.12509151727E+03 0.  0.
         24    2    1    2    0    0  0.20580322303E+02  0.44140201461E+01  0.17886644266E+04  0.17906016930E+04  0.80566486686E+02 0.  0.
        -13    1    5    5    0    0  0.29208366936E+02  0.83394034582E+01  0.17626897815E+04  0.17629514854E+04  0.00000000000E+00 0.  1.
         14    1    5    5    0    0 -0.86280446336E+01 -0.39253833120E+01  0.25974645119E+02  0.27650207548E+02  0.00000000000E+00 0. -1.
         11    1    3    3    0    0  0.79009585012E+01 -0.42607789110E+02 -0.52796404653E+02  0.68303068616E+02  0.00000000000E+00 0. -1.
        -12    1    3    3    0    0 -0.23952977974E+02  0.19907281488E+02 -0.56611758021E+00  0.31150690188E+02  0.00000000000E+00 0.  1.
          5    1    4    4  501    0 -0.19004668067E+02  0.37520915685E+02  0.14626610777E+01  0.42291941308E+02  0.41800000000E+01 0.  1.
         -5    1    4    4    0  501  0.14476365237E+02 -0.19234428208E+02  0.16491908339E+03  0.16671923958E+03  0.41800000000E+01 0.  1.
</event>
<event>
11    1  0.7577197E-009  0.2014920E+03  0.7561462E-02  0.1053474E+00
         22   -1    0    0    0    0  0.00000000000E+00  0.00000000000E+00  0.71355849783E+03  0.71355849783E+03  0.00000000000E+00 0.  1.
         22   -1    0    0    0    0 -0.00000000000E+00 -0.00000000000E+00 -0.25084811903E+03  0.25084811903E+03  0.00000000000E+00 0. -1.
         24    2    1    2    0    0 -0.32923197642E+02  0.19492647119E+02 -0.16318041424E+03  0.18548583805E+03  0.79455951879E+02 0.  0.
         25    2    1    2    0    0  0.17677609965E+03  0.33263231817E+02  0.13225740213E+03  0.25591652942E+03  0.12508004483E+03 0.  0.
        -24    2    1    2    0    0 -0.14385290201E+03 -0.52755878936E+02  0.49363339091E+03  0.52300424939E+03  0.79891677210E+02 0.  0.
        -11    1    3    3    0    0  0.20535863440E+02  0.23182821733E+02 -0.36068905272E+02  0.47540833378E+02  0.00000000000E+00 0.  1.
         12    1    3    3    0    0 -0.53459061083E+02 -0.36901746137E+01 -0.12711150897E+03  0.13794500467E+03  0.00000000000E+00 0. -1.
         11    1    5    5    0    0 -0.23658665897E+02 -0.10978373208E+02  0.20835997819E+02  0.33382569635E+02  0.00000000000E+00 0. -1.
        -12    1    5    5    0    0 -0.12019423611E+03 -0.41777505728E+02  0.47279739309E+03  0.48962167976E+03  0.00000000000E+00 0.  1.
          5    1    4    4  501    0  0.92981391270E+02  0.59055476047E+02  0.17767754004E+02  0.11165237954E+03  0.41800000000E+01 0. -1.
         -5    1    4    4    0  501  0.83794708379E+02 -0.25792244230E+02  0.11448964812E+03  0.14426414988E+03  0.41800000000E+01 0. -1.
</event>
<event>
11    1  0.7577197E-009  0.3246072E+03  0.7561462E-02  0.9902832E-01
         22   -1    0    0    0    0  0.00000000000E+00  0.00000000000E+00  0.25052927311E+04  0.25052927311E+04  0.00000000000E+00 0. -1.
         22   -1    0    0    0    0 -0.00000000000E+00 -0.00000000000E+00 -0.22177503467E+03  0.22177503467E+03  0.00000000000E+00 0. -1.
        -24    2    1    2    0    0 -0.53051407593E+02  0.67111593762E+02 -0.15157198844E+03  0.19317643235E+03  0.83813175996E+02 0.  0.
         25    2    1    2    0    0 -0.20444333993E+03  0.12811615116E+03  0.48790480637E+03  0.55848530301E+03  0.12507560183E+03 0.  0.
         24    2    1    2    0    0  0.25749474752E+03 -0.19522774492E+03  0.19471848785E+04  0.19754060304E+04  0.79262958250E+02 0.  0.
        -13    1    5    5    0    0  0.37044812766E+02 -0.11576136029E+02  0.12871152527E+03  0.13443579068E+03  0.00000000000E+00 0.  1.
         14    1    5    5    0    0  0.22044993475E+03 -0.18365160889E+03  0.18184733533E+04  0.18409702398E+04  0.00000000000E+00 0. -1.
         11    1    3    3    0    0 -0.92073096706E+01  0.74487194319E+02 -0.10111602600E+03  0.12592683345E+03  0.00000000000E+00 0. -1.
        -12    1    3    3    0    0 -0.43844097923E+02 -0.73756005565E+01 -0.50455962434E+02  0.67249598894E+02  0.00000000000E+00 0.  1.
          5    1    4    4  501    0 -0.70879007557E+02 -0.18467484995E+02  0.13630404562E+03  0.15479388543E+03  0.41800000000E+01 0.  1.
         -5    1    4    4    0  501 -0.13356433237E+03  0.14658363615E+03  0.35160076075E+03  0.40369141758E+03  0.41800000000E+01 0.  1.
</event>
<event>
11    1  0.7577197E-009  0.1303919E+03  0.7561462E-02  0.1118788E+00
         22   -1    0    0    0    0  0.00000000000E+00  0.00000000000E+00  0.39852419745E+02  0.39852419745E+02  0.00000000000E+00 0.  1.
         22   -1    0    0    0    0 -0.00000000000E+00 -0.00000000000E+00 -0.13250767681E+04  0.13250767681E+04  0.00000000000E+00 0.  1.
        -24    2    1    2    0    0 -0.27991948330E+02  0.23280722493E+02 -0.86097572077E+03  0.86500476693E+03  0.75023421984E+02 0.  0.
         25    2    1    2    0    0  0.27849567385E+02 -0.27320648343E+02 -0.39101913449E+03  0.41238997686E+03  0.12509002059E+03 0.  0.
         24    2    1    2    0    0  0.14238094505E+00  0.40399258497E+01 -0.33229493141E+02  0.87534444098E+02  0.80881013940E+02 0.  0.
        -13    1    5    5    0    0  0.89154880313E+01  0.38829132750E+01  0.25947819765E+02  0.27710147832E+02  0.00000000000E+00 0.  1.
         14    1    5    5    0    0 -0.87731070862E+01  0.15701257467E+00 -0.59177312906E+02  0.59824296265E+02  0.00000000000E+00 0. -1.
         13    1    3    3    0    0 -0.13710735626E+01  0.46841949224E+02 -0.55366430661E+03  0.55564396196E+03  0.00000000000E+00 0. -1.
        -14    1    3    3    0    0 -0.26620874768E+02 -0.23561226731E+02 -0.30731141416E+03  0.30936080497E+03  0.00000000000E+00 0.  1.
          5    1    4    4  501    0  0.32218506843E+02 -0.34885406155E+02 -0.42887234888E+02  0.64123404948E+02  0.41800000000E+01 0.  1.
         -5    1    4    4    0  501 -0.43689394581E+01  0.75647578122E+01 -0.34813189960E+03  0.34826657191E+03  0.41800000000E+01 0.  1.
</event>
<event>
11    1  0.7577197E-009  0.4137020E+03  0.7561462E-02  0.9610173E-01
         22   -1    0    0    0    0  0.00000000000E+00  0.00000000000E+00  0.96869715895E+03  0.96869715895E+03  0.00000000000E+00 0.  1.
         22   -1    0    0    0    0 -0.00000000000E+00 -0.00000000000E+00 -0.15583014251E+04  0.15583014251E+04  0.00000000000E+00 0.  1.
        -24    2    1    2    0    0 -0.10059773382E+03  0.54146570780E+02 -0.65099406206E+03  0.66614148908E+03  0.83062984854E+02 0.  0.
         25    2    1    2    0    0 -0.27220719297E+03  0.90717011923E+02 -0.82646625906E+03  0.88375294258E+03  0.12508578657E+03 0.  0.
         24    2    1    2    0    0  0.37280492678E+03 -0.14486358270E+03  0.88785605498E+03  0.97710415238E+03  0.80468498209E+02 0.  0.
        -11    1    5    5    0    0  0.36942705249E+03 -0.13245232430E+03  0.83386871385E+03  0.92160566256E+03  0.00000000000E+00 0.  1.
         12    1    5    5    0    0  0.33778742915E+01 -0.12411258400E+02  0.53987341131E+02  0.55498489819E+02  0.00000000000E+00 0. -1.
         13    1    3    3    0    0  0.60139584952E+01  0.21174052639E+02 -0.21379266521E+03  0.21492280452E+03  0.00000000000E+00 0. -1.
        -14    1    3    3    0    0 -0.10661169231E+03  0.32972518141E+02 -0.43720139685E+03  0.45121868456E+03  0.00000000000E+00 0.  1.
          5    1    4    4  501    0 -0.91825881529E+02  0.30258322172E+02 -0.13190861256E+03  0.16359985650E+03  0.41800000000E+01 0.  1.
         -5    1    4    4    0  501 -0.18038131144E+03  0.60458689752E+02 -0.69455764650E+03  0.72015308608E+03  0.41800000000E+01 0.  1.
</event>
<event>
11    1  0.7577197E-009  0.1826589E+03  0.7561462E-02  0.1067512E+00
         22   -1    0    0    0    0  0.00000000000E+00  0.00000000000E+00  0.46169162509E+03  0.46169162509E+03  0.00000000000E+00 0. -1.
         22   -1    0    0    0    0 -0.00000000000E+00 -0.00000000000E+00 -0.44962210824E+03  0.44962210824E+03  0.00000000000E+00 0. -1.
         24    2    1    2    0    0 -0.29151931486E+02  0.12947153538E+03 -0.38694276526E+03  0.41598498297E+03  0.75538658202E+02 0.  0.
         25    2    1    2    0    0  0.81899999828E+02 -0.12642730139E+03  0.28933034063E+03  0.34935701447E+03  0.12508718973E+03 0.  0.
        -24    2    1    2    0    0 -0.52748068341E+02 -0.30442339828E+01  0.10968194148E+03  0.14597173589E+03  0.80535664890E+02 0.  0.
        -11    1    3    3    0    0 -0.27977511050E+02  0.27134283794E+02 -0.47467666324E+02  0.61418155523E+02  0.00000000000E+00 0.  1.
         12    1    3    3    0    0 -0.11744204368E+01  0.10233725158E+03 -0.33947509894E+03  0.35456682744E+03  0.00000000000E+00 0. -1.
         13    1    5    5    0    0 -0.17614083696E+02  0.69492279124E+00  0.10922300713E+03  0.11063635998E+03  0.00000000000E+00 0. -1.
        -14    1    5    5    0    0 -0.35133984645E+02 -0.37391567740E+01  0.45893434582E+00  0.35335375916E+02  0.00000000000E+00 0.  1.
          5    1    4    4  501    0  0.17534633465E+02 -0.30377143011E+02  0.20024282808E+03  0.20333444564E+03  0.41800000000E+01 0.  1.
         -5    1    4    4    0  501  0.64365366362E+02 -0.96050158383E+02  0.89087512560E+02  0.14602256883E+03  0.41800000000E+01 0.  1.
</event>
<event>
11    1  0.7577197E-009  0.2121697E+03  0.7561462E-02  0.1046237E+00
         22   -1    0    0    0    0  0.00000000000E+00  0.00000000000E+00  0.20585157290E+03  0.20585157290E+03  0.00000000000E+00 0.  1.
         22   -1    0    0    0    0 -0.00000000000E+00 -0.00000000000E+00 -0.10459492169E+04  0.10459492169E+04  0.00000000000E+00 0. -1.
        -24    2    1    2    0    0  0.48208665248E+02  0.16745839253E+03 -0.66658536693E+03  0.69380386262E+03  0.81617153503E+02 0.  0.
         25    2    1    2    0    0 -0.76355002014E+02 -0.14857898932E+03 -0.32315448882E+03  0.38468568456E+03  0.12509376429E+03 0.  0.
         24    2    1    2    0    0  0.28146336766E+02 -0.18879403205E+02  0.14964221173E+03  0.17331124264E+03  0.80593716589E+02 0.  0.
        -11    1    5    5    0    0  0.29153545909E+02 -0.21947459778E+01  0.15341485801E+03  0.15617574974E+03  0.00000000000E+00 0.  1.
         12    1    5    5    0    0 -0.10072091428E+01 -0.16684657228E+02 -0.37726462729E+01  0.17135492901E+02  0.00000000000E+00 0. -1.
         13    1    3    3    0    0  0.36385031740E+02  0.83368250386E+02 -0.48352695013E+03  0.49200858449E+03  0.00000000000E+00 0. -1.
        -14    1    3    3    0    0  0.11823633508E+02  0.84090142140E+02 -0.18305841680E+03  0.20179527813E+03  0.00000000000E+00 0.  1.
          5    1    4    4  501    0 -0.87589602014E+02 -0.16166357413E+03 -0.31585412021E+03  0.36549739703E+03  0.41800000000E+01 0.  1.
         -5    1    4    4    0  501  0.11234600000E+02  0.13084584806E+02 -0.73003686086E+01  0.19188287535E+02  0.41800000000E+01 0.  1.
</event>
<event>
11    1  0.7577197E-009  0.1414061E+03  0.7561462E-02  0.1105998E+00
         22   -1    0    0    0    0  0.00000000000E+00  0.00000000000E+00  0.48195813815E+02  0.48195813815E+02  0.00000000000E+00 0.  1.
         22   -1    0    0    0    0 -0.00000000000E+00 -0.00000000000E+00 -0.17977000776E+04  0.17977000776E+04  0.00000000000E+00 0. -1.
         24    2    1    2    0    0  0.31395971811E+02  0.59071484206E+02 -0.12558319429E+04  0.12601289062E+04  0.79598015569E+02 0.  0.
         25    2    1    2    0    0  0.17152346419E+02 -0.10493032350E+00 -0.44473667252E+03  0.46231148996E+03  0.12508793655E+03 0.  0.
        -24    2    1    2    0    0 -0.48548318230E+02 -0.58966553882E+02 -0.48935648345E+02  0.12345549525E+03  0.83741076835E+02 0.  0.
        -11    1    3    3    0    0 -0.59655723946E+01 -0.14593450507E+02 -0.89664969004E+02  0.91040449901E+02  0.00000000000E+00 0.  1.
         12    1    3    3    0    0  0.37361544205E+02  0.73664934713E+02 -0.11661669739E+04  0.11690884562E+04  0.00000000000E+00 0. -1.
         11    1    5    5    0    0 -0.21133921983E+02  0.11750309107E+01 -0.53166649668E+02  0.57225134276E+02  0.00000000000E+00 0. -1.
        -12    1    5    5    0    0 -0.27414396246E+02 -0.60141584793E+02  0.42310013222E+01  0.66230360977E+02  0.00000000000E+00 0.  1.
          5    1    4    4  501    0  0.57760792061E+02 -0.28740018838E+02 -0.14930909349E+03  0.16270517994E+03  0.41800000000E+01 0.  1.
         -5    1    4    4    0  501 -0.40608445642E+02  0.28635088515E+02 -0.29542757903E+03  0.29960631002E+03  0.41800000000E+01 0.  1.
</event>
<event>
11    1  0.7577197E-009  0.1332635E+03  0.7561462E-02  0.1115323E+00
         22   -1    0    0    0    0  0.00000000000E+00  0.00000000000E+00  0.20558755266E+04  0.20558755266E+04  0.00000000000E+00 0.  1.
         22   -1    0    0    0    0 -0.00000000000E+00 -0.00000000000E+00 -0.14924156242E+03  0.14924156242E+03  0.00000000000E+00 0.  1.
        -24    2    1    2    0    0  0.30587562349E+02  0.37114866197E+02 -0.12347414814E+03  0.15510689897E+03  0.80617445914E+02 0.  0.
         25    2    1    2    0    0 -0.26159602839E+02  0.14557605883E+02  0.48339748393E+03  0.50021903814E+03  0.12509880072E+03 0.  0.
         24    2    1    2    0    0 -0.44279595099E+01 -0.51672472080E+02  0.15467106284E+04  0.15497911519E+04  0.82759865567E+02 0.  0.
        -11    1    5    5    0    0 -0.31379267402E+02 -0.58449138805E+02  0.12574195363E+04  0.12591683170E+04  0.00000000000E+00 0.  1.
         12    1    5    5    0    0  0.26951307892E+02  0.67766667257E+01  0.28929109206E+03  0.29062283488E+03  0.00000000000E+00 0. -1.
         13    1    3    3    0    0  0.37345512904E+02  0.27754303161E+02 -0.19428650314E+02  0.50422823513E+02  0.00000000000E+00 0. -1.
        -14    1    3    3    0    0 -0.67579505548E+01  0.93605630355E+01 -0.10404549783E+03  0.10468407546E+03  0.00000000000E+00 0.  1.
          5    1    4    4  501    0  0.33126727371E+02  0.16580381941E+01  0.37683959940E+02  0.50375414576E+02  0.41800000000E+01 0. -1.
         -5    1    4    4    0  501 -0.59286330211E+02  0.12899567689E+02  0.44571352399E+03  0.44984362356E+03  0.41800000000E+01 0. -1.
</event>
<event>
11    1  0.7577197E-009  0.1558583E+03  0.7561462E-02  0.1091039E+00
         22   -1    0    0    0    0  0.00000000000E+00  0.00000000000E+00  0.59964742895E+03  0.59964742895E+03  0.00000000000E+00 0. -1.
         22   -1    0    0    0    0 -0.00000000000E+00 -0.00000000000E+00 -0.31937680665E+03  0.31937680665E+03  0.00000000000E+00 0. -1.
         24    2    1    2    0    0  0.46255481378E+02  0.78859304107E+02 -0.25929021543E+03  0.28697300974E+03  0.82241918164E+02 0.  0.
         25    2    1    2    0    0 -0.36732648152E+02 -0.10780708588E+03  0.12875792760E+03  0.21260786595E+03  0.12510733607E+03 0.  0.
        -24    2    1    2    0    0 -0.95228332264E+01  0.28947781775E+02  0.41080291013E+03  0.41944335990E+03  0.79025582995E+02 0.  0.
        -13    1    3    3    0    0  0.54314125057E+02  0.15673310010E+02 -0.15234732044E+03  0.16249733189E+03  0.00000000000E+00 0.  1.
         14    1    3    3    0    0 -0.80586436791E+01  0.63185994097E+02 -0.10694289499E+03  0.12447567785E+03  0.00000000000E+00 0. -1.
         13    1    5    5    0    0 -0.41735901321E+02  0.12046798221E+02  0.29145916091E+03  0.29467855926E+03  0.00000000000E+00 0. -1.
        -14    1    5    5    0    0  0.32213068094E+02  0.16900983554E+02  0.11934374922E+03  0.12476480064E+03  0.00000000000E+00 0.  1.
          5    1    4    4  501    0  0.39917964449E+02 -0.68277671403E+02  0.39807372471E+02  0.88641884011E+02  0.41800000000E+01 0. -1.
         -5    1    4    4    0  501 -0.76650612601E+02 -0.39529414479E+02  0.88950555127E+02  0.12396598194E+03  0.41800000000E+01 0. -1.
</event>
<event>
11    1  0.7577197E-009  0.1762457E+03  0.7561462E-02  0.1072721E+00
         22   -1    0    0    0    0  0.00000000000E+00  0.00000000000E+00  0.12887671476E+04  0.12887671476E+04  0.00000000000E+00 0.  1.
         22   -1    0    0    0    0 -0.00000000000E+00 -0.00000000000E+00 -0.68588493712E+03  0.68588493712E+03  0.00000000000E+00 0.  1.
         24    2    1    2    0    0  0.53141977767E+02 -0.26159532775E+02 -0.62710417844E+03  0.63483131329E+03  0.79011105291E+02 0.  0.
         25    2    1    2    0    0  0.49926870611E+02 -0.52065164072E+02  0.54344100334E+02  0.15428520615E+03  0.12508864807E+03 0.  0.
        -24    2    1    2    0    0 -0.10306884838E+03  0.78224696847E+02  0.11756422886E+04  0.11855355653E+04  0.81347987833E+02 0.  0.
        -13    1    3    3    0    0  0.31388911654E+02 -0.45639138765E+02 -0.54268766173E+03  0.54550718873E+03  0.00000000000E+00 0.  1.
         14    1    3    3    0    0  0.21753066112E+02  0.19479605990E+02 -0.84416516712E+02  0.89324124561E+02  0.00000000000E+00 0. -1.
         11    1    5    5    0    0 -0.65162481628E+02  0.60403473134E+02  0.45015577425E+03  0.45884087620E+03  0.00000000000E+00 0. -1.
        -12    1    5    5    0    0 -0.37906366750E+02  0.17821223713E+02  0.72548651437E+03  0.72669468912E+03  0.00000000000E+00 0.  1.
          5    1    4    4  501    0  0.73104254209E+02 -0.53887549643E+02 -0.43468033372E+01  0.91019047947E+02  0.41800000000E+01 0.  1.
         -5    1    4    4    0  501 -0.23177383598E+02  0.18223855716E+01  0.58690903671E+02  0.63266158200E+02  0.41800000000E+01 0.  1.
</event>
<event>
11    1  0.7577197E-009  0.1946585E+03  0.7561462E-02  0.1058366E+00
         22   -1    0    0    0    0  0.00000000000E+00  0.00000000000E+00  0.59547008447E+03  0.59547008447E+03  0.00000000000E+00 0.  1.
         22   -1    0    0    0    0 -0.00000000000E+00 -0.00000000000E+00 -0.93755771324E+03  0.93755771324E+03  0.00000000000E+00 0.  1.
         24    2    1    2    0    0  0.65924944296E+02 -0.13734030326E+03 -0.64984297763E+03  0.67283209494E+03  0.84845007094E+02 0.  0.
         25    2    1    2    0    0 -0.27940953612E+02  0.14056477199E+03 -0.23934776163E+03  0.30573551502E+03  0.12509077558E+03 0.  0.
        -24    2    1    2    0    0 -0.37983990684E+02 -0.32244687259E+01  0.54710311048E+03  0.55446018775E+03  0.81554310465E+02 0.  0.
        -13    1    3    3    0    0  0.39824160289E+02 -0.13029090913E+03 -0.60753184396E+03  0.62262077236E+03  0.00000000000E+00 0.  1.
         14    1    3    3    0    0  0.26100784006E+02 -0.70493941332E+01 -0.42311133672E+02  0.50211322588E+02  0.00000000000E+00 0. -1.
         13    1    5    5    0    0  0.24416578204E+02 -0.85023976249E+01  0.11704888023E+03  0.11987034837E+03  0.00000000000E+00 0. -1.
        -14    1    5    5    0    0 -0.62400568888E+02  0.52779288990E+01  0.43005423026E+03  0.43458983938E+03  0.00000000000E+00 0.  1.
          5    1    4    4  501    0 -0.35724666530E+02  0.57045634410E+02 -0.19209784133E+02  0.70120927050E+02  0.41800000000E+01 0.  1.
         -5    1    4    4    0  501  0.77837129181E+01  0.83519137578E+02 -0.22013797749E+03  0.23561458797E+03  0.41800000000E+01 0.  1.
</event>
<event>
11    1  0.1717090E-008  0.1588271E+03  0.7561462E-02  0.1088186E+00
         22   -1    0    0    0    0  0.00000000000E+00  0.00000000000E+00  0.10262466885E+04  0.10262466885E+04  0.00000000000E+00 0. -1.
         22   -1    0    0    0    0 -0.00000000000E+00 -0.00000000000E+00 -0.12166709559E+04  0.12166709559E+04  0.00000000000E+00 0. -1.
        -24    2    1    2    0    0  0.76564662631E+02  0.47773299928E+02 -0.82625070986E+03  0.83494221778E+03  0.79333698638E+02 0.  0.
         25    2    1    2    0    0 -0.80924472926E+02 -0.13638714871E+03 -0.35582589378E+03  0.40915680754E+03  0.12508797631E+03 0.  0.
         24    2    1    2    0    0  0.43598102958E+01  0.88613848782E+02  0.99165233626E+03  0.99881861902E+03  0.79955334683E+02 0.  0.
        -13    1    5    5    0    0  0.55154998686E+01  0.98135322233E+01  0.13860959370E+02  0.17856437163E+02  0.00000000000E+00 0.  1.
         14    1    5    5    0    0 -0.11556895728E+01  0.78800316559E+02  0.97779137689E+03  0.98096218186E+03  0.00000000000E+00 0. -1.
         11    1    3    3    0    0  0.31166406384E+02  0.60130263499E+02 -0.60273335803E+03  0.60652658174E+03  0.00000000000E+00 0. -1.
        -12    1    3    3    0    0  0.45398256247E+02 -0.12356963571E+02 -0.22351735183E+03  0.22841563604E+03  0.00000000000E+00 0.  1.
          5    1    4    4  501    0 -0.89643031624E+02 -0.77451100224E+02 -0.13161848046E+03  0.17713114589E+03  0.41800000000E+01 0. -1.
         -5    1    4    4    0  501  0.87185586974E+01 -0.58936048486E+02 -0.22420741332E+03  0.23202566165E+03  0.41800000000E+01 0. -1.
</event>
<event>
11    1  0.7577197E-009  0.1541913E+03  0.7561462E-02  0.1092671E+00
         22   -1    0    0    0    0  0.00000000000E+00  0.00000000000E+00  0.14874134984E+03  0.14874134984E+03  0.00000000000E+00 0.  1.
         22   -1    0    0    0    0 -0.00000000000E+00 -0.00000000000E+00 -0.34996465791E+04  0.34996465791E+04  0.00000000000E+00 0.  1.
         24    2    1    2    0    0 -0.26136444738E+02 -0.85519796739E+02 -0.33183775550E+04  0.33205092878E+04  0.78457527012E+02 0.  0.
         25    2    1    2    0    0  0.10786552406E+02  0.12617237855E+03 -0.10893210402E+03  0.20868807112E+03  0.12509471979E+03 0.  0.
        -24    2    1    2    0    0  0.15349892332E+02 -0.40652581811E+02  0.76404429739E+02  0.11919057003E+03  0.80501574503E+02 0.  0.
        -11    1    3    3    0    0 -0.35853063514E+02 -0.49288857942E+02 -0.28432785930E+04  0.28439317838E+04  0.00000000000E+00 0.  1.
         12    1    3    3    0    0  0.97166187761E+01 -0.36230938797E+02 -0.47509896199E+03  0.47657750397E+03  0.00000000000E+00 0. -1.
         11    1    5    5    0    0  0.67653532930E+01  0.18632560954E+02 -0.26549791262E+01  0.19999781175E+02  0.00000000000E+00 0. -1.
        -12    1    5    5    0    0  0.85845390392E+01 -0.59285142765E+02  0.79059408865E+02  0.99190788853E+02  0.00000000000E+00 0.  1.
          5    1    4    4  501    0 -0.38537997063E+02  0.65956599032E+02 -0.10594508942E+03  0.13068008473E+03  0.41800000000E+01 0. -1.
         -5    1    4    4    0  501  0.49324549469E+02  0.60215779518E+02 -0.29870145933E+01  0.78007986382E+02  0.41800000000E+01 0. -1.
</event>
<event>
11    1  0.7577197E-009  0.1334057E+03  0.7561462E-02  0.1115154E+00
         22   -1    0    0    0    0  0.00000000000E+00  0.00000000000E+00  0.68460423144E+03  0.68460423144E+03  0.00000000000E+00 0.  1.
         22   -1    0    0    0    0 -0.00000000000E+00 -0.00000000000E+00 -0.11616687768E+04  0.11616687768E+04  0.00000000000E+00 0. -1.
        -24    2    1    2    0    0  0.41024731907E+02 -0.53784089212E+01 -0.70603070923E+03  0.71184412839E+03  0.80813023889E+02 0.  0.
         25    2    1    2    0    0 -0.58255869852E+02  0.44363327895E+02 -0.43803028961E+03  0.46138927439E+03  0.12509067383E+03 0.  0.
         24    2    1    2    0    0  0.17231137945E+02 -0.38984918974E+02  0.66699645343E+03  0.67303960550E+03  0.79254688564E+02 0.  0.
        -11    1    5    5    0    0  0.61566465009E+01 -0.49515738248E+02  0.21223988172E+03  0.21802632874E+03  0.00000000000E+00 0.  1.
         12    1    5    5    0    0  0.11074491444E+02  0.10530819274E+02  0.45475657171E+03  0.45501327676E+03  0.00000000000E+00 0. -1.
         11    1    3    3    0    0  0.15061875666E+02 -0.20816057259E+02 -0.62232466114E+03  0.62285484040E+03  0.00000000000E+00 0. -1.
        -12    1    3    3    0    0  0.25962856241E+02  0.15437648338E+02 -0.83706048087E+02  0.88989287989E+02  0.00000000000E+00 0.  1.
          5    1    4    4  501    0 -0.77707485787E+02  0.11274623199E+01 -0.37163958406E+03  0.37970143187E+03  0.41800000000E+01 0. -1.
         -5    1    4    4    0  501  0.19451615934E+02  0.43235865576E+02 -0.66390705542E+02  0.81687842528E+02  0.41800000000E+01 0. -1.
</event>
<event>
11    1  0.7577197E-009  0.2271830E+03  0.7561462E-02  0.1036809E+00
         22   -1    0    0    0    0  0.00000000000E+00  0.00000000000E+00  0.85571651566E+03  0.85571651566E+03  0.00000000000E+00 0.  1.
         22   -1    0    0    0    0 -0.00000000000E+00 -0.00000000000E+00 -0.34875304616E+03  0.34875304616E+03  0.00000000000E+00 0.  1.
         24    2    1    2    0    0 -0.17729558303E+02  0.19229731377E+03 -0.25659975169E+03  0.33108071297E+03  0.80488581893E+02 0.  0.
         25    2    1    2    0    0 -0.13665731800E+03 -0.15931322733E+03  0.37814075947E+03  0.45021594336E+03  0.12509210494E+03 0.  0.
        -24    2    1    2    0    0  0.15438687631E+03 -0.32984086440E+02  0.38542246173E+03  0.42317290549E+03  0.74843679781E+02 0.  0.
        -13    1    3    3    0    0  0.18977753949E+01  0.18293358687E+03 -0.24684374719E+03  0.30724604844E+03  0.00000000000E+00 0.  1.
         14    1    3    3    0    0 -0.19627333698E+02  0.93637268915E+01 -0.97560045052E+01  0.23834664531E+02  0.00000000000E+00 0. -1.
         13    1    5    5    0    0  0.28660912851E+02 -0.32901350226E+02  0.59056594690E+02  0.73427706954E+02  0.00000000000E+00 0. -1.
        -14    1    5    5    0    0  0.12572596345E+03 -0.82736214239E-01  0.32636586704E+03  0.34974519853E+03  0.00000000000E+00 0.  1.
          5    1    4    4  501    0 -0.14926702160E+02 -0.93529654886E+02  0.22286743250E+03  0.24219407022E+03  0.41800000000E+01 0.  1.
         -5    1    4    4    0  501 -0.12173061584E+03 -0.65783572440E+02  0.15527332697E+03  0.20802187314E+03  0.41800000000E+01 0.  1.
</event>
<event>
11    1  0.7577197E-009  0.3595720E+03  0.7561462E-02  0.9777202E-01
         22   -1    0    0    0    0  0.00000000000E+00  0.00000000000E+00  0.87461085504E+02  0.87461085504E+02  0.00000000000E+00 0. -1.
         22   -1    0    0    0    0 -0.00000000000E+00 -0.00000000000E+00 -0.29285698555E+04  0.29285698555E+04  0.00000000000E+00 0.  1.
        -24    2    1    2    0    0  0.29302521366E+02 -0.11158727247E+03 -0.36547517669E+03  0.39182713341E+03  0.81523251660E+02 0.  0.
         25    2    1    2    0    0 -0.25428668920E+03  0.25300295044E+03 -0.21961689824E+04  0.22287833486E+04  0.12507918347E+03 0.  0.
         24    2    1    2    0    0  0.22498416784E+03 -0.14141567797E+03 -0.27946461088E+03  0.39542045906E+03  0.87410531126E+02 0.  0.
        -11    1    5    5    0    0  0.90330464799E+02 -0.58938255188E+02 -0.55257088483E+02  0.12118851688E+03  0.00000000000E+00 0.  1.
         12    1    5    5    0    0  0.13465370304E+03 -0.82477422783E+02 -0.22420752240E+03  0.27423194218E+03  0.00000000000E+00 0. -1.
         13    1    3    3    0    0 -0.23659984260E+02 -0.67812607516E+02 -0.16679733455E+03  0.18160312609E+03  0.00000000000E+00 0. -1.
        -14    1    3    3    0    0  0.52962505627E+02 -0.43774664955E+02 -0.19867784214E+03  0.21022400732E+03  0.00000000000E+00 0.  1.
          5    1    4    4  501    0 -0.44765014338E+02  0.63174929308E+02 -0.23820252524E+03  0.25050527666E+03  0.41800000000E+01 0.  1.
         -5    1    4    4    0  501 -0.20952167486E+03  0.18982802113E+03 -0.19579664572E+04  0.19782780719E+04  0.41800000000E+01 0.  1.
</event>
<event>
11    1  0.7577197E-009  0.1292921E+03  0.7561462E-02  0.1120142E+00
         22   -1    0    0    0    0  0.00000000000E+00  0.00000000000E+00  0.74960793076E+03  0.74960793076E+03  0.00000000000E+00 0. -1.
         22   -1    0    0    0    0 -0.00000000000E+00 -0.00000000000E+00 -0.88697114366E+03  0.88697114366E+03  0.00000000000E+00 0. -1.
        -24    2    1    2    0    0  0.31305685709E+02 -0.17794203883E+02 -0.86672022814E+03  0.87109610759E+03  0.79421628931E+02 0.  0.
         25    2    1    2    0    0 -0.28697854954E+02 -0.18901664464E+02  0.29614480794E+03  0.32331140736E+03  0.12509068334E+03 0.  0.
         24    2    1    2    0    0 -0.26078307551E+01  0.36695868347E+02  0.43321220729E+03  0.44217155947E+03  0.80557333164E+02 0.  0.
        -13    1    5    5    0    0  0.41680701667E+01 -0.25149301353E+02  0.99805752130E+02  0.10300994285E+03  0.00000000000E+00 0.  1.
         14    1    5    5    0    0 -0.67759009218E+01  0.61845169700E+02  0.33340645516E+03  0.33916161663E+03  0.00000000000E+00 0. -1.
         11    1    3    3    0    0  0.28002230710E+02 -0.48533166183E+02 -0.58972073960E+03  0.59237669085E+03  0.00000000000E+00 0. -1.
        -12    1    3    3    0    0  0.33034549986E+01  0.30738962300E+02 -0.27699948854E+03  0.27871941674E+03  0.00000000000E+00 0.  1.
          5    1    4    4  501    0 -0.55852277579E+02 -0.17734349647E+02  0.28898407523E+03  0.29489532415E+03  0.41800000000E+01 0.  1.
         -5    1    4    4    0  501  0.27154422625E+02 -0.11673148163E+01  0.71607327136E+01  0.28416083210E+02  0.41800000000E+01 0.  1.
</event>
<event>
11    1  0.7577197E-009  0.1382537E+03  0.7561462E-02  0.1109524E+00
         22   -1    0    0    0    0  0.00000000000E+00  0.00000000000E+00  0.13318047875E+04  0.13318047875E+04  0.00000000000E+00 0.  1.
         22   -1    0    0    0    0 -0.00000000000E+00 -0.00000000000E+00 -0.19486176385E+03  0.19486176385E+03  0.00000000000E+00 0.  1.
        -24    2    1    2    0    0 -0.45677515936E+02  0.30875670819E+02 -0.77696528099E+02  0.12459065067E+03  0.80289085460E+02 0.  0.
         25    2    1    2    0    0  0.10306180873E+03 -0.22490662478E+02 -0.18701608363E+02  0.16469652609E+03  0.12509048419E+03 0.  0.
         24    2    1    2    0    0 -0.57384292794E+02 -0.83850083412E+01  0.12333411601E+04  0.12373793746E+04  0.81326711589E+02 0.  0.
        -11    1    5    5    0    0 -0.50069498255E+02 -0.30682937091E+02  0.11247289538E+04  0.11262609008E+04  0.00000000000E+00 0.  1.
         12    1    5    5    0    0 -0.73147945392E+01  0.22297928750E+02  0.10861220637E+03  0.11111847379E+03  0.00000000000E+00 0. -1.
         11    1    3    3    0    0 -0.31111328991E+02 -0.23768097827E+02 -0.43407575445E+02  0.58455580332E+02  0.00000000000E+00 0. -1.
        -12    1    3    3    0    0 -0.14566186944E+02  0.54643768646E+02 -0.34288952654E+02  0.66135070334E+02  0.00000000000E+00 0.  1.
          5    1    4    4  501    0  0.18479253500E+02 -0.65818581087E+02 -0.88889741061E+01  0.69065582506E+02  0.41800000000E+01 0.  1.
         -5    1    4    4    0  501  0.84582555230E+02  0.43327918609E+02 -0.98126342573E+01  0.95630943587E+02  0.41800000000E+01 0.  1.
</event>
<event>
11    1  0.7577197E-009  0.1881999E+03  0.7561462E-02  0.1063197E+00
         22   -1    0    0    0    0  0.00000000000E+00  0.00000000000E+00  0.15339553681E+03  0.15339553681E+03  0.00000000000E+00 0.  1.
         22   -1    0    0    0    0 -0.00000000000E+00 -0.00000000000E+00 -0.86345312788E+03  0.86345312788E+03  0.00000000000E+00 0. -1.
         24    2    1    2    0    0 -0.16838099016E+02 -0.33204322009E+02 -0.55731502802E+03  0.56371114288E+03  0.76053688797E+02 0.  0.
         25    2    1    2    0    0  0.53229871506E+02  0.16162454346E+03 -0.19813560421E+03  0.28958919344E+03  0.12509304951E+03 0.  0.
        -24    2    1    2    0    0 -0.36391772490E+02 -0.12842022145E+03  0.45393041151E+02  0.16354832837E+03  0.82893987387E+02 0.  0.
        -11    1    3    3    0    0 -0.33057905641E+02 -0.36157415907E+02 -0.19634688641E+03  0.20236670589E+03  0.00000000000E+00 0.  1.
         12    1    3    3    0    0  0.16219806625E+02  0.29530938977E+01 -0.36096814161E+03  0.36134443699E+03  0.00000000000E+00 0. -1.
         11    1    5    5    0    0 -0.33453984978E+02 -0.60415981463E+02 -0.17098294861E+02  0.71145004141E+02  0.00000000000E+00 0. -1.
        -12    1    5    5    0    0 -0.29377875120E+01 -0.68004239984E+02  0.62491336012E+02  0.92403324225E+02  0.00000000000E+00 0.  1.
          5    1    4    4  501    0  0.45972798094E+02  0.18158784324E+03 -0.18887455091E+03  0.26604268710E+03  0.41800000000E+01 0.  1.
         -5    1    4    4    0  501  0.72570734123E+01 -0.19963299783E+02 -0.92610532924E+01  0.23546506340E+02  0.41800000000E+01 0.  1.
</event>
<event>
11    1  0.7577197E-009  0.1324326E+03  0.7561462E-02  0.1116316E+00
         22   -1    0    0    0    0  0.00000000000E+00  0.00000000000E+00  0.21968611464E+04  0.21968611464E+04  0.00000000000E+00 0. -1.
         22   -1    0    0    0    0 -0.00000000000E+00 -0.00000000000E+00 -0.25300680986E+03  0.25300680986E+03  0.00000000000E+00 0. -1.
         24    2    1    2    0    0  0.16544439131E+02 -0.40226936201E+02 -0.23845294182E+03  0.25474144912E+03  0.78367567092E+02 0.  0.
         25    2    1    2    0    0 -0.56689032111E+01  0.43483009628E+02  0.86820386117E+03  0.87826432225E+03  0.12508943436E+03 0.  0.
        -24    2    1    2    0    0 -0.10875535920E+02 -0.32560734276E+01  0.13141034172E+04  0.13168621849E+04  0.84435440587E+02 0.  0.
        -11    1    3    3    0    0 -0.22622210571E+01  0.72954041864E+01  0.27994243419E+01  0.81349457896E+01  0.00000000000E+00 0.  1.
         12    1    3    3    0    0  0.18806660188E+02 -0.47522340387E+02 -0.24125236616E+03  0.24660650333E+03  0.00000000000E+00 0. -1.
         11    1    5    5    0    0 -0.37260469623E+02 -0.25512510586E+02  0.96509731308E+03  0.96615322517E+03  0.00000000000E+00 0. -1.
        -12    1    5    5    0    0  0.26384933704E+02  0.22256437159E+02  0.34900610410E+03  0.35070895971E+03  0.00000000000E+00 0.  1.
          5    1    4    4  501    0  0.41428161691E+02 -0.60742389439E+01  0.12462155068E+03  0.13153399657E+03  0.41800000000E+01 0.  1.
         -5    1    4    4    0  501 -0.47097064902E+02  0.49557248572E+02  0.74358231049E+03  0.74673032568E+03  0.41800000000E+01 0.  1.
</event>
<event>
11    1  0.7577197E-009  0.2888048E+03  0.7561462E-02  0.1005044E+00
         22   -1    0    0    0    0  0.00000000000E+00  0.00000000000E+00  0.16817435122E+03  0.16817435122E+03  0.00000000000E+00 0.  1.
         22   -1    0    0    0    0 -0.00000000000E+00 -0.00000000000E+00 -0.20971341256E+04  0.20971341256E+04  0.00000000000E+00 0.  1.
         24    2    1    2    0    0  0.85990614073E+01 -0.12431322661E+03 -0.12334481811E+04  0.12423310798E+04  0.80401331512E+02 0.  0.
         25    2    1    2    0    0  0.23891871008E+03  0.18644671135E+02 -0.69007694329E+03  0.74113615467E+03  0.12508732272E+03 0.  0.
        -24    2    1    2    0    0 -0.24751777149E+03  0.10566855548E+03 -0.54346498949E+01  0.28184124230E+03  0.83510835356E+02 0.  0.
        -11    1    3    3    0    0 -0.11102817302E+02 -0.11680870721E+03 -0.82075118846E+03  0.82909592931E+03  0.00000000000E+00 0.  1.
         12    1    3    3    0    0  0.19701878710E+02 -0.75045194013E+01 -0.41269699268E+03  0.41323515050E+03  0.00000000000E+00 0. -1.
         11    1    5    5    0    0 -0.67058702103E+02  0.19214863375E+02 -0.37485787497E+02  0.79191317495E+02  0.00000000000E+00 0. -1.
        -12    1    5    5    0    0 -0.18045906939E+03  0.86453692104E+02  0.32051137602E+02  0.20264992481E+03  0.00000000000E+00 0.  1.
          5    1    4    4  501    0  0.81733164033E+02  0.62282100177E+02 -0.20508157652E+03  0.22942383384E+03  0.41800000000E+01 0. -1.
         -5    1    4    4    0  501  0.15718554605E+03 -0.43637429042E+02 -0.48499536677E+03  0.51171232083E+03  0.41800000000E+01 0. -1.
</event>
<event>
11    1  0.7577197E-009  0.1671522E+03  0.7561462E-02  0.1080537E+00
         22   -1    0    0    0    0  0.00000000000E+00  0.00000000000E+00  0.30032779671E+03  0.30032779671E+03  0.00000000000E+00 0.  1.
         22   -1    0    0    0    0 -0.00000000000E+00 -0.00000000000E+00 -0.12420793427E+04  0.12420793427E+04  0.00000000000E+00 0. -1.
        -24    2    1    2    0    0  0.27648417833E+02  0.10217171961E+03 -0.95574071016E+03  0.96493907254E+03  0.80396600359E+02 0.  0.
         25    2    1    2    0    0 -0.77957005985E+02 -0.13425121889E+03 -0.23556640365E+03  0.30860936089E+03  0.12509005775E+03 0.  0.
         24    2    1    2    0    0  0.50308588152E+02  0.32079499278E+02  0.24955556782E+03  0.26885870598E+03  0.80293050979E+02 0.  0.
        -11    1    5    5    0    0  0.62523083947E+02  0.96137154430E+01  0.22378588388E+03  0.23255468470E+03  0.00000000000E+00 0.  1.
         12    1    5    5    0    0 -0.12214495795E+02  0.22465783835E+02  0.25769683938E+02  0.36304021280E+02  0.00000000000E+00 0. -1.
         13    1    3    3    0    0  0.38351694348E+02  0.90118411438E+02 -0.92552366235E+03  0.93069126466E+03  0.00000000000E+00 0. -1.
        -14    1    3    3    0    0 -0.10703276515E+02  0.12053308172E+02 -0.30217047811E+02  0.34247807878E+02  0.00000000000E+00 0.  1.
          5    1    4    4  501    0 -0.54585858782E+02  0.12217373538E+01 -0.10767219763E+03  0.12079686736E+03  0.41800000000E+01 0. -1.
         -5    1    4    4    0  501 -0.23371147203E+02 -0.13547295624E+03 -0.12789420602E+03  0.18781249353E+03  0.41800000000E+01 0. -1.
</event>
<event>
11    1  0.7577197E-009  0.1819375E+03  0.7561462E-02  0.1068086E+00
         22   -1    0    0    0    0  0.00000000000E+00  0.00000000000E+00  0.46877559336E+03  0.46877559336E+03  0.00000000000E+00 0.  1.
         22   -1    0    0    0    0 -0.00000000000E+00 -0.00000000000E+00 -0.14997051656E+04  0.14997051656E+04  0.00000000000E+00 0.  1.
         24    2    1    2    0    0  0.30571784456E+02 -0.97724016414E+02 -0.12925521366E+04  0.12991300406E+04  0.81013696974E+02 0.  0.
         25    2    1    2    0    0 -0.15614922402E+03  0.57124485145E+02 -0.13197148346E+03  0.24639323559E+03  0.12508943653E+03 0.  0.
        -24    2    1    2    0    0  0.12557743957E+03  0.40599531270E+02  0.39359404785E+03  0.42295748278E+03  0.80986063424E+02 0.  0.
        -11    1    3    3    0    0  0.16278742174E+02 -0.10481487653E+03 -0.89594268966E+03  0.90219978881E+03  0.00000000000E+00 0.  1.
         12    1    3    3    0    0  0.14293042282E+02  0.70908601149E+01 -0.39660944695E+03  0.39693025177E+03  0.00000000000E+00 0. -1.
         13    1    5    5    0    0  0.39988164380E+02  0.31647324423E+02  0.61490686072E+02  0.79885611390E+02  0.00000000000E+00 0. -1.
        -14    1    5    5    0    0  0.85589275189E+02  0.89522068462E+01  0.33210336177E+03  0.34307187139E+03  0.00000000000E+00 0.  1.
          5    1    4    4  501    0 -0.11748960270E+03 -0.22092050685E+02 -0.81301583541E+02  0.14463500729E+03  0.41800000000E+01 0.  1.
         -5    1    4    4    0  501 -0.38659621324E+02  0.79216535829E+02 -0.50669899923E+02  0.10175822831E+03  0.41800000000E+01 0.  1.
</event>
<event>
11    1  0.7577197E-009  0.1813424E+03  0.7561462E-02  0.1068562E+00
         22   -1    0    0    0    0  0.00000000000E+00  0.00000000000E+00  0.10046503123E+04  0.10046503123E+04  0.00000000000E+00 0.  1.
         22   -1    0    0    0    0 -0.00000000000E+00 -0.00000000000E+00 -0.65439127116E+03  0.65439127116E+03  0.00000000000E+00 0.  1.
        -24    2    1    2    0    0  0.14760823548E+02 -0.65248413600E+02 -0.59600762625E+03  0.60504960201E+03  0.79904273653E+02 0.  0.
         25    2    1    2    0    0 -0.81531552604E+02  0.16810731557E+03  0.22537892774E+03  0.31837248538E+03  0.12513158977E+03 0.  0.
         24    2    1    2    0    0  0.66770729056E+02 -0.10285890197E+03  0.72088773965E+03  0.73561949607E+03  0.80116326981E+02 0.  0.
        -11    1    5    5    0    0  0.35983364625E+02 -0.10661684377E+03  0.49605871046E+03  0.50866118206E+03  0.00000000000E+00 0.  1.
         12    1    5    5    0    0  0.30787364432E+02  0.37579417972E+01  0.22482902919E+03  0.22695831402E+03  0.00000000000E+00 0. -1.
         13    1    3    3    0    0  0.47731138932E+02 -0.34297835232E+02 -0.35588280730E+03  0.36070372282E+03  0.00000000000E+00 0. -1.
        -14    1    3    3    0    0 -0.32970315385E+02 -0.30950578368E+02 -0.24012481895E+03  0.24434587919E+03  0.00000000000E+00 0.  1.
          5    1    4    4  501    0 -0.62541299306E+02  0.16493212081E+03  0.23702413226E+03  0.29548592228E+03  0.41800000000E+01 0. -1.
         -5    1    4    4    0  501 -0.18990253298E+02  0.31751947631E+01 -0.11645204520E+02  0.22886563098E+02  0.41800000000E+01 0. -1.
</event>
<event>
11    1  0.7577197E-009  0.1574150E+03  0.7561462E-02  0.1089534E+00
         22   -1    0    0    0    0  0.00000000000E+00  0.00000000000E+00  0.76430482311E+03  0.76430482311E+03  0.00000000000E+00 0.  1.
         22   -1    0    0    0    0 -0.00000000000E+00 -0.00000000000E+00 -0.70474338391E+03  0.70474338391E+03  0.00000000000E+00 0.  1.
        -24    2    1    2    0    0  0.44066935362E+01  0.98310564339E+02 -0.62930443149E+03  0.64186984389E+03  0.79299703610E+02 0.  0.
         25    2    1    2    0    0 -0.22858353722E+02 -0.60388893098E+02  0.91725461842E+01  0.14107040979E+03  0.12508957658E+03 0.  0.
         24    2    1    2    0    0  0.18451660185E+02 -0.37921671241E+02  0.67969332450E+03  0.68610795334E+03  0.83561901296E+02 0.  0.
        -13    1    5    5    0    0 -0.25412783825E+02  0.22580357670E+01  0.36170012275E+03  0.36259879633E+03  0.00000000000E+00 0.  1.
         14    1    5    5    0    0  0.43864444010E+02 -0.40179707008E+02  0.31799320176E+03  0.32350915701E+03  0.00000000000E+00 0. -1.
         11    1    3    3    0    0  0.37376093917E+02  0.68796702959E+02 -0.32122946073E+03  0.33063321850E+03  0.00000000000E+00 0. -1.
        -12    1    3    3    0    0 -0.32969400381E+02  0.29513861380E+02 -0.30807497076E+03  0.31123662539E+03  0.00000000000E+00 0.  1.
          5    1    4    4  501    0 -0.19097712705E+02 -0.31004077435E+01 -0.52859695941E+02  0.56444264666E+02  0.41800000000E+01 0. -1.
         -5    1    4    4    0  501 -0.37606410165E+01 -0.57288485354E+02  0.62032242125E+02  0.84626145122E+02  0.41800000000E+01 0. -1.
</event>
<event>
11    1  0.1347333E-008  0.1881760E+03  0.7561462E-02  0.1063215E+00
         22   -1    0    0    0    0  0.00000000000E+00  0.00000000000E+00  0.58757674185E+03  0.58757674185E+03  0.00000000000E+00 0. -1.
         22   -1    0    0    0    0 -0.00000000000E+00 -0.00000000000E+00 -0.73920146057E+03  0.73920146057E+03  0.00000000000E+00 0.  1.
         24    2    1    2    0    0  0.10495182567E+03 -0.75602901326E+02 -0.53297103657E+03  0.55438353169E+03  0.80946216599E+02 0.  0.
         25    2    1    2    0    0 -0.10448351301E+03  0.21105748889E+03 -0.85322148282E+02  0.27998131202E+03  0.12509035927E+03 0.  0.
        -24    2    1    2    0    0 -0.46831265932E+00 -0.13545458757E+03  0.46666846614E+03  0.49241335871E+03  0.79644798579E+02 0.  0.
        -11    1    3    3    0    0  0.10281243145E+03 -0.78167237846E+02 -0.53507168693E+03  0.55043821024E+03  0.00000000000E+00 0.  1.
         12    1    3    3    0    0  0.21393942192E+01  0.25643365200E+01  0.21006503598E+01  0.39453214504E+01  0.00000000000E+00 0. -1.
         11    1    5    5    0    0 -0.10462761688E+02 -0.13971900957E+03  0.45655027962E+03  0.47756573248E+03  0.00000000000E+00 0. -1.
        -12    1    5    5    0    0  0.99944490286E+01  0.42644219988E+01  0.10118186518E+02  0.14847626234E+02  0.00000000000E+00 0.  1.
          5    1    4    4  501    0 -0.12686155091E+03  0.15475964109E+03 -0.39766435251E+02  0.20406675717E+03  0.41800000000E+01 0.  1.
         -5    1    4    4    0  501  0.22378037903E+02  0.56297847804E+02 -0.45555713031E+02  0.75914554846E+02  0.41800000000E+01 0.  1.
</event>
<event>
11    1  0.7577197E-009  0.1459849E+03  0.7561462E-02  0.1101053E+00
         22   -1    0    0    0    0  0.00000000000E+00  0.00000000000E+00  0.44844758651E+02  0.44844758651E+02  0.00000000000E+00 0. -1.
         22   -1    0    0    0    0 -0.00000000000E+00 -0.00000000000E+00 -0.10102187313E+04  0.10102187313E+04  0.00000000000E+00 0. -1.
        -24    2    1    2    0    0  0.54640899368E+02  0.14388524720E+02 -0.34924319927E+03  0.36239595859E+03  0.78532547666E+02 0.  0.
         25    2    1    2    0    0 -0.12054578411E+03 -0.84264242437E+01 -0.52943823463E+03  0.55727442256E+03  0.12509055542E+03 0.  0.
         24    2    1    2    0    0  0.65904884744E+02 -0.59621004766E+01 -0.86692538787E+02  0.13539310884E+03  0.80229029435E+02 0.  0.
        -11    1    5    5    0    0  0.67905368035E+02 -0.30883681502E+02 -0.46022531545E+02  0.87652804866E+02  0.00000000000E+00 0.  1.
         12    1    5    5    0    0 -0.20004832909E+01  0.24921581025E+02 -0.40670007243E+02  0.47740303972E+02  0.00000000000E+00 0. -1.
         11    1    3    3    0    0  0.29206225881E+02  0.40517035396E+02 -0.27705442877E+03  0.28152049710E+03  0.00000000000E+00 0. -1.
        -12    1    3    3    0    0  0.25434673487E+02 -0.26128510676E+02 -0.72188770497E+02  0.80875461491E+02  0.00000000000E+00 0.  1.
          5    1    4    4  501    0 -0.33328407942E+02  0.50689547262E+02 -0.12068420573E+03  0.13513831023E+03  0.41800000000E+01 0. -1.
         -5    1    4    4    0  501 -0.87217376170E+02 -0.59115971506E+02 -0.40875402890E+03  0.42213611233E+03  0.41800000000E+01 0. -1.
</event>
<event>
11    1  0.7577197E-009  0.1488633E+03  0.7561462E-02  0.1098046E+00
         22   -1    0    0    0    0  0.00000000000E+00  0.00000000000E+00  0.10697944014E+04  0.10697944014E+04  0.00000000000E+00 0. -1.
         22   -1    0    0    0    0 -0.00000000000E+00 -0.00000000000E+00 -0.84644029079E+02  0.84644029079E+02  0.00000000000E+00 0.  1.
        -24    2    1    2    0    0  0.48210798409E+02  0.37018888174E+02  0.16920406606E+02  0.10411798330E+03  0.82822552017E+02 0.  0.
         25    2    1    2    0    0 -0.77301100209E+02 -0.10659324800E+03  0.18609275467E+03  0.26002826766E+03  0.12508639425E+03 0.  0.
         24    2    1    2    0    0  0.29090301800E+02  0.69574359828E+02  0.78213721108E+03  0.79029217955E+03  0.84476475451E+02 0.  0.
        -11    1    5    5    0    0 -0.13174577873E+02  0.33694647119E+02  0.10840488514E+03  0.11428262278E+03  0.00000000000E+00 0.  1.
         12    1    5    5    0    0  0.42264879673E+02  0.35879712709E+02  0.67373232594E+03  0.67600955677E+03  0.00000000000E+00 0. -1.
         13    1    3    3    0    0  0.43463533840E+02  0.22963906783E+02  0.48606888533E+02  0.69130669036E+02  0.00000000000E+00 0. -1.
        -14    1    3    3    0    0  0.47472645693E+01  0.14054981391E+02 -0.31686481926E+02  0.34987314267E+02  0.00000000000E+00 0.  1.
          5    1    4    4  501    0 -0.40840637680E+02 -0.10298551410E+03  0.19293709519E+03  0.22252228855E+03  0.41800000000E+01 0. -1.
         -5    1    4    4    0  501 -0.36460462529E+02 -0.36077339000E+01 -0.68443405192E+01  0.37505979108E+02  0.41800000000E+01 0. -1.
</event>
<event>
11    1  0.7577197E-009  0.1286401E+03  0.7561462E-02  0.1120951E+00
         22   -1    0    0    0    0  0.00000000000E+00  0.00000000000E+00  0.10851764319E+04  0.10851764319E+04  0.00000000000E+00 0. -1.
         22   -1    0    0    0    0 -0.00000000000E+00 -0.00000000000E+00 -0.31620981210E+03  0.31620981210E+03  0.00000000000E+00 0. -1.
         24    2    1    2    0    0 -0.28923428795E+02  0.11219292021E+02 -0.28229749506E+03  0.29501824274E+03  0.79883982043E+02 0.  0.
         25    2    1    2    0    0  0.10692155653E+02  0.12974385396E+02  0.12966861569E+03  0.18095270168E+03  0.12508906220E+03 0.  0.
        -24    2    1    2    0    0  0.18231273142E+02 -0.24193677417E+02  0.92159549916E+03  0.92541529955E+03  0.78342193133E+02 0.  0.
        -13    1    3    3    0    0 -0.56453586266E+02  0.10978499252E+02 -0.17311007956E+03  0.18241336161E+03  0.00000000000E+00 0.  1.
         14    1    3    3    0    0  0.27530157472E+02  0.24079276905E+00 -0.10918741550E+03  0.11260488114E+03  0.00000000000E+00 0. -1.
         13    1    5    5    0    0  0.26489767200E+02  0.20539576600E+02  0.55447947520E+03  0.55549173746E+03  0.00000000000E+00 0. -1.
        -14    1    5    5    0    0 -0.82584940574E+01 -0.44733254017E+02  0.36711602397E+03  0.36992356209E+03  0.00000000000E+00 0.  1.
          5    1    4    4  501    0  0.14295682890E+02  0.36830651421E+02  0.14613874764E+03  0.15144262741E+03  0.41800000000E+01 0.  1.
         -5    1    4    4    0  501 -0.36035272371E+01 -0.23856266025E+02 -0.16470131953E+02  0.29510074276E+02  0.41800000000E+01 0.  1.
</event>
<event>
11    1  0.7577197E-009  0.1588497E+03  0.7561462E-02  0.1088164E+00
         22   -1    0    0    0    0  0.00000000000E+00  0.00000000000E+00  0.70940640939E+03  0.70940640939E+03  0.00000000000E+00 0.  1.
         22   -1    0    0    0    0 -0.00000000000E+00 -0.00000000000E+00 -0.23708588435E+04  0.23708588435E+04  0.00000000000E+00 0. -1.
        -24    2    1    2    0    0  0.12241927648E+01 -0.37624259382E+02 -0.23309805155E+04  0.23339454566E+04  0.11141879055E+03 0.  0.
         25    2    1    2    0    0 -0.36449716619E+02 -0.61626311513E+02  0.14163610872E+03  0.20207982316E+03  0.12509629701E+03 0.  0.
         24    2    1    2    0    0  0.35225523854E+02  0.99250570895E+02  0.52789197271E+03  0.54423997316E+03  0.80222815844E+02 0.  0.
        -13    1    5    5    0    0  0.58403351848E+02  0.87165371166E+02  0.38853645659E+03  0.40245413595E+03  0.00000000000E+00 0.  1.
         14    1    5    5    0    0 -0.23177827994E+02  0.12085199729E+02  0.13935551612E+03  0.14178583722E+03  0.00000000000E+00 0. -1.
         11    1    3    3    0    0  0.40964088641E+02 -0.71456008848E+01 -0.18290388321E+04  0.18295114554E+04  0.00000000000E+00 0. -1.
        -12    1    3    3    0    0 -0.39739895877E+02 -0.30478658497E+02 -0.50194168347E+03  0.50443400118E+03  0.00000000000E+00 0.  1.
          5    1    4    4  501    0 -0.62480710290E+02 -0.84396918872E+02  0.12549331941E+03  0.16368483342E+03  0.41800000000E+01 0. -1.
         -5    1    4    4    0  501  0.26030993671E+02  0.22770607359E+02  0.16142789303E+02  0.38394989745E+02  0.41800000000E+01 0. -1.
</event>
<event>
11    1  0.7577197E-009  0.1510147E+03  0.7561462E-02  0.1095846E+00
         22   -1    0    0    0    0  0.00000000000E+00  0.00000000000E+00  0.72740390696E+03  0.72740390696E+03  0.00000000000E+00 0.  1.
         22   -1    0    0    0    0 -0.00000000000E+00 -0.00000000000E+00 -0.12560595616E+03  0.12560595616E+03  0.00000000000E+00 0.  1.
         24    2    1    2    0    0  0.83126828578E+02  0.24580640978E+02  0.28799636837E+02  0.12472892988E+03  0.84932969606E+02 0.  0.
         25    2    1    2    0    0 -0.63444296396E+02 -0.60018491729E+02  0.43399369047E+01  0.15261788676E+03  0.12508391667E+03 0.  0.
        -24    2    1    2    0    0 -0.19682532182E+02  0.35437850751E+02  0.56865837706E+03  0.57566304649E+03  0.79827000166E+02 0.  0.
        -13    1    3    3    0    0  0.28584159786E+02  0.51057581691E+02  0.22952932408E+01  0.58559364835E+02  0.00000000000E+00 0.  1.
         14    1    3    3    0    0  0.54542668792E+02 -0.26476940713E+02  0.26504343596E+02  0.66169565043E+02  0.00000000000E+00 0. -1.
         11    1    5    5    0    0 -0.33661704432E+02  0.25431534420E+02  0.13013341228E+03  0.13680123640E+03  0.00000000000E+00 0. -1.
        -12    1    5    5    0    0  0.13979172250E+02  0.10006316332E+02  0.43852496478E+03  0.43886181009E+03  0.00000000000E+00 0.  1.
          5    1    4    4  501    0  0.34650225553E+02 -0.62915480950E+01 -0.15925633533E+02  0.38875698215E+02  0.41800000000E+01 0. -1.
         -5    1    4    4    0  501 -0.98094521949E+02 -0.53726943634E+02  0.20265570437E+02  0.11374218854E+03  0.41800000000E+01 0. -1.
</event>
<event>
11    1  0.7577197E-009  0.1373750E+03  0.7561462E-02  0.1110525E+00
         22   -1    0    0    0    0  0.00000000000E+00  0.00000000000E+00  0.37623258868E+03  0.37623258868E+03  0.00000000000E+00 0.  1.
         22   -1    0    0    0    0 -0.00000000000E+00 -0.00000000000E+00 -0.22650107038E+03  0.22650107038E+03  0.00000000000E+00 0.  1.
         24    2    1    2    0    0 -0.27886226732E+02 -0.35445113746E+02 -0.17571179286E+03  0.19833798959E+03  0.80183079477E+02 0.  0.
         25    2    1    2    0    0  0.16921908295E+02 -0.34703649629E+02  0.14975526566E+03  0.19891194050E+03  0.12509446912E+03 0.  0.
        -24    2    1    2    0    0  0.10964318437E+02  0.70148763375E+02  0.17568804550E+03  0.20548372898E+03  0.79474576189E+02 0.  0.
        -11    1    3    3    0    0 -0.13288526937E+02 -0.20041978284E+02 -0.17547518300E+03  0.17711523280E+03  0.00000000000E+00 0.  1.
         12    1    3    3    0    0 -0.14597699795E+02 -0.15403135462E+02 -0.23660985897E+00  0.21222756786E+02  0.00000000000E+00 0. -1.
         11    1    5    5    0    0 -0.91815473724E+01 -0.80599583180E+00 -0.48819854513E+01  0.10429967564E+02  0.00000000000E+00 0. -1.
        -12    1    5    5    0    0  0.20145865809E+02  0.70954759207E+02  0.18057003095E+03  0.19505376141E+03  0.00000000000E+00 0.  1.
          5    1    4    4  501    0  0.28693863018E+01 -0.32254706696E+02 -0.13245281848E+02  0.35235058862E+02  0.41800000000E+01 0. -1.
         -5    1    4    4    0  501  0.14052521993E+02 -0.24489429332E+01  0.16300054750E+03  0.16367688164E+03  0.41800000000E+01 0. -1.
</event>
<event>
11    1  0.7577197E-009  0.1437724E+03  0.7561462E-02  0.1103418E+00
         22   -1    0    0    0    0  0.00000000000E+00  0.00000000000E+00  0.31635565662E+04  0.31635565662E+04  0.00000000000E+00 0.  1.
         22   -1    0    0    0    0 -0.00000000000E+00 -0.00000000000E+00 -0.46854702217E+03  0.46854702217E+03  0.00000000000E+00 0. -1.
        -24    2    1    2    0    0  0.85539892340E+01 -0.68189778123E+02 -0.39579459594E+03  0.40989482152E+03  0.81470153802E+02 0.  0.
         25    2    1    2    0    0 -0.45898657219E+02  0.97206447116E+02  0.39682583241E+02  0.16964378598E+03  0.12509407105E+03 0.  0.
         24    2    1    2    0    0  0.37344667985E+02 -0.29016668993E+02  0.30511215567E+04  0.30525649809E+04  0.81077846518E+02 0.  0.
        -13    1    5    5    0    0  0.63180914100E+01 -0.32582248093E+02  0.26572279463E+04  0.26574352071E+04  0.00000000000E+00 0.  1.
         14    1    5    5    0    0  0.31026576575E+02  0.35655790998E+01  0.39389361046E+03  0.39512977383E+03  0.00000000000E+00 0. -1.
         11    1    3    3    0    0  0.62829542750E+01 -0.84151862240E+02 -0.36980136698E+03  0.37930734564E+03  0.00000000000E+00 0. -1.
        -12    1    3    3    0    0  0.22710349591E+01  0.15962084117E+02 -0.25993228959E+02  0.30587475882E+02  0.00000000000E+00 0.  1.
          5    1    4    4  501    0  0.95882960204E+01 -0.20946403075E+02 -0.15271182652E+02  0.27952971970E+02  0.41800000000E+01 0.  1.
         -5    1    4    4    0  501 -0.55486953239E+02  0.11815285019E+03  0.54953765894E+02  0.14169081401E+03  0.41800000000E+01 0.  1.
</event>
<event>
11    1  0.7577197E-009  0.1668368E+03  0.7561462E-02  0.1080818E+00
         22   -1    0    0    0    0  0.00000000000E+00  0.00000000000E+00  0.56701415258E+03  0.56701415258E+03  0.00000000000E+00 0. -1.
         22   -1    0    0    0    0 -0.00000000000E+00 -0.00000000000E+00 -0.61612297561E+03  0.61612297561E+03  0.00000000000E+00 0. -1.
         24    2    1    2    0    0  0.61801852455E+02  0.38893888086E+02 -0.56170645882E+03  0.57377268440E+03  0.91480839398E+02 0.  0.
         25    2    1    2    0    0 -0.15217077779E+03 -0.68325144177E+01  0.24939799905E+03  0.31788541476E+03  0.12509654719E+03 0.  0.
        -24    2    1    2    0    0  0.90368925340E+02 -0.32061373668E+02  0.26319963675E+03  0.29147902903E+03  0.80569853135E+02 0.  0.
        -11    1    3    3    0    0  0.18441658899E+02 -0.30154379646E+02 -0.15596551275E+03  0.15992067584E+03  0.00000000000E+00 0.  1.
         12    1    3    3    0    0  0.43360193556E+02  0.69048267732E+02 -0.40574094608E+03  0.41385200856E+03  0.00000000000E+00 0. -1.
         11    1    5    5    0    0  0.10399391319E+03 -0.36515236465E+02  0.22196023817E+03  0.24781937738E+03  0.00000000000E+00 0. -1.
        -12    1    5    5    0    0 -0.13624987853E+02  0.44538627974E+01  0.41239398573E+02  0.43659651653E+02  0.00000000000E+00 0.  1.
          5    1    4    4  501    0 -0.34051334371E+02 -0.55423950524E+02  0.11662449952E+03  0.13360409407E+03  0.41800000000E+01 0.  1.
         -5    1    4    4    0  501 -0.11811944342E+03  0.48591436106E+02  0.13277349952E+03  0.18428132068E+03  0.41800000000E+01 0.  1.
</event>
<event>
11    1  0.7577197E-009  0.1352099E+03  0.7561462E-02  0.1113028E+00
         22   -1    0    0    0    0  0.00000000000E+00  0.00000000000E+00  0.31302771597E+04  0.31302771597E+04  0.00000000000E+00 0. -1.
         22   -1    0    0    0    0 -0.00000000000E+00 -0.00000000000E+00 -0.35017118395E+03  0.35017118395E+03  0.00000000000E+00 0.  1.
         24    2    1    2    0    0  0.11110898718E+02 -0.50768196113E+02 -0.26606197421E+03  0.28287116068E+03  0.80785256178E+02 0.  0.
         25    2    1    2    0    0  0.39156384650E+02  0.61130099465E+02 -0.51293608688E+01  0.14472163673E+03  0.12509168747E+03 0.  0.
        -24    2    1    2    0    0 -0.50267283369E+02 -0.10361903352E+02  0.30512973108E+04  0.30528555462E+04  0.82930925121E+02 0.  0.
        -13    1    3    3    0    0  0.45375945784E+02 -0.21804428436E+02 -0.15927621680E+03  0.16704287711E+03  0.00000000000E+00 0.  1.
         14    1    3    3    0    0 -0.34265047066E+02 -0.28963767677E+02 -0.10678575741E+03  0.11582828356E+03  0.00000000000E+00 0. -1.
         13    1    5    5    0    0 -0.52955451950E+02 -0.36569236425E+02  0.25953481798E+04  0.25961459441E+04  0.00000000000E+00 0. -1.
        -14    1    5    5    0    0  0.26881685816E+01  0.26207333073E+02  0.45594913103E+03  0.45670960210E+03  0.00000000000E+00 0.  1.
          5    1    4    4  501    0 -0.40211621421E+02  0.28294588968E+02  0.22727633571E+02  0.54328408682E+02  0.41800000000E+01 0.  1.
         -5    1    4    4    0  501  0.79368006071E+02  0.32835510497E+02 -0.27856994440E+02  0.90393228046E+02  0.41800000000E+01 0.  1.
</event>
<event>
11    1  0.7577197E-009  0.1453704E+03  0.7561462E-02  0.1101705E+00
         22   -1    0    0    0    0  0.00000000000E+00  0.00000000000E+00  0.65120134298E+03  0.65120134298E+03  0.00000000000E+00 0.  1.
         22   -1    0    0    0    0 -0.00000000000E+00 -0.00000000000E+00 -0.41148181534E+03  0.41148181534E+03  0.00000000000E+00 0. -1.
        -24    2    1    2    0    0 -0.32275023753E+01  0.73389098232E+02 -0.37715634850E+03  0.39241675911E+03  0.79671984443E+02 0.  0.
         25    2    1    2    0    0 -0.32319938257E+01 -0.10535124099E+03  0.37655087655E+03  0.41054506556E+03  0.12508940190E+03 0.  0.
         24    2    1    2    0    0  0.64594962011E+01  0.31962142754E+02  0.24032499960E+03  0.25972133365E+03  0.92928801043E+02 0.  0.
        -13    1    5    5    0    0 -0.20195574484E+02  0.56737220743E+02  0.17311871921E+03  0.18329502008E+03  0.00000000000E+00 0.  1.
         14    1    5    5    0    0  0.26655070685E+02 -0.24775077989E+02  0.67206280387E+02  0.76426313571E+02  0.00000000000E+00 0. -1.
         11    1    3    3    0    0  0.22036691102E+02  0.17211190275E+02 -0.24522701522E+03  0.24681598372E+03  0.00000000000E+00 0. -1.
        -12    1    3    3    0    0 -0.25264193477E+02  0.56177907957E+02 -0.13192933327E+03  0.14560077538E+03  0.00000000000E+00 0.  1.
          5    1    4    4  501    0  0.42605420888E+02 -0.69826085844E+02  0.31663054124E+03  0.32705240589E+03  0.41800000000E+01 0.  1.
         -5    1    4    4    0  501 -0.45837414714E+02 -0.35525155141E+02  0.59920335308E+02  0.83492659671E+02  0.41800000000E+01 0.  1.
</event>
<event>
11    1  0.7577197E-009  0.4692519E+03  0.7561462E-02  0.9464981E-01
         22   -1    0    0    0    0  0.00000000000E+00  0.00000000000E+00  0.19897659441E+03  0.19897659441E+03  0.00000000000E+00 0.  1.
         22   -1    0    0    0    0 -0.00000000000E+00 -0.00000000000E+00 -0.28032115134E+04  0.28032115134E+04  0.00000000000E+00 0. -1.
         24    2    1    2    0    0 -0.12430868375E+03 -0.51866941807E+02 -0.11993459517E+04  0.12095979739E+04  0.80955038146E+02 0.  0.
         25    2    1    2    0    0 -0.79243632470E+02 -0.37664906897E+03 -0.12052444533E+04  0.12713789495E+04  0.12508463786E+03 0.  0.
        -24    2    1    2    0    0  0.20355231622E+03  0.42851601077E+03 -0.19964451399E+03  0.52121118435E+03  0.82119728421E+02 0.  0.
        -11    1    3    3    0    0 -0.51067572636E+02 -0.29127324995E+02 -0.84526845438E+03  0.84731048501E+03  0.00000000000E+00 0.  1.
         12    1    3    3    0    0 -0.73241111113E+02 -0.22739616812E+02 -0.35407749730E+03  0.36228748891E+03  0.00000000000E+00 0. -1.
         13    1    5    5    0    0 -0.35870809851E+00  0.36972779707E+02 -0.66315637755E+00  0.36980466291E+02  0.00000000000E+00 0. -1.
        -14    1    5    5    0    0  0.20391102432E+03  0.39154323107E+03 -0.19898135762E+03  0.48423071806E+03  0.00000000000E+00 0.  1.
          5    1    4    4  501    0 -0.52521539119E+02 -0.20762365025E+03 -0.47062058317E+03  0.51707571778E+03  0.41800000000E+01 0.  1.
         -5    1    4    4    0  501 -0.26722093351E+02 -0.16902541871E+03 -0.73462387011E+03  0.75430323172E+03  0.41800000000E+01 0.  1.
</event>
<event>
11    1  0.7577197E-009  0.1451046E+03  0.7561462E-02  0.1101988E+00
         22   -1    0    0    0    0  0.00000000000E+00  0.00000000000E+00  0.19845363536E+04  0.19845363536E+04  0.00000000000E+00 0.  1.
         22   -1    0    0    0    0 -0.00000000000E+00 -0.00000000000E+00 -0.12855812470E+03  0.12855812470E+03  0.00000000000E+00 0.  1.
         24    2    1    2    0    0  0.27684984081E+02  0.13746934855E+02 -0.10232308855E+03  0.13416737441E+03  0.81089045763E+02 0.  0.
         25    2    1    2    0    0 -0.75750486914E+02 -0.60495040212E+02  0.76987056135E+03  0.78596792933E+03  0.12508844290E+03 0.  0.
        -24    2    1    2    0    0  0.48065502833E+02  0.46748105357E+02  0.11884307561E+04  0.11929591745E+04  0.79298500445E+02 0.  0.
        -13    1    3    3    0    0  0.30268059941E+02  0.16386996473E+02 -0.11548081347E+03  0.12050106799E+03  0.00000000000E+00 0.  1.
         14    1    3    3    0    0 -0.25830758599E+01 -0.26400616173E+01  0.13157724916E+02  0.13666306422E+02  0.00000000000E+00 0. -1.
         11    1    5    5    0    0  0.18891541392E+02 -0.21925263982E+02  0.29353930536E+03  0.29496259310E+03  0.00000000000E+00 0. -1.
        -12    1    5    5    0    0  0.29173961441E+02  0.68673369339E+02  0.89489145070E+03  0.89799658140E+03  0.00000000000E+00 0.  1.
          5    1    4    4  501    0  0.34488827421E+02 -0.94174399004E+01  0.20856649276E+03  0.21164976186E+03  0.41800000000E+01 0.  1.
         -5    1    4    4    0  501 -0.11023931433E+03 -0.51077600312E+02  0.56130406859E+03  0.57431816748E+03  0.41800000000E+01 0.  1.
</event>
<event>
11    1  0.7577197E-009  0.1320658E+03  0.7561462E-02  0.1116757E+00
         22   -1    0    0    0    0  0.00000000000E+00  0.00000000000E+00  0.44342535177E+03  0.44342535177E+03  0.00000000000E+00 0.  1.
         22   -1    0    0    0    0 -0.00000000000E+00 -0.00000000000E+00 -0.27986964964E+03  0.27986964964E+03  0.00000000000E+00 0.  1.
        -24    2    1    2    0    0 -0.12084061746E+00  0.41813349702E+02 -0.21054608998E+03  0.22931931910E+03  0.80680377374E+02 0.  0.
         25    2    1    2    0    0  0.19898511374E+02 -0.46478830485E+02  0.27425620726E+02  0.13768358416E+03  0.12509345402E+03 0.  0.
         24    2    1    2    0    0 -0.19777670756E+02  0.46654807832E+01  0.34667617138E+03  0.35629209814E+03  0.79666607952E+02 0.  0.
        -11    1    5    5    0    0  0.14510120278E+02  0.30386225073E+02  0.21996952958E+03  0.22253193076E+03  0.00000000000E+00 0.  1.
         12    1    5    5    0    0 -0.34287791035E+02 -0.25720744290E+02  0.12670664180E+03  0.13376016738E+03  0.00000000000E+00 0. -1.
         11    1    3    3    0    0  0.21418384055E+02  0.14928838226E+01 -0.10101082441E+02  0.23727784223E+02  0.00000000000E+00 0. -1.
        -12    1    3    3    0    0 -0.21539224672E+02  0.40320465879E+02 -0.20044500753E+03  0.20559153488E+03  0.00000000000E+00 0.  1.
          5    1    4    4  501    0  0.54542803508E+02  0.14020839870E+02  0.36521532741E+02  0.67251736921E+02  0.41800000000E+01 0. -1.
         -5    1    4    4    0  501 -0.34644292134E+02 -0.60499670355E+02 -0.90959120157E+01  0.70431847243E+02  0.41800000000E+01 0. -1.
</event>
<event>
11    1  0.7577197E-009  0.1265589E+03  0.7561462E-02  0.1123571E+00
         22   -1    0    0    0    0  0.00000000000E+00  0.00000000000E+00  0.47610389927E+03  0.47610389927E+03  0.00000000000E+00 0.  1.
         22   -1    0    0    0    0 -0.00000000000E+00 -0.00000000000E+00 -0.64691803093E+03  0.64691803093E+03  0.00000000000E+00 0.  1.
         24    2    1    2    0    0 -0.12386298473E+02 -0.15057809816E+02 -0.61083958878E+03  0.61686243652E+03  0.83750249814E+02 0.  0.
         25    2    1    2    0    0  0.11089628578E+01  0.39874762388E+01  0.11198113137E+03  0.16794847152E+03  0.12509910287E+03 0.  0.
        -24    2    1    2    0    0  0.11277335615E+02  0.11070333578E+02  0.32804432575E+03  0.33821102216E+03  0.80770571813E+02 0.  0.
        -13    1    3    3    0    0 -0.70219090400E+00  0.71530849799E+01 -0.56113757187E+03  0.56118360120E+03  0.00000000000E+00 0.  1.
         14    1    3    3    0    0 -0.11684107569E+02 -0.22210894796E+02 -0.49702016911E+02  0.55678835317E+02  0.00000000000E+00 0. -1.
         13    1    5    5    0    0  0.14925916546E+02  0.28902983610E+02  0.50497585965E+02  0.60068058355E+02  0.00000000000E+00 0. -1.
        -14    1    5    5    0    0 -0.36485809306E+01 -0.17832650032E+02  0.27754673978E+03  0.27814296380E+03  0.00000000000E+00 0.  1.
          5    1    4    4  501    0 -0.30674158136E+02 -0.36820306216E+02  0.10511921153E+03  0.11560345999E+03  0.41800000000E+01 0. -1.
         -5    1    4    4    0  501  0.31783120994E+02  0.40807782454E+02  0.68619198381E+01  0.52345011537E+02  0.41800000000E+01 0. -1.
</event>
<event>
11    1  0.7577197E-009  0.1583855E+03  0.7561462E-02  0.1088606E+00
         22   -1    0    0    0    0  0.00000000000E+00  0.00000000000E+00  0.11622723825E+04  0.11622723825E+04  0.00000000000E+00 0.  1.
         22   -1    0    0    0    0 -0.00000000000E+00 -0.00000000000E+00 -0.89445817658E+03  0.89445817658E+03  0.00000000000E+00 0. -1.
        -24    2    1    2    0    0  0.94751007554E+02 -0.11800709733E+02 -0.82540029245E+03  0.83475067368E+03  0.80037705183E+02 0.  0.
         25    2    1    2    0    0 -0.15320926880E+03  0.13462031394E+02  0.95875942751E+02  0.22021178661E+03  0.12508688272E+03 0.  0.
         24    2    1    2    0    0  0.58458261248E+02 -0.16613216609E+01  0.99733855560E+03  0.10017680988E+04  0.73722458854E+02 0.  0.
        -13    1    5    5    0    0  0.15920155292E+02 -0.35465375238E+02  0.48541997524E+03  0.48697412308E+03  0.00000000000E+00 0.  1.
         14    1    5    5    0    0  0.42538105955E+02  0.33804053577E+02  0.51191858036E+03  0.51479397569E+03  0.00000000000E+00 0. -1.
         13    1    3    3    0    0  0.98754222700E+02  0.47426933928E+01 -0.78042033431E+03  0.78665798658E+03  0.00000000000E+00 0. -1.
        -14    1    3    3    0    0 -0.40032151462E+01 -0.16543403126E+02 -0.44979958137E+02  0.48092687100E+02  0.00000000000E+00 0.  1.
          5    1    4    4  501    0 -0.10801113965E+03 -0.45810170969E+02  0.84608401846E+02  0.14471016590E+03  0.41800000000E+01 0.  1.
         -5    1    4    4    0  501 -0.45198129156E+02  0.59272202363E+02  0.11267540906E+02  0.75501620713E+02  0.41800000000E+01 0.  1.
</event>
<event>
11    1  0.7577197E-009  0.8797091E+03  0.7561462E-02  0.8802681E-01
         22   -1    0    0    0    0  0.00000000000E+00  0.00000000000E+00  0.21947644916E+04  0.21947644916E+04  0.00000000000E+00 0.  1.
         22   -1    0    0    0    0 -0.00000000000E+00 -0.00000000000E+00 -0.55007285931E+03  0.55007285931E+03  0.00000000000E+00 0.  1.
        -24    2    1    2    0    0 -0.76290334673E+03  0.34942319867E+03  0.35141410769E+03  0.91305151801E+03  0.77801743184E+02 0.  0.
         25    2    1    2    0    0  0.83358759810E+03 -0.36669052190E+03  0.53055797026E+03  0.10613524754E+04  0.12508834738E+03 0.  0.
         24    2    1    2    0    0 -0.70684251369E+02  0.17267323235E+02  0.76271955438E+03  0.77043335756E+03  0.80820888170E+02 0.  0.
        -11    1    5    5    0    0 -0.50892692277E+02  0.38337432576E+02  0.67655819202E+03  0.67955192005E+03  0.00000000000E+00 0.  1.
         12    1    5    5    0    0 -0.19791559092E+02 -0.21070109341E+02  0.86161362361E+02  0.90881437505E+02  0.00000000000E+00 0. -1.
         13    1    3    3    0    0 -0.45936420033E+03  0.24980153836E+03  0.23096576113E+03  0.57163052746E+03  0.00000000000E+00 0. -1.
        -14    1    3    3    0    0 -0.30353914640E+03  0.99621660308E+02  0.12044834656E+03  0.34142099055E+03  0.00000000000E+00 0.  1.
          5    1    4    4  501    0  0.34521140230E+03 -0.12413844613E+03  0.27849447703E+03  0.46060602712E+03  0.41800000000E+01 0.  1.
         -5    1    4    4    0  501  0.48837619580E+03 -0.24255207577E+03  0.25206349323E+03  0.60074644827E+03  0.41800000000E+01 0.  1.
</event>
<event>
11    1  0.7577197E-009  0.1544110E+03  0.7561462E-02  0.1092455E+00
         22   -1    0    0    0    0  0.00000000000E+00  0.00000000000E+00  0.19084890159E+04  0.19084890159E+04  0.00000000000E+00 0.  1.
         22   -1    0    0    0    0 -0.00000000000E+00 -0.00000000000E+00 -0.41875270304E+03  0.41875270304E+03  0.00000000000E+00 0. -1.
        -24    2    1    2    0    0  0.95166972359E+02 -0.48731111028E+02 -0.21548409150E+03  0.25382643696E+03  0.81012299060E+02 0.  0.
         25    2    1    2    0    0 -0.70153660469E+02  0.51093548049E+01 -0.15479383528E+03  0.21108411396E+03  0.12509088753E+03 0.  0.
         24    2    1    2    0    0 -0.25013311890E+02  0.43621756223E+02  0.18600142396E+04  0.18623311680E+04  0.78076144785E+02 0.  0.
        -11    1    5    5    0    0 -0.85929999911E+01  0.53133988104E+02  0.17394568214E+04  0.17402893707E+04  0.00000000000E+00 0.  1.
         12    1    5    5    0    0 -0.16420311898E+02 -0.95122318811E+01  0.12055741823E+03  0.12204179730E+03  0.00000000000E+00 0. -1.
         13    1    3    3    0    0  0.10851807903E+03 -0.32890064363E+02 -0.18421650654E+03  0.21631840211E+03  0.00000000000E+00 0. -1.
        -14    1    3    3    0    0 -0.13351106671E+02 -0.15841046665E+02 -0.31267584960E+02  0.37508034847E+02  0.00000000000E+00 0.  1.
          5    1    4    4  501    0 -0.74800841738E+02 -0.33278409794E+02 -0.15124100875E+03  0.17202887435E+03  0.41800000000E+01 0. -1.
         -5    1    4    4    0  501  0.46471812682E+01  0.38387764599E+02 -0.35528265321E+01  0.39055239611E+02  0.41800000000E+01 0. -1.
</event>
<event>
11    1  0.7577197E-009  0.1402960E+03  0.7561462E-02  0.1107228E+00
         22   -1    0    0    0    0  0.00000000000E+00  0.00000000000E+00  0.77422191756E+03  0.77422191756E+03  0.00000000000E+00 0.  1.
         22   -1    0    0    0    0 -0.00000000000E+00 -0.00000000000E+00 -0.10547983303E+04  0.10547983303E+04  0.00000000000E+00 0. -1.
         24    2    1    2    0    0 -0.66503564494E+02  0.76935530910E+01 -0.81242874134E+03  0.81990352304E+03  0.87860187220E+02 0.  0.
         25    2    1    2    0    0  0.44196275530E+02 -0.18761074039E+02 -0.21758736757E+03  0.25552715245E+03  0.12507827327E+03 0.  0.
        -24    2    1    2    0    0  0.22307288964E+02  0.11067520948E+02  0.74943969616E+03  0.75358957237E+03  0.74948517263E+02 0.  0.
        -13    1    3    3    0    0  0.62226667367E+01 -0.13395580547E+02 -0.26524016583E+02  0.30359292074E+02  0.00000000000E+00 0.  1.
         14    1    3    3    0    0 -0.72726231231E+02  0.21089133638E+02 -0.78590472475E+03  0.78954423097E+03  0.00000000000E+00 0. -1.
         13    1    5    5    0    0  0.41405806150E+01  0.16523874530E+02  0.35272835780E+02  0.39170853721E+02  0.00000000000E+00 0. -1.
        -14    1    5    5    0    0  0.18166708349E+02 -0.54563535824E+01  0.71416686038E+03  0.71441871864E+03  0.00000000000E+00 0.  1.
          5    1    4    4  501    0  0.13317717476E+02 -0.41594304564E+02 -0.10828545435E+02  0.45190458806E+02  0.41800000000E+01 0.  1.
         -5    1    4    4    0  501  0.30878558054E+02  0.22833230525E+02 -0.20675882214E+03  0.21033669365E+03  0.41800000000E+01 0.  1.
</event>
<event>
11    1  0.7577197E-009  0.1281802E+03  0.7561462E-02  0.1121525E+00
         22   -1    0    0    0    0  0.00000000000E+00  0.00000000000E+00  0.44054868837E+03  0.44054868837E+03  0.00000000000E+00 0. -1.
         22   -1    0    0    0    0 -0.00000000000E+00 -0.00000000000E+00 -0.32341707353E+04  0.32341707353E+04  0.00000000000E+00 0.  1.
        -24    2    1    2    0    0 -0.27407919670E+02 -0.63224773751E+01 -0.31745612508E+04  0.31757959246E+04  0.83961013933E+02 0.  0.
         25    2    1    2    0    0  0.10615866611E+02 -0.44010124998E+01  0.18238469834E+02  0.12693534631E+03  0.12509146584E+03 0.  0.
         24    2    1    2    0    0  0.16792053059E+02  0.10723489875E+02  0.36270073400E+03  0.37198815279E+03  0.80164812021E+02 0.  0.
        -13    1    5    5    0    0  0.16958404838E+02  0.44052628013E+02  0.17025749453E+03  0.17668003841E+03  0.00000000000E+00 0.  1.
         14    1    5    5    0    0 -0.16635177840E+00 -0.33329138138E+02  0.19244323948E+03  0.19530811438E+03  0.00000000000E+00 0. -1.
         11    1    3    3    0    0 -0.90828891461E+01  0.36091847864E+02 -0.90581883972E+03  0.90658308541E+03  0.00000000000E+00 0. -1.
        -12    1    3    3    0    0 -0.18325030524E+02 -0.42414325239E+02 -0.22687424111E+04  0.22692128392E+04  0.00000000000E+00 0.  1.
          5    1    4    4  501    0  0.72807993046E+01  0.39292390182E+02 -0.38145813317E+02  0.55402864893E+02  0.41800000000E+01 0.  1.
         -5    1    4    4    0  501  0.33350673065E+01 -0.43693402682E+02  0.56384283151E+02  0.71532481421E+02  0.41800000000E+01 0.  1.
</event>
<event>
11    1  0.7577197E-009  0.1370283E+03  0.7561462E-02  0.1110923E+00
         22   -1    0    0    0    0  0.00000000000E+00  0.00000000000E+00  0.19745935392E+03  0.19745935392E+03  0.00000000000E+00 0.  1.
         22   -1    0    0    0    0 -0.00000000000E+00 -0.00000000000E+00 -0.85359082390E+03  0.85359082390E+03  0.00000000000E+00 0. -1.
        -24    2    1    2    0    0  0.50522592427E+02  0.20361790970E+02 -0.62989810358E+03  0.63731435114E+03  0.80192433546E+02 0.  0.
         25    2    1    2    0    0 -0.61861863333E+02 -0.21304486142E+02 -0.18662710874E+03  0.23400301843E+03  0.12508782377E+03 0.  0.
         24    2    1    2    0    0  0.11339270906E+02  0.94269517208E+00  0.16039374233E+03  0.17973280825E+03  0.80301071237E+02 0.  0.
        -13    1    5    5    0    0  0.41324244080E+01  0.34618261056E+02  0.12723836983E+03  0.13192840364E+03  0.00000000000E+00 0.  1.
         14    1    5    5    0    0  0.72068464977E+01 -0.33675565884E+02  0.33155372507E+02  0.47804404610E+02  0.00000000000E+00 0. -1.
         13    1    3    3    0    0 -0.40049165027E+01  0.30421238418E+02 -0.38485729538E+03  0.38607852687E+03  0.00000000000E+00 0. -1.
        -14    1    3    3    0    0  0.54527508930E+02 -0.10059447448E+02 -0.24504080820E+03  0.25123582427E+03  0.00000000000E+00 0.  1.
          5    1    4    4  501    0 -0.72765344468E+02  0.33022052570E+02 -0.76754546370E+02  0.11087823998E+03  0.41800000000E+01 0.  1.
         -5    1    4    4    0  501  0.10903481135E+02 -0.54326538712E+02 -0.10987256237E+03  0.12312477846E+03  0.41800000000E+01 0.  1.
</event>
<event>
11    1  0.7577197E-009  0.1507623E+03  0.7561462E-02  0.1096102E+00
         22   -1    0    0    0    0  0.00000000000E+00  0.00000000000E+00  0.60577394413E+03  0.60577394413E+03  0.00000000000E+00 0.  1.
         22   -1    0    0    0    0 -0.00000000000E+00 -0.00000000000E+00 -0.27165619475E+04  0.27165619475E+04  0.00000000000E+00 0.  1.
        -24    2    1    2    0    0  0.23090137657E+02  0.19646913341E+02 -0.22281147647E+04  0.22298180848E+04  0.81695353379E+02 0.  0.
         25    2    1    2    0    0 -0.10265113004E+03 -0.46033825238E+02 -0.46722794439E+03  0.49659472177E+03  0.12509195858E+03 0.  0.
         24    2    1    2    0    0  0.79560992388E+02  0.26386911897E+02  0.58455470580E+03  0.59592308504E+03  0.79961857095E+02 0.  0.
        -11    1    5    5    0    0  0.21601115526E+02  0.18331779843E+02  0.42555737304E+03  0.42649940222E+03  0.00000000000E+00 0.  1.
         12    1    5    5    0    0  0.57959876862E+02  0.80551320540E+01  0.15899733275E+03  0.16942368282E+03  0.00000000000E+00 0. -1.
         13    1    3    3    0    0  0.22900735037E+01 -0.24326413760E+02 -0.27110851635E+03  0.27220735935E+03  0.00000000000E+00 0. -1.
        -14    1    3    3    0    0  0.20800064153E+02  0.43973327101E+02 -0.19570062484E+04  0.19576107255E+04  0.00000000000E+00 0.  1.
          5    1    4    4  501    0 -0.33135454745E+02  0.16019823665E+02 -0.32113037789E+03  0.32325962494E+03  0.41800000000E+01 0. -1.
         -5    1    4    4    0  501 -0.69515675300E+02 -0.62053648902E+02 -0.14609756650E+03  0.17333509682E+03  0.41800000000E+01 0. -1.
</event>
<event>
11    1  0.7577197E-009  0.3681722E+03  0.7561462E-02  0.9748635E-01
         22   -1    0    0    0    0  0.00000000000E+00  0.00000000000E+00  0.98887712621E+03  0.98887712621E+03  0.00000000000E+00 0.  1.
         22   -1    0    0    0    0 -0.00000000000E+00 -0.00000000000E+00 -0.50893787665E+03  0.50893787665E+03  0.00000000000E+00 0. -1.
         24    2    1    2    0    0  0.17077303022E+03  0.14311863285E+03 -0.30746965514E+03  0.38653524977E+03  0.72287893596E+02 0.  0.
         25    2    1    2    0    0 -0.13085469020E+03 -0.43784074345E+03  0.43362816875E+03  0.64226821721E+03  0.12509039743E+03 0.  0.
        -24    2    1    2    0    0 -0.39918340024E+02  0.29472211059E+03  0.35378073595E+03  0.46901153588E+03  0.79727130367E+02 0.  0.
        -13    1    3    3    0    0  0.10203872185E+03  0.85734526585E+02 -0.23962956706E+03  0.27419817508E+03  0.00000000000E+00 0.  1.
         14    1    3    3    0    0  0.68734308374E+02  0.57384106269E+02 -0.67840088079E+02  0.11233707469E+03  0.00000000000E+00 0. -1.
         11    1    5    5    0    0  0.23406491708E+02  0.52788879216E+02  0.62120184126E+02  0.84814190433E+02  0.00000000000E+00 0. -1.
        -12    1    5    5    0    0 -0.63324831732E+02  0.24193323138E+03  0.29166055182E+03  0.38419734545E+03  0.00000000000E+00 0.  1.
          5    1    4    4  501    0 -0.11074824649E+02 -0.20574809604E+03  0.13933173457E+03  0.24876843735E+03  0.41800000000E+01 0.  1.
         -5    1    4    4    0  501 -0.11977986555E+03 -0.23209264741E+03  0.29429643418E+03  0.39349977986E+03  0.41800000000E+01 0.  1.
</event>
<event>
11    1  0.7577197E-009  0.1353624E+03  0.7561462E-02  0.1112850E+00
         22   -1    0    0    0    0  0.00000000000E+00  0.00000000000E+00  0.20656486717E+03  0.20656486717E+03  0.00000000000E+00 0.  1.
         22   -1    0    0    0    0 -0.00000000000E+00 -0.00000000000E+00 -0.17631998940E+04  0.17631998940E+04  0.00000000000E+00 0.  1.
         24    2    1    2    0    0 -0.36269044118E+01  0.38700125642E+02 -0.14957699146E+04  0.14984130635E+04  0.80020105431E+02 0.  0.
         25    2    1    2    0    0  0.84664620953E+01  0.14696919983E+02 -0.23713920171E+03  0.26864619927E+03  0.12509236172E+03 0.  0.
        -24    2    1    2    0    0 -0.48395576835E+01 -0.53397045625E+02  0.17627408947E+03  0.20270549841E+03  0.84512121436E+02 0.  0.
        -13    1    3    3    0    0  0.18346299164E+02 -0.64450205507E+01 -0.98268726916E+03  0.98287964368E+03  0.00000000000E+00 0.  1.
         14    1    3    3    0    0 -0.21973203575E+02  0.45145146193E+02 -0.51308264547E+03  0.51553341985E+03  0.00000000000E+00 0. -1.
         13    1    5    5    0    0 -0.26454002603E+02  0.11937190134E+02  0.73468017671E+02  0.78992786902E+02  0.00000000000E+00 0. -1.
        -14    1    5    5    0    0  0.21614444920E+02 -0.65334235760E+02  0.10280607180E+03  0.12371271151E+03  0.00000000000E+00 0.  1.
          5    1    4    4  501    0 -0.36867774242E+02  0.37326154066E+02 -0.43007181533E+02  0.67967379075E+02  0.41800000000E+01 0.  1.
         -5    1    4    4    0  501  0.45334236338E+02 -0.22629234083E+02 -0.19413202017E+03  0.20067882020E+03  0.41800000000E+01 0.  1.
</event>
<event>
11    1  0.7577197E-009  0.1489475E+03  0.7561462E-02  0.1097959E+00
         22   -1    0    0    0    0  0.00000000000E+00  0.00000000000E+00  0.32913974366E+04  0.32913974366E+04  0.00000000000E+00 0. -1.
         22   -1    0    0    0    0 -0.00000000000E+00 -0.00000000000E+00 -0.10393510820E+03  0.10393510820E+03  0.00000000000E+00 0.  1.
        -24    2    1    2    0    0 -0.81860216791E+02  0.14368434562E+02 -0.54160831250E+02  0.12778975731E+03  0.80556063882E+02 0.  0.
         25    2    1    2    0    0  0.60153928637E+02  0.22132427689E+02  0.39124078129E+03  0.41572553314E+03  0.12510008181E+03 0.  0.
         24    2    1    2    0    0  0.21706288154E+02 -0.36500862251E+02  0.28503823784E+04  0.28518172544E+04  0.79865346122E+02 0.  0.
        -13    1    5    5    0    0 -0.44143343883E+01  0.15045867885E+02  0.15013225315E+03  0.15094885864E+03  0.00000000000E+00 0.  1.
         14    1    5    5    0    0  0.26120622543E+02 -0.51546730136E+02  0.27002501252E+04  0.27008683957E+04  0.00000000000E+00 0. -1.
         11    1    3    3    0    0 -0.87434497678E+01  0.32574143155E+02  0.20410783391E+01  0.33788884517E+02  0.00000000000E+00 0. -1.
        -12    1    3    3    0    0 -0.73116767023E+02 -0.18205708593E+02 -0.56201909589E+02  0.94000872798E+02  0.00000000000E+00 0.  1.
          5    1    4    4  501    0  0.82264427349E+02  0.71137298808E+01  0.13674499530E+03  0.15979583004E+03  0.41800000000E+01 0. -1.
         -5    1    4    4    0  501 -0.22110498712E+02  0.15018697808E+02  0.25449578600E+03  0.25592970310E+03  0.41800000000E+01 0. -1.
</event>
<event>
11    1  0.7577197E-009  0.2049828E+03  0.7561462E-02  0.1051055E+00
         22   -1    0    0    0    0  0.00000000000E+00  0.00000000000E+00  0.77179855698E+03  0.77179855698E+03  0.00000000000E+00 0.  1.
         22   -1    0    0    0    0 -0.00000000000E+00 -0.00000000000E+00 -0.38671827349E+03  0.38671827349E+03  0.00000000000E+00 0. -1.
         24    2    1    2    0    0 -0.26295469242E+02 -0.12370199203E+03 -0.23218896021E+03  0.27617216592E+03  0.79785446364E+02 0.  0.
         25    2    1    2    0    0  0.37951204187E+02  0.27288407044E+03  0.73168073127E+02  0.31129917572E+03  0.12509036765E+03 0.  0.
        -24    2    1    2    0    0 -0.11655734945E+02 -0.14918207842E+03  0.54410117057E+03  0.57104548883E+03  0.87496958945E+02 0.  0.
        -13    1    3    3    0    0  0.94795016741E+01 -0.42965214952E+01 -0.74222315381E+02  0.74948469961E+02  0.00000000000E+00 0.  1.
         14    1    3    3    0    0 -0.35774970916E+02 -0.11940547053E+03 -0.15796664482E+03  0.20122369595E+03  0.00000000000E+00 0. -1.
         11    1    5    5    0    0  0.10948884580E+02  0.19974180809E+01  0.11487001174E+03  0.11540791719E+03  0.00000000000E+00 0. -1.
        -12    1    5    5    0    0 -0.22604619526E+02 -0.15117949650E+03  0.42923115883E+03  0.45563757164E+03  0.00000000000E+00 0.  1.
          5    1    4    4  501    0  0.11098822445E+02  0.16566877828E+03 -0.19197310986E+02  0.16719849612E+03  0.41800000000E+01 0. -1.
         -5    1    4    4    0  501  0.26852381743E+02  0.10721529217E+03  0.92365384113E+02  0.14410067960E+03  0.41800000000E+01 0. -1.
</event>
<event>
11    1  0.7577197E-009  0.1328787E+03  0.7561462E-02  0.1115782E+00
         22   -1    0    0    0    0  0.00000000000E+00  0.00000000000E+00  0.88992324608E+03  0.88992324608E+03  0.00000000000E+00 0.  1.
         22   -1    0    0    0    0 -0.00000000000E+00 -0.00000000000E+00 -0.38910782325E+03  0.38910782325E+03  0.00000000000E+00 0. -1.
         24    2    1    2    0    0 -0.16413131395E+02  0.42931024140E+02 -0.36079681854E+03  0.37335051950E+03  0.84284057996E+02 0.  0.
         25    2    1    2    0    0 -0.10344442239E+02 -0.11497166360E+02  0.18954308176E+03  0.22762494254E+03  0.12508933730E+03 0.  0.
        -24    2    1    2    0    0  0.26757573634E+02 -0.31433857780E+02  0.67206915961E+03  0.67805560729E+03  0.79864861616E+02 0.  0.
        -11    1    3    3    0    0 -0.37074805171E+02  0.28031370304E+02 -0.89396042546E+02  0.10075689218E+03  0.00000000000E+00 0.  1.
         12    1    3    3    0    0  0.20661673776E+02  0.14899653836E+02 -0.27140077599E+03  0.27259362732E+03  0.00000000000E+00 0. -1.
         13    1    5    5    0    0  0.34355304675E+02 -0.14298373161E+02  0.11930330820E+03  0.12497203600E+03  0.00000000000E+00 0. -1.
        -14    1    5    5    0    0 -0.75977310409E+01 -0.17135484619E+02  0.55276585140E+03  0.55308357129E+03  0.00000000000E+00 0.  1.
          5    1    4    4  501    0 -0.51796229576E+02 -0.44400686259E+02  0.75574361021E+02  0.10189811962E+03  0.41800000000E+01 0.  1.
         -5    1    4    4    0  501  0.41451787337E+02  0.32903519899E+02  0.11396872074E+03  0.12572682292E+03  0.41800000000E+01 0.  1.
</event>
<event>
11    1  0.7577197E-009  0.1284023E+03  0.7561462E-02  0.1121248E+00
         22   -1    0    0    0    0  0.00000000000E+00  0.00000000000E+00  0.27842758792E+04  0.27842758792E+04  0.00000000000E+00 0.  1.
         22   -1    0    0    0    0 -0.00000000000E+00 -0.00000000000E+00 -0.31711867937E+03  0.31711867937E+03  0.00000000000E+00 0.  1.
         24    2    1    2    0    0 -0.27787230772E+02  0.93246350560E+01 -0.30281618804E+03  0.31521649875E+03  0.82490716631E+02 0.  0.
         25    2    1    2    0    0 -0.25849128393E+00 -0.25930167615E+01  0.52773267606E+03  0.54236134875E+03  0.12508902702E+03 0.  0.
        -24    2    1    2    0    0  0.28045722056E+02 -0.67316182945E+01  0.22422407118E+04  0.22438167110E+04  0.78981934391E+02 0.  0.
        -11    1    3    3    0    0  0.14351771361E+02  0.28566618315E+02 -0.19876035644E+03  0.20131493813E+03  0.00000000000E+00 0.  1.
         12    1    3    3    0    0 -0.42139002133E+02 -0.19241983259E+02 -0.10405583161E+03  0.11390156062E+03  0.00000000000E+00 0. -1.
         11    1    5    5    0    0 -0.14643405612E+02  0.16051345685E+02  0.14119689746E+04  0.14121361337E+04  0.00000000000E+00 0. -1.
        -12    1    5    5    0    0  0.42689127668E+02 -0.22782963980E+02  0.83027173722E+03  0.83168057732E+03  0.00000000000E+00 0.  1.
          5    1    4    4  501    0  0.26938861073E+02  0.18804270308E+02  0.34227284147E+02  0.47626486305E+02  0.41800000000E+01 0.  1.
         -5    1    4    4    0  501 -0.27197352357E+02 -0.21397287069E+02  0.49350539191E+03  0.49473486244E+03  0.41800000000E+01 0.  1.
</event>
<event>
11    1  0.7577197E-009  0.1761779E+03  0.7561462E-02  0.1072777E+00
         22   -1    0    0    0    0  0.00000000000E+00  0.00000000000E+00  0.22286134140E+04  0.22286134140E+04  0.00000000000E+00 0. -1.
         22   -1    0    0    0    0 -0.00000000000E+00 -0.00000000000E+00 -0.13458226012E+03  0.13458226012E+03  0.00000000000E+00 0. -1.
         24    2    1    2    0    0  0.71421151956E+00 -0.12063935872E+03 -0.54875730573E+02  0.15735136431E+03  0.84815924650E+02 0.  0.
         25    2    1    2    0    0  0.32805449699E+02  0.14714714232E+03  0.32344885615E+03  0.37814448473E+03  0.12508241189E+03 0.  0.
        -24    2    1    2    0    0 -0.33519661219E+02 -0.26507783610E+02  0.18254580284E+04  0.18276998251E+04  0.79770967171E+02 0.  0.
        -11    1    3    3    0    0  0.32987146012E+02 -0.32450878025E+02  0.41089096385E+01  0.46455294909E+02  0.00000000000E+00 0.  1.
         12    1    3    3    0    0 -0.32272934493E+02 -0.88188480690E+02 -0.58984640212E+02  0.11089606940E+03  0.00000000000E+00 0. -1.
         13    1    5    5    0    0 -0.46503971653E+02  0.22684167734E+01  0.14980294606E+04  0.14987528248E+04  0.00000000000E+00 0. -1.
        -14    1    5    5    0    0  0.12984310434E+02 -0.28776200383E+02  0.32742856778E+03  0.32894700033E+03  0.00000000000E+00 0.  1.
          5    1    4    4  501    0  0.32581821513E+01  0.13494521406E+03  0.31794560462E+03  0.34543842642E+03  0.41800000000E+01 0. -1.
         -5    1    4    4    0  501  0.29547267548E+02  0.12201928265E+02  0.55032515253E+01  0.32706058312E+02  0.41800000000E+01 0. -1.
</event>
<event>
11    1  0.7577197E-009  0.1435833E+03  0.7561462E-02  0.1103622E+00
         22   -1    0    0    0    0  0.00000000000E+00  0.00000000000E+00  0.67200179922E+03  0.67200179922E+03  0.00000000000E+00 0.  1.
         22   -1    0    0    0    0 -0.00000000000E+00 -0.00000000000E+00 -0.40333040477E+03  0.40333040477E+03  0.00000000000E+00 0. -1.
        -24    2    1    2    0    0 -0.54302570452E+02  0.50239284409E+02 -0.31549151787E+03  0.33400469081E+03  0.80941218042E+02 0.  0.
         25    2    1    2    0    0  0.58818301742E+02 -0.28315995079E+01 -0.10810505348E+02  0.13867954837E+03  0.12509012565E+03 0.  0.
         24    2    1    2    0    0 -0.45157312904E+01 -0.47407684901E+02  0.59497341767E+03  0.60264796481E+03  0.83206498128E+02 0.  0.
        -13    1    5    5    0    0 -0.40983084706E+02 -0.25449108928E+02  0.41060015086E+03  0.41342442389E+03  0.00000000000E+00 0.  1.
         14    1    5    5    0    0  0.36467353416E+02 -0.21958575973E+02  0.18437326681E+03  0.18922354092E+03  0.00000000000E+00 0. -1.
         11    1    3    3    0    0 -0.41130240129E+02  0.54419810241E+01 -0.25087601612E+03  0.25428347818E+03  0.00000000000E+00 0. -1.
        -12    1    3    3    0    0 -0.13172330323E+02  0.44797303384E+02 -0.64615501752E+02  0.79721212630E+02  0.00000000000E+00 0.  1.
          5    1    4    4  501    0  0.48921315168E+02 -0.29343631846E+02 -0.59293477218E+02  0.82386483408E+02  0.41800000000E+01 0. -1.
         -5    1    4    4    0  501  0.98969865742E+01  0.26512032338E+02  0.48482971870E+02  0.56293064966E+02  0.41800000000E+01 0. -1.
</event>
<event>
11    1  0.7577197E-009  0.3856717E+03  0.7561462E-02  0.9693006E-01
         22   -1    0    0    0    0  0.00000000000E+00  0.00000000000E+00  0.62436878649E+03  0.62436878649E+03  0.00000000000E+00 0.  1.
         22   -1    0    0    0    0 -0.00000000000E+00 -0.00000000000E+00 -0.92205493589E+03  0.92205493589E+03  0.00000000000E+00 0. -1.
        -24    2    1    2    0    0  0.17233395133E+03 -0.82763905476E+01 -0.60657546412E+03  0.63566492604E+03  0.79803603288E+02 0.  0.
         25    2    1    2    0    0 -0.42368421634E+03  0.21386539580E+03  0.61966772211E+02  0.49470616654E+03  0.12509031800E+03 0.  0.
         24    2    1    2    0    0  0.25135026501E+03 -0.20558900526E+03  0.24692254251E+03  0.41605262980E+03  0.81763402323E+02 0.  0.
        -11    1    5    5    0    0  0.13586073226E+03 -0.13740200998E+03  0.10164201587E+03  0.21833128568E+03  0.00000000000E+00 0.  1.
         12    1    5    5    0    0  0.11548953276E+03 -0.68186995279E+02  0.14528052663E+03  0.19772134412E+03  0.00000000000E+00 0. -1.
         11    1    3    3    0    0  0.10527131455E+03 -0.37344362295E+02 -0.43617186093E+03  0.45024720246E+03  0.00000000000E+00 0. -1.
        -12    1    3    3    0    0  0.67062636774E+02  0.29067971748E+02 -0.17040360320E+03  0.18541772357E+03  0.00000000000E+00 0.  1.
          5    1    4    4  501    0 -0.37876388226E+03  0.15510505702E+03  0.83112118834E+02  0.41766584001E+03  0.41800000000E+01 0.  1.
         -5    1    4    4    0  501 -0.44920334085E+02  0.58760338785E+02 -0.21145346623E+02  0.77040326532E+02  0.41800000000E+01 0.  1.
</event>
<event>
11    1  0.7577197E-009  0.1953503E+03  0.7561462E-02  0.1057861E+00
         22   -1    0    0    0    0  0.00000000000E+00  0.00000000000E+00  0.10092079115E+04  0.10092079115E+04  0.00000000000E+00 0. -1.
         22   -1    0    0    0    0 -0.00000000000E+00 -0.00000000000E+00 -0.26077516154E+03  0.26077516154E+03  0.00000000000E+00 0. -1.
        -24    2    1    2    0    0 -0.91566280115E+02  0.76645761430E+02 -0.19421018489E+03  0.24159943587E+03  0.79960834778E+02 0.  0.
         25    2    1    2    0    0  0.56715591066E+02 -0.20483953558E+03  0.46287148280E+03  0.52447508907E+03  0.12509282900E+03 0.  0.
         24    2    1    2    0    0  0.34850689049E+02  0.12819377415E+03  0.47977145203E+03  0.50390854807E+03  0.78070252797E+02 0.  0.
        -11    1    5    5    0    0  0.51272300367E+02  0.52709791404E+02  0.18233499416E+03  0.19660422424E+03  0.00000000000E+00 0.  1.
         12    1    5    5    0    0 -0.16421611318E+02  0.75483982745E+02  0.29743645787E+03  0.30730432382E+03  0.00000000000E+00 0. -1.
         11    1    3    3    0    0 -0.95113301576E+02  0.87865377005E+02 -0.16253217358E+03  0.20780657367E+03  0.00000000000E+00 0. -1.
        -12    1    3    3    0    0  0.35470214611E+01 -0.11219615575E+02 -0.31678011312E+02  0.33792862199E+02  0.00000000000E+00 0.  1.
          5    1    4    4  501    0 -0.34900271501E+02 -0.85867683961E+02  0.13476819910E+03  0.16361915532E+03  0.41800000000E+01 0. -1.
         -5    1    4    4    0  501  0.91615862566E+02 -0.11897185162E+03  0.32810328369E+03  0.36085593375E+03  0.41800000000E+01 0. -1.
</event>
<event>
11    1  0.7577197E-009  0.1844217E+03  0.7561462E-02  0.1066121E+00
         22   -1    0    0    0    0  0.00000000000E+00  0.00000000000E+00  0.34967939497E+03  0.34967939497E+03  0.00000000000E+00 0. -1.
         22   -1    0    0    0    0 -0.00000000000E+00 -0.00000000000E+00 -0.51686965736E+03  0.51686965736E+03  0.00000000000E+00 0.  1.
         24    2    1    2    0    0 -0.14731700669E+03 -0.81472706632E+01 -0.35389217916E+03  0.39205657221E+03  0.81853545215E+02 0.  0.
         25    2    1    2    0    0  0.98236435127E+02 -0.68281017512E+02 -0.72909256201E+02  0.18781438845E+03  0.12508313367E+03 0.  0.
        -24    2    1    2    0    0  0.49080571567E+02  0.76428288175E+02  0.25961117297E+03  0.28667809167E+03  0.80846653434E+02 0.  0.
        -13    1    3    3    0    0 -0.12211272261E+03 -0.38191107742E+02 -0.29179254069E+03  0.31861099249E+03  0.00000000000E+00 0.  1.
         14    1    3    3    0    0 -0.25204284086E+02  0.30043837079E+02 -0.62099638473E+02  0.73445579725E+02  0.00000000000E+00 0. -1.
         11    1    5    5    0    0  0.24341687283E+02  0.27751480459E+01  0.15192880821E+03  0.15389146159E+03  0.00000000000E+00 0. -1.
        -12    1    5    5    0    0  0.24738884284E+02  0.73653140129E+02  0.10768236476E+03  0.13278663008E+03  0.00000000000E+00 0.  1.
          5    1    4    4  501    0  0.55956196291E+02 -0.10346761290E+03 -0.53988995342E+02  0.12949489118E+03  0.41800000000E+01 0.  1.
         -5    1    4    4    0  501  0.42280238836E+02  0.35186595387E+02 -0.18920260859E+02  0.58319497271E+02  0.41800000000E+01 0.  1.
</event>
<event>
11    1  0.7577197E-009  0.1366441E+03  0.7561462E-02  0.1111365E+00
         22   -1    0    0    0    0  0.00000000000E+00  0.00000000000E+00  0.11862195120E+03  0.11862195120E+03  0.00000000000E+00 0. -1.
         22   -1    0    0    0    0 -0.00000000000E+00 -0.00000000000E+00 -0.12224921173E+04  0.12224921173E+04  0.00000000000E+00 0.  1.
         24    2    1    2    0    0  0.31394923018E+02  0.46173350741E+02 -0.11164923850E+04  0.11211188161E+04  0.85056067025E+02 0.  0.
         25    2    1    2    0    0  0.88290992886E+00 -0.38493406274E+02 -0.38986387215E+01  0.13094457292E+03  0.12509500364E+03 0.  0.
        -24    2    1    2    0    0 -0.32277832947E+02 -0.76799444675E+01  0.16520857611E+02  0.89050679499E+02  0.80970641199E+02 0.  0.
        -13    1    3    3    0    0  0.79746166280E+01  0.21003164832E+02 -0.98342671830E+03  0.98368330153E+03  0.00000000000E+00 0.  1.
         14    1    3    3    0    0  0.23420306390E+02  0.25170185910E+02 -0.13306566667E+03  0.13743551454E+03  0.00000000000E+00 0. -1.
         13    1    5    5    0    0 -0.20453068566E+02  0.84962964797E+01  0.47354800888E+02  0.52278028222E+02  0.00000000000E+00 0. -1.
        -14    1    5    5    0    0 -0.11824764381E+02 -0.16176240947E+02 -0.30833943277E+02  0.36772651276E+02  0.00000000000E+00 0.  1.
          5    1    4    4  501    0  0.60723288105E+02 -0.11996912404E+02  0.12642486644E+02  0.63313098914E+02  0.41800000000E+01 0.  1.
         -5    1    4    4    0  501 -0.59840378176E+02 -0.26496493870E+02 -0.16541125365E+02  0.67631474004E+02  0.41800000000E+01 0.  1.
</event>
<event>
11    1  0.7577197E-009  0.1835865E+03  0.7561462E-02  0.1066778E+00
         22   -1    0    0    0    0  0.00000000000E+00  0.00000000000E+00  0.18352068611E+04  0.18352068611E+04  0.00000000000E+00 0. -1.
         22   -1    0    0    0    0 -0.00000000000E+00 -0.00000000000E+00 -0.68651028600E+02  0.68651028600E+02  0.00000000000E+00 0. -1.
         24    2    1    2    0    0 -0.14170028007E+02 -0.11159544424E+02 -0.16031343104E+02  0.82968620110E+02  0.79381753796E+02 0.  0.
         25    2    1    2    0    0 -0.12298387216E+03  0.25750160769E+02  0.55530741977E+03  0.58292572376E+03  0.12509182780E+03 0.  0.
        -24    2    1    2    0    0  0.13715390016E+03 -0.14590616346E+02  0.12272797559E+04  0.12379635458E+04  0.85522297102E+02 0.  0.
        -13    1    3    3    0    0  0.37453411791E+01 -0.27148081870E+02  0.23907036135E+02  0.36367462195E+02  0.00000000000E+00 0.  1.
         14    1    3    3    0    0 -0.17915369187E+02  0.15988537446E+02 -0.39938379239E+02  0.46601157915E+02  0.00000000000E+00 0. -1.
         11    1    5    5    0    0  0.11470398582E+03 -0.33716725233E+02  0.72268446191E+03  0.73250710127E+03  0.00000000000E+00 0. -1.
        -12    1    5    5    0    0  0.22449914346E+02  0.19126108888E+02  0.50459529394E+03  0.50545644458E+03  0.00000000000E+00 0.  1.
          5    1    4    4  501    0 -0.28986529808E+02  0.67154284361E+02  0.26569016597E+03  0.27560597510E+03  0.41800000000E+01 0.  1.
         -5    1    4    4    0  501 -0.93997342348E+02 -0.41404123592E+02  0.28961725380E+03  0.30731974866E+03  0.41800000000E+01 0.  1.
</event>
<event>
11    1  0.7577197E-009  0.1625004E+03  0.7561462E-02  0.1084749E+00
         22   -1    0    0    0    0  0.00000000000E+00  0.00000000000E+00  0.49099330160E+02  0.49099330160E+02  0.00000000000E+00 0. -1.
         22   -1    0    0    0    0 -0.00000000000E+00 -0.00000000000E+00 -0.23867965070E+04  0.23867965070E+04  0.00000000000E+00 0.  1.
        -24    2    1    2    0    0  0.97604327015E+02 -0.62166144292E+02 -0.18572199021E+04  0.18625122461E+04  0.79340203961E+02 0.  0.
         25    2    1    2    0    0 -0.68958291156E+02 -0.27019507464E+02 -0.40722217793E+03  0.43239268965E+03  0.12509291014E+03 0.  0.
         24    2    1    2    0    0 -0.28646035858E+02  0.89185651756E+02 -0.73255096787E+02  0.14099090138E+03  0.75745951824E+02 0.  0.
        -11    1    5    5    0    0  0.25912107662E+01  0.24996784296E+02  0.13591512742E+02  0.28570663573E+02  0.00000000000E+00 0.  1.
         12    1    5    5    0    0 -0.31237246624E+02  0.64188867459E+02 -0.86846609529E+02  0.11242023781E+03  0.00000000000E+00 0. -1.
         11    1    3    3    0    0  0.93973313324E+02 -0.54875426021E+02 -0.11258607232E+04  0.11311077155E+04  0.00000000000E+00 0. -1.
        -12    1    3    3    0    0  0.36310136903E+01 -0.72907182713E+01 -0.73135917889E+03  0.73140453060E+03  0.00000000000E+00 0.  1.
          5    1    4    4  501    0 -0.39364886094E+02 -0.29830406196E+02 -0.39323428974E+02  0.63271256170E+02  0.41800000000E+01 0. -1.
         -5    1    4    4    0  501 -0.29593405062E+02  0.28108987326E+01 -0.36789874896E+03  0.36912143348E+03  0.41800000000E+01 0. -1.
</event>
<event>
11    1  0.7577197E-009  0.1414649E+03  0.7561462E-02  0.1105933E+00
         22   -1    0    0    0    0  0.00000000000E+00  0.00000000000E+00  0.69655897494E+03  0.69655897494E+03  0.00000000000E+00 0. -1.
         22   -1    0    0    0    0 -0.00000000000E+00 -0.00000000000E+00 -0.92397791167E+03  0.92397791167E+03  0.00000000000E+00 0.  1.
         24    2    1    2    0    0 -0.90174354571E+01  0.27204121126E+02 -0.86403516627E+03  0.86813563410E+03  0.79254856566E+02 0.  0.
         25    2    1    2    0    0  0.73554703314E+02 -0.14888357673E+02  0.46379413018E+02  0.15308435702E+03  0.12510720538E+03 0.  0.
        -24    2    1    2    0    0 -0.64537267857E+02 -0.12315763453E+02  0.59023681653E+03  0.59931689550E+03  0.80526422190E+02 0.  0.
        -13    1    3    3    0    0  0.33695918121E+02  0.12024249357E+02 -0.26771798124E+03  0.27009797287E+03  0.00000000000E+00 0.  1.
         14    1    3    3    0    0 -0.42713353578E+02  0.15179871769E+02 -0.59631718503E+03  0.59803766123E+03  0.00000000000E+00 0. -1.
         13    1    5    5    0    0 -0.51879114253E+02 -0.40658056374E+02  0.48917083551E+03  0.49359155823E+03  0.00000000000E+00 0. -1.
        -14    1    5    5    0    0 -0.12658153604E+02  0.28342292921E+02  0.10106598102E+03  0.10572533726E+03  0.00000000000E+00 0.  1.
          5    1    4    4  501    0  0.66440706133E+01  0.91542718258E+01 -0.39624417756E+02  0.41418730660E+02  0.41800000000E+01 0.  1.
         -5    1    4    4    0  501  0.66910632701E+02 -0.24042629499E+02  0.86003830773E+02  0.11166562636E+03  0.41800000000E+01 0.  1.
</event>
<event>
11    1  0.7577197E-009  0.1368361E+03  0.7561462E-02  0.1111144E+00
         22   -1    0    0    0    0  0.00000000000E+00  0.00000000000E+00  0.20596665819E+03  0.20596665819E+03  0.00000000000E+00 0.  1.
         22   -1    0    0    0    0 -0.00000000000E+00 -0.00000000000E+00 -0.18527683625E+03  0.18527683625E+03  0.00000000000E+00 0.  1.
        -24    2    1    2    0    0  0.23374158356E+02 -0.41359225430E+01 -0.85697739341E+02  0.11940526372E+03  0.79687247046E+02 0.  0.
         25    2    1    2    0    0  0.35339265025E+02  0.21155891850E+02  0.11195504075E+02  0.13216750855E+03  0.12508587287E+03 0.  0.
         24    2    1    2    0    0 -0.58713423381E+02 -0.17019969307E+02  0.95192057203E+02  0.13967072217E+03  0.81911155755E+02 0.  0.
        -11    1    5    5    0    0 -0.14178072442E+02 -0.16192282904E+02  0.92582635726E+02  0.95051313519E+02  0.00000000000E+00 0.  1.
         12    1    5    5    0    0 -0.44535350939E+02 -0.82768640333E+00  0.26094214772E+01  0.44619408652E+02  0.00000000000E+00 0. -1.
         13    1    3    3    0    0  0.20329504773E+02  0.36801420665E+02 -0.45509512988E+02  0.61957639558E+02  0.00000000000E+00 0. -1.
        -14    1    3    3    0    0  0.30446535833E+01 -0.40937343208E+02 -0.40188226354E+02  0.57447624162E+02  0.00000000000E+00 0.  1.
          5    1    4    4  501    0  0.34789243265E+02 -0.34862801886E+02 -0.34061724711E+02  0.60028159164E+02  0.41800000000E+01 0.  1.
         -5    1    4    4    0  501  0.55002176022E+00  0.56018693736E+02  0.45257228786E+02  0.72139349382E+02  0.41800000000E+01 0.  1.
</event>
<event>
11    1  0.7577197E-009  0.1334710E+03  0.7561462E-02  0.1115076E+00
         22   -1    0    0    0    0  0.00000000000E+00  0.00000000000E+00  0.13710419065E+04  0.13710419065E+04  0.00000000000E+00 0. -1.
         22   -1    0    0    0    0 -0.00000000000E+00 -0.00000000000E+00 -0.47226792893E+02  0.47226792893E+02  0.00000000000E+00 0.  1.
         24    2    1    2    0    0  0.48375859223E+02  0.48668188886E+01  0.32192129132E+02  0.99048591918E+02  0.80064853095E+02 0.  0.
         25    2    1    2    0    0 -0.70967429988E+02  0.29424326982E+02  0.48060094442E+03  0.50252023389E+03  0.12508857083E+03 0.  0.
        -24    2    1    2    0    0  0.22591570765E+02 -0.34291145871E+02  0.81102204003E+03  0.81669987356E+03  0.86923370327E+02 0.  0.
        -11    1    3    3    0    0  0.95317415806E+00 -0.32953294149E+02  0.12840513893E+02  0.35379470506E+02  0.00000000000E+00 0.  1.
         12    1    3    3    0    0  0.47422685065E+02  0.37820113038E+02  0.19351615239E+02  0.63669121411E+02  0.00000000000E+00 0. -1.
         13    1    5    5    0    0 -0.14878636484E+02 -0.37305477617E+02  0.17422922457E+03  0.17879847644E+03  0.00000000000E+00 0. -1.
        -14    1    5    5    0    0  0.37470207249E+02  0.30143317463E+01  0.63679281545E+03  0.63790139711E+03  0.00000000000E+00 0.  1.
          5    1    4    4  501    0 -0.10522852011E+03  0.14886508834E+02  0.39532715911E+03  0.40938451939E+03  0.41800000000E+01 0.  1.
         -5    1    4    4    0  501  0.34261090124E+02  0.14537818148E+02  0.85273785312E+02  0.93135714494E+02  0.41800000000E+01 0.  1.
</event>
<event>
11    1  0.7577197E-009  0.1566967E+03  0.7561462E-02  0.1090226E+00
         22   -1    0    0    0    0  0.00000000000E+00  0.00000000000E+00  0.51287536246E+03  0.51287536246E+03  0.00000000000E+00 0. -1.
         22   -1    0    0    0    0 -0.00000000000E+00 -0.00000000000E+00 -0.82648223964E+03  0.82648223964E+03  0.00000000000E+00 0. -1.
         24    2    1    2    0    0  0.33622987100E+02 -0.56144843252E+02 -0.76858081720E+03  0.77585629720E+03  0.83389283783E+02 0.  0.
         25    2    1    2    0    0 -0.63354733704E+02 -0.42316588867E+02  0.81040685297E+02  0.16738972520E+03  0.12508881426E+03 0.  0.
        -24    2    1    2    0    0  0.29731746604E+02  0.98461432119E+02  0.37393325472E+03  0.39611157971E+03  0.80620557038E+02 0.  0.
        -11    1    3    3    0    0  0.17958772102E+02  0.11953847802E+02 -0.58597679298E+02  0.62442773736E+02  0.00000000000E+00 0.  1.
         12    1    3    3    0    0  0.15664214998E+02 -0.68098691054E+02 -0.70998313790E+03  0.71341352346E+03  0.00000000000E+00 0. -1.
         11    1    5    5    0    0 -0.15501632413E+02  0.64958839070E+02  0.26749683188E+03  0.27570728399E+03  0.00000000000E+00 0. -1.
        -12    1    5    5    0    0  0.45233379017E+02  0.33502593049E+02  0.10643642285E+03  0.12040429572E+03  0.00000000000E+00 0.  1.
          5    1    4    4  501    0 -0.52622581795E+02 -0.34079702845E+02 -0.19552166375E+02  0.65805181184E+02  0.41800000000E+01 0. -1.
         -5    1    4    4    0  501 -0.10732151909E+02 -0.82368860225E+01  0.10059285167E+03  0.10158454402E+03  0.41800000000E+01 0. -1.
</event>
<event>
11    1  0.7577197E-009  0.1512796E+03  0.7561462E-02  0.1095578E+00
         22   -1    0    0    0    0  0.00000000000E+00  0.00000000000E+00  0.72126593902E+03  0.72126593902E+03  0.00000000000E+00 0.  1.
         22   -1    0    0    0    0 -0.00000000000E+00 -0.00000000000E+00 -0.41204298283E+03  0.41204298283E+03  0.00000000000E+00 0.  1.
         24    2    1    2    0    0  0.22928418485E+02  0.46455647877E+02 -0.36026831912E+03  0.37415240674E+03  0.86677114135E+02 0.  0.
         25    2    1    2    0    0  0.63294743327E+02 -0.58467194891E+02  0.11070517574E+03  0.18795877291E+03  0.12509287336E+03 0.  0.
        -24    2    1    2    0    0 -0.86223161812E+02  0.12011547014E+02  0.55878609956E+03  0.57119774220E+03  0.80288509417E+02 0.  0.
        -13    1    3    3    0    0  0.29664666858E+02  0.41009804593E+02 -0.36182796263E+03  0.36535088761E+03  0.00000000000E+00 0.  1.
         14    1    3    3    0    0 -0.67362483725E+01  0.54458432835E+01  0.15596435114E+01  0.88015191352E+01  0.00000000000E+00 0. -1.
         11    1    5    5    0    0 -0.39787691036E+02 -0.27945646406E+02  0.14581383822E+03  0.15370652208E+03  0.00000000000E+00 0. -1.
        -12    1    5    5    0    0 -0.46435470776E+02  0.39957193420E+02  0.41297226133E+03  0.41749122013E+03  0.00000000000E+00 0.  1.
          5    1    4    4  501    0  0.32051977508E+02 -0.96011218099E+02  0.61556984647E+02  0.11854205170E+03  0.41800000000E+01 0.  1.
         -5    1    4    4    0  501  0.31242765819E+02  0.37544023208E+02  0.49148191095E+02  0.69416721203E+02  0.41800000000E+01 0.  1.
</event>
<event>
11    1  0.7577197E-009  0.1825471E+03  0.7561462E-02  0.1067601E+00
         22   -1    0    0    0    0  0.00000000000E+00  0.00000000000E+00  0.23966405347E+03  0.23966405347E+03  0.00000000000E+00 0. -1.
         22   -1    0    0    0    0 -0.00000000000E+00 -0.00000000000E+00 -0.18661434732E+04  0.18661434732E+04  0.00000000000E+00 0.  1.
        -24    2    1    2    0    0 -0.36788259012E+02 -0.22320965251E+02 -0.15778101764E+04  0.15804392258E+04  0.80321803412E+02 0.  0.
         25    2    1    2    0    0 -0.53787085271E+02 -0.80719026664E+02 -0.23299701522E+03  0.28167984126E+03  0.12508921641E+03 0.  0.
         24    2    1    2    0    0  0.90575344283E+02  0.10303999192E+03  0.18432777188E+03  0.24368845965E+03  0.81155436994E+02 0.  0.
        -13    1    5    5    0    0 -0.10527353941E+02  0.31482132281E+02  0.23409778303E+02  0.40619792641E+02  0.00000000000E+00 0.  1.
         14    1    5    5    0    0  0.10110269822E+03  0.71557859634E+02  0.16091799358E+03  0.20306866701E+03  0.00000000000E+00 0. -1.
         11    1    3    3    0    0  0.82069233501E+01  0.20995778479E+02 -0.21057003117E+03  0.21177326161E+03  0.00000000000E+00 0. -1.
        -12    1    3    3    0    0 -0.44995182362E+02 -0.43316743731E+02 -0.13672401453E+04  0.13686659642E+04  0.00000000000E+00 0.  1.
          5    1    4    4  501    0 -0.28722478198E+02  0.31204867562E+02 -0.77056140795E+02  0.88055923978E+02  0.41800000000E+01 0.  1.
         -5    1    4    4    0  501 -0.25064607073E+02 -0.11192389423E+03 -0.15594087443E+03  0.19362391728E+03  0.41800000000E+01 0.  1.
</event>
<event>
11    1  0.7577197E-009  0.1389861E+03  0.7561462E-02  0.1108696E+00
         22   -1    0    0    0    0  0.00000000000E+00  0.00000000000E+00  0.54610591496E+02  0.54610591496E+02  0.00000000000E+00 0.  1.
         22   -1    0    0    0    0 -0.00000000000E+00 -0.00000000000E+00 -0.21164406666E+04  0.21164406666E+04  0.00000000000E+00 0. -1.
        -24    2    1    2    0    0  0.26271040931E+02  0.65146736014E+02 -0.15528515047E+04  0.15566075380E+04  0.82127746559E+02 0.  0.
         25    2    1    2    0    0 -0.20530238068E+02 -0.12318706362E+02 -0.50034089896E+03  0.51629795448E+03  0.12509724785E+03 0.  0.
         24    2    1    2    0    0 -0.57408028625E+01 -0.52828029653E+02 -0.86376713951E+01  0.98145765623E+02  0.82062320271E+02 0.  0.
        -13    1    5    5    0    0  0.16962994040E+02  0.70431581470E+01  0.20733976297E+02  0.27699224115E+02  0.00000000000E+00 0.  1.
         14    1    5    5    0    0 -0.22703796903E+02 -0.59871187800E+02 -0.29371647692E+02  0.70446541508E+02  0.00000000000E+00 0. -1.
         11    1    3    3    0    0  0.15172849716E+02  0.45464418058E+02 -0.14685028504E+04  0.14692848092E+04  0.00000000000E+00 0. -1.
        -12    1    3    3    0    0  0.11098191215E+02  0.19682317956E+02 -0.84348654294E+02  0.87322728826E+02  0.00000000000E+00 0.  1.
          5    1    4    4  501    0  0.16546375638E+01 -0.10728082886E+02 -0.49206281621E+03  0.49220028148E+03  0.41800000000E+01 0.  1.
         -5    1    4    4    0  501 -0.22184875632E+02 -0.15906234754E+01 -0.82780827504E+01  0.24097672997E+02  0.41800000000E+01 0.  1.
</event>
<event>
11    1  0.7577197E-009  0.1375620E+03  0.7561462E-02  0.1110312E+00
         22   -1    0    0    0    0  0.00000000000E+00  0.00000000000E+00  0.24173287551E+04  0.24173287551E+04  0.00000000000E+00 0. -1.
         22   -1    0    0    0    0 -0.00000000000E+00 -0.00000000000E+00 -0.38018281003E+03  0.38018281003E+03  0.00000000000E+00 0.  1.
         24    2    1    2    0    0  0.49542551651E+02 -0.23625853738E+02 -0.25283554399E+03  0.26874366803E+03  0.72695951826E+02 0.  0.
         25    2    1    2    0    0 -0.72113797931E+02  0.10677555869E+02 -0.74502307471E+02  0.16282485590E+03  0.12508768856E+03 0.  0.
        -24    2    1    2    0    0  0.22571246280E+02  0.12948297869E+02  0.23644837965E+04  0.23659430412E+04  0.78903298866E+02 0.  0.
        -13    1    3    3    0    0  0.59260336825E+02 -0.40103437957E+02 -0.20920668098E+03  0.22110519809E+03  0.00000000000E+00 0.  1.
         14    1    3    3    0    0 -0.97177851741E+01  0.16477584219E+02 -0.43628863013E+02  0.47638469940E+02  0.00000000000E+00 0. -1.
         11    1    5    5    0    0 -0.77792721563E+01 -0.20307913636E+02  0.15918411316E+04  0.15919896723E+04  0.00000000000E+00 0. -1.
        -12    1    5    5    0    0  0.30350518437E+02  0.33256211505E+02  0.77264266490E+03  0.77395336888E+03  0.00000000000E+00 0.  1.
          5    1    4    4  501    0 -0.24088985507E+02  0.49097142927E+02  0.12445713806E+02  0.56242127080E+02  0.41800000000E+01 0.  1.
         -5    1    4    4    0  501 -0.48024812424E+02 -0.38419587058E+02 -0.86948021277E+02  0.10658272882E+03  0.41800000000E+01 0.  1.
</event>
<event>
11    1  0.7577197E-009  0.1643773E+03  0.7561462E-02  0.1083031E+00
         22   -1    0    0    0    0  0.00000000000E+00  0.00000000000E+00  0.34913882481E+03  0.34913882481E+03  0.00000000000E+00 0.  1.
         22   -1    0    0    0    0 -0.00000000000E+00 -0.00000000000E+00 -0.36259376159E+03  0.36259376159E+03  0.00000000000E+00 0.  1.
        -24    2    1    2    0    0 -0.86696888288E+02  0.73592040620E+02 -0.22145256586E+03  0.26151089028E+03  0.80090997813E+02 0.  0.
         25    2    1    2    0    0  0.90387751014E+02 -0.25100851913E+02 -0.55107613551E+02  0.16578365789E+03  0.12508946339E+03 0.  0.
         24    2    1    2    0    0 -0.36908627258E+01 -0.48491188707E+02  0.26310524263E+03  0.28443803822E+03  0.96517413133E+02 0.  0.
        -11    1    5    5    0    0 -0.16313764210E+02 -0.25025767875E+02  0.25477594222E+03  0.25652136109E+03  0.00000000000E+00 0.  1.
         12    1    5    5    0    0  0.12622901484E+02 -0.23465420831E+02  0.83293004059E+01  0.27916677129E+02  0.00000000000E+00 0. -1.
         11    1    3    3    0    0 -0.45305352210E+02  0.10535295682E+02 -0.29022700022E+02  0.54825947420E+02  0.00000000000E+00 0. -1.
        -12    1    3    3    0    0 -0.41391536079E+02  0.63056744937E+02 -0.19242986583E+03  0.20668494286E+03  0.00000000000E+00 0.  1.
          5    1    4    4  501    0 -0.50757355914E+01  0.13831694269E+02  0.28913815275E+02  0.32719412769E+02  0.41800000000E+01 0. -1.
         -5    1    4    4    0  501  0.95463486606E+02 -0.38932546182E+02 -0.84021428827E+02  0.13306424512E+03  0.41800000000E+01 0. -1.
</event>
<event>
11    1  0.7577197E-009  0.1295378E+03  0.7561462E-02  0.1119838E+00
         22   -1    0    0    0    0  0.00000000000E+00  0.00000000000E+00  0.75866087412E+03  0.75866087412E+03  0.00000000000E+00 0.  1.
         22   -1    0    0    0    0 -0.00000000000E+00 -0.00000000000E+00 -0.43858730953E+03  0.43858730953E+03  0.00000000000E+00 0. -1.
         24    2    1    2    0    0 -0.14893254366E+02 -0.19289781982E+02 -0.41675804659E+03  0.42676896686E+03  0.88603481676E+02 0.  0.
         25    2    1    2    0    0 -0.17261838416E+02 -0.64048389902E+01  0.33830316501E+03  0.36116174222E+03  0.12509907897E+03 0.  0.
        -24    2    1    2    0    0  0.32155092782E+02  0.25694620972E+02  0.39852844617E+03  0.40931747457E+03  0.83795638574E+02 0.  0.
        -11    1    3    3    0    0 -0.31370285472E+02  0.13278444749E+02 -0.67496767570E+02  0.75605724241E+02  0.00000000000E+00 0.  1.
         12    1    3    3    0    0  0.16477031106E+02 -0.32568226731E+02 -0.34926127902E+03  0.35116324262E+03  0.00000000000E+00 0. -1.
         11    1    5    5    0    0 -0.59608930393E+01  0.20842281155E+02  0.22185750503E+02  0.31018388981E+02  0.00000000000E+00 0. -1.
        -12    1    5    5    0    0  0.38115985821E+02  0.48523398168E+01  0.37634269566E+03  0.37829908559E+03  0.00000000000E+00 0.  1.
          5    1    4    4  501    0  0.32611089968E+01  0.56425539245E+02  0.19905596151E+03  0.20696672322E+03  0.41800000000E+01 0. -1.
         -5    1    4    4    0  501 -0.20522947413E+02 -0.62830378235E+02  0.13924720350E+03  0.15419501900E+03  0.41800000000E+01 0. -1.
</event>
<event>
11    1  0.7577197E-009  0.1652547E+03  0.7561462E-02  0.1082237E+00
         22   -1    0    0    0    0  0.00000000000E+00  0.00000000000E+00  0.18062369341E+04  0.18062369341E+04  0.00000000000E+00 0.  1.
         22   -1    0    0    0    0 -0.00000000000E+00 -0.00000000000E+00 -0.41756032178E+03  0.41756032178E+03  0.00000000000E+00 0.  1.
         24    2    1    2    0    0  0.74666122419E+02 -0.44856420590E+02 -0.35889132316E+03  0.37793837673E+03  0.80295121015E+02 0.  0.
         25    2    1    2    0    0 -0.16560405624E+03 -0.86153228739E+01  0.18661477095E+03  0.27923508772E+03  0.12509290246E+03 0.  0.
        -24    2    1    2    0    0  0.90937933824E+02  0.53471743464E+02  0.15609531645E+04  0.15666237914E+04  0.81279682689E+02 0.  0.
        -11    1    3    3    0    0  0.72900550046E+02 -0.14459522393E+02 -0.32015272996E+03  0.32866599837E+03  0.00000000000E+00 0.  1.
         12    1    3    3    0    0  0.17655723735E+01 -0.30396898198E+02 -0.38738593205E+02  0.49272378361E+02  0.00000000000E+00 0. -1.
         11    1    5    5    0    0 -0.13418120546E+01  0.99485736246E+01  0.20809447386E+02  0.23104278332E+02  0.00000000000E+00 0. -1.
        -12    1    5    5    0    0  0.92279745879E+02  0.43523169840E+02  0.15401437171E+04  0.15435195131E+04  0.00000000000E+00 0.  1.
          5    1    4    4  501    0 -0.31480785527E+02  0.45083954273E+02  0.19986594213E+02  0.58656109132E+02  0.41800000000E+01 0.  1.
         -5    1    4    4    0  501 -0.13412327072E+03 -0.53699277147E+02  0.16662817673E+03  0.22057897859E+03  0.41800000000E+01 0.  1.
</event>
<event>
11    1  0.7577197E-009  0.1378191E+03  0.7561462E-02  0.1110018E+00
         22   -1    0    0    0    0  0.00000000000E+00  0.00000000000E+00  0.10841393381E+03  0.10841393381E+03  0.00000000000E+00 0.  1.
         22   -1    0    0    0    0 -0.00000000000E+00 -0.00000000000E+00 -0.25950903286E+04  0.25950903286E+04  0.00000000000E+00 0. -1.
        -24    2    1    2    0    0 -0.26801499022E+02 -0.29474839036E+02 -0.23348008005E+04  0.23365277830E+04  0.80499790734E+02 0.  0.
         25    2    1    2    0    0 -0.85106658998E+01 -0.21753838744E+02 -0.21313829487E+03  0.24823602512E+03  0.12509008950E+03 0.  0.
         24    2    1    2    0    0  0.35312164922E+02  0.51228677780E+02  0.61262700607E+02  0.11874045425E+03  0.80466456192E+02 0.  0.
        -11    1    5    5    0    0 -0.75184398168E+01 -0.37763732390E+01  0.46789718799E+02  0.47540148479E+02  0.00000000000E+00 0.  1.
         12    1    5    5    0    0  0.42830604739E+02  0.55005051019E+02  0.14472981807E+02  0.71200305773E+02  0.00000000000E+00 0. -1.
         13    1    3    3    0    0 -0.33431925433E+02 -0.40688811453E+02 -0.82917631460E+03  0.83084693760E+03  0.00000000000E+00 0. -1.
        -14    1    3    3    0    0  0.66304264105E+01  0.11213972417E+02 -0.15056244859E+04  0.15056808454E+04  0.00000000000E+00 0.  1.
          5    1    4    4  501    0 -0.18291681021E+02 -0.63239628332E+02 -0.59822496956E+02  0.89050770509E+02  0.41800000000E+01 0. -1.
         -5    1    4    4    0  501  0.97810151209E+01  0.41485789589E+02 -0.15331579792E+03  0.15918525461E+03  0.41800000000E+01 0. -1.
</event>
<event>
11    1  0.7577197E-009  0.1793323E+03  0.7561462E-02  0.1070184E+00
         22   -1    0    0    0    0  0.00000000000E+00  0.00000000000E+00  0.11567317332E+04  0.11567317332E+04  0.00000000000E+00 0.  1.
         22   -1    0    0    0    0 -0.00000000000E+00 -0.00000000000E+00 -0.17579614344E+04  0.17579614344E+04  0.00000000000E+00 0. -1.
        -24    2    1    2    0    0 -0.39160233457E+02 -0.12245173575E+03 -0.16807184230E+04  0.16875168224E+04  0.79816394952E+02 0.  0.
         25    2    1    2    0    0  0.51339736827E+02  0.11574843358E+03  0.37483524606E+02  0.18190959592E+03  0.12511042329E+03 0.  0.
         24    2    1    2    0    0 -0.12179503370E+02  0.67033021784E+01  0.10420051972E+04  0.10452667492E+04  0.81329401632E+02 0.  0.
        -11    1    5    5    0    0  0.29229263623E+02  0.11505553595E+02  0.70403185948E+03  0.70473228021E+03  0.00000000000E+00 0.  1.
         12    1    5    5    0    0 -0.41408766993E+02 -0.48022514170E+01  0.33797333771E+03  0.34053446904E+03  0.00000000000E+00 0. -1.
         13    1    3    3    0    0 -0.14900478821E+02 -0.59964412363E+02 -0.12580240727E+04  0.12595405204E+04  0.00000000000E+00 0. -1.
        -14    1    3    3    0    0 -0.24259754637E+02 -0.62487323392E+02 -0.42269435025E+03  0.42797630193E+03  0.00000000000E+00 0.  1.
          5    1    4    4  501    0  0.91854615545E+02  0.63579918741E+02  0.25156847062E+02  0.11458628111E+03  0.41800000000E+01 0.  1.
         -5    1    4    4    0  501 -0.40514878717E+02  0.52168514835E+02  0.12326677544E+02  0.67323314809E+02  0.41800000000E+01 0.  1.
</event>
<event>
11    1  0.7577197E-009  0.1329751E+03  0.7561462E-02  0.1115667E+00
         22   -1    0    0    0    0  0.00000000000E+00  0.00000000000E+00  0.42988744106E+02  0.42988744106E+02  0.00000000000E+00 0. -1.
         22   -1    0    0    0    0 -0.00000000000E+00 -0.00000000000E+00 -0.17009559995E+04  0.17009559995E+04  0.00000000000E+00 0.  1.
        -24    2    1    2    0    0 -0.47975994727E+02 -0.31793654646E+01 -0.12268688598E+04  0.12303980283E+04  0.79751516689E+02 0.  0.
         25    2    1    2    0    0  0.26053884218E+02  0.19003220423E+02 -0.40460860028E+03  0.42473656364E+03  0.12511235671E+03 0.  0.
         24    2    1    2    0    0  0.21922110509E+02 -0.15823854958E+02 -0.26489795288E+02  0.88810151661E+02  0.80340279242E+02 0.  0.
        -13    1    5    5    0    0  0.38735779951E+02 -0.14747363454E+02 -0.46738049062E+02  0.62469117229E+02  0.00000000000E+00 0.  1.
         14    1    5    5    0    0 -0.16813669441E+02 -0.10764915044E+01  0.20248253774E+02  0.26341034432E+02  0.00000000000E+00 0. -1.
         13    1    3    3    0    0 -0.67433545147E+02 -0.13804472407E+02 -0.80078524253E+03  0.80373804882E+03  0.00000000000E+00 0. -1.
        -14    1    3    3    0    0  0.19457550420E+02  0.10625106943E+02 -0.42608361727E+03  0.42665997946E+03  0.00000000000E+00 0.  1.
          5    1    4    4  501    0  0.26209100106E+02  0.57229486872E+02 -0.36152490727E+03  0.36698755030E+03  0.41800000000E+01 0.  1.
         -5    1    4    4    0  501 -0.15521588879E+00 -0.38226266449E+02 -0.43083693012E+02  0.57749013343E+02  0.41800000000E+01 0.  1.
</event>
<event>
11    1  0.7577197E-009  0.2067656E+03  0.7561462E-02  0.1049840E+00
         22   -1    0    0    0    0  0.00000000000E+00  0.00000000000E+00  0.13341285952E+04  0.13341285952E+04  0.00000000000E+00 0.  1.
         22   -1    0    0    0    0 -0.00000000000E+00 -0.00000000000E+00 -0.48228055717E+03  0.48228055717E+03  0.00000000000E+00 0. -1.
         24    2    1    2    0    0 -0.18668647339E+02  0.80151427237E+02 -0.38461645272E+03  0.40131347322E+03  0.79686375274E+02 0.  0.
         25    2    1    2    0    0 -0.23547649799E+02 -0.23252677894E+03  0.13477387974E+03  0.29737891048E+03  0.12508806100E+03 0.  0.
        -24    2    1    2    0    0  0.42216297138E+02  0.15237535171E+03  0.11016906110E+04  0.11177167687E+04  0.10280130847E+03 0.  0.
        -13    1    3    3    0    0 -0.29607123021E+02  0.39327279815E+02 -0.81115051315E+02  0.94883445453E+02  0.00000000000E+00 0.  1.
         14    1    3    3    0    0  0.10938475682E+02  0.40824147421E+02 -0.30350140140E+03  0.30643002777E+03  0.00000000000E+00 0. -1.
         11    1    5    5    0    0  0.25272992653E+01  0.76457820932E+02  0.24284380508E+03  0.25460812887E+03  0.00000000000E+00 0. -1.
        -12    1    5    5    0    0  0.39688997873E+02  0.75917530776E+02  0.85884680593E+03  0.86310863980E+03  0.00000000000E+00 0.  1.
          5    1    4    4  501    0 -0.74871966132E+02 -0.12435809243E+03  0.70516115643E+02  0.16143339627E+03  0.41800000000E+01 0. -1.
         -5    1    4    4    0  501  0.51324316333E+02 -0.10816868652E+03  0.64257764093E+02  0.13594551422E+03  0.41800000000E+01 0. -1.
</event>
<event>
11    1  0.7577197E-009  0.1372839E+03  0.7561462E-02  0.1110630E+00
         22   -1    0    0    0    0  0.00000000000E+00  0.00000000000E+00  0.11308991917E+04  0.11308991917E+04  0.00000000000E+00 0.  1.
         22   -1    0    0    0    0 -0.00000000000E+00 -0.00000000000E+00 -0.20998548436E+03  0.20998548436E+03  0.00000000000E+00 0. -1.
        -24    2    1    2    0    0 -0.47301318202E+02 -0.35740295460E+02 -0.16251947402E+03  0.19119209784E+03  0.81406728331E+02 0.  0.
         25    2    1    2    0    0  0.13143861232E+02  0.32884244514E+02  0.10577250435E+03  0.16759946350E+03  0.12509045872E+03 0.  0.
         24    2    1    2    0    0  0.34157456970E+02  0.28560509459E+01  0.97766067697E+03  0.98209311467E+03  0.86669473868E+02 0.  0.
        -13    1    5    5    0    0  0.12090986250E+02  0.68709188403E+00  0.92336683337E+03  0.92344624803E+03  0.00000000000E+00 0.  1.
         14    1    5    5    0    0  0.22066470721E+02  0.21689590619E+01  0.54293843602E+02  0.58646866639E+02  0.00000000000E+00 0. -1.
         11    1    3    3    0    0 -0.61333442217E+02 -0.40147082348E+02 -0.16036799011E+03  0.17632773919E+03  0.00000000000E+00 0. -1.
        -12    1    3    3    0    0  0.14032124014E+02  0.44067868882E+01 -0.21514839058E+01  0.14864358648E+02  0.00000000000E+00 0.  1.
          5    1    4    4  501    0  0.53450340991E+02  0.12919587989E+02  0.10915903318E+03  0.12229890282E+03  0.41800000000E+01 0. -1.
         -5    1    4    4    0  501 -0.40306479759E+02  0.19964656525E+02 -0.33865288287E+01  0.45300560683E+02  0.41800000000E+01 0. -1.
</event>
<event>
11    1  0.7577197E-009  0.8676926E+03  0.7561462E-02  0.8816165E-01
         22   -1    0    0    0    0  0.00000000000E+00  0.00000000000E+00  0.14417211589E+04  0.14417211589E+04  0.00000000000E+00 0. -1.
         22   -1    0    0    0    0 -0.00000000000E+00 -0.00000000000E+00 -0.10012291029E+04  0.10012291029E+04  0.00000000000E+00 0. -1.
         24    2    1    2    0    0 -0.67167785479E+02  0.16397501192E+03 -0.31821460552E+02  0.19695736886E+03  0.79876679034E+02 0.  0.
         25    2    1    2    0    0  0.79576163701E+03 -0.56520841177E+03 -0.37768517805E+03  0.10540351837E+04  0.12508774188E+03 0.  0.
        -24    2    1    2    0    0 -0.72859385154E+03  0.40123339985E+03  0.84999869455E+03  0.11919577092E+04  0.80175795727E+02 0.  0.
        -11    1    3    3    0    0 -0.17877807080E+02  0.13315537981E+03 -0.34683124073E+02  0.13875478461E+03  0.00000000000E+00 0.  1.
         12    1    3    3    0    0 -0.49289978399E+02  0.30819632115E+02  0.28616635215E+01  0.58202584241E+02  0.00000000000E+00 0. -1.
         13    1    5    5    0    0 -0.45945058232E+03  0.25940158476E+03  0.48358417427E+03  0.71570781286E+03  0.00000000000E+00 0. -1.
        -14    1    5    5    0    0 -0.26914326921E+03  0.14183181509E+03  0.36641452028E+03  0.47624989638E+03  0.00000000000E+00 0.  1.
          5    1    4    4  501    0  0.15977601457E+03 -0.62872585563E+02 -0.90995134292E+02  0.19436801103E+03  0.41800000000E+01 0. -1.
         -5    1    4    4    0  501  0.63598562244E+03 -0.50233582621E+03 -0.28669004375E+03  0.85966717271E+03  0.41800000000E+01 0. -1.
</event>
<event>
11    1  0.7577197E-009  0.1615598E+03  0.7561462E-02  0.1085619E+00
         22   -1    0    0    0    0  0.00000000000E+00  0.00000000000E+00  0.53305750714E+03  0.53305750714E+03  0.00000000000E+00 0.  1.
         22   -1    0    0    0    0 -0.00000000000E+00 -0.00000000000E+00 -0.22711306539E+03  0.22711306539E+03  0.00000000000E+00 0.  1.
        -24    2    1    2    0    0  0.62377859542E+01  0.73155219841E+02 -0.11899568693E+03  0.15941135110E+03  0.76559840577E+02 0.  0.
         25    2    1    2    0    0  0.58943728399E+02 -0.14401935178E+03  0.50579207407E+02  0.20596656122E+03  0.12509209134E+03 0.  0.
         24    2    1    2    0    0 -0.65181514353E+02  0.70864131936E+02  0.37436092128E+03  0.39479266021E+03  0.80279450468E+02 0.  0.
        -11    1    5    5    0    0  0.89886702690E+01 -0.10813225217E+02  0.60251213347E+02  0.61870273497E+02  0.00000000000E+00 0.  1.
         12    1    5    5    0    0 -0.74170184622E+02  0.81677357153E+02  0.31410970793E+03  0.33292238671E+03  0.00000000000E+00 0. -1.
         13    1    3    3    0    0 -0.24507075665E+02 -0.77352546554E+00 -0.40117221228E+02  0.47016875038E+02  0.00000000000E+00 0. -1.
        -14    1    3    3    0    0  0.30744861619E+02  0.73928745307E+02 -0.78878465698E+02  0.11239447606E+03  0.00000000000E+00 0.  1.
          5    1    4    4  501    0 -0.37604571393E+02 -0.21378829462E+02  0.13124541315E+02  0.45396961611E+02  0.41800000000E+01 0. -1.
         -5    1    4    4    0  501  0.96548299792E+02 -0.12264052232E+03  0.37454666092E+02  0.16056959961E+03  0.41800000000E+01 0.  1.
</event>
<event>
11    1  0.7577197E-009  0.2490644E+03  0.7561462E-02  0.1024399E+00
         22   -1    0    0    0    0  0.00000000000E+00  0.00000000000E+00  0.89283139844E+03  0.89283139844E+03  0.00000000000E+00 0.  1.
         22   -1    0    0    0    0 -0.00000000000E+00 -0.00000000000E+00 -0.15676844409E+04  0.15676844409E+04  0.00000000000E+00 0. -1.
        -24    2    1    2    0    0  0.11027066335E+03  0.71574892993E+01 -0.13412071062E+04  0.13480618750E+04  0.78888961094E+02 0.  0.
         25    2    1    2    0    0 -0.35438239901E+01  0.18487467770E+03 -0.14618594290E+03  0.26684992470E+03  0.12508935714E+03 0.  0.
         24    2    1    2    0    0 -0.10672683936E+03 -0.19203216699E+03  0.81254000667E+03  0.84560403963E+03  0.80981220020E+02 0.  0.
        -13    1    5    5    0    0 -0.10938972352E+03 -0.19687674502E+03  0.75713798056E+03  0.78992688646E+03  0.00000000000E+00 0.  1.
         14    1    5    5    0    0  0.26628841568E+01  0.48445780229E+01  0.55402026112E+02  0.55677153174E+02  0.00000000000E+00 0. -1.
         13    1    3    3    0    0  0.66386374651E+02  0.43002688527E+02 -0.79046302079E+03  0.79441057973E+03  0.00000000000E+00 0. -1.
        -14    1    3    3    0    0  0.43884288700E+02 -0.35845199228E+02 -0.55074408541E+03  0.55365129524E+03  0.00000000000E+00 0.  1.
          5    1    4    4  501    0  0.12563784804E+02  0.16086614084E+03 -0.16601208322E+03  0.23154534789E+03  0.41800000000E+01 0.  1.
         -5    1    4    4    0  501 -0.16107608794E+02  0.24008536860E+02  0.19826140325E+02  0.35304576805E+02  0.41800000000E+01 0.  1.
</event>
<event>
11    1  0.7577197E-009  0.1582728E+03  0.7561462E-02  0.1088713E+00
         22   -1    0    0    0    0  0.00000000000E+00  0.00000000000E+00  0.12108934167E+04  0.12108934167E+04  0.00000000000E+00 0.  1.
         22   -1    0    0    0    0 -0.00000000000E+00 -0.00000000000E+00 -0.25814622504E+03  0.25814622504E+03  0.00000000000E+00 0. -1.
         24    2    1    2    0    0  0.56090927768E+01  0.95893225190E+02 -0.13839813684E+03  0.18880417938E+03  0.85240842975E+02 0.  0.
         25    2    1    2    0    0  0.65787132731E+02 -0.97521239057E+02 -0.11768559472E+02  0.17211999095E+03  0.12509377840E+03 0.  0.
        -24    2    1    2    0    0 -0.71396225508E+02  0.16280138668E+01  0.11029138879E+04  0.11081154714E+04  0.80004888843E+02 0.  0.
        -11    1    3    3    0    0  0.16597755198E+02 -0.11602516109E+02 -0.24883465158E+02  0.32082560620E+02  0.00000000000E+00 0.  1.
         12    1    3    3    0    0 -0.10988662422E+02  0.10749574130E+03 -0.11351467168E+03  0.15672161876E+03  0.00000000000E+00 0. -1.
         11    1    5    5    0    0 -0.29596223835E+02 -0.30482857187E+02  0.25083612987E+03  0.25440893281E+03  0.00000000000E+00 0. -1.
        -12    1    5    5    0    0 -0.41800001673E+02  0.32110871054E+02  0.85207775808E+03  0.85370653856E+03  0.00000000000E+00 0.  1.
          5    1    4    4  501    0 -0.21084353792E+02  0.95989872625E+01  0.19583500815E+02  0.30621502829E+02  0.41800000000E+01 0.  1.
         -5    1    4    4    0  501  0.86871486523E+02 -0.10712022632E+03 -0.31352060287E+02  0.14149848813E+03  0.41800000000E+01 0.  1.
</event>
<event>
11    1  0.7577197E-009  0.1486582E+03  0.7561462E-02  0.1098258E+00
         22   -1    0    0    0    0  0.00000000000E+00  0.00000000000E+00  0.13862297172E+03  0.13862297172E+03  0.00000000000E+00 0.  1.
         22   -1    0    0    0    0 -0.00000000000E+00 -0.00000000000E+00 -0.59204514787E+03  0.59204514787E+03  0.00000000000E+00 0. -1.
        -24    2    1    2    0    0 -0.22737866150E+01  0.16536506255E+02 -0.41306175098E+03  0.41911198651E+03  0.68965360652E+02 0.  0.
         25    2    1    2    0    0 -0.78408288317E+02 -0.97329060281E+01 -0.10453798466E+03  0.18115097124E+03  0.12507955472E+03 0.  0.
         24    2    1    2    0    0  0.80682074932E+02 -0.68036002268E+01  0.64177559488E+02  0.13040516184E+03  0.79566707238E+02 0.  0.
        -13    1    5    5    0    0  0.78592022527E+02  0.23386498472E+02  0.37928548081E+02  0.90344944935E+02  0.00000000000E+00 0.  1.
         14    1    5    5    0    0  0.20900524048E+01 -0.30190098698E+02  0.26249011407E+02  0.40060216903E+02  0.00000000000E+00 0. -1.
         11    1    3    3    0    0 -0.34272834988E+01 -0.41861885681E+01 -0.38024105471E+03  0.38027954210E+03  0.00000000000E+00 0. -1.
        -12    1    3    3    0    0  0.11534968839E+01  0.20722694823E+02 -0.32820696262E+02  0.38832444410E+02  0.00000000000E+00 0.  1.
          5    1    4    4  501    0 -0.51374418093E+02  0.39783596013E+02 -0.10618320939E+03  0.12455686132E+03  0.41800000000E+01 0. -1.
         -5    1    4    4    0  501 -0.27033870224E+02 -0.49516502041E+02  0.16452247222E+01  0.56594109924E+02  0.41800000000E+01 0. -1.
</event>
<event>
11    1  0.7577197E-009  0.2068643E+03  0.7561462E-02  0.1049773E+00
         22   -1    0    0    0    0  0.00000000000E+00  0.00000000000E+00  0.21911910668E+03  0.21911910668E+03  0.00000000000E+00 0.  1.
         22   -1    0    0    0    0 -0.00000000000E+00 -0.00000000000E+00 -0.14914661900E+04  0.14914661900E+04  0.00000000000E+00 0. -1.
         24    2    1    2    0    0  0.12958746173E+03 -0.99758991381E+02 -0.13560140859E+04  0.13682998057E+04  0.82008478396E+02 0.  0.
         25    2    1    2    0    0 -0.13493248403E+03  0.13310667926E+03  0.83789932708E+01  0.22724717947E+03  0.12508760825E+03 0.  0.
        -24    2    1    2    0    0  0.53450222993E+01 -0.33347687880E+02  0.75288009285E+02  0.11503831153E+03  0.80155419201E+02 0.  0.
        -13    1    3    3    0    0  0.85955904688E+01  0.14222158075E+02 -0.11050161689E+03  0.11174417789E+03  0.00000000000E+00 0.  1.
         14    1    3    3    0    0  0.12099187126E+03 -0.11398114946E+03 -0.12455124690E+04  0.12565556278E+04  0.00000000000E+00 0. -1.
         11    1    5    5    0    0  0.29666153668E+02  0.94896858432E+01  0.89432938644E+01  0.32405513667E+02  0.00000000000E+00 0. -1.
        -12    1    5    5    0    0 -0.24321131369E+02 -0.42837373723E+02  0.66344715421E+02  0.82632797864E+02  0.00000000000E+00 0.  1.
          5    1    4    4  501    0 -0.10818749424E+03  0.56121819434E+02  0.54429713305E+02  0.13354496852E+03  0.41800000000E+01 0.  1.
         -5    1    4    4    0  501 -0.26744989790E+02  0.76984859827E+02 -0.46050720034E+02  0.93702210951E+02  0.41800000000E+01 0.  1.
</event>
<event>
11    1  0.7577197E-009  0.1479241E+03  0.7561462E-02  0.1099019E+00
         22   -1    0    0    0    0  0.00000000000E+00  0.00000000000E+00  0.10043129648E+03  0.10043129648E+03  0.00000000000E+00 0.  1.
         22   -1    0    0    0    0 -0.00000000000E+00 -0.00000000000E+00 -0.10614469870E+04  0.10614469870E+04  0.00000000000E+00 0. -1.
         24    2    1    2    0    0  0.78995924196E+02 -0.33149347822E+01 -0.89573463263E+03  0.90289666599E+03  0.81427959049E+02 0.  0.
         25    2    1    2    0    0 -0.77873734169E+02 -0.67745700346E+01 -0.91709438520E+02  0.17369507964E+03  0.12509654794E+03 0.  0.
        -24    2    1    2    0    0 -0.11221900267E+01  0.10089504817E+02  0.26428380604E+02  0.85286537874E+02  0.80450461921E+02 0.  0.
        -13    1    3    3    0    0  0.32099663059E+02  0.35454104129E+02 -0.26930169026E+03  0.27351559780E+03  0.00000000000E+00 0.  1.
         14    1    3    3    0    0  0.46896261137E+02 -0.38769038911E+02 -0.62643294238E+03  0.62938106818E+03  0.00000000000E+00 0. -1.
         13    1    5    5    0    0 -0.28336926574E+02 -0.92276199121E+01 -0.13947031782E+02  0.32903648315E+02  0.00000000000E+00 0. -1.
        -14    1    5    5    0    0  0.27214736547E+02  0.19317124729E+02  0.40375412387E+02  0.52382889559E+02  0.00000000000E+00 0.  1.
          5    1    4    4  501    0 -0.17684803314E+02 -0.61644538473E+02 -0.27523327721E+02  0.69912855475E+02  0.41800000000E+01 0.  1.
         -5    1    4    4    0  501 -0.60188930855E+02  0.54869968438E+02 -0.64186110799E+02  0.10378222417E+03  0.41800000000E+01 0.  1.
</event>
<event>
11    1  0.7577197E-009  0.1380156E+03  0.7561462E-02  0.1109795E+00
         22   -1    0    0    0    0  0.00000000000E+00  0.00000000000E+00  0.33282764106E+03  0.33282764106E+03  0.00000000000E+00 0. -1.
         22   -1    0    0    0    0 -0.00000000000E+00 -0.00000000000E+00 -0.10146481952E+04  0.10146481952E+04  0.00000000000E+00 0. -1.
        -24    2    1    2    0    0 -0.31310134839E+02 -0.27806263602E+01 -0.41016013190E+03  0.41920475079E+03  0.80704602459E+02 0.  0.
         25    2    1    2    0    0  0.66727016596E+02 -0.43254619831E+02 -0.58248043011E+03  0.60104458636E+03  0.12509071289E+03 0.  0.
         24    2    1    2    0    0 -0.35416881757E+02  0.46035246191E+02  0.31082000788E+03  0.32722649909E+03  0.84228884608E+02 0.  0.
        -11    1    5    5    0    0  0.17888166212E+02 -0.12993375145E+02  0.84221329594E+02  0.87074948445E+02  0.00000000000E+00 0.  1.
         12    1    5    5    0    0 -0.53305047969E+02  0.59028621337E+02  0.22659867829E+03  0.24015155064E+03  0.00000000000E+00 0. -1.
         11    1    3    3    0    0 -0.47754315378E+02 -0.16022421572E+02 -0.37364768193E+03  0.37702756244E+03  0.00000000000E+00 0. -1.
        -12    1    3    3    0    0  0.16444180539E+02  0.13241795212E+02 -0.36512449971E+02  0.42177188348E+02  0.00000000000E+00 0.  1.
          5    1    4    4  501    0  0.56172928814E+02 -0.63512949614E+02 -0.19267310633E+03  0.21054617309E+03  0.41800000000E+01 0. -1.
         -5    1    4    4    0  501  0.10554087782E+02  0.20258329783E+02 -0.38980732377E+03  0.39049841326E+03  0.41800000000E+01 0. -1.
</event>
<event>
11    1  0.7577197E-009  0.1394487E+03  0.7561462E-02  0.1108176E+00
         22   -1    0    0    0    0  0.00000000000E+00  0.00000000000E+00  0.53699183176E+03  0.53699183176E+03  0.00000000000E+00 0. -1.
         22   -1    0    0    0    0 -0.00000000000E+00 -0.00000000000E+00 -0.57012888441E+03  0.57012888441E+03  0.00000000000E+00 0. -1.
        -24    2    1    2    0    0  0.61537138991E+01 -0.62746436783E+02 -0.43921907901E+03  0.45090069238E+03  0.80143942373E+02 0.  0.
         25    2    1    2    0    0 -0.34360203557E+02  0.48029691398E+02 -0.81917668593E+02  0.16076565505E+03  0.12509043358E+03 0.  0.
         24    2    1    2    0    0  0.28206489657E+02  0.14716745385E+02  0.48799969495E+03  0.49545436874E+03  0.79493022170E+02 0.  0.
        -11    1    5    5    0    0  0.13804702232E+02 -0.25263192603E+02  0.76016052192E+02  0.81284924156E+02  0.00000000000E+00 0.  1.
         12    1    5    5    0    0  0.14401787426E+02  0.39979937988E+02  0.41198364276E+03  0.41416944458E+03  0.00000000000E+00 0. -1.
         11    1    3    3    0    0  0.26049425596E+02 -0.54636016614E+02 -0.41100108378E+03  0.41543417981E+03  0.00000000000E+00 0. -1.
        -12    1    3    3    0    0 -0.19895711696E+02 -0.81104201691E+01 -0.28217995233E+02  0.35466512574E+02  0.00000000000E+00 0.  1.
          5    1    4    4  501    0  0.20984843080E+02 -0.22034209172E+02  0.10245242477E+02  0.32377575671E+02  0.41800000000E+01 0.  1.
         -5    1    4    4    0  501 -0.55345046637E+02  0.70063900570E+02 -0.92162911070E+02  0.12838807938E+03  0.41800000000E+01 0.  1.
</event>
<event>
11    1  0.7577197E-009  0.1402693E+03  0.7561462E-02  0.1107258E+00
         22   -1    0    0    0    0  0.00000000000E+00  0.00000000000E+00  0.92933886049E+03  0.92933886049E+03  0.00000000000E+00 0.  1.
         22   -1    0    0    0    0 -0.00000000000E+00 -0.00000000000E+00 -0.12801668130E+03  0.12801668130E+03  0.00000000000E+00 0. -1.
        -24    2    1    2    0    0 -0.41682685966E+02  0.18872699217E+02 -0.79493723437E+02  0.12535763519E+03  0.85449748681E+02 0.  0.
         25    2    1    2    0    0  0.85048477679E+02  0.20382537797E+02  0.27655184493E+03  0.31587463921E+03  0.12508866199E+03 0.  0.
         24    2    1    2    0    0 -0.43365791714E+02 -0.39255237014E+02  0.60426405770E+03  0.61612326739E+03  0.10512499067E+03 0.  0.
        -11    1    5    5    0    0 -0.71708879066E+02 -0.48171913339E+02  0.36828766786E+03  0.37828362754E+03  0.00000000000E+00 0.  1.
         12    1    5    5    0    0  0.28343087352E+02  0.89166763254E+01  0.23597638985E+03  0.23783963985E+03  0.00000000000E+00 0. -1.
         13    1    3    3    0    0 -0.10429905274E+02  0.39094869210E+02 -0.78273312055E+02  0.88113013242E+02  0.00000000000E+00 0. -1.
        -14    1    3    3    0    0 -0.31252780692E+02 -0.20222169993E+02 -0.12204113825E+01  0.37244621949E+02  0.00000000000E+00 0.  1.
          5    1    4    4  501    0  0.75725571954E+02 -0.42498421966E+02  0.13393763028E+03  0.15967854998E+03  0.41800000000E+01 0.  1.
         -5    1    4    4    0  501  0.93229057257E+01  0.62880959763E+02  0.14261421465E+03  0.15619608923E+03  0.41800000000E+01 0.  1.
</event>
<event>
11    1  0.7577197E-009  0.1437714E+03  0.7561462E-02  0.1103419E+00
         22   -1    0    0    0    0  0.00000000000E+00  0.00000000000E+00  0.16050351640E+04  0.16050351640E+04  0.00000000000E+00 0. -1.
         22   -1    0    0    0    0 -0.00000000000E+00 -0.00000000000E+00 -0.36984275354E+03  0.36984275354E+03  0.00000000000E+00 0.  1.
        -24    2    1    2    0    0  0.31887909167E+02 -0.10652971518E+02 -0.32407905801E+03  0.33548337180E+03  0.79947059739E+02 0.  0.
         25    2    1    2    0    0  0.26085711413E+02 -0.32848901795E+02  0.76370169297E+02  0.15244513966E+03  0.12509037996E+03 0.  0.
         24    2    1    2    0    0 -0.57973620580E+02  0.43501873313E+02  0.14829012992E+04  0.14869494061E+04  0.82273443206E+02 0.  0.
        -11    1    5    5    0    0 -0.17000568712E+01 -0.14592553197E+02  0.60792506202E+02  0.62542478464E+02  0.00000000000E+00 0.  1.
         12    1    5    5    0    0 -0.56273563708E+02  0.58094426510E+02  0.14221087930E+04  0.14244069276E+04  0.00000000000E+00 0. -1.
         11    1    3    3    0    0 -0.15382464893E+02  0.23379755485E+02 -0.12260157651E+03  0.12575523748E+03  0.00000000000E+00 0. -1.
        -12    1    3    3    0    0  0.47270374060E+02 -0.34032727003E+02 -0.20147748151E+03  0.20972813432E+03  0.00000000000E+00 0.  1.
          5    1    4    4  501    0 -0.29909696929E+02 -0.16422742673E+02  0.86490389985E+02  0.93071780938E+02  0.41800000000E+01 0. -1.
         -5    1    4    4    0  501  0.55995408342E+02 -0.16426159121E+02 -0.10120220687E+02  0.59373358720E+02  0.41800000000E+01 0. -1.
</event>
<event>
11    1  0.7577197E-009  0.1313023E+03  0.7561462E-02  0.1117679E+00
         22   -1    0    0    0    0  0.00000000000E+00  0.00000000000E+00  0.90258544658E+03  0.90258544658E+03  0.00000000000E+00 0.  1.
         22   -1    0    0    0    0 -0.00000000000E+00 -0.00000000000E+00 -0.48624045448E+02  0.48624045448E+02  0.00000000000E+00 0. -1.
        -24    2    1    2    0    0 -0.26093216261E+02 -0.27641523187E+02  0.49053193662E+02  0.10068602374E+03  0.79287765951E+02 0.  0.
         25    2    1    2    0    0  0.36767856538E+02  0.27626482293E+02  0.20129621775E+03  0.24141826856E+03  0.12509002884E+03 0.  0.
         24    2    1    2    0    0 -0.10674640276E+02  0.15040893485E-01  0.60361198971E+03  0.60910519972E+03  0.80918242880E+02 0.  0.
        -11    1    5    5    0    0 -0.34538417391E+02 -0.25911248987E+02  0.41411651231E+03  0.41636135852E+03  0.00000000000E+00 0.  1.
         12    1    5    5    0    0  0.23863777114E+02  0.25926289881E+02  0.18949547740E+03  0.19274384120E+03  0.00000000000E+00 0. -1.
         11    1    3    3    0    0 -0.31000272461E+02 -0.50636147720E+02  0.18610258074E+02  0.62220399020E+02  0.00000000000E+00 0. -1.
        -12    1    3    3    0    0  0.49070561998E+01  0.22994624534E+02  0.30442935588E+02  0.38465624721E+02  0.00000000000E+00 0.  1.
          5    1    4    4  501    0 -0.60850089979E+01  0.66500781234E+02  0.64967792903E+02  0.93261287541E+02  0.41800000000E+01 0. -1.
         -5    1    4    4    0  501  0.42852865536E+02 -0.38874298941E+02  0.13632842485E+03  0.14815698102E+03  0.41800000000E+01 0. -1.
</event>
<event>
11    1  0.7577197E-009  0.1315357E+03  0.7561462E-02  0.1117396E+00
         22   -1    0    0    0    0  0.00000000000E+00  0.00000000000E+00  0.11179573357E+04  0.11179573357E+04  0.00000000000E+00 0.  1.
         22   -1    0    0    0    0 -0.00000000000E+00 -0.00000000000E+00 -0.14642823452E+03  0.14642823452E+03  0.00000000000E+00 0.  1.
        -24    2    1    2    0    0 -0.41863073519E+02  0.83400099965E+01 -0.11662941784E+03  0.14631541933E+03  0.77354431913E+02 0.  0.
         25    2    1    2    0    0 -0.61594249212E+01 -0.27956543865E+01  0.30750760907E+03  0.33204211739E+03  0.12508110923E+03 0.  0.
         24    2    1    2    0    0  0.48022498440E+02 -0.55443556101E+01  0.78065090992E+03  0.78602803346E+03  0.78021317496E+02 0.  0.
        -11    1    5    5    0    0  0.64646648363E+02  0.10988718160E+02  0.64912944436E+03  0.65243312040E+03  0.00000000000E+00 0.  1.
         12    1    5    5    0    0 -0.16624149923E+02 -0.16533073770E+02  0.13152146557E+03  0.13359491306E+03  0.00000000000E+00 0. -1.
         11    1    3    3    0    0  0.12357717636E+02  0.73383420224E+01  0.32546143296E+01  0.14736246579E+02  0.00000000000E+00 0. -1.
        -12    1    3    3    0    0 -0.54220791155E+02  0.10016679741E+01 -0.11988403217E+03  0.13157917275E+03  0.00000000000E+00 0.  1.
          5    1    4    4  501    0 -0.34156280885E+02 -0.44254155699E+02  0.72033765654E+02  0.91276599492E+02  0.41800000000E+01 0. -1.
         -5    1    4    4    0  501  0.27996855964E+02  0.41458501313E+02  0.23547384341E+03  0.24076551789E+03  0.41800000000E+01 0. -1.
</event>
<event>
11    1  0.7577197E-009  0.1538888E+03  0.7561462E-02  0.1092970E+00
         22   -1    0    0    0    0  0.00000000000E+00  0.00000000000E+00  0.99525399599E+03  0.99525399599E+03  0.00000000000E+00 0.  1.
         22   -1    0    0    0    0 -0.00000000000E+00 -0.00000000000E+00 -0.66250348935E+02  0.66250348935E+02  0.00000000000E+00 0.  1.
        -24    2    1    2    0    0  0.31920631756E+02 -0.28060060361E+02  0.29148683808E+02  0.93455709976E+02  0.77961722917E+02 0.  0.
         25    2    1    2    0    0 -0.11611204302E+03  0.13479635530E+02  0.22432232827E+03  0.28219532557E+03  0.12509991090E+03 0.  0.
         24    2    1    2    0    0  0.84191411263E+02  0.14580424832E+02  0.67553263498E+03  0.68585330937E+03  0.82156183841E+02 0.  0.
        -11    1    5    5    0    0  0.20229966906E+01  0.96247498952E+01  0.34785839612E+03  0.34799740240E+03  0.00000000000E+00 0.  1.
         12    1    5    5    0    0  0.82168414572E+02  0.49556749365E+01  0.32767423886E+03  0.33785590698E+03  0.00000000000E+00 0. -1.
         11    1    3    3    0    0 -0.16402866411E+02 -0.69156849718E+01  0.36102235020E+02  0.40252355193E+02  0.00000000000E+00 0. -1.
        -12    1    3    3    0    0  0.48323498167E+02 -0.21144375390E+02 -0.69535512120E+01  0.53203354783E+02  0.00000000000E+00 0.  1.
          5    1    4    4  501    0 -0.50072330580E+02 -0.55955806705E+02  0.10316615998E+03  0.12766761358E+03  0.41800000000E+01 0. -1.
         -5    1    4    4    0  501 -0.66039712438E+02  0.69435442235E+02  0.12115616829E+03  0.15452771199E+03  0.41800000000E+01 0. -1.
</event>
<event>
11    1  0.7577197E-009  0.2950683E+03  0.7561462E-02  0.1002300E+00
         22   -1    0    0    0    0  0.00000000000E+00  0.00000000000E+00  0.10275642343E+04  0.10275642343E+04  0.00000000000E+00 0.  1.
         22   -1    0    0    0    0 -0.00000000000E+00 -0.00000000000E+00 -0.26088344768E+03  0.26088344768E+03  0.00000000000E+00 0. -1.
        -24    2    1    2    0    0 -0.18367701840E+03  0.17901379825E+03 -0.67359127239E+01  0.26921788542E+03  0.81545755602E+02 0.  0.
         25    2    1    2    0    0  0.13583245162E+03 -0.26040415985E+03  0.98799094132E+02  0.33417033587E+03  0.12509105080E+03 0.  0.
         24    2    1    2    0    0  0.47844566782E+02  0.81390361605E+02  0.67461760519E+03  0.68505946066E+03  0.72691525542E+02 0.  0.
        -11    1    5    5    0    0  0.53692404982E+02  0.59377314242E+02  0.32549842019E+03  0.33519809270E+03  0.00000000000E+00 0.  1.
         12    1    5    5    0    0 -0.58478381995E+01  0.22013047363E+02  0.34911918499E+03  0.34986136797E+03  0.00000000000E+00 0. -1.
         13    1    3    3    0    0 -0.48021762631E+02  0.98839936483E+02  0.11957742643E+02  0.11053691844E+03  0.00000000000E+00 0. -1.
        -14    1    3    3    0    0 -0.13565525577E+03  0.80173861766E+02 -0.18693655367E+02  0.15868096698E+03  0.00000000000E+00 0.  1.
          5    1    4    4  501    0  0.73223627820E+02 -0.28381406252E+02  0.18917970031E+02  0.80886129108E+02  0.41800000000E+01 0.  1.
         -5    1    4    4    0  501  0.62608823802E+02 -0.23202275360E+03  0.79881124101E+02  0.25328420676E+03  0.41800000000E+01 0.  1.
</event>
<event>
11    1  0.7577197E-009  0.1337431E+03  0.7561462E-02  0.1114754E+00
         22   -1    0    0    0    0  0.00000000000E+00  0.00000000000E+00  0.41161353442E+03  0.41161353442E+03  0.00000000000E+00 0. -1.
         22   -1    0    0    0    0 -0.00000000000E+00 -0.00000000000E+00 -0.22355299504E+04  0.22355299504E+04  0.00000000000E+00 0. -1.
        -24    2    1    2    0    0  0.40362981675E+02  0.77670495085E+01 -0.21835172961E+04  0.21853954098E+04  0.80720612820E+02 0.  0.
         25    2    1    2    0    0 -0.75456054427E+02  0.17019123375E+02  0.80325392520E+02  0.16758294328E+03  0.12509439429E+03 0.  0.
         24    2    1    2    0    0  0.35093072752E+02 -0.24786172883E+02  0.27927548761E+03  0.29416513178E+03  0.81807387527E+02 0.  0.
        -11    1    5    5    0    0 -0.11951467574E+02  0.19863136866E+02  0.39771202497E+02  0.46034012767E+02  0.00000000000E+00 0.  1.
         12    1    5    5    0    0  0.47044540326E+02 -0.44649309749E+02  0.23950428511E+03  0.24813111901E+03  0.00000000000E+00 0. -1.
         11    1    3    3    0    0  0.64414751920E+02  0.10142190151E+02 -0.14213703578E+04  0.14228653550E+04  0.00000000000E+00 0. -1.
        -12    1    3    3    0    0 -0.24051770245E+02 -0.23751406427E+01 -0.76214693827E+03  0.76253005479E+03  0.00000000000E+00 0.  1.
          5    1    4    4  501    0 -0.85153342950E+01 -0.45055177921E+02  0.19976851000E+00  0.46043373933E+02  0.41800000000E+01 0.  1.
         -5    1    4    4    0  501 -0.66940720132E+02  0.62074301296E+02  0.80125624010E+02  0.12153956934E+03  0.41800000000E+01 0.  1.
</event>
<event>
11    1  0.7577197E-009  0.1298696E+03  0.7561462E-02  0.1119429E+00
         22   -1    0    0    0    0  0.00000000000E+00  0.00000000000E+00  0.19241762567E+04  0.19241762567E+04  0.00000000000E+00 0.  1.
         22   -1    0    0    0    0 -0.00000000000E+00 -0.00000000000E+00 -0.17251208802E+03  0.17251208802E+03  0.00000000000E+00 0.  1.
        -24    2    1    2    0    0  0.43910761755E+02 -0.68020156241E+00 -0.11735905290E+03  0.15941059926E+03  0.98539201262E+02 0.  0.
         25    2    1    2    0    0  0.18518136070E+02 -0.16370715154E+02  0.91977509171E+02  0.15721302267E+03  0.12508057653E+03 0.  0.
         24    2    1    2    0    0 -0.62428897826E+02  0.17050916716E+02  0.17770457124E+04  0.17800647228E+04  0.80937335447E+02 0.  0.
        -11    1    5    5    0    0 -0.23134372772E+02 -0.16611674736E+01  0.14441240795E+04  0.14443103253E+04  0.00000000000E+00 0.  1.
         12    1    5    5    0    0 -0.39294525054E+02  0.18712084190E+02  0.33292163286E+03  0.33575439747E+03  0.00000000000E+00 0. -1.
         13    1    3    3    0    0 -0.17556846516E+02 -0.16894542570E+02  0.17194715767E+01  0.24425908596E+02  0.00000000000E+00 0. -1.
        -14    1    3    3    0    0  0.61467608271E+02  0.16214341008E+02 -0.11907852448E+03  0.13498469066E+03  0.00000000000E+00 0.  1.
          5    1    4    4  501    0  0.62482595453E+02 -0.67831292034E+01  0.92629473536E+02  0.11201686187E+03  0.41800000000E+01 0.  1.
         -5    1    4    4    0  501 -0.43964459383E+02 -0.95875859503E+01 -0.65196436559E+00  0.45196160796E+02  0.41800000000E+01 0.  1.
</event>
<event>
11    1  0.7577197E-009  0.1565252E+03  0.7561462E-02  0.1090392E+00
         22   -1    0    0    0    0  0.00000000000E+00  0.00000000000E+00  0.18477316996E+03  0.18477316996E+03  0.00000000000E+00 0.  1.
         22   -1    0    0    0    0 -0.00000000000E+00 -0.00000000000E+00 -0.36280231483E+03  0.36280231483E+03  0.00000000000E+00 0.  1.
        -24    2    1    2    0    0  0.78760916203E+02  0.30639000421E+02 -0.18784505080E+03  0.22141062823E+03  0.81208822892E+02 0.  0.
         25    2    1    2    0    0 -0.12906933246E+03 -0.18304058452E+02 -0.78174862021E+02  0.19685642838E+03  0.12508882126E+03 0.  0.
         24    2    1    2    0    0  0.50308416262E+02 -0.12334941969E+02  0.87990767949E+02  0.12930842818E+03  0.79342339347E+02 0.  0.
        -11    1    5    5    0    0  0.59805157690E+01 -0.55816394283E+00  0.82949386804E+02  0.83166573135E+02  0.00000000000E+00 0.  1.
         12    1    5    5    0    0  0.44327900493E+02 -0.11776778026E+02  0.50413811447E+01  0.46141855041E+02  0.00000000000E+00 0. -1.
         11    1    3    3    0    0  0.39226480368E+02 -0.26185016471E+02 -0.63548578659E+02  0.79137814597E+02  0.00000000000E+00 0. -1.
        -12    1    3    3    0    0  0.39534435835E+02  0.56824016891E+02 -0.12429647214E+03  0.14227281364E+03  0.00000000000E+00 0.  1.
          5    1    4    4  501    0 -0.39947398658E+01 -0.50088441678E+02 -0.12274644533E+02  0.51893633856E+02  0.41800000000E+01 0. -1.
         -5    1    4    4    0  501 -0.12507459260E+03  0.31784383226E+02 -0.65900217488E+02  0.14496279452E+03  0.41800000000E+01 0. -1.
</event>
<event>
11    1  0.7577197E-009  0.1342926E+03  0.7561462E-02  0.1114104E+00
         22   -1    0    0    0    0  0.00000000000E+00  0.00000000000E+00  0.45408569663E+03  0.45408569663E+03  0.00000000000E+00 0.  1.
         22   -1    0    0    0    0 -0.00000000000E+00 -0.00000000000E+00 -0.12774756932E+04  0.12774756932E+04  0.00000000000E+00 0.  1.
         24    2    1    2    0    0  0.23988534670E+02 -0.33556893093E+02 -0.10818554789E+04  0.10855977431E+04  0.80060400703E+02 0.  0.
         25    2    1    2    0    0  0.19640894640E+02  0.55868275545E+02 -0.16346992674E+03  0.21418837118E+03  0.12508881822E+03 0.  0.
        -24    2    1    2    0    0 -0.43629429309E+02 -0.22311382452E+02  0.42193540907E+03  0.43177527554E+03  0.77453691009E+02 0.  0.
        -11    1    3    3    0    0  0.39319243784E+02  0.11062154530E+02 -0.61825530890E+03  0.61960309972E+03  0.00000000000E+00 0.  1.
         12    1    3    3    0    0 -0.15330709114E+02 -0.44619047622E+02 -0.46360017002E+03  0.46599464342E+03  0.00000000000E+00 0. -1.
         11    1    5    5    0    0 -0.59688908493E+01  0.10332240085E+02  0.69522227233E+01  0.13810005211E+02  0.00000000000E+00 0. -1.
        -12    1    5    5    0    0 -0.37660538460E+02 -0.32643622537E+02  0.41498318635E+03  0.41796527033E+03  0.00000000000E+00 0.  1.
          5    1    4    4  501    0 -0.29578505940E+02  0.78547977428E+02 -0.10038625756E+03  0.13091808843E+03  0.41800000000E+01 0. -1.
         -5    1    4    4    0  501  0.49219400580E+02 -0.22679701883E+02 -0.63083669186E+02  0.83270282748E+02  0.41800000000E+01 0. -1.
</event>
<event>
11    1  0.7577197E-009  0.3192499E+03  0.7561462E-02  0.9923580E-01
         22   -1    0    0    0    0  0.00000000000E+00  0.00000000000E+00  0.22061342285E+04  0.22061342285E+04  0.00000000000E+00 0. -1.
         22   -1    0    0    0    0 -0.00000000000E+00 -0.00000000000E+00 -0.16377052794E+04  0.16377052794E+04  0.00000000000E+00 0.  1.
         24    2    1    2    0    0 -0.27355476263E+03 -0.10736895224E+03 -0.15960279619E+04  0.16248999812E+04  0.81451786779E+02 0.  0.
         25    2    1    2    0    0  0.25409310857E+03  0.12989184794E+03  0.91451875123E+03  0.96614058356E+03  0.12509148991E+03 0.  0.
        -24    2    1    2    0    0  0.19461654052E+02 -0.22522895697E+02  0.12499381598E+04  0.12527989432E+04  0.79207019602E+02 0.  0.
        -11    1    3    3    0    0 -0.25176679641E+03 -0.10776441813E+03 -0.15495831346E+04  0.15735970198E+04  0.00000000000E+00 0.  1.
         12    1    3    3    0    0 -0.21787966218E+02  0.39546588788E+00 -0.46444827283E+02  0.51302961381E+02  0.00000000000E+00 0. -1.
         13    1    5    5    0    0 -0.29681657810E+02  0.12149135491E+01  0.49506707582E+03  0.49595754495E+03  0.00000000000E+00 0. -1.
        -14    1    5    5    0    0  0.49143311862E+02 -0.23737809246E+02  0.75487108399E+03  0.75684139826E+03  0.00000000000E+00 0.  1.
          5    1    4    4  501    0  0.15984431803E+03  0.14105223016E+03  0.56341564509E+03  0.60241231658E+03  0.41800000000E+01 0. -1.
         -5    1    4    4    0  501  0.94248790546E+02 -0.11160382221E+02  0.35110310614E+03  0.36372826697E+03  0.41800000000E+01 0. -1.
</event>
<event>
11    1  0.7577197E-009  0.1382493E+03  0.7561462E-02  0.1109529E+00
         22   -1    0    0    0    0  0.00000000000E+00  0.00000000000E+00  0.18931412475E+03  0.18931412475E+03  0.00000000000E+00 0. -1.
         22   -1    0    0    0    0 -0.00000000000E+00 -0.00000000000E+00 -0.97665187645E+03  0.97665187645E+03  0.00000000000E+00 0. -1.
         24    2    1    2    0    0  0.59237488428E+02  0.24596822928E+02 -0.85076798440E+03  0.85912009531E+03  0.10083199467E+03 0.  0.
         25    2    1    2    0    0 -0.14881227542E+02  0.65204509779E+01 -0.67867394734E+02  0.14323574072E+03  0.12508607812E+03 0.  0.
        -24    2    1    2    0    0 -0.44356260887E+02 -0.31117273906E+02  0.13129762743E+03  0.16361016517E+03  0.81200101987E+02 0.  0.
        -13    1    3    3    0    0  0.11347179894E+01 -0.17303962601E+02 -0.26033014972E+02  0.31279906892E+02  0.00000000000E+00 0.  1.
         14    1    3    3    0    0  0.58102770439E+02  0.41900785530E+02 -0.82473496943E+03  0.82784018842E+03  0.00000000000E+00 0. -1.
         11    1    5    5    0    0  0.16325464558E+02 -0.29851078193E+02  0.67280600380E+02  0.75394209657E+02  0.00000000000E+00 0. -1.
        -12    1    5    5    0    0 -0.60681725445E+02 -0.12661957133E+01  0.64017027053E+02  0.88215955514E+02  0.00000000000E+00 0.  1.
          5    1    4    4  501    0 -0.30666013740E+02 -0.53307633576E+02 -0.19703816908E+02  0.64713375719E+02  0.41800000000E+01 0.  1.
         -5    1    4    4    0  501  0.15784786198E+02  0.59828084554E+02 -0.48163577826E+02  0.78522365004E+02  0.41800000000E+01 0.  1.
</event>
<event>
11    1  0.7577197E-009  0.2908138E+03  0.7561462E-02  0.1004156E+00
         22   -1    0    0    0    0  0.00000000000E+00  0.00000000000E+00  0.98379953139E+03  0.98379953139E+03  0.00000000000E+00 0.  1.
         22   -1    0    0    0    0 -0.00000000000E+00 -0.00000000000E+00 -0.18372737531E+03  0.18372737531E+03  0.00000000000E+00 0. -1.
         24    2    1    2    0    0 -0.10875978278E+03 -0.24476629275E+03 -0.88772384542E+01  0.27966772977E+03  0.79975029194E+02 0.  0.
         25    2    1    2    0    0  0.57637277611E+02  0.23317715718E+03  0.62109817865E+03  0.67757339994E+03  0.12509645232E+03 0.  0.
        -24    2    1    2    0    0  0.51122505171E+02  0.11589135564E+02  0.18785121588E+03  0.21028577698E+03  0.78639748830E+02 0.  0.
        -13    1    3    3    0    0 -0.68496855396E+01 -0.40562818375E+02  0.26192879512E+02  0.48768097806E+02  0.00000000000E+00 0.  1.
         14    1    3    3    0    0 -0.10191009724E+03 -0.20420347437E+03 -0.35070117966E+02  0.23089963196E+03  0.00000000000E+00 0. -1.
         13    1    5    5    0    0  0.33115000520E+02 -0.32766302656E+02  0.96142273936E+02  0.10683431418E+03  0.00000000000E+00 0. -1.
        -14    1    5    5    0    0  0.18007504651E+02  0.44355438219E+02  0.91708941945E+02  0.10345146280E+03  0.00000000000E+00 0.  1.
          5    1    4    4  501    0 -0.25037938883E+02  0.68871882230E+02  0.93834231249E+02  0.11913257279E+03  0.41800000000E+01 0.  1.
         -5    1    4    4    0  501  0.82675216494E+02  0.16430527495E+03  0.52726394741E+03  0.55844082716E+03  0.41800000000E+01 0.  1.
</event>
<event>
11    1  0.7577197E-009  0.1340923E+03  0.7561462E-02  0.1114341E+00
         22   -1    0    0    0    0  0.00000000000E+00  0.00000000000E+00  0.28137286259E+03  0.28137286259E+03  0.00000000000E+00 0. -1.
         22   -1    0    0    0    0 -0.00000000000E+00 -0.00000000000E+00 -0.69530353822E+03  0.69530353822E+03  0.00000000000E+00 0.  1.
         24    2    1    2    0    0  0.42785373233E+02 -0.21807063895E+02 -0.59921760749E+03  0.60594341953E+03  0.76154778848E+02 0.  0.
         25    2    1    2    0    0 -0.48226537680E+02  0.21458812921E+02 -0.32488925437E+02  0.13960550536E+03  0.12509151555E+03 0.  0.
        -24    2    1    2    0    0  0.54411644473E+01  0.34825097412E+00  0.21777585730E+03  0.23112747591E+03  0.77226022500E+02 0.  0.
        -11    1    3    3    0    0  0.50480834312E+02 -0.23299848854E+02 -0.59384049581E+03  0.59643753408E+03  0.00000000000E+00 0.  1.
         12    1    3    3    0    0 -0.76954610791E+01  0.14927849590E+01 -0.53771116775E+01  0.95058854477E+01  0.00000000000E+00 0. -1.
         13    1    5    5    0    0 -0.23643624028E+02 -0.96614429960E+01  0.18269370057E+03  0.18447046556E+03  0.00000000000E+00 0. -1.
        -14    1    5    5    0    0  0.29084788475E+02  0.10009693970E+02  0.35082156729E+02  0.46657010349E+02  0.00000000000E+00 0.  1.
          5    1    4    4  501    0  0.91602193015E+01  0.62679008109E+02 -0.25746949503E+02  0.68505076336E+02  0.41800000000E+01 0. -1.
         -5    1    4    4    0  501 -0.57386756982E+02 -0.41220195188E+02 -0.67419759339E+01  0.71100429026E+02  0.41800000000E+01 0. -1.
</event>
<event>
11    1  0.7577197E-009  0.1300990E+03  0.7561462E-02  0.1119147E+00
         22   -1    0    0    0    0  0.00000000000E+00  0.00000000000E+00  0.28220002615E+04  0.28220002615E+04  0.00000000000E+00 0. -1.
         22   -1    0    0    0    0 -0.00000000000E+00 -0.00000000000E+00 -0.50583655043E+03  0.50583655043E+03  0.00000000000E+00 0.  1.
         24    2    1    2    0    0  0.34479405995E+02 -0.74591587883E+01 -0.47304196325E+03  0.48121226107E+03  0.80944874571E+02 0.  0.
         25    2    1    2    0    0 -0.57784716499E+02  0.11601761371E+01  0.14132051095E+03  0.19737583671E+03  0.12508123212E+03 0.  0.
        -24    2    1    2    0    0  0.23305310503E+02  0.62989826512E+01  0.26478851634E+04  0.26492487142E+04  0.81486786401E+02 0.  0.
        -13    1    3    3    0    0 -0.13371412550E+02  0.12161465890E+02 -0.30156287337E+03  0.30210405909E+03  0.00000000000E+00 0.  1.
         14    1    3    3    0    0  0.47850818546E+02 -0.19620624678E+02 -0.17147908988E+03  0.17910820198E+03  0.00000000000E+00 0. -1.
         11    1    5    5    0    0  0.53796695123E+02  0.59520089101E+01  0.15719734216E+04  0.15729049396E+04  0.00000000000E+00 0. -1.
        -12    1    5    5    0    0 -0.30491384620E+02  0.34697374109E+00  0.10759117419E+04  0.10763437746E+04  0.00000000000E+00 0.  1.
          5    1    4    4  501    0  0.11091026258E+02  0.43825947133E+01  0.12598395663E+03  0.12661614323E+03  0.41800000000E+01 0.  1.
         -5    1    4    4    0  501 -0.68875742756E+02 -0.32224185762E+01  0.15336554327E+02  0.70759693473E+02  0.41800000000E+01 0.  1.
</event>
<event>
11    1  0.7577197E-009  0.1485209E+03  0.7561462E-02  0.1098400E+00
         22   -1    0    0    0    0  0.00000000000E+00  0.00000000000E+00  0.23218675766E+04  0.23218675766E+04  0.00000000000E+00 0.  1.
         22   -1    0    0    0    0 -0.00000000000E+00 -0.00000000000E+00 -0.26467964124E+03  0.26467964124E+03  0.00000000000E+00 0. -1.
        -24    2    1    2    0    0 -0.66846625490E+02 -0.42956915883E+02 -0.21925702966E+03  0.24683542420E+03  0.80872205502E+02 0.  0.
         25    2    1    2    0    0  0.91563902766E+02  0.21039292029E+02  0.16822984779E+03  0.22972995262E+03  0.12509184364E+03 0.  0.
         24    2    1    2    0    0 -0.24717277275E+02  0.21917623854E+02  0.21082151173E+04  0.21099818411E+04  0.79756271971E+02 0.  0.
        -11    1    5    5    0    0 -0.50539600057E+02  0.30347603623E+02  0.15100980723E+04  0.15112482974E+04  0.00000000000E+00 0.  1.
         12    1    5    5    0    0  0.25822322782E+02 -0.84299797685E+01  0.59811704493E+03  0.59873354370E+03  0.00000000000E+00 0. -1.
         11    1    3    3    0    0 -0.36660580715E+02 -0.56606741510E+02 -0.19336603356E+03  0.20478951217E+03  0.00000000000E+00 0. -1.
        -12    1    3    3    0    0 -0.30186044776E+02  0.13649825627E+02 -0.25890996102E+02  0.42045912025E+02  0.00000000000E+00 0.  1.
          5    1    4    4  501    0  0.30038652697E+02  0.55065871482E+02  0.14070619758E+03  0.15411124973E+03  0.41800000000E+01 0. -1.
         -5    1    4    4    0  501  0.61525250069E+02 -0.34026579453E+02  0.27523650210E+02  0.75618702886E+02  0.41800000000E+01 0. -1.
</event>
<event>
11    1  0.7577197E-009  0.1536769E+03  0.7561462E-02  0.1093180E+00
         22   -1    0    0    0    0  0.00000000000E+00  0.00000000000E+00  0.87425365395E+03  0.87425365395E+03  0.00000000000E+00 0.  1.
         22   -1    0    0    0    0 -0.00000000000E+00 -0.00000000000E+00 -0.43191399238E+03  0.43191399238E+03  0.00000000000E+00 0. -1.
         24    2    1    2    0    0  0.14666161106E+02 -0.10472022278E+02 -0.32483621189E+03  0.33532660777E+03  0.81244136951E+02 0.  0.
         25    2    1    2    0    0 -0.95172025470E+02 -0.27189956000E+02 -0.32109290036E+02  0.16271477279E+03  0.12509229647E+03 0.  0.
        -24    2    1    2    0    0  0.80505864365E+02  0.37661978278E+02  0.79928516350E+03  0.80812626577E+03  0.79446019634E+02 0.  0.
        -11    1    3    3    0    0  0.58710670149E+01  0.14228087384E+02 -0.78871987835E+01  0.17294964676E+02  0.00000000000E+00 0.  1.
         12    1    3    3    0    0  0.87950940910E+01 -0.24700109663E+02 -0.31694901311E+03  0.31803164309E+03  0.00000000000E+00 0. -1.
         13    1    5    5    0    0  0.25125534104E+02 -0.62268175804E+01  0.58409877578E+02  0.63888805904E+02  0.00000000000E+00 0. -1.
        -14    1    5    5    0    0  0.55380330261E+02  0.43888795859E+02  0.74087528592E+03  0.74423745987E+03  0.00000000000E+00 0.  1.
          5    1    4    4  501    0  0.23911121512E+02  0.19864296280E+02 -0.48943810911E+01  0.31745225861E+02  0.41800000000E+01 0.  1.
         -5    1    4    4    0  501 -0.11908314698E+03 -0.47054252280E+02 -0.27214908945E+02  0.13096954693E+03  0.41800000000E+01 0.  1.
</event>
<event>
11    1  0.7577197E-009  0.2660189E+03  0.7561462E-02  0.1015696E+00
         22   -1    0    0    0    0  0.00000000000E+00  0.00000000000E+00  0.50273423363E+03  0.50273423363E+03  0.00000000000E+00 0. -1.
         22   -1    0    0    0    0 -0.00000000000E+00 -0.00000000000E+00 -0.10356448929E+04  0.10356448929E+04  0.00000000000E+00 0. -1.
         24    2    1    2    0    0 -0.41476788173E+02  0.23320524885E+03 -0.95275865935E+03  0.98504229052E+03  0.80338279248E+02 0.  0.
         25    2    1    2    0    0  0.27874627742E+02 -0.20163333100E+03  0.18302619280E+03  0.30096405566E+03  0.12509108886E+03 0.  0.
        -24    2    1    2    0    0  0.13602160431E+02 -0.31571917852E+02  0.23682180723E+03  0.25237278038E+03  0.80160134300E+02 0.  0.
        -11    1    3    3    0    0 -0.29531464375E+02  0.19150969705E+02 -0.11338651902E+03  0.11872392229E+03  0.00000000000E+00 0.  1.
         12    1    3    3    0    0 -0.11945323799E+02  0.21405427914E+03 -0.83937214032E+03  0.86631836823E+03  0.00000000000E+00 0. -1.
         13    1    5    5    0    0  0.25432847911E+02 -0.53137402155E+02  0.19649959590E+03  0.20514020681E+03  0.00000000000E+00 0. -1.
        -14    1    5    5    0    0 -0.11830687480E+02  0.21565484303E+02  0.40322211330E+02  0.47232573570E+02  0.00000000000E+00 0.  1.
          5    1    4    4  501    0  0.29123882518E+02 -0.52055996525E+02 -0.57510674104E+01  0.60071411533E+02  0.41800000000E+01 0. -1.
         -5    1    4    4    0  501 -0.12492547760E+01 -0.14957733447E+03  0.18877726021E+03  0.24089264413E+03  0.41800000000E+01 0. -1.
</event>
<event>
11    1  0.7577197E-009  0.3623259E+03  0.7561462E-02  0.9767963E-01
         22   -1    0    0    0    0  0.00000000000E+00  0.00000000000E+00  0.94896037588E+03  0.94896037588E+03  0.00000000000E+00 0. -1.
         22   -1    0    0    0    0 -0.00000000000E+00 -0.00000000000E+00 -0.48102691654E+03  0.48102691654E+03  0.00000000000E+00 0. -1.
         24    2    1    2    0    0 -0.59965907637E+02  0.13247488076E+03 -0.28583318000E+03  0.33042175861E+03  0.79576552241E+02 0.  0.
         25    2    1    2    0    0  0.54814826519E+02  0.24412688389E+03  0.31643585948E+02  0.28151732502E+03  0.12509231436E+03 0.  0.
        -24    2    1    2    0    0  0.51510811177E+01 -0.37660176465E+03  0.72212305339E+03  0.81804820879E+03  0.76718608502E+02 0.  0.
        -11    1    3    3    0    0 -0.58320935233E+02  0.69212727364E+02 -0.10388221047E+03  0.13777970376E+03  0.00000000000E+00 0.  1.
         12    1    3    3    0    0 -0.16449724038E+01  0.63262153395E+02 -0.18195096953E+03  0.19264205486E+03  0.00000000000E+00 0. -1.
         13    1    5    5    0    0 -0.22523404627E+02 -0.27908299278E+03  0.57278116707E+03  0.63755226136E+03  0.00000000000E+00 0. -1.
        -14    1    5    5    0    0  0.27674485745E+02 -0.97518771872E+02  0.14934188631E+03  0.18049594742E+03  0.00000000000E+00 0.  1.
          5    1    4    4  501    0  0.74454571140E+01  0.12943972486E+03  0.75202022065E+02  0.14994296825E+03  0.41800000000E+01 0. -1.
         -5    1    4    4    0  501  0.47369369405E+02  0.11468715903E+03 -0.43558436117E+02  0.13157435678E+03  0.41800000000E+01 0. -1.
</event>
<event>
11    1  0.7577197E-009  0.1851273E+03  0.7561462E-02  0.1065569E+00
         22   -1    0    0    0    0  0.00000000000E+00  0.00000000000E+00  0.64935415842E+03  0.64935415842E+03  0.00000000000E+00 0.  1.
         22   -1    0    0    0    0 -0.00000000000E+00 -0.00000000000E+00 -0.12663867343E+04  0.12663867343E+04  0.00000000000E+00 0. -1.
         24    2    1    2    0    0 -0.10275347569E+03  0.87881485666E+02 -0.11977046068E+04  0.12082273036E+04  0.83877648194E+02 0.  0.
         25    2    1    2    0    0  0.14840900544E+03 -0.12095530675E+03  0.16995737695E+03  0.28493228461E+03  0.12508188401E+03 0.  0.
        -24    2    1    2    0    0 -0.45655529752E+02  0.33073821081E+02  0.41071465399E+03  0.42258130443E+03  0.81915363714E+02 0.  0.
        -13    1    3    3    0    0 -0.41829775262E+02  0.43850048743E+02 -0.23839366651E+03  0.24597580594E+03  0.00000000000E+00 0.  1.
         14    1    3    3    0    0 -0.60923700424E+02  0.44031436923E+02 -0.95931094027E+03  0.96225149771E+03  0.00000000000E+00 0. -1.
         11    1    5    5    0    0  0.48552242442E+01 -0.11322307130E+02  0.89496799073E+01  0.15227101223E+02  0.00000000000E+00 0. -1.
        -12    1    5    5    0    0 -0.50510753996E+02  0.44396128211E+02  0.40176497408E+03  0.40735420320E+03  0.00000000000E+00 0.  1.
          5    1    4    4  501    0 -0.48845813661E+01 -0.63701830307E+02  0.36253766565E+02  0.73577104522E+02  0.41800000000E+01 0. -1.
         -5    1    4    4    0  501  0.15329358680E+03 -0.57253476440E+02  0.13370361039E+03  0.21135518009E+03  0.41800000000E+01 0. -1.
</event>
<event>
11    1  0.7577197E-009  0.1818292E+03  0.7561462E-02  0.1068173E+00
         22   -1    0    0    0    0  0.00000000000E+00  0.00000000000E+00  0.33223777383E+03  0.33223777383E+03  0.00000000000E+00 0. -1.
         22   -1    0    0    0    0 -0.00000000000E+00 -0.00000000000E+00 -0.18724779809E+04  0.18724779809E+04  0.00000000000E+00 0.  1.
         24    2    1    2    0    0 -0.12854161209E+03  0.12193083516E+02 -0.16523373477E+04  0.16593156360E+04  0.80237472450E+02 0.  0.
         25    2    1    2    0    0  0.18097391870E+03  0.85047927925E+01 -0.14932119508E+03  0.26602400123E+03  0.12509220270E+03 0.  0.
        -24    2    1    2    0    0 -0.52432306613E+02 -0.20697876309E+02  0.26141833566E+03  0.27937611753E+03  0.80832666445E+02 0.  0.
        -13    1    3    3    0    0 -0.88514541790E+02 -0.18330299527E+01 -0.64051148831E+03  0.64660123010E+03  0.00000000000E+00 0.  1.
         14    1    3    3    0    0 -0.40027070301E+02  0.14026113469E+02 -0.10118258593E+04  0.10127144059E+04  0.00000000000E+00 0. -1.
         13    1    5    5    0    0 -0.11393793404E+02  0.15592713703E+02  0.18125971503E+03  0.18228558786E+03  0.00000000000E+00 0. -1.
        -14    1    5    5    0    0 -0.41038513209E+02 -0.36290590012E+02  0.80158620636E+02  0.97090529673E+02  0.00000000000E+00 0.  1.
          5    1    4    4  501    0  0.48348028871E+02 -0.53991842400E+02 -0.60924674195E+02  0.94773093583E+02  0.41800000000E+01 0.  1.
         -5    1    4    4    0  501  0.13262588983E+03  0.62496635192E+02 -0.88396520881E+02  0.17125090764E+03  0.41800000000E+01 0.  1.
</event>
<event>
11    1  0.7577197E-009  0.1621511E+03  0.7561462E-02  0.1085071E+00
         22   -1    0    0    0    0  0.00000000000E+00  0.00000000000E+00  0.44432260876E+04  0.44432260876E+04  0.00000000000E+00 0. -1.
         22   -1    0    0    0    0 -0.00000000000E+00 -0.00000000000E+00 -0.56711664244E+03  0.56711664244E+03  0.00000000000E+00 0. -1.
        -24    2    1    2    0    0 -0.20973836689E+02 -0.73921689160E+02 -0.55582844675E+03  0.56691164018E+03  0.80865490768E+02 0.  0.
         25    2    1    2    0    0  0.11233675615E+03  0.18625958681E+02  0.17419037467E+04  0.17500980941E+04  0.12509277778E+03 0.  0.
         24    2    1    2    0    0 -0.91362919464E+02  0.55295730480E+02  0.26900341452E+04  0.26933329958E+04  0.79712752195E+02 0.  0.
        -11    1    5    5    0    0 -0.67174482235E+02  0.30912085724E+02  0.92042373773E+03  0.92338931393E+03  0.00000000000E+00 0.  1.
         12    1    5    5    0    0 -0.24188437230E+02  0.24383644756E+02  0.17696104075E+04  0.17699436819E+04  0.00000000000E+00 0. -1.
         11    1    3    3    0    0 -0.43003603278E+02 -0.27565023801E+02 -0.16494778917E+03  0.17267574694E+03  0.00000000000E+00 0. -1.
        -12    1    3    3    0    0  0.22029766589E+02 -0.46356665359E+02 -0.39088065759E+03  0.39423589323E+03  0.00000000000E+00 0.  1.
          5    1    4    4  501    0  0.10393332331E+03 -0.33421718528E+02  0.13842924897E+04  0.13885972477E+04  0.41800000000E+01 0.  1.
         -5    1    4    4    0  501  0.84034328470E+01  0.52047677209E+02  0.35761125702E+03  0.36150084638E+03  0.41800000000E+01 0.  1.
</event>
<event>
11    1  0.7577197E-009  0.1454010E+03  0.7561462E-02  0.1101673E+00
         22   -1    0    0    0    0  0.00000000000E+00  0.00000000000E+00  0.62281255054E+03  0.62281255054E+03  0.00000000000E+00 0. -1.
         22   -1    0    0    0    0 -0.00000000000E+00 -0.00000000000E+00 -0.49517106725E+03  0.49517106725E+03  0.00000000000E+00 0.  1.
        -24    2    1    2    0    0 -0.17755111508E+02 -0.69076038899E+02 -0.40834812882E+03  0.42212924416E+03  0.79738079543E+02 0.  0.
         25    2    1    2    0    0  0.95656044210E+01  0.11343469864E+03  0.18603819290E+02  0.17015622660E+03  0.12509239671E+03 0.  0.
         24    2    1    2    0    0  0.81895070866E+01 -0.44358659744E+02  0.51738579283E+03  0.52569814703E+03  0.81459956145E+02 0.  0.
        -13    1    5    5    0    0  0.28225316530E+02 -0.39467548063E+02  0.14828889967E+03  0.15602549025E+03  0.00000000000E+00 0.  1.
         14    1    5    5    0    0 -0.20035809443E+02 -0.48911116813E+01  0.36909689316E+03  0.36967265678E+03  0.00000000000E+00 0. -1.
         11    1    3    3    0    0 -0.47847263393E+02 -0.26390137848E+02 -0.19913856711E+03  0.20649931937E+03  0.00000000000E+00 0. -1.
        -12    1    3    3    0    0  0.30092151885E+02 -0.42685901052E+02 -0.20920956171E+03  0.21562992479E+03  0.00000000000E+00 0.  1.
          5    1    4    4  501    0  0.63844250992E+02  0.83510341577E+02  0.23656484084E+02  0.10782934283E+03  0.41800000000E+01 0.  1.
         -5    1    4    4    0  501 -0.54278646571E+02  0.29924357067E+02 -0.50526647935E+01  0.62326883774E+02  0.41800000000E+01 0.  1.
</event>
<event>
11    1  0.7577197E-009  0.1440780E+03  0.7561462E-02  0.1103088E+00
         22   -1    0    0    0    0  0.00000000000E+00  0.00000000000E+00  0.68709790107E+03  0.68709790107E+03  0.00000000000E+00 0.  1.
         22   -1    0    0    0    0 -0.00000000000E+00 -0.00000000000E+00 -0.17165381133E+04  0.17165381133E+04  0.00000000000E+00 0. -1.
        -24    2    1    2    0    0 -0.15612942873E+01 -0.56514604900E+01 -0.14607898690E+04  0.14631715751E+04  0.83244459569E+02 0.  0.
         25    2    1    2    0    0 -0.68653850499E+02 -0.80600334738E+01 -0.22928711572E+03  0.27018191500E+03  0.12508944971E+03 0.  0.
         24    2    1    2    0    0  0.70215144786E+02  0.13711493964E+02  0.66063677251E+03  0.67028252428E+03  0.87860944337E+02 0.  0.
        -13    1    5    5    0    0  0.55532454773E+02  0.43095003890E+02  0.56062760414E+03  0.56501711781E+03  0.00000000000E+00 0.  1.
         14    1    5    5    0    0  0.14682690013E+02 -0.29383509927E+02  0.10000916837E+03  0.10526540647E+03  0.00000000000E+00 0. -1.
         11    1    3    3    0    0  0.18148839149E+02 -0.12600638499E+02 -0.13627404976E+04  0.13629195942E+04  0.00000000000E+00 0. -1.
        -12    1    3    3    0    0 -0.19710133437E+02  0.69491780091E+01 -0.98049371459E+02  0.10025198092E+03  0.00000000000E+00 0.  1.
          5    1    4    4  501    0 -0.30987627864E+01 -0.13901097776E+02 -0.19553782870E+03  0.19610037660E+03  0.41800000000E+01 0.  1.
         -5    1    4    4    0  501 -0.65555087713E+02  0.58410643025E+01 -0.33749287022E+02  0.74081538400E+02  0.41800000000E+01 0.  1.
</event>
<event>
11    1  0.7577197E-009  0.1625202E+03  0.7561462E-02  0.1084731E+00
         22   -1    0    0    0    0  0.00000000000E+00  0.00000000000E+00  0.28002317496E+03  0.28002317496E+03  0.00000000000E+00 0. -1.
         22   -1    0    0    0    0 -0.00000000000E+00 -0.00000000000E+00 -0.77784018366E+03  0.77784018366E+03  0.00000000000E+00 0.  1.
         24    2    1    2    0    0 -0.32219266488E+02  0.29484696619E+02 -0.69293861766E+03  0.69881206612E+03  0.79164053993E+02 0.  0.
         25    2    1    2    0    0  0.39110245421E+02  0.87566652902E+02  0.13231087820E+03  0.20579299375E+03  0.12508820004E+03 0.  0.
        -24    2    1    2    0    0 -0.68909789328E+01 -0.11705134952E+03  0.62810730761E+02  0.15325829876E+03  0.76121049809E+02 0.  0.
        -13    1    3    3    0    0 -0.37152980573E+01  0.28902342395E+02 -0.61716354038E+03  0.61785110213E+03  0.00000000000E+00 0.  1.
         14    1    3    3    0    0 -0.28503968431E+02  0.58235422443E+00 -0.75775077280E+02  0.80960963986E+02  0.00000000000E+00 0. -1.
         13    1    5    5    0    0 -0.19804638217E+02 -0.70873641332E+02  0.73634417703E+02  0.10410246972E+03  0.00000000000E+00 0. -1.
        -14    1    5    5    0    0  0.12913659284E+02 -0.46177708189E+02 -0.10823686943E+02  0.49155829041E+02  0.00000000000E+00 0.  1.
          5    1    4    4  501    0  0.81670914336E+02  0.45176507577E+02  0.57280724039E+02  0.10958836084E+03  0.41800000000E+01 0. -1.
         -5    1    4    4    0  501 -0.42560668915E+02  0.42390145325E+02  0.75030154162E+02  0.96204632907E+02  0.41800000000E+01 0. -1.
</event>
<event>
11    1  0.7577197E-009  0.1764197E+03  0.7561462E-02  0.1072576E+00
         22   -1    0    0    0    0  0.00000000000E+00  0.00000000000E+00  0.31347573241E+03  0.31347573241E+03  0.00000000000E+00 0.  1.
         22   -1    0    0    0    0 -0.00000000000E+00 -0.00000000000E+00 -0.74735704611E+03  0.74735704611E+03  0.00000000000E+00 0.  1.
        -24    2    1    2    0    0  0.51522508983E+02  0.11076024094E+03 -0.65422191708E+03  0.67086116186E+03  0.84415530590E+02 0.  0.
         25    2    1    2    0    0 -0.48457535424E+02 -0.16389496009E+03  0.97029873312E+02  0.23295836185E+03  0.12508041956E+03 0.  0.
         24    2    1    2    0    0 -0.30649735589E+01  0.53134719157E+02  0.12331073006E+03  0.15701325482E+03  0.81332242049E+02 0.  0.
        -13    1    5    5    0    0  0.25844047650E+02  0.49204263864E+02  0.11324907770E+03  0.12615200347E+03  0.00000000000E+00 0.  1.
         14    1    5    5    0    0 -0.28909021209E+02  0.39304552926E+01  0.10061652365E+02  0.30861251342E+02  0.00000000000E+00 0. -1.
         13    1    3    3    0    0 -0.83438131769E+01  0.10576321734E+00 -0.53666319368E+01  0.99212470252E+01  0.00000000000E+00 0. -1.
        -14    1    3    3    0    0  0.59866322160E+02  0.11065447772E+03 -0.64885528514E+03  0.66093991484E+03  0.00000000000E+00 0.  1.
          5    1    4    4  501    0  0.20427326342E+02  0.66478980024E+01  0.30036552492E+02  0.37163652874E+02  0.41800000000E+01 0. -1.
         -5    1    4    4    0  501 -0.68884861766E+02 -0.17054285809E+03  0.66993320820E+02  0.19579470897E+03  0.41800000000E+01 0. -1.
</event>
<event>
11    1  0.7577197E-009  0.1435649E+03  0.7561462E-02  0.1103642E+00
         22   -1    0    0    0    0  0.00000000000E+00  0.00000000000E+00  0.63696043073E+03  0.63696043073E+03  0.00000000000E+00 0.  1.
         22   -1    0    0    0    0 -0.00000000000E+00 -0.00000000000E+00 -0.40134864728E+03  0.40134864728E+03  0.00000000000E+00 0.  1.
         24    2    1    2    0    0  0.63041956877E+02  0.42419889395E+02 -0.23351358946E+03  0.25852130808E+03  0.80814200034E+02 0.  0.
         25    2    1    2    0    0 -0.73439863768E+02  0.23588680312E+02 -0.11437813064E+03  0.18622330945E+03  0.12508766839E+03 0.  0.
        -24    2    1    2    0    0  0.10397906892E+02 -0.66008569707E+02  0.58350350355E+03  0.59356446048E+03  0.85890525339E+02 0.  0.
        -13    1    3    3    0    0 -0.71549949486E+01  0.99540878535E+01 -0.12313346890E+03  0.12374218755E+03  0.00000000000E+00 0.  1.
         14    1    3    3    0    0  0.70196951825E+02  0.32465801542E+02 -0.11038012056E+03  0.13477912053E+03  0.00000000000E+00 0. -1.
         11    1    5    5    0    0  0.49433691218E+01 -0.16019760720E+01 -0.11719421321E+01  0.53269760626E+01  0.00000000000E+00 0. -1.
        -12    1    5    5    0    0  0.54545377700E+01 -0.64406593635E+02  0.58467544569E+03  0.58823748442E+03  0.00000000000E+00 0.  1.
          5    1    4    4  501    0 -0.26240866795E+02  0.13964727790E+02  0.24767361571E+02  0.38916465816E+02  0.41800000000E+01 0.  1.
         -5    1    4    4    0  501 -0.47198996974E+02  0.96239525215E+01 -0.13914549222E+03  0.14730684363E+03  0.41800000000E+01 0.  1.
</event>
<event>
11    1  0.7577197E-009  0.2125218E+03  0.7561462E-02  0.1046006E+00
         22   -1    0    0    0    0  0.00000000000E+00  0.00000000000E+00  0.21059311864E+04  0.21059311864E+04  0.00000000000E+00 0.  1.
         22   -1    0    0    0    0 -0.00000000000E+00 -0.00000000000E+00 -0.56772255149E+03  0.56772255149E+03  0.00000000000E+00 0.  1.
        -24    2    1    2    0    0  0.10299477151E+03 -0.13895905624E+03 -0.48373911400E+03  0.52011608584E+03  0.81238353398E+02 0.  0.
         25    2    1    2    0    0 -0.11570753434E+03  0.11495127260E+03  0.97504129362E+02  0.22750294218E+03  0.12509398420E+03 0.  0.
         24    2    1    2    0    0  0.12712762830E+02  0.24007783640E+02  0.19244436196E+04  0.19260347099E+04  0.73406203888E+02 0.  0.
        -11    1    5    5    0    0 -0.12193877309E+00  0.48384367639E+01  0.17572905596E+04  0.17572972247E+04  0.00000000000E+00 0.  1.
         12    1    5    5    0    0  0.12834701603E+02  0.19169346876E+02  0.16715306004E+03  0.16873748518E+03  0.00000000000E+00 0. -1.
         11    1    3    3    0    0  0.13913800343E+02  0.85362316283E+00 -0.11478766265E+03  0.11563100799E+03  0.00000000000E+00 0. -1.
        -12    1    3    3    0    0  0.89080971168E+02 -0.13981267941E+03 -0.36895145135E+03  0.40448507785E+03  0.00000000000E+00 0.  1.
          5    1    4    4  501    0 -0.12233907283E+03  0.40458305083E+02  0.75633093958E+02  0.14947093527E+03  0.41800000000E+01 0. -1.
         -5    1    4    4    0  501  0.66315384853E+01  0.74492967520E+02  0.21871035403E+02  0.78032006909E+02  0.41800000000E+01 0. -1.
</event>
<event>
11    1  0.7577197E-009  0.1469721E+03  0.7561462E-02  0.1100013E+00
         22   -1    0    0    0    0  0.00000000000E+00  0.00000000000E+00  0.20128828794E+04  0.20128828794E+04  0.00000000000E+00 0. -1.
         22   -1    0    0    0    0 -0.00000000000E+00 -0.00000000000E+00 -0.16762630923E+03  0.16762630923E+03  0.00000000000E+00 0. -1.
         24    2    1    2    0    0 -0.19069306106E+02 -0.22664149444E+02 -0.14475599548E+03  0.16809966541E+03  0.80161693948E+02 0.  0.
         25    2    1    2    0    0  0.92190669566E+02  0.12235254942E+02  0.66909478598E+03  0.68701051500E+03  0.12508714593E+03 0.  0.
        -24    2    1    2    0    0 -0.73121363460E+02  0.10428894502E+02  0.13209177797E+04  0.13253990082E+04  0.80020339265E+02 0.  0.
        -11    1    3    3    0    0  0.15425046476E+02  0.21018920963E+02 -0.71443001094E+02  0.76051492441E+02  0.00000000000E+00 0.  1.
         12    1    3    3    0    0 -0.34494352582E+02 -0.43683070407E+02 -0.73312994391E+02  0.92048172968E+02  0.00000000000E+00 0. -1.
         11    1    5    5    0    0 -0.83442593881E+02  0.26549851400E+02  0.11699928158E+04  0.11732649957E+04  0.00000000000E+00 0. -1.
        -12    1    5    5    0    0  0.10321230421E+02 -0.16120956898E+02  0.15092496391E+03  0.15213401257E+03  0.00000000000E+00 0.  1.
          5    1    4    4  501    0  0.90852100215E+02 -0.20145355025E+02  0.62618152086E+03  0.63307243575E+03  0.41800000000E+01 0.  1.
         -5    1    4    4    0  501  0.13385693514E+01  0.32380609966E+02  0.42913265116E+02  0.53938079245E+02  0.41800000000E+01 0.  1.
</event>
<event>
11    1  0.7577197E-009  0.1562007E+03  0.7561462E-02  0.1090706E+00
         22   -1    0    0    0    0  0.00000000000E+00  0.00000000000E+00  0.25121831759E+03  0.25121831759E+03  0.00000000000E+00 0.  1.
         22   -1    0    0    0    0 -0.00000000000E+00 -0.00000000000E+00 -0.21185396426E+04  0.21185396426E+04  0.00000000000E+00 0. -1.
        -24    2    1    2    0    0 -0.15629783488E+02  0.90052688919E+02 -0.18526487152E+04  0.18565596933E+04  0.78440141285E+02 0.  0.
         25    2    1    2    0    0 -0.10273568853E+02 -0.13334878272E+03 -0.21955557576E+03  0.28590223302E+03  0.12509193390E+03 0.  0.
         24    2    1    2    0    0  0.25903352341E+02  0.43296093799E+02  0.20488296600E+03  0.22729603388E+03  0.84503975432E+02 0.  0.
        -11    1    5    5    0    0  0.85981544109E+01 -0.20566222709E+02  0.10599848681E+03  0.10831702074E+03  0.00000000000E+00 0.  1.
         12    1    5    5    0    0  0.17305197930E+02  0.63862316508E+02  0.98884479181E+02  0.11897901314E+03  0.00000000000E+00 0. -1.
         11    1    3    3    0    0 -0.39495005719E+02  0.80352179229E+02 -0.16236018640E+04  0.16260686766E+04  0.00000000000E+00 0. -1.
        -12    1    3    3    0    0  0.23865222230E+02  0.97005096903E+01 -0.22904685123E+03  0.23049101670E+03  0.00000000000E+00 0.  1.
          5    1    4    4  501    0 -0.93259037671E+01 -0.36382331345E+02  0.78961298066E+01  0.38606576915E+02  0.41800000000E+01 0. -1.
         -5    1    4    4    0  501 -0.94766508552E+00 -0.96966451373E+02 -0.22745170557E+03  0.24729565610E+03  0.41800000000E+01 0. -1.
</event>
<event>
11    1  0.7577197E-009  0.1857450E+03  0.7561462E-02  0.1065088E+00
         22   -1    0    0    0    0  0.00000000000E+00  0.00000000000E+00  0.83007469561E+03  0.83007469561E+03  0.00000000000E+00 0. -1.
         22   -1    0    0    0    0 -0.00000000000E+00 -0.00000000000E+00 -0.36558464391E+03  0.36558464391E+03  0.00000000000E+00 0. -1.
        -24    2    1    2    0    0 -0.67311504949E+01  0.14520632699E+03 -0.28964216767E+03  0.33414434301E+03  0.81422790979E+02 0.  0.
         25    2    1    2    0    0  0.60400108002E+02 -0.83658814408E+02  0.87972888089E+02  0.18448283552E+03  0.12509083615E+03 0.  0.
         24    2    1    2    0    0 -0.53668957507E+02 -0.61547512579E+02  0.66615933128E+03  0.67703216099E+03  0.89083326444E+02 0.  0.
        -13    1    5    5    0    0 -0.34644727542E+02 -0.50381043104E+02  0.17493188306E+03  0.18530966074E+03  0.00000000000E+00 0.  1.
         14    1    5    5    0    0 -0.19024229965E+02 -0.11166469474E+02  0.49122744822E+03  0.49172250025E+03  0.00000000000E+00 0. -1.
         11    1    3    3    0    0 -0.41280432346E+02  0.47776823095E+02 -0.11545002998E+03  0.13158802507E+03  0.00000000000E+00 0. -1.
        -12    1    3    3    0    0  0.34549281851E+02  0.97429503892E+02 -0.17419213769E+03  0.20255631794E+03  0.00000000000E+00 0.  1.
          5    1    4    4  501    0  0.94458992174E+02 -0.53558676547E+02  0.86368481623E+02  0.13880929383E+03  0.41800000000E+01 0.  1.
         -5    1    4    4    0  501 -0.34058884172E+02 -0.30100137861E+02  0.16044064659E+01  0.45673541689E+02  0.41800000000E+01 0.  1.
</event>
<event>
11    1  0.7577197E-009  0.1648422E+03  0.7561462E-02  0.1082609E+00
         22   -1    0    0    0    0  0.00000000000E+00  0.00000000000E+00  0.14173168684E+04  0.14173168684E+04  0.00000000000E+00 0.  1.
         22   -1    0    0    0    0 -0.00000000000E+00 -0.00000000000E+00 -0.67207431279E+02  0.67207431279E+02  0.00000000000E+00 0.  1.
         24    2    1    2    0    0  0.10398549143E+03 -0.33732459251E+02  0.46381330191E+02  0.14455284310E+03  0.82422299309E+02 0.  0.
         25    2    1    2    0    0 -0.72153761177E+02  0.85317321015E+02  0.45577155675E+03  0.48565417709E+03  0.12508819795E+03 0.  0.
        -24    2    1    2    0    0 -0.31831730255E+02 -0.51584861764E+02  0.84795655021E+03  0.85431727952E+03  0.84578046922E+02 0.  0.
        -13    1    3    3    0    0  0.87904802481E+02 -0.59556496502E+02  0.31957661829E+02  0.11088517811E+03  0.00000000000E+00 0.  1.
         14    1    3    3    0    0  0.16080688951E+02  0.25824037251E+02  0.14423668363E+02  0.33667664994E+02  0.00000000000E+00 0. -1.
         13    1    5    5    0    0 -0.19206870619E+02 -0.27952495315E+00  0.62079359570E+03  0.62109071034E+03  0.00000000000E+00 0. -1.
        -14    1    5    5    0    0 -0.12624859635E+02 -0.51305336811E+02  0.22716295451E+03  0.23322656918E+03  0.00000000000E+00 0.  1.
          5    1    4    4  501    0  0.14266385521E+01  0.44242567046E+02  0.35217722464E+02  0.56720370344E+02  0.41800000000E+01 0.  1.
         -5    1    4    4    0  501 -0.73580399729E+02  0.41074753969E+02  0.42055383428E+03  0.42893380674E+03  0.41800000000E+01 0.  1.
</event>
<event>
11    1  0.7577197E-009  0.1299524E+03  0.7561462E-02  0.1119328E+00
         22   -1    0    0    0    0  0.00000000000E+00  0.00000000000E+00  0.35978939594E+02  0.35978939594E+02  0.00000000000E+00 0. -1.
         22   -1    0    0    0    0 -0.00000000000E+00 -0.00000000000E+00 -0.18295374263E+04  0.18295374263E+04  0.00000000000E+00 0.  1.
         24    2    1    2    0    0  0.73325851083E+01 -0.37150338089E+02 -0.12688738303E+04  0.12719906849E+04  0.80533165152E+02 0.  0.
         25    2    1    2    0    0 -0.18755231444E+02 -0.10644247158E+01 -0.47126874631E+03  0.48794959411E+03  0.12509070081E+03 0.  0.
        -24    2    1    2    0    0  0.11422646336E+02  0.38214762805E+02 -0.53415910092E+02  0.10557608694E+03  0.81867000297E+02 0.  0.
        -11    1    3    3    0    0  0.85310083687E+01 -0.28985212915E+02 -0.12578861392E+04  0.12582489658E+04  0.00000000000E+00 0.  1.
         12    1    3    3    0    0 -0.11984232603E+01 -0.81651251742E+01 -0.10987691099E+02  0.13741719074E+02  0.00000000000E+00 0. -1.
         11    1    5    5    0    0 -0.12859736949E+02  0.57576519731E+02 -0.27332140527E+02  0.65019030787E+02  0.00000000000E+00 0. -1.
        -12    1    5    5    0    0  0.24282383285E+02 -0.19361756926E+02 -0.26083769565E+02  0.40557056155E+02  0.00000000000E+00 0.  1.
          5    1    4    4  501    0  0.79348517709E+01 -0.56973467821E+02 -0.30628058885E+03  0.31166361580E+03  0.41800000000E+01 0. -1.
         -5    1    4    4    0  501 -0.26690083215E+02  0.55909043105E+02 -0.16498815747E+03  0.17628597831E+03  0.41800000000E+01 0. -1.
</event>
<event>
11    1  0.7577197E-009  0.1310304E+03  0.7561462E-02  0.1118009E+00
         22   -1    0    0    0    0  0.00000000000E+00  0.00000000000E+00  0.13874672127E+04  0.13874672127E+04  0.00000000000E+00 0. -1.
         22   -1    0    0    0    0 -0.00000000000E+00 -0.00000000000E+00 -0.92428554832E+03  0.92428554832E+03  0.00000000000E+00 0. -1.
         24    2    1    2    0    0  0.31553699959E+02  0.33303297293E+01 -0.88329820549E+03  0.88766359019E+03  0.82001234404E+02 0.  0.
         25    2    1    2    0    0 -0.67434027684E+02  0.86017216948E+01  0.98953268281E+02  0.17338114621E+03  0.12509170577E+03 0.  0.
        -24    2    1    2    0    0  0.35880327725E+02 -0.11932051424E+02  0.12475266016E+04  0.12507080247E+04  0.80735180659E+02 0.  0.
        -13    1    3    3    0    0  0.14172115922E+02 -0.26564955452E+02 -0.12491681617E+03  0.12849418933E+03  0.00000000000E+00 0.  1.
         14    1    3    3    0    0  0.17381584037E+02  0.29895285182E+02 -0.75838138931E+03  0.75916940086E+03  0.00000000000E+00 0. -1.
         11    1    5    5    0    0  0.60324504814E+02  0.20891533541E+01  0.91551650139E+03  0.91750415517E+03  0.00000000000E+00 0. -1.
        -12    1    5    5    0    0 -0.24444177090E+02 -0.14021204778E+02  0.33201010025E+03  0.33320386949E+03  0.00000000000E+00 0.  1.
          5    1    4    4  501    0  0.34649990200E+00  0.27318977188E+02 -0.20700921828E+02  0.34531827946E+02  0.41800000000E+01 0. -1.
         -5    1    4    4    0  501 -0.67780527586E+02 -0.18717255493E+02  0.11965419011E+03  0.13884931827E+03  0.41800000000E+01 0. -1.
</event>
<event>
11    1  0.7577197E-009  0.1853806E+03  0.7561462E-02  0.1065372E+00
         22   -1    0    0    0    0  0.00000000000E+00  0.00000000000E+00  0.60037912873E+03  0.60037912873E+03  0.00000000000E+00 0. -1.
         22   -1    0    0    0    0 -0.00000000000E+00 -0.00000000000E+00 -0.45030640901E+03  0.45030640901E+03  0.00000000000E+00 0.  1.
        -24    2    1    2    0    0  0.52664806075E+02 -0.12809878457E+03 -0.37295192087E+03  0.40630524593E+03  0.82510224687E+02 0.  0.
         25    2    1    2    0    0  0.55072848979E+02  0.14486948316E+03  0.15580855451E+03  0.25287137901E+03  0.12508973905E+03 0.  0.
         24    2    1    2    0    0 -0.10773765505E+03 -0.16770698589E+02  0.36721608607E+03  0.39150891281E+03  0.80888295150E+02 0.  0.
        -11    1    5    5    0    0 -0.11422274859E+02 -0.18759989970E+02  0.17631334233E+03  0.17767611058E+03  0.00000000000E+00 0.  1.
         12    1    5    5    0    0 -0.96315380195E+02  0.19892913809E+01  0.19090274374E+03  0.21383280223E+03  0.00000000000E+00 0. -1.
         11    1    3    3    0    0  0.10523118080E+02 -0.98275327578E+02 -0.16768936613E+03  0.19464968415E+03  0.00000000000E+00 0. -1.
        -12    1    3    3    0    0  0.42141687995E+02 -0.29823456994E+02 -0.20526255474E+03  0.21165556178E+03  0.00000000000E+00 0.  1.
          5    1    4    4  501    0  0.40531057741E+02  0.14333874885E+03  0.17404612245E+03  0.22912505036E+03  0.41800000000E+01 0.  1.
         -5    1    4    4    0  501  0.14541791237E+02  0.15307343148E+01 -0.18237567938E+02  0.23746328647E+02  0.41800000000E+01 0.  1.
</event>
<event>
11    1  0.7577197E-009  0.1397106E+03  0.7561462E-02  0.1107882E+00
         22   -1    0    0    0    0  0.00000000000E+00  0.00000000000E+00  0.42190636070E+03  0.42190636070E+03  0.00000000000E+00 0.  1.
         22   -1    0    0    0    0 -0.00000000000E+00 -0.00000000000E+00 -0.72975241151E+03  0.72975241151E+03  0.00000000000E+00 0. -1.
        -24    2    1    2    0    0  0.59300235588E+02 -0.17566539849E+02 -0.67791555344E+03  0.68508582689E+03  0.77123221858E+02 0.  0.
         25    2    1    2    0    0 -0.88555877267E+02 -0.25123186507E+02  0.11173323370E+03  0.19132331756E+03  0.12508788283E+03 0.  0.
         24    2    1    2    0    0  0.29255641679E+02  0.42689726356E+02  0.25833626893E+03  0.27524962776E+03  0.79664448966E+02 0.  0.
        -11    1    5    5    0    0  0.27158653277E+02  0.12091372761E+02  0.23457685238E+03  0.23645315269E+03  0.00000000000E+00 0.  1.
         12    1    5    5    0    0  0.20969884021E+01  0.30598353595E+02  0.23759416551E+02  0.38796475071E+02  0.00000000000E+00 0. -1.
         11    1    3    3    0    0  0.59996928273E+02  0.18140370553E+02 -0.46293529374E+03  0.46715927759E+03  0.00000000000E+00 0. -1.
        -12    1    3    3    0    0 -0.69669268559E+00 -0.35706910402E+02 -0.21498025969E+03  0.21792654930E+03  0.00000000000E+00 0.  1.
          5    1    4    4  501    0 -0.12070173445E+03 -0.20533160996E+02  0.90317491780E+02  0.15220131774E+03  0.41800000000E+01 0.  1.
         -5    1    4    4    0  501  0.32145857184E+02 -0.45900255114E+01  0.21415741923E+02  0.39121999826E+02  0.41800000000E+01 0.  1.
</event>
<event>
11    1  0.7577197E-009  0.1386867E+03  0.7561462E-02  0.1109034E+00
         22   -1    0    0    0    0  0.00000000000E+00  0.00000000000E+00  0.21277491651E+03  0.21277491651E+03  0.00000000000E+00 0.  1.
         22   -1    0    0    0    0 -0.00000000000E+00 -0.00000000000E+00 -0.13700020317E+04  0.13700020317E+04  0.00000000000E+00 0. -1.
        -24    2    1    2    0    0 -0.27628640031E+02  0.63211801362E+02 -0.11111602318E+04  0.11149913622E+04  0.61397096767E+02 0.  0.
         25    2    1    2    0    0  0.15978518755E+02 -0.11895055985E+03 -0.21279535456E+03  0.27447012576E+03  0.12508972085E+03 0.  0.
         24    2    1    2    0    0  0.11650121277E+02  0.55738758490E+02  0.16672847116E+03  0.19331546026E+03  0.79560980101E+02 0.  0.
        -11    1    5    5    0    0 -0.22170936642E+02  0.37436076636E+02  0.13968108121E+03  0.14630042623E+03  0.00000000000E+00 0.  1.
         12    1    5    5    0    0  0.33821057919E+02  0.18302681854E+02  0.27047389950E+02  0.47015034030E+02  0.00000000000E+00 0. -1.
         13    1    3    3    0    0 -0.37146789874E+02  0.54653701262E+02 -0.10661638570E+04  0.10682098487E+04  0.00000000000E+00 0. -1.
        -14    1    3    3    0    0  0.95181498433E+01  0.85581001002E+01 -0.44996374811E+02  0.46781513442E+02  0.00000000000E+00 0.  1.
          5    1    4    4  501    0  0.62711216408E+02 -0.59962153155E+02 -0.16124588231E+03  0.18315529869E+03  0.41800000000E+01 0.  1.
         -5    1    4    4    0  501 -0.46732697654E+02 -0.58988406697E+02 -0.51549472250E+02  0.91314827076E+02  0.41800000000E+01 0.  1.
</event>
<event>
11    1  0.7577197E-009  0.2185335E+03  0.7561462E-02  0.1042140E+00
         22   -1    0    0    0    0  0.00000000000E+00  0.00000000000E+00  0.14919790486E+04  0.14919790486E+04  0.00000000000E+00 0.  1.
         22   -1    0    0    0    0 -0.00000000000E+00 -0.00000000000E+00 -0.49453009921E+03  0.49453009921E+03  0.00000000000E+00 0.  1.
         24    2    1    2    0    0  0.43140559430E+02  0.64265902205E+01 -0.39188737436E+03  0.40290424066E+03  0.82787100618E+02 0.  0.
         25    2    1    2    0    0 -0.10891235079E+03 -0.17134113182E+03  0.68081689410E+02  0.24799734037E+03  0.12509148968E+03 0.  0.
        -24    2    1    2    0    0  0.65771791363E+02  0.16491454160E+03  0.13212546344E+04  0.13356075668E+04  0.81308235057E+02 0.  0.
        -13    1    3    3    0    0  0.49366996485E+02  0.27133988559E+02 -0.35997468037E+03  0.36435576596E+03  0.00000000000E+00 0.  1.
         14    1    3    3    0    0 -0.62264370552E+01 -0.20707398338E+02 -0.31912693989E+02  0.38548474704E+02  0.00000000000E+00 0. -1.
         13    1    5    5    0    0  0.33320063141E+00  0.97273726305E+01  0.33025289564E+03  0.33039628914E+03  0.00000000000E+00 0. -1.
        -14    1    5    5    0    0  0.65438590731E+02  0.15518716897E+03  0.99100173873E+03  0.10052112777E+04  0.00000000000E+00 0.  1.
          5    1    4    4  501    0 -0.13607908185E+02 -0.10549141694E+03 -0.11980374227E+02  0.10711963396E+03  0.41800000000E+01 0.  1.
         -5    1    4    4    0  501 -0.95304442608E+02 -0.65849714880E+02  0.80062063637E+02  0.14087770641E+03  0.41800000000E+01 0.  1.
</event>
<event>
11    1  0.7577197E-009  0.1499373E+03  0.7561462E-02  0.1096943E+00
         22   -1    0    0    0    0  0.00000000000E+00  0.00000000000E+00  0.29832053428E+03  0.29832053428E+03  0.00000000000E+00 0.  1.
         22   -1    0    0    0    0 -0.00000000000E+00 -0.00000000000E+00 -0.30137141109E+03  0.30137141109E+03  0.00000000000E+00 0. -1.
        -24    2    1    2    0    0  0.86248441856E+02 -0.17914907467E+02 -0.16846048400E+03  0.20661549491E+03  0.80940042240E+02 0.  0.
         25    2    1    2    0    0 -0.71314531732E+02 -0.11617373573E+02 -0.56014919811E+02  0.15494043591E+03  0.12509253228E+03 0.  0.
         24    2    1    2    0    0 -0.14933910125E+02  0.29532281040E+02  0.22142452700E+03  0.23813601455E+03  0.81146552436E+02 0.  0.
        -11    1    5    5    0    0 -0.88321790173E+01  0.55577123773E+02  0.18193323377E+03  0.19043772112E+03  0.00000000000E+00 0.  1.
         12    1    5    5    0    0 -0.61017311073E+01 -0.26044842733E+02  0.39491293230E+02  0.47698293434E+02  0.00000000000E+00 0. -1.
         11    1    3    3    0    0  0.10923772308E+02  0.27064261752E+02 -0.63012230933E+02  0.69443101261E+02  0.00000000000E+00 0. -1.
        -12    1    3    3    0    0  0.75324669549E+02 -0.44979169219E+02 -0.10544825306E+03  0.13717239365E+03  0.00000000000E+00 0.  1.
          5    1    4    4  501    0 -0.46061330209E+02  0.46457452982E+02  0.64751291119E+01  0.65873672853E+02  0.41800000000E+01 0.  1.
         -5    1    4    4    0  501 -0.25253201523E+02 -0.58074826555E+02 -0.62490048923E+02  0.89066763054E+02  0.41800000000E+01 0.  1.
</event>
<event>
11    1  0.7577197E-009  0.2001176E+03  0.7561462E-02  0.1054441E+00
         22   -1    0    0    0    0  0.00000000000E+00  0.00000000000E+00  0.91353618233E+03  0.91353618233E+03  0.00000000000E+00 0. -1.
         22   -1    0    0    0    0 -0.00000000000E+00 -0.00000000000E+00 -0.19463228589E+03  0.19463228589E+03  0.00000000000E+00 0.  1.
        -24    2    1    2    0    0  0.48780239816E+02  0.37823049919E+02 -0.12977084784E+03  0.16485680845E+03  0.80791085172E+02 0.  0.
         25    2    1    2    0    0 -0.12880050149E+03 -0.15210940471E+03  0.37324848204E+03  0.44123530459E+03  0.12508926606E+03 0.  0.
         24    2    1    2    0    0  0.80020261673E+02  0.11428635479E+03  0.47542626224E+03  0.50207635518E+03  0.81153696327E+02 0.  0.
        -13    1    5    5    0    0  0.55166236474E+02  0.12901672451E+02  0.15155552708E+03  0.16179877808E+03  0.00000000000E+00 0.  1.
         14    1    5    5    0    0  0.24854025199E+02  0.10138468234E+03  0.32387073516E+03  0.34027757710E+03  0.00000000000E+00 0. -1.
         13    1    3    3    0    0  0.55768215667E+02 -0.51153607613E+01 -0.55893566267E+02  0.79122383334E+02  0.00000000000E+00 0. -1.
        -14    1    3    3    0    0 -0.69879758517E+01  0.42938410680E+02 -0.73877281571E+02  0.85734425119E+02  0.00000000000E+00 0.  1.
          5    1    4    4  501    0 -0.36607696822E+01 -0.53807810484E+02  0.27680715089E+02  0.60764924847E+02  0.41800000000E+01 0.  1.
         -5    1    4    4    0  501 -0.12513973181E+03 -0.98301594223E+02  0.34556776695E+03  0.38047037974E+03  0.41800000000E+01 0.  1.
</event>
<event>
11    1  0.7577197E-009  0.1632715E+03  0.7561462E-02  0.1084040E+00
         22   -1    0    0    0    0  0.00000000000E+00  0.00000000000E+00  0.22199316576E+04  0.22199316576E+04  0.00000000000E+00 0.  1.
         22   -1    0    0    0    0 -0.00000000000E+00 -0.00000000000E+00 -0.48130384641E+03  0.48130384641E+03  0.00000000000E+00 0. -1.
         24    2    1    2    0    0  0.72065037957E+02 -0.77867278225E+02 -0.44919522693E+03  0.46862539223E+03  0.81097001361E+02 0.  0.
         25    2    1    2    0    0 -0.35845214084E+02  0.68295791566E+02  0.23083840792E+03  0.27364835090E+03  0.12509138602E+03 0.  0.
        -24    2    1    2    0    0 -0.36219823873E+02  0.95714866597E+01  0.19569846302E+04  0.19589617609E+04  0.79616887697E+02 0.  0.
        -11    1    3    3    0    0 -0.10950290371E+02 -0.20876816414E+02 -0.17393526458E+03  0.17552557246E+03  0.00000000000E+00 0.  1.
         12    1    3    3    0    0  0.83015328328E+02 -0.56990461812E+02 -0.27525996234E+03  0.29309981976E+03  0.00000000000E+00 0. -1.
         13    1    5    5    0    0  0.11294770946E+02 -0.17180819167E+02  0.18512744622E+03  0.18626573421E+03  0.00000000000E+00 0. -1.
        -14    1    5    5    0    0 -0.47514594820E+02  0.26752305827E+02  0.17718571840E+04  0.17726960267E+04  0.00000000000E+00 0.  1.
          5    1    4    4  501    0 -0.59200918151E+02  0.91648134767E+02  0.20192407916E+03  0.22955377466E+03  0.41800000000E+01 0.  1.
         -5    1    4    4    0  501  0.23355704068E+02 -0.23352343201E+02  0.28914328763E+02  0.44094576235E+02  0.41800000000E+01 0.  1.
</event>
<event>
11    1  0.7577197E-009  0.2762693E+03  0.7561462E-02  0.1010767E+00
         22   -1    0    0    0    0  0.00000000000E+00  0.00000000000E+00  0.38798216486E+03  0.38798216486E+03  0.00000000000E+00 0. -1.
         22   -1    0    0    0    0 -0.00000000000E+00 -0.00000000000E+00 -0.10115346621E+04  0.10115346621E+04  0.00000000000E+00 0.  1.
         24    2    1    2    0    0  0.82046447232E+01  0.36011930374E+02 -0.63453520586E+03  0.64064400459E+03  0.80160076226E+02 0.  0.
         25    2    1    2    0    0 -0.25058909908E+03  0.60728580820E+01 -0.26129242353E+03  0.38308197271E+03  0.12508513513E+03 0.  0.
        -24    2    1    2    0    0  0.24238445436E+03 -0.42084788457E+02  0.27227513214E+03  0.37579084967E+03  0.81016430267E+02 0.  0.
        -13    1    3    3    0    0  0.43101308141E+01  0.60786429385E+02 -0.50845345630E+03  0.51209226166E+03  0.00000000000E+00 0.  1.
         14    1    3    3    0    0  0.38945139091E+01 -0.24774499011E+02 -0.12608174955E+03  0.12855174293E+03  0.00000000000E+00 0. -1.
         13    1    5    5    0    0  0.19794196174E+03 -0.55721240835E+02  0.25151644435E+03  0.32487905238E+03  0.00000000000E+00 0. -1.
        -14    1    5    5    0    0  0.44442492622E+02  0.13636452378E+02  0.20758687796E+02  0.50911797287E+02  0.00000000000E+00 0.  1.
          5    1    4    4  501    0 -0.24937996637E+03 -0.21548449141E+02 -0.22037340253E+03  0.33352153188E+03  0.41800000000E+01 0.  1.
         -5    1    4    4    0  501 -0.12091327145E+01  0.27621307223E+02 -0.40919021008E+02  0.49560440826E+02  0.41800000000E+01 0.  1.
</event>
<event>
11    1  0.7577197E-009  0.1289362E+03  0.7561462E-02  0.1120583E+00
         22   -1    0    0    0    0  0.00000000000E+00  0.00000000000E+00  0.14953674250E+03  0.14953674250E+03  0.00000000000E+00 0.  1.
         22   -1    0    0    0    0 -0.00000000000E+00 -0.00000000000E+00 -0.45003576429E+03  0.45003576429E+03  0.00000000000E+00 0.  1.
        -24    2    1    2    0    0 -0.35117859855E+02 -0.14983812321E+02 -0.33226857746E+03  0.33911423535E+03  0.56020338577E+02 0.  0.
         25    2    1    2    0    0  0.69403323175E+01 -0.91674447191E+01 -0.54626163147E+02  0.13697973786E+03  0.12508885094E+03 0.  0.
         24    2    1    2    0    0  0.28177527538E+02  0.24151257041E+02  0.86395718821E+02  0.12347853357E+03  0.80034191112E+02 0.  0.
        -13    1    5    5    0    0  0.23831026697E+02 -0.73039046800E+01  0.88218642799E+02  0.91672208408E+02  0.00000000000E+00 0.  1.
         14    1    5    5    0    0  0.43465008410E+01  0.31455161720E+02 -0.18229239782E+01  0.31806325161E+02  0.00000000000E+00 0. -1.
         11    1    3    3    0    0  0.25722018494E+01  0.26327491373E+01 -0.20865078950E+03  0.20868325172E+03  0.00000000000E+00 0. -1.
        -12    1    3    3    0    0 -0.37690061705E+02 -0.17616561459E+02 -0.12361778797E+03  0.13043098363E+03  0.00000000000E+00 0.  1.
          5    1    4    4  501    0  0.29502124015E+01 -0.26884512241E+02 -0.91586060257E+02  0.95587444704E+02  0.41800000000E+01 0. -1.
         -5    1    4    4    0  501  0.39901199160E+01  0.17717067522E+02  0.36959897111E+02  0.41392293159E+02  0.41800000000E+01 0. -1.
</event>
<event>
11    1  0.7577197E-009  0.1321609E+03  0.7561462E-02  0.1116642E+00
         22   -1    0    0    0    0  0.00000000000E+00  0.00000000000E+00  0.88163394545E+03  0.88163394545E+03  0.00000000000E+00 0. -1.
         22   -1    0    0    0    0 -0.00000000000E+00 -0.00000000000E+00 -0.64801785235E+03  0.64801785235E+03  0.00000000000E+00 0.  1.
         24    2    1    2    0    0  0.12416413557E+02 -0.14225355200E+02 -0.58766605863E+03  0.59352998198E+03  0.81055012076E+02 0.  0.
         25    2    1    2    0    0  0.27068296997E+02 -0.38211416605E+01  0.19861840948E+02  0.12957452133E+03  0.12509104694E+03 0.  0.
        -24    2    1    2    0    0 -0.39484710554E+02  0.18046496861E+02  0.80142031079E+03  0.80654729449E+03  0.79745252476E+02 0.  0.
        -11    1    3    3    0    0 -0.10966610205E+02  0.71865331532E+01 -0.50222245372E+03  0.50239357661E+03  0.00000000000E+00 0.  1.
         12    1    3    3    0    0  0.23383023762E+02 -0.21411888353E+02 -0.85443604911E+02  0.91136405368E+02  0.00000000000E+00 0. -1.
         13    1    5    5    0    0 -0.56263487430E+02 -0.87886721436E+01  0.59442320687E+03  0.59714468066E+03  0.00000000000E+00 0. -1.
        -14    1    5    5    0    0  0.16778776876E+02  0.26835169004E+02  0.20699710392E+03  0.20940261383E+03  0.00000000000E+00 0.  1.
          5    1    4    4  501    0 -0.43976586195E+02  0.45023364136E+01  0.34757911573E+02  0.56389679760E+02  0.41800000000E+01 0.  1.
         -5    1    4    4    0  501  0.71044883192E+02 -0.83234780741E+01 -0.14896070624E+02  0.73184841566E+02  0.41800000000E+01 0.  1.
</event>
<event>
11    1  0.7577197E-009  0.1654278E+03  0.7561462E-02  0.1082081E+00
         22   -1    0    0    0    0  0.00000000000E+00  0.00000000000E+00  0.24271423835E+03  0.24271423835E+03  0.00000000000E+00 0. -1.
         22   -1    0    0    0    0 -0.00000000000E+00 -0.00000000000E+00 -0.45142096899E+03  0.45142096899E+03  0.00000000000E+00 0. -1.
         24    2    1    2    0    0 -0.75136980999E+02  0.16366046053E+02 -0.19747758993E+03  0.22657672697E+03  0.80163590866E+02 0.  0.
         25    2    1    2    0    0  0.12857879918E+03  0.74758614252E+02 -0.17185820912E+03  0.25943055379E+03  0.12509040809E+03 0.  0.
        -24    2    1    2    0    0 -0.53441818183E+02 -0.91124660305E+02  0.16062906842E+03  0.20812792658E+03  0.79723299966E+02 0.  0.
        -11    1    3    3    0    0 -0.54345622293E+02 -0.24824212768E+02 -0.76280070489E+02  0.96893432986E+02  0.00000000000E+00 0.  1.
         12    1    3    3    0    0 -0.20791358706E+02  0.41190258821E+02 -0.12119751944E+03  0.12968329398E+03  0.00000000000E+00 0. -1.
         13    1    5    5    0    0 -0.17115195884E+02 -0.90038488743E+02  0.13682118091E+03  0.16468119180E+03  0.00000000000E+00 0. -1.
        -14    1    5    5    0    0 -0.36326622299E+02 -0.10861715624E+01  0.23807887505E+02  0.43446734789E+02  0.00000000000E+00 0.  1.
          5    1    4    4  501    0  0.95679138482E+02  0.61102970713E+02 -0.18834813745E+03  0.21995582250E+03  0.41800000000E+01 0.  1.
         -5    1    4    4    0  501  0.32899660700E+02  0.13655643539E+02  0.16489928328E+02  0.39474731296E+02  0.41800000000E+01 0.  1.
</event>
<event>
11    1  0.7577197E-009  0.2083386E+03  0.7561462E-02  0.1048779E+00
         22   -1    0    0    0    0  0.00000000000E+00  0.00000000000E+00  0.11149836081E+03  0.11149836081E+03  0.00000000000E+00 0. -1.
         22   -1    0    0    0    0 -0.00000000000E+00 -0.00000000000E+00 -0.13318184515E+04  0.13318184515E+04  0.00000000000E+00 0. -1.
        -24    2    1    2    0    0 -0.76453125617E+02 -0.15946484943E+03 -0.10001544428E+04  0.10187712239E+04  0.79446702905E+02 0.  0.
         25    2    1    2    0    0  0.61466713863E+02  0.12011216082E+03 -0.26475060838E+03  0.32240645824E+03  0.12509177267E+03 0.  0.
         24    2    1    2    0    0  0.14986411754E+02  0.39352688608E+02  0.44584960499E+02  0.10213913014E+03  0.81678372687E+02 0.  0.
        -13    1    5    5    0    0 -0.32106518168E+02  0.26918554965E+02  0.12161357847E+02  0.43627236160E+02  0.00000000000E+00 0.  1.
         14    1    5    5    0    0  0.47092929922E+02  0.12434133643E+02  0.32423602652E+02  0.58511893979E+02  0.00000000000E+00 0. -1.
         13    1    3    3    0    0 -0.79435421067E+02 -0.16692373441E+03 -0.93295431969E+03  0.95109267784E+03  0.00000000000E+00 0. -1.
        -14    1    3    3    0    0  0.29822954504E+01  0.74588849855E+01 -0.67200123109E+02  0.67678546063E+02  0.00000000000E+00 0.  1.
          5    1    4    4  501    0  0.29886247392E+02 -0.12022416057E+02 -0.11796401782E+03  0.12235484531E+03  0.41800000000E+01 0.  1.
         -5    1    4    4    0  501  0.31580466471E+02  0.13213457687E+03 -0.14678659056E+03  0.20005161293E+03  0.41800000000E+01 0.  1.
</event>
<event>
11    1  0.7577197E-009  0.1637749E+03  0.7561462E-02  0.1083580E+00
         22   -1    0    0    0    0  0.00000000000E+00  0.00000000000E+00  0.43167545895E+03  0.43167545895E+03  0.00000000000E+00 0. -1.
         22   -1    0    0    0    0 -0.00000000000E+00 -0.00000000000E+00 -0.19459400649E+04  0.19459400649E+04  0.00000000000E+00 0.  1.
         24    2    1    2    0    0  0.44595206965E+02  0.29384548812E+02 -0.16862635099E+04  0.16888768660E+04  0.77254510695E+02 0.  0.
         25    2    1    2    0    0 -0.14376253470E+03  0.28561112048E+01 -0.21066373339E+03  0.28408209385E+03  0.12509038224E+03 0.  0.
        -24    2    1    2    0    0  0.99167327735E+02 -0.32240660017E+02  0.38266263738E+03  0.40465656398E+03  0.80265943415E+02 0.  0.
        -11    1    3    3    0    0  0.45446463287E+02 -0.10827831462E+02 -0.12157598941E+04  0.12166572004E+04  0.00000000000E+00 0.  1.
         12    1    3    3    0    0 -0.85125632236E+00  0.40212380274E+02 -0.47050361580E+03  0.47221966567E+03  0.00000000000E+00 0. -1.
         11    1    5    5    0    0  0.69398905549E+01  0.14777800765E+02  0.13844147249E+03  0.13940081342E+03  0.00000000000E+00 0. -1.
        -12    1    5    5    0    0  0.92227437180E+02 -0.47018460782E+02  0.24422116490E+03  0.26525575056E+03  0.00000000000E+00 0.  1.
          5    1    4    4  501    0 -0.23708508631E+02  0.11125704869E+02 -0.14405436473E+03  0.14647527808E+03  0.41800000000E+01 0. -1.
         -5    1    4    4    0  501 -0.12005402607E+03 -0.82695936645E+01 -0.66609368657E+02  0.13760681577E+03  0.41800000000E+01 0. -1.
</event>
<event>
11    1  0.7577197E-009  0.1361178E+03  0.7561462E-02  0.1111973E+00
         22   -1    0    0    0    0  0.00000000000E+00  0.00000000000E+00  0.71881883839E+03  0.71881883839E+03  0.00000000000E+00 0.  1.
         22   -1    0    0    0    0 -0.00000000000E+00 -0.00000000000E+00 -0.22540673125E+03  0.22540673125E+03  0.00000000000E+00 0. -1.
         24    2    1    2    0    0  0.28161626805E+02  0.36515442503E+02 -0.13534301514E+03  0.16565854875E+03  0.83657445948E+02 0.  0.
         25    2    1    2    0    0 -0.58428296956E+02 -0.78435545818E+02  0.17122818373E+02  0.15970600965E+03  0.12508724106E+03 0.  0.
        -24    2    1    2    0    0  0.30266670151E+02  0.41920103314E+02  0.61163230390E+03  0.61886101124E+03  0.78876547084E+02 0.  0.
        -11    1    3    3    0    0  0.17895574923E+02  0.63931309752E+01  0.66575276216E+01  0.20135699629E+02  0.00000000000E+00 0.  1.
         12    1    3    3    0    0  0.10266051882E+02  0.30122311528E+02 -0.14200054276E+03  0.14552284912E+03  0.00000000000E+00 0. -1.
         13    1    5    5    0    0  0.11694026921E+02 -0.19490206506E+02  0.29017773302E+03  0.29106654765E+03  0.00000000000E+00 0. -1.
        -14    1    5    5    0    0  0.18572643230E+02  0.61410309820E+02  0.32145457088E+03  0.32779446360E+03  0.00000000000E+00 0.  1.
          5    1    4    4  501    0  0.23365521077E+02 -0.93452673509E+01 -0.32754045381E+02  0.41516038899E+02  0.41800000000E+01 0.  1.
         -5    1    4    4    0  501 -0.81793818033E+02 -0.69090278467E+02  0.49876863753E+02  0.11818997075E+03  0.41800000000E+01 0.  1.
</event>
<event>
11    1  0.7577197E-009  0.1809029E+03  0.7561462E-02  0.1068915E+00
         22   -1    0    0    0    0  0.00000000000E+00  0.00000000000E+00  0.16168610005E+03  0.16168610005E+03  0.00000000000E+00 0. -1.
         22   -1    0    0    0    0 -0.00000000000E+00 -0.00000000000E+00 -0.40439163591E+03  0.40439163591E+03  0.00000000000E+00 0.  1.
        -24    2    1    2    0    0  0.85474513451E+02  0.13989799063E+03 -0.21635289196E+03  0.28311450427E+03  0.80423307793E+02 0.  0.
         25    2    1    2    0    0  0.31769276057E+01 -0.78726033348E+02 -0.24114450802E+02  0.14979028965E+03  0.12509093868E+03 0.  0.
         24    2    1    2    0    0 -0.88651441056E+02 -0.61171957283E+02 -0.22381931067E+01  0.13317294205E+03  0.78287525350E+02 0.  0.
        -13    1    5    5    0    0 -0.25117436123E+02  0.72349952914E+01 -0.25967191131E+02  0.36844616561E+02  0.00000000000E+00 0.  1.
         14    1    5    5    0    0 -0.63534004934E+02 -0.68406952574E+02  0.23728998025E+02  0.96328325485E+02  0.00000000000E+00 0. -1.
         13    1    3    3    0    0  0.77342846494E+02  0.11187113113E+03 -0.11648226892E+03  0.17906754272E+03  0.00000000000E+00 0. -1.
        -14    1    3    3    0    0  0.81316669567E+01  0.28026859501E+02 -0.99870623036E+02  0.10404696154E+03  0.00000000000E+00 0.  1.
          5    1    4    4  501    0 -0.56241126198E+02 -0.27498603664E+02  0.11062528572E+02  0.63710983495E+02  0.41800000000E+01 0. -1.
         -5    1    4    4    0  501  0.59418053804E+02 -0.51227429683E+02 -0.35176979373E+02  0.86079306152E+02  0.41800000000E+01 0. -1.
</event>
<event>
11    1  0.7577197E-009  0.2422202E+03  0.7561462E-02  0.1028127E+00
         22   -1    0    0    0    0  0.00000000000E+00  0.00000000000E+00  0.16769008212E+04  0.16769008212E+04  0.00000000000E+00 0. -1.
         22   -1    0    0    0    0 -0.00000000000E+00 -0.00000000000E+00 -0.99047918241E+02  0.99047918241E+02  0.00000000000E+00 0. -1.
         24    2    1    2    0    0 -0.20300931663E+03  0.43303448940E+01  0.16607639637E+03  0.27262958381E+03  0.74256218678E+02 0.  0.
         25    2    1    2    0    0  0.20992758933E+03 -0.66711072605E+02  0.32676610326E+03  0.41345290880E+03  0.12508901464E+03 0.  0.
        -24    2    1    2    0    0 -0.69182727050E+01  0.62380727711E+02  0.10850104033E+04  0.10898662468E+04  0.81373478283E+02 0.  0.
        -11    1    3    3    0    0 -0.86154176243E+02  0.33730873315E+02  0.95579554931E+02  0.13302543072E+03  0.00000000000E+00 0.  1.
         12    1    3    3    0    0 -0.11685514039E+03 -0.29400528421E+02  0.70496841442E+02  0.13960415309E+03  0.00000000000E+00 0. -1.
         11    1    5    5    0    0  0.14377954445E+02  0.43979551914E+02  0.98172614001E+03  0.98281592403E+03  0.00000000000E+00 0. -1.
        -12    1    5    5    0    0 -0.21296227150E+02  0.18401175797E+02  0.10328426330E+03  0.10705032278E+03  0.00000000000E+00 0.  1.
          5    1    4    4  501    0  0.12729334466E+03  0.20505666275E+02  0.13197485158E+03  0.18455056704E+03  0.41800000000E+01 0. -1.
         -5    1    4    4    0  501  0.82634244676E+02 -0.87216738880E+02  0.19479125168E+03  0.22890234176E+03  0.41800000000E+01 0. -1.
</event>
<event>
11    1  0.7577197E-009  0.5658757E+03  0.7561462E-02  0.9257283E-01
         22   -1    0    0    0    0  0.00000000000E+00  0.00000000000E+00  0.51081765953E+03  0.51081765953E+03  0.00000000000E+00 0. -1.
         22   -1    0    0    0    0 -0.00000000000E+00 -0.00000000000E+00 -0.14685304462E+04  0.14685304462E+04  0.00000000000E+00 0. -1.
         24    2    1    2    0    0 -0.32250389408E+03  0.46738005158E+03 -0.11809129918E+04  0.13126201504E+04  0.77222346876E+02 0.  0.
         25    2    1    2    0    0  0.25052414745E+03 -0.40434634439E+03  0.12499639809E+03  0.50747412809E+03  0.12509027327E+03 0.  0.
        -24    2    1    2    0    0  0.71979746625E+02 -0.63033707196E+02  0.98203807050E+02  0.15925382718E+03  0.81015193540E+02 0.  0.
        -11    1    3    3    0    0 -0.23049285992E+03  0.34545412712E+03 -0.93577074578E+03  0.10237833760E+04  0.00000000000E+00 0.  1.
         12    1    3    3    0    0 -0.92011034162E+02  0.12192592446E+03 -0.24514224602E+03  0.28883677440E+03  0.00000000000E+00 0. -1.
         11    1    5    5    0    0 -0.46744510346E+01 -0.78694227150E+01  0.54372974553E+02  0.55137996591E+02  0.00000000000E+00 0. -1.
        -12    1    5    5    0    0  0.76654197660E+02 -0.55164284481E+02  0.43830832496E+02  0.10411583059E+03  0.00000000000E+00 0.  1.
          5    1    4    4  501    0  0.62713072593E+02 -0.21314244046E+03  0.36487892428E+02  0.22519206934E+03  0.41800000000E+01 0.  1.
         -5    1    4    4    0  501  0.18781107486E+03 -0.19120390393E+03  0.88508505666E+02  0.28228205875E+03  0.41800000000E+01 0.  1.
</event>
<event>
11    1  0.7577197E-009  0.4429436E+03  0.7561462E-02  0.9530912E-01
         22   -1    0    0    0    0  0.00000000000E+00  0.00000000000E+00  0.43620367448E+03  0.43620367448E+03  0.00000000000E+00 0. -1.
         22   -1    0    0    0    0 -0.00000000000E+00 -0.00000000000E+00 -0.21688299906E+04  0.21688299906E+04  0.00000000000E+00 0. -1.
        -24    2    1    2    0    0 -0.12096789557E+03  0.34658204637E+03 -0.10610908228E+04  0.11259082270E+04  0.83685450562E+02 0.  0.
         25    2    1    2    0    0  0.19571985240E+03 -0.71445952704E+03 -0.77722668894E+03  0.10809665167E+04  0.12509439535E+03 0.  0.
         24    2    1    2    0    0 -0.74751956828E+02  0.36787748067E+03  0.10569119563E+03  0.39815892146E+03  0.80238407686E+02 0.  0.
        -11    1    5    5    0    0 -0.22545888879E+02  0.18989460832E+02  0.18394598661E+02  0.34745906060E+02  0.00000000000E+00 0.  1.
         12    1    5    5    0    0 -0.52206067949E+02  0.34888801984E+03  0.87296596972E+02  0.36341301540E+03  0.00000000000E+00 0. -1.
         13    1    3    3    0    0 -0.23891824668E+02  0.16829403565E+03 -0.56094680362E+03  0.58613566536E+03  0.00000000000E+00 0. -1.
        -14    1    3    3    0    0 -0.97076070903E+02  0.17828801072E+03 -0.50014401922E+03  0.53977256162E+03  0.00000000000E+00 0.  1.
          5    1    4    4  501    0 -0.17087534106E+02 -0.51396009147E+02 -0.45919112392E+02  0.71130660484E+02  0.41800000000E+01 0.  1.
         -5    1    4    4    0  501  0.21280738650E+03 -0.66306351789E+03 -0.73130757655E+03  0.10098358562E+04  0.41800000000E+01 0.  1.
</event>
<event>
11    1  0.7577197E-009  0.1603031E+03  0.7561462E-02  0.1086793E+00
         22   -1    0    0    0    0  0.00000000000E+00  0.00000000000E+00  0.52391606222E+03  0.52391606222E+03  0.00000000000E+00 0.  1.
         22   -1    0    0    0    0 -0.00000000000E+00 -0.00000000000E+00 -0.39836613505E+03  0.39836613505E+03  0.00000000000E+00 0.  1.
         24    2    1    2    0    0  0.75729765492E+02 -0.23307673569E+02 -0.33646208832E+03  0.35375384899E+03  0.75211726307E+02 0.  0.
         25    2    1    2    0    0 -0.15194609254E+03 -0.13973813288E+02  0.20395208475E+03  0.28376977705E+03  0.12508377591E+03 0.  0.
        -24    2    1    2    0    0  0.76216327046E+02  0.37281486857E+02  0.25805993073E+03  0.28475857123E+03  0.85403034296E+02 0.  0.
        -11    1    3    3    0    0  0.87318005972E+02 -0.15465147292E+02 -0.32043108496E+03  0.33247508952E+03  0.00000000000E+00 0.  1.
         12    1    3    3    0    0 -0.11588240479E+02 -0.78425262773E+01 -0.16031003363E+02  0.21278759471E+02  0.00000000000E+00 0. -1.
         11    1    5    5    0    0 -0.11448222666E+02 -0.62738973996E+01  0.84452836919E+02  0.85455867291E+02  0.00000000000E+00 0. -1.
        -12    1    5    5    0    0  0.87664549711E+02  0.43555384257E+02  0.17360709381E+03  0.19930270394E+03  0.00000000000E+00 0.  1.
          5    1    4    4  501    0 -0.97362318463E+02  0.31268162051E+02  0.49321002993E+02  0.11360965078E+03  0.41800000000E+01 0.  1.
         -5    1    4    4    0  501 -0.54583774075E+02 -0.45241975338E+02  0.15463108176E+03  0.17016012627E+03  0.41800000000E+01 0.  1.
</event>
<event>
11    1  0.7577197E-009  0.7711214E+03  0.7561462E-02  0.8933597E-01
         22   -1    0    0    0    0  0.00000000000E+00  0.00000000000E+00  0.79197649500E+02  0.79197649500E+02  0.00000000000E+00 0. -1.
         22   -1    0    0    0    0 -0.00000000000E+00 -0.00000000000E+00 -0.18770386560E+04  0.18770386560E+04  0.00000000000E+00 0.  1.
         24    2    1    2    0    0 -0.82388429518E+02 -0.10226776301E+03 -0.42253124053E+03  0.45052186573E+03  0.84798311348E+02 0.  0.
         25    2    1    2    0    0  0.18641517705E+03  0.26008124302E+03 -0.11525861501E+04  0.12027031416E+04  0.12508853694E+03 0.  0.
        -24    2    1    2    0    0 -0.10402674754E+03 -0.15781348001E+03 -0.22272361580E+03  0.30301129816E+03  0.80519433065E+02 0.  0.
        -11    1    3    3    0    0  0.10057633469E+02  0.61238731018E+01 -0.57147634747E+02  0.58348178806E+02  0.00000000000E+00 0.  1.
         12    1    3    3    0    0 -0.92446062987E+02 -0.10839163611E+03 -0.36538360578E+03  0.39217368692E+03  0.00000000000E+00 0. -1.
         13    1    5    5    0    0 -0.68657952267E+02 -0.15544980921E+03 -0.18132896399E+03  0.24851307968E+03  0.00000000000E+00 0. -1.
        -14    1    5    5    0    0 -0.35368795270E+02 -0.23636708018E+01 -0.41394651814E+02  0.54498218479E+02  0.00000000000E+00 0.  1.
          5    1    4    4  501    0  0.65465793142E+02  0.14265449542E+02 -0.17460095014E+03  0.18706212154E+03  0.41800000000E+01 0.  1.
         -5    1    4    4    0  501  0.12094938391E+03  0.24581579348E+03 -0.97798519998E+03  0.10156410200E+04  0.41800000000E+01 0.  1.
</event>
<event>
11    1  0.7577197E-009  0.1686528E+03  0.7561462E-02  0.1079210E+00
         22   -1    0    0    0    0  0.00000000000E+00  0.00000000000E+00  0.34648851426E+03  0.34648851426E+03  0.00000000000E+00 0.  1.
         22   -1    0    0    0    0 -0.00000000000E+00 -0.00000000000E+00 -0.67818845200E+03  0.67818845200E+03  0.00000000000E+00 0.  1.
        -24    2    1    2    0    0  0.53457328088E+02  0.93478394580E+02 -0.51507756579E+03  0.53251038426E+03  0.81648725575E+02 0.  0.
         25    2    1    2    0    0 -0.78498134379E+02 -0.13439715711E+03 -0.77979609575E+02  0.21436715286E+03  0.12509158156E+03 0.  0.
         24    2    1    2    0    0  0.25040806290E+02  0.40918762533E+02  0.26135723763E+03  0.27779942913E+03  0.81015616148E+02 0.  0.
        -11    1    5    5    0    0 -0.85467534760E+01  0.49930646556E+02  0.20822609761E+03  0.21429937981E+03  0.00000000000E+00 0.  1.
         12    1    5    5    0    0  0.33587559766E+02 -0.90118840231E+01  0.53131140017E+02  0.63500049324E+02  0.00000000000E+00 0. -1.
         11    1    3    3    0    0  0.58522907830E+02  0.89144374491E+02 -0.31963744006E+03  0.33695658968E+03  0.00000000000E+00 0. -1.
        -12    1    3    3    0    0 -0.50655797412E+01  0.43340200890E+01 -0.19544012573E+03  0.19555379458E+03  0.00000000000E+00 0.  1.
          5    1    4    4  501    0 -0.81510273434E+02 -0.14157724605E+03 -0.30710249208E+02  0.16627878121E+03  0.41800000000E+01 0.  1.
         -5    1    4    4    0  501  0.30121390547E+01  0.71800889378E+01 -0.47269360367E+02  0.48088371654E+02  0.41800000000E+01 0.  1.
</event>
<event>
11    1  0.7577197E-009  0.2452674E+03  0.7561462E-02  0.1026451E+00
         22   -1    0    0    0    0  0.00000000000E+00  0.00000000000E+00  0.29279483545E+04  0.29279483545E+04  0.00000000000E+00 0.  1.
         22   -1    0    0    0    0 -0.00000000000E+00 -0.00000000000E+00 -0.74630421046E+03  0.74630421046E+03  0.00000000000E+00 0. -1.
         24    2    1    2    0    0 -0.17245367943E+03 -0.11845885941E+03 -0.69668111046E+03  0.73199356131E+03  0.81714326799E+02 0.  0.
         25    2    1    2    0    0  0.22114710169E+03  0.21099320778E+03  0.88485231516E+03  0.94447548888E+03  0.12508459192E+03 0.  0.
        -24    2    1    2    0    0 -0.48693422260E+02 -0.92534348369E+02  0.19934729394E+04  0.19977835148E+04  0.79189374260E+02 0.  0.
        -13    1    3    3    0    0  0.85268547368E+01 -0.86885904379E+01 -0.53913272897E+02  0.55270605659E+02  0.00000000000E+00 0.  1.
         14    1    3    3    0    0 -0.18098053416E+03 -0.10977026897E+03 -0.64276783756E+03  0.67672295565E+03  0.00000000000E+00 0. -1.
         13    1    5    5    0    0 -0.12303819069E+02 -0.50025967579E+02  0.39678799044E+03  0.40011834594E+03  0.00000000000E+00 0. -1.
        -14    1    5    5    0    0 -0.36389603191E+02 -0.42508380789E+02  0.15966849489E+04  0.15976651688E+04  0.00000000000E+00 0.  1.
          5    1    4    4  501    0  0.68887728857E+02 -0.12030735113E+01  0.19007204118E+03  0.20221725894E+03  0.41800000000E+01 0. -1.
         -5    1    4    4    0  501  0.15225937283E+03  0.21219628129E+03  0.69478027398E+03  0.74225822994E+03  0.41800000000E+01 0. -1.
</event>
<event>
11    1  0.7577197E-009  0.1544462E+03  0.7561462E-02  0.1092420E+00
         22   -1    0    0    0    0  0.00000000000E+00  0.00000000000E+00  0.90195730103E+02  0.90195730103E+02  0.00000000000E+00 0. -1.
         22   -1    0    0    0    0 -0.00000000000E+00 -0.00000000000E+00 -0.11746617624E+04  0.11746617624E+04  0.00000000000E+00 0. -1.
         24    2    1    2    0    0  0.21467481626E+02  0.86489894891E+02 -0.88328343586E+03  0.89142755951E+03  0.80697652345E+02 0.  0.
         25    2    1    2    0    0 -0.22106781959E+02 -0.96993033016E+02 -0.23477678093E+03  0.28401545141E+03  0.12509309140E+03 0.  0.
        -24    2    1    2    0    0  0.63930033274E+00  0.10503138125E+02  0.33594184475E+02  0.89414481604E+02  0.82192795759E+02 0.  0.
        -11    1    3    3    0    0 -0.48304258891E+01  0.17654255535E+02 -0.31264782998E+02  0.36228337095E+02  0.00000000000E+00 0.  1.
         12    1    3    3    0    0  0.26297907515E+02  0.68835639356E+02 -0.85201865286E+03  0.85519922241E+03  0.00000000000E+00 0. -1.
         13    1    5    5    0    0  0.30698352002E+02  0.30650170205E+02  0.30636290624E+02  0.53107476427E+02  0.00000000000E+00 0. -1.
        -14    1    5    5    0    0 -0.30059051670E+02 -0.20147032080E+02  0.29578938504E+01  0.36307005177E+02  0.00000000000E+00 0.  1.
          5    1    4    4  501    0 -0.22787756770E+01 -0.75293170571E+01 -0.17343840263E+03  0.17366702434E+03  0.41800000000E+01 0.  1.
         -5    1    4    4    0  501 -0.19828006282E+02 -0.89463715958E+02 -0.61338378296E+02  0.11034842708E+03  0.41800000000E+01 0.  1.
</event>
<event>
11    1  0.7577197E-009  0.1461781E+03  0.7561462E-02  0.1100849E+00
         22   -1    0    0    0    0  0.00000000000E+00  0.00000000000E+00  0.26812413886E+03  0.26812413886E+03  0.00000000000E+00 0. -1.
         22   -1    0    0    0    0 -0.00000000000E+00 -0.00000000000E+00 -0.89130656091E+03  0.89130656091E+03  0.00000000000E+00 0.  1.
        -24    2    1    2    0    0 -0.50904255323E+02 -0.54691553501E+02 -0.79108039639E+03  0.79840502226E+03  0.77845852664E+02 0.  0.
         25    2    1    2    0    0  0.25596766252E+02  0.10690532867E+03  0.34668667639E+00  0.16652902639E+03  0.12509137740E+03 0.  0.
         24    2    1    2    0    0  0.25307489071E+02 -0.52213775165E+02  0.16755128766E+03  0.19449665113E+03  0.79929756548E+02 0.  0.
        -11    1    5    5    0    0  0.64662162419E+00  0.11458249323E+02 -0.20575350569E+01  0.11659461720E+02  0.00000000000E+00 0.  1.
         12    1    5    5    0    0  0.24660867447E+02 -0.63672024488E+02  0.16960882272E+03  0.18283718941E+03  0.00000000000E+00 0. -1.
         11    1    3    3    0    0  0.17545740556E+02 -0.14369396544E+02 -0.30819416275E+03  0.30902746564E+03  0.00000000000E+00 0. -1.
        -12    1    3    3    0    0 -0.68449995879E+02 -0.40322156956E+02 -0.48288623364E+03  0.48937755661E+03  0.00000000000E+00 0.  1.
          5    1    4    4  501    0 -0.15297649272E+02  0.12178292908E+03  0.54674159830E-01  0.12281113662E+03  0.41800000000E+01 0.  1.
         -5    1    4    4    0  501  0.40894415525E+02 -0.14877600410E+02  0.29201251656E+00  0.43717889775E+02  0.41800000000E+01 0.  1.
</event>
<event>
11    1  0.7577197E-009  0.1313394E+03  0.7561462E-02  0.1117634E+00
         22   -1    0    0    0    0  0.00000000000E+00  0.00000000000E+00  0.16203526334E+04  0.16203526334E+04  0.00000000000E+00 0.  1.
         22   -1    0    0    0    0 -0.00000000000E+00 -0.00000000000E+00 -0.10184590133E+03  0.10184590133E+03  0.00000000000E+00 0. -1.
         24    2    1    2    0    0  0.78011001408E+00 -0.30368191718E+02 -0.71418194206E+02  0.11185045564E+03  0.80542723590E+02 0.  0.
         25    2    1    2    0    0 -0.24150806769E+02 -0.75145977539E+01  0.47810846406E+03  0.49484803026E+03  0.12508852467E+03 0.  0.
        -24    2    1    2    0    0  0.23370696755E+02  0.37882789472E+02  0.11118164623E+04  0.11155000489E+04  0.78887375936E+02 0.  0.
        -11    1    3    3    0    0 -0.28076667199E+01 -0.37278975946E+02  0.25519970506E+01  0.37471558934E+02  0.00000000000E+00 0.  1.
         12    1    3    3    0    0  0.35877767339E+01  0.69107842283E+01 -0.73970191256E+02  0.74378896705E+02  0.00000000000E+00 0. -1.
         11    1    5    5    0    0 -0.18743366435E+01  0.45442364466E+02  0.31691592966E+03  0.32016281498E+03  0.00000000000E+00 0. -1.
        -12    1    5    5    0    0  0.25245033399E+02 -0.75595749940E+01  0.79490053259E+03  0.79533723389E+03  0.00000000000E+00 0.  1.
          5    1    4    4  501    0 -0.73384843305E+02  0.25006582695E+01  0.22330104736E+03  0.23510086915E+03  0.41800000000E+01 0.  1.
         -5    1    4    4    0  501  0.49234036535E+02 -0.10015256023E+02  0.25480741669E+03  0.25974716111E+03  0.41800000000E+01 0.  1.
</event>
<event>
11    1  0.7577197E-009  0.1943842E+03  0.7561462E-02  0.1058567E+00
         22   -1    0    0    0    0  0.00000000000E+00  0.00000000000E+00  0.60704478537E+02  0.60704478537E+02  0.00000000000E+00 0.  1.
         22   -1    0    0    0    0 -0.00000000000E+00 -0.00000000000E+00 -0.15665345084E+04  0.15665345084E+04  0.00000000000E+00 0. -1.
        -24    2    1    2    0    0  0.10088038789E+03  0.10322680647E+03 -0.11151707499E+04  0.11272596001E+04  0.79219811176E+02 0.  0.
         25    2    1    2    0    0 -0.12813955229E+03 -0.11455768963E+03 -0.33486453455E+03  0.39664056836E+03  0.12508507048E+03 0.  0.
         24    2    1    2    0    0  0.27259164400E+02  0.11330883153E+02 -0.55794745492E+02  0.10333881849E+03  0.81819354841E+02 0.  0.
        -11    1    5    5    0    0 -0.85570328170E+01  0.14344307934E+02  0.15949458302E+02  0.23094744009E+02  0.00000000000E+00 0.  1.
         12    1    5    5    0    0  0.35816197217E+02 -0.30134247810E+01 -0.71744203794E+02  0.80244074485E+02  0.00000000000E+00 0. -1.
         11    1    3    3    0    0  0.93132024916E+02  0.11166903266E+03 -0.10893311642E+04  0.10989931448E+04  0.00000000000E+00 0. -1.
        -12    1    3    3    0    0  0.77483629727E+01 -0.84422261870E+01 -0.25839585646E+02  0.28266455351E+02  0.00000000000E+00 0.  1.
          5    1    4    4  501    0 -0.12087146692E+03 -0.49019884556E+02 -0.14241084046E+03  0.19316102215E+03  0.41800000000E+01 0.  1.
         -5    1    4    4    0  501 -0.72680853733E+01 -0.65537805071E+02 -0.19245369409E+03  0.20347954621E+03  0.41800000000E+01 0.  1.
</event>
<event>
11    1  0.7577197E-009  0.1317241E+03  0.7561462E-02  0.1117169E+00
         22   -1    0    0    0    0  0.00000000000E+00  0.00000000000E+00  0.14765450129E+04  0.14765450129E+04  0.00000000000E+00 0.  1.
         22   -1    0    0    0    0 -0.00000000000E+00 -0.00000000000E+00 -0.10615234368E+03  0.10615234368E+03  0.00000000000E+00 0. -1.
         24    2    1    2    0    0  0.40436948081E+02 -0.15504126839E+01 -0.65694959597E+02  0.11241406670E+03  0.81752945677E+02 0.  0.
         25    2    1    2    0    0 -0.50829642295E+02  0.63941291314E+01  0.26926823242E+03  0.30129406465E+03  0.12509274552E+03 0.  0.
        -24    2    1    2    0    0  0.10392694214E+02 -0.48437164475E+01  0.11668193964E+04  0.11689892252E+04  0.70262616083E+02 0.  0.
        -11    1    3    3    0    0 -0.54593783466E+01  0.26106743485E+01  0.16834690464E+02  0.17889305059E+02  0.00000000000E+00 0.  1.
         12    1    3    3    0    0  0.45896326427E+02 -0.41610870324E+01 -0.82529650061E+02  0.94524761645E+02  0.00000000000E+00 0. -1.
         11    1    5    5    0    0  0.95013823834E+01  0.31429299680E+02  0.41607246583E+03  0.41736599522E+03  0.00000000000E+00 0. -1.
        -12    1    5    5    0    0  0.89131183064E+00 -0.36273016127E+02  0.75074693053E+03  0.75162322998E+03  0.00000000000E+00 0.  1.
          5    1    4    4  501    0 -0.72193260707E+02  0.37609846188E+02  0.10636742076E+03  0.13400697005E+03  0.41800000000E+01 0. -1.
         -5    1    4    4    0  501  0.21363618412E+02 -0.31215717057E+02  0.16290081165E+03  0.16728709460E+03  0.41800000000E+01 0. -1.
</event>
<event>
11    1  0.7577197E-009  0.1418494E+03  0.7561462E-02  0.1105511E+00
         22   -1    0    0    0    0  0.00000000000E+00  0.00000000000E+00  0.24788171333E+03  0.24788171333E+03  0.00000000000E+00 0. -1.
         22   -1    0    0    0    0 -0.00000000000E+00 -0.00000000000E+00 -0.11570948707E+04  0.11570948707E+04  0.00000000000E+00 0. -1.
         24    2    1    2    0    0  0.18522241866E+02  0.62280694071E+02 -0.97010058607E+03  0.97554609641E+03  0.79831577881E+02 0.  0.
         25    2    1    2    0    0 -0.26689084173E+02 -0.86386502405E+02 -0.14149886104E+03  0.20939720820E+03  0.12510127143E+03 0.  0.
        -24    2    1    2    0    0  0.81668423069E+01  0.24105808333E+02  0.20238628979E+03  0.22003327939E+03  0.82502402609E+02 0.  0.
        -11    1    3    3    0    0 -0.17116176520E+02  0.64109157846E+02 -0.56714921085E+03  0.57101766609E+03  0.00000000000E+00 0.  1.
         12    1    3    3    0    0  0.35638418386E+02 -0.18284637743E+01 -0.40295137523E+03  0.40452843033E+03  0.00000000000E+00 0. -1.
         11    1    5    5    0    0  0.28568756131E+02 -0.11725135564E+01  0.17564770980E+03  0.17795973301E+03  0.00000000000E+00 0. -1.
        -12    1    5    5    0    0 -0.20401913824E+02  0.25278321890E+02  0.26738579988E+02  0.42073546381E+02  0.00000000000E+00 0.  1.
          5    1    4    4  501    0 -0.73624377001E+02 -0.34116169234E+02 -0.56100727233E+02  0.98738168345E+02  0.41800000000E+01 0. -1.
         -5    1    4    4    0  501  0.46935292828E+02 -0.52270333171E+02 -0.85398133811E+02  0.11065903985E+03  0.41800000000E+01 0. -1.
</event>
<event>
11    1  0.7577197E-009  0.1487940E+03  0.7561462E-02  0.1098118E+00
         22   -1    0    0    0    0  0.00000000000E+00  0.00000000000E+00  0.42598973620E+03  0.42598973620E+03  0.00000000000E+00 0.  1.
         22   -1    0    0    0    0 -0.00000000000E+00 -0.00000000000E+00 -0.55769865387E+03  0.55769865387E+03  0.00000000000E+00 0.  1.
        -24    2    1    2    0    0 -0.87505604405E+01 -0.34303298970E+02 -0.42215984010E+03  0.43138641382E+03  0.81375787646E+02 0.  0.
         25    2    1    2    0    0  0.88686198931E+02  0.35472910498E+02 -0.71833399036E+02  0.17300516135E+03  0.12508868604E+03 0.  0.
         24    2    1    2    0    0 -0.79935638491E+02 -0.11696115286E+01  0.36228432146E+03  0.37929681490E+03  0.78899112297E+02 0.  0.
        -11    1    5    5    0    0 -0.64406695420E+02  0.24661833105E+02  0.32013814273E+03  0.32748260848E+03  0.00000000000E+00 0.  1.
         12    1    5    5    0    0 -0.15528943070E+02 -0.25831444634E+02  0.42146178735E+02  0.51814206418E+02  0.00000000000E+00 0. -1.
         13    1    3    3    0    0 -0.12013480527E+02 -0.48995142672E+02 -0.13975736213E+03  0.14858320225E+03  0.00000000000E+00 0. -1.
        -14    1    3    3    0    0  0.32629200867E+01  0.14691843703E+02 -0.28240247796E+03  0.28280321158E+03  0.00000000000E+00 0.  1.
          5    1    4    4  501    0  0.69340704888E+02  0.56998649361E+01 -0.10381103769E+03  0.12503929687E+03  0.41800000000E+01 0. -1.
         -5    1    4    4    0  501  0.19345494043E+02  0.29773045562E+02  0.31977638652E+02  0.47965864483E+02  0.41800000000E+01 0. -1.
</event>
<event>
11    1  0.7577197E-009  0.2016479E+03  0.7561462E-02  0.1053364E+00
         22   -1    0    0    0    0  0.00000000000E+00  0.00000000000E+00  0.25439855968E+03  0.25439855968E+03  0.00000000000E+00 0. -1.
         22   -1    0    0    0    0 -0.00000000000E+00 -0.00000000000E+00 -0.29733518846E+03  0.29733518846E+03  0.00000000000E+00 0. -1.
         24    2    1    2    0    0  0.80287209487E+02  0.17031005502E+02 -0.47072263454E+01  0.11471445907E+03  0.80007237068E+02 0.  0.
         25    2    1    2    0    0 -0.72253357402E+02 -0.15550692484E+03 -0.13339129846E+03  0.25068453219E+03  0.12508614970E+03 0.  0.
        -24    2    1    2    0    0 -0.80338520853E+01  0.13847591934E+03  0.95161896024E+02  0.18633475689E+03  0.80154426911E+02 0.  0.
        -11    1    3    3    0    0 -0.30537006033E+01 -0.21768752078E+02  0.41090911624E+01  0.22362653792E+02  0.00000000000E+00 0.  1.
         12    1    3    3    0    0  0.83340910091E+02  0.38799757580E+02 -0.88163175079E+01  0.92351805274E+02  0.00000000000E+00 0. -1.
         11    1    5    5    0    0 -0.33015360681E+02  0.11521397099E+03  0.93764659464E+02  0.15217123420E+03  0.00000000000E+00 0. -1.
        -12    1    5    5    0    0  0.24981508596E+02  0.23261948344E+02  0.13972365604E+01  0.34163522688E+02  0.00000000000E+00 0.  1.
          5    1    4    4  501    0 -0.10298689891E+03 -0.11756931612E+03 -0.72001464638E+02  0.17213520485E+03  0.41800000000E+01 0. -1.
         -5    1    4    4    0  501  0.30733541505E+02 -0.37937608718E+02 -0.61389833818E+02  0.78549327336E+02  0.41800000000E+01 0. -1.
</event>
<event>
11    1  0.7577197E-009  0.1672111E+03  0.7561462E-02  0.1080484E+00
         22   -1    0    0    0    0  0.00000000000E+00  0.00000000000E+00  0.27077380684E+03  0.27077380684E+03  0.00000000000E+00 0.  1.
         22   -1    0    0    0    0 -0.00000000000E+00 -0.00000000000E+00 -0.12809437535E+04  0.12809437535E+04  0.00000000000E+00 0.  1.
        -24    2    1    2    0    0 -0.40823676127E+01  0.15902702043E+02 -0.69559504273E+03  0.70046566091E+03  0.80809139224E+02 0.  0.
         25    2    1    2    0    0 -0.46521837559E+02 -0.11421310780E+03 -0.55077256436E+03  0.57810629976E+03  0.12509021068E+03 0.  0.
         24    2    1    2    0    0  0.50604205172E+02  0.98310405761E+02  0.23619766041E+03  0.27314559968E+03  0.81200137804E+02 0.  0.
        -13    1    5    5    0    0  0.54783239050E+02  0.20450229955E+02  0.11537993699E+03  0.12935201987E+03  0.00000000000E+00 0.  1.
         14    1    5    5    0    0 -0.41790338783E+01  0.77860175806E+02  0.12081772343E+03  0.14379357981E+03  0.00000000000E+00 0. -1.
         13    1    3    3    0    0 -0.43138059330E+01 -0.19916444764E+02 -0.51644149251E+02  0.55519292553E+02  0.00000000000E+00 0. -1.
        -14    1    3    3    0    0  0.23143832026E+00  0.35819146807E+02 -0.64395089348E+03  0.64494636835E+03  0.00000000000E+00 0.  1.
          5    1    4    4  501    0  0.38900896258E+02 -0.57474019705E+02 -0.28088990926E+03  0.28936681945E+03  0.41800000000E+01 0.  1.
         -5    1    4    4    0  501 -0.85422733817E+02 -0.56739088099E+02 -0.26988265510E+03  0.28873948032E+03  0.41800000000E+01 0.  1.
</event>
<event>
11    1  0.7577197E-009  0.2036683E+03  0.7561462E-02  0.1051959E+00
         22   -1    0    0    0    0  0.00000000000E+00  0.00000000000E+00  0.28309338015E+03  0.28309338015E+03  0.00000000000E+00 0.  1.
         22   -1    0    0    0    0 -0.00000000000E+00 -0.00000000000E+00 -0.12059250109E+04  0.12059250109E+04  0.00000000000E+00 0.  1.
         24    2    1    2    0    0 -0.14918958286E+03 -0.59193251675E+02 -0.10895374933E+04  0.11042841086E+04  0.81179249183E+02 0.  0.
         25    2    1    2    0    0  0.15664044152E+03  0.49769171597E+02  0.91560882713E+01  0.20674875650E+03  0.12509203012E+03 0.  0.
        -24    2    1    2    0    0 -0.74508586621E+01  0.94240800780E+01  0.15754977427E+03  0.17798552597E+03  0.81930382044E+02 0.  0.
        -11    1    3    3    0    0 -0.99129213555E+02 -0.49769102574E+02 -0.93525471462E+03  0.94180939991E+03  0.00000000000E+00 0.  1.
         12    1    3    3    0    0 -0.50060369305E+02 -0.94241491009E+01 -0.15428277869E+03  0.16247470868E+03  0.00000000000E+00 0. -1.
         13    1    5    5    0    0 -0.64894875028E+01 -0.18610986388E+01 -0.88888757241E+01  0.11161955377E+02  0.00000000000E+00 0. -1.
        -14    1    5    5    0    0 -0.96137115926E+00  0.11285178717E+02  0.16643865000E+03  0.16682357060E+03  0.00000000000E+00 0.  1.
          5    1    4    4  501    0 -0.17574532657E+02  0.22816237750E+02  0.88277943824E+01  0.30411301466E+02  0.41800000000E+01 0.  1.
         -5    1    4    4    0  501  0.17421497418E+03  0.26952933847E+02  0.32829388886E+00  0.17633745503E+03  0.41800000000E+01 0.  1.
</event>
<event>
11    1  0.7577197E-009  0.2854286E+03  0.7561462E-02  0.1006554E+00
         22   -1    0    0    0    0  0.00000000000E+00  0.00000000000E+00  0.41623012251E+03  0.41623012251E+03  0.00000000000E+00 0. -1.
         22   -1    0    0    0    0 -0.00000000000E+00 -0.00000000000E+00 -0.58132545291E+03  0.58132545291E+03  0.00000000000E+00 0. -1.
        -24    2    1    2    0    0  0.63472017723E+00 -0.24984730574E+03 -0.33388628174E+03  0.42481954793E+03  0.81040237620E+02 0.  0.
         25    2    1    2    0    0 -0.17473314091E+03  0.27992284021E+03  0.91479037761E+02  0.36456049892E+03  0.12508987175E+03 0.  0.
         24    2    1    2    0    0  0.17409842074E+03 -0.30075534478E+02  0.77311913580E+02  0.20817552858E+03  0.78390821146E+02 0.  0.
        -11    1    5    5    0    0  0.13391634889E+03  0.11640219948E+02  0.63322279678E+02  0.14858934795E+03  0.00000000000E+00 0.  1.
         12    1    5    5    0    0  0.40182071851E+02 -0.41715754426E+02  0.13989633902E+02  0.59586180632E+02  0.00000000000E+00 0. -1.
         13    1    3    3    0    0  0.96535127380E+00 -0.24233335255E+03 -0.33826810069E+03  0.41611500045E+03  0.00000000000E+00 0. -1.
        -14    1    3    3    0    0 -0.33063109658E+00 -0.75139531900E+01  0.43818189465E+01  0.87045474749E+01  0.00000000000E+00 0.  1.
          5    1    4    4  501    0 -0.13832660959E+03  0.28242416240E+03  0.92458159003E+02  0.32781647609E+03  0.41800000000E+01 0.  1.
         -5    1    4    4    0  501 -0.36406531321E+02 -0.25013221812E+01 -0.97912124155E+00  0.36744022832E+02  0.41800000000E+01 0.  1.
</event>
<event>
11    1  0.7577197E-009  0.3231493E+03  0.7561462E-02  0.9908435E-01
         22   -1    0    0    0    0  0.00000000000E+00  0.00000000000E+00  0.10720736129E+04  0.10720736129E+04  0.00000000000E+00 0. -1.
         22   -1    0    0    0    0 -0.00000000000E+00 -0.00000000000E+00 -0.21202984931E+03  0.21202984931E+03  0.00000000000E+00 0. -1.
        -24    2    1    2    0    0  0.32965069805E+03 -0.30707487378E+02  0.15372641745E+03  0.37404204308E+03  0.81627851034E+02 0.  0.
         25    2    1    2    0    0 -0.57515024733E+02  0.19512727935E+03  0.23109740872E+03  0.33231827636E+03  0.12508713470E+03 0.  0.
         24    2    1    2    0    0 -0.27213567331E+03 -0.16441979198E+03  0.47521993740E+03  0.57774314275E+03  0.82833914627E+02 0.  0.
        -11    1    5    5    0    0 -0.19220779264E+03 -0.15377868190E+03  0.38256993186E+03  0.45491919209E+03  0.00000000000E+00 0.  1.
         12    1    5    5    0    0 -0.79927880668E+02 -0.10641110073E+02  0.92650005534E+02  0.12282395067E+03  0.00000000000E+00 0. -1.
         11    1    3    3    0    0  0.26101222117E+03 -0.57176948768E+02  0.12607723600E+03  0.29545228465E+03  0.00000000000E+00 0. -1.
        -12    1    3    3    0    0  0.68638476880E+02  0.26469461390E+02  0.27649181457E+02  0.78589758429E+02  0.00000000000E+00 0.  1.
          5    1    4    4  501    0 -0.71003770447E+02  0.38128825437E+02  0.88306016783E+02  0.11962762117E+03  0.41800000000E+01 0. -1.
         -5    1    4    4    0  501  0.13488745713E+02  0.15699845392E+03  0.14279139194E+03  0.21269065519E+03  0.41800000000E+01 0. -1.
</event>
<event>
11    1  0.7577197E-009  0.2277003E+03  0.7561462E-02  0.1036498E+00
         22   -1    0    0    0    0  0.00000000000E+00  0.00000000000E+00  0.16245096857E+04  0.16245096857E+04  0.00000000000E+00 0. -1.
         22   -1    0    0    0    0 -0.00000000000E+00 -0.00000000000E+00 -0.41992194497E+03  0.41992194497E+03  0.00000000000E+00 0.  1.
        -24    2    1    2    0    0 -0.15509046316E+03 -0.11061533207E+03 -0.31937985284E+03  0.38039805513E+03  0.80064889260E+02 0.  0.
         25    2    1    2    0    0  0.14768182135E+03  0.11805889659E+03  0.11771051246E+03  0.25544382454E+03  0.12509180361E+03 0.  0.
         24    2    1    2    0    0  0.74086418150E+01 -0.74435645256E+01  0.14062570811E+04  0.14085897510E+04  0.80348079371E+02 0.  0.
        -11    1    5    5    0    0  0.43907599810E+02 -0.25012194279E+01  0.81671442177E+03  0.81789765872E+03  0.00000000000E+00 0.  1.
         12    1    5    5    0    0 -0.36498957996E+02 -0.49423450978E+01  0.58954265932E+03  0.59069209226E+03  0.00000000000E+00 0. -1.
         13    1    3    3    0    0 -0.50794781061E+02 -0.31709702979E+02 -0.40252491648E+02  0.72151771496E+02  0.00000000000E+00 0. -1.
        -14    1    3    3    0    0 -0.10429568210E+03 -0.78905629086E+02 -0.27912736119E+03  0.30824628363E+03  0.00000000000E+00 0.  1.
          5    1    4    4  501    0  0.10670138313E+03  0.96564615654E+02  0.14268135200E+03  0.20269521644E+03  0.41800000000E+01 0.  1.
         -5    1    4    4    0  501  0.40980438214E+02  0.21494280937E+02 -0.24970839539E+02  0.52748608099E+02  0.41800000000E+01 0.  1.
</event>
<event>
11    1  0.7577197E-009  0.1978817E+03  0.7561462E-02  0.1056032E+00
         22   -1    0    0    0    0  0.00000000000E+00  0.00000000000E+00  0.63863312457E+03  0.63863312457E+03  0.00000000000E+00 0. -1.
         22   -1    0    0    0    0 -0.00000000000E+00 -0.00000000000E+00 -0.28545629889E+03  0.28545629889E+03  0.00000000000E+00 0.  1.
         24    2    1    2    0    0 -0.12941321398E+03  0.85670473303E+02 -0.15633452845E+03  0.23471835838E+03  0.81024767976E+02 0.  0.
         25    2    1    2    0    0  0.14003334669E+03 -0.55001818799E+02  0.27456038461E+02  0.19757383043E+03  0.12508815357E+03 0.  0.
        -24    2    1    2    0    0 -0.10620132708E+02 -0.30668654504E+02  0.48205531567E+03  0.49179723465E+03  0.91835935544E+02 0.  0.
        -13    1    3    3    0    0 -0.11993671172E+03  0.52216682069E+02 -0.15059970265E+03  0.19947848792E+03  0.00000000000E+00 0.  1.
         14    1    3    3    0    0 -0.94765022591E+01  0.33453791234E+02 -0.57348258022E+01  0.35239870460E+02  0.00000000000E+00 0. -1.
         13    1    5    5    0    0 -0.21427914221E+01 -0.16908319441E+02  0.47292991581E+03  0.47323692595E+03  0.00000000000E+00 0. -1.
        -14    1    5    5    0    0 -0.84773412859E+01 -0.13760335063E+02  0.91253998654E+01  0.18560308699E+02  0.00000000000E+00 0.  1.
          5    1    4    4  501    0  0.26352029039E+02 -0.52781577928E+02 -0.34039891785E+02  0.68238633015E+02  0.41800000000E+01 0.  1.
         -5    1    4    4    0  501  0.11368131765E+03 -0.22202408717E+01  0.61495930246E+02  0.12933519741E+03  0.41800000000E+01 0.  1.
</event>
<event>
11    1  0.7577197E-009  0.1285965E+03  0.7561462E-02  0.1121006E+00
         22   -1    0    0    0    0  0.00000000000E+00  0.00000000000E+00  0.93847967537E+03  0.93847967537E+03  0.00000000000E+00 0. -1.
         22   -1    0    0    0    0 -0.00000000000E+00 -0.00000000000E+00 -0.31607701866E+03  0.31607701866E+03  0.00000000000E+00 0.  1.
         24    2    1    2    0    0 -0.25082623471E+02  0.19805383461E+02 -0.23534882545E+03  0.25245525888E+03  0.85575679253E+02 0.  0.
         25    2    1    2    0    0 -0.11156400207E+02 -0.33919601670E+02 -0.94576288317E+01  0.13043335639E+03  0.12509360125E+03 0.  0.
        -24    2    1    2    0    0  0.36239023678E+02  0.14114218209E+02  0.86720911099E+03  0.87166807876E+03  0.79000755372E+02 0.  0.
        -13    1    3    3    0    0  0.18650763021E+02  0.89661251004E+01 -0.17953932744E+03  0.18072800685E+03  0.00000000000E+00 0.  1.
         14    1    3    3    0    0 -0.43733386492E+02  0.10839258360E+02 -0.55809498008E+02  0.71727252030E+02  0.00000000000E+00 0. -1.
         13    1    5    5    0    0  0.20896082135E+01 -0.10920042574E+02  0.66406250313E+03  0.66415557052E+03  0.00000000000E+00 0. -1.
        -14    1    5    5    0    0  0.34149415464E+02  0.25034260783E+02  0.20314660786E+03  0.20751250824E+03  0.00000000000E+00 0.  1.
          5    1    4    4  501    0 -0.33090360791E+02 -0.73282080593E+02  0.10075458743E+02  0.81143222651E+02  0.41800000000E+01 0.  1.
         -5    1    4    4    0  501  0.21933960585E+02  0.39362478923E+02 -0.19533087575E+02  0.49290133740E+02  0.41800000000E+01 0.  1.
</event>
<event>
11    1  0.7577197E-009  0.1531747E+03  0.7561462E-02  0.1093678E+00
         22   -1    0    0    0    0  0.00000000000E+00  0.00000000000E+00  0.11974959145E+03  0.11974959145E+03  0.00000000000E+00 0.  1.
         22   -1    0    0    0    0 -0.00000000000E+00 -0.00000000000E+00 -0.95268361988E+03  0.95268361988E+03  0.00000000000E+00 0. -1.
         24    2    1    2    0    0  0.85871477651E+01 -0.12723032236E+02 -0.67828051233E+03  0.68318480773E+03  0.80258416725E+02 0.  0.
         25    2    1    2    0    0  0.78397527338E+02 -0.10382866380E+02 -0.21052310761E+03  0.25733768377E+03  0.12509487777E+03 0.  0.
        -24    2    1    2    0    0 -0.86984675104E+02  0.23105898616E+02  0.55869591505E+02  0.13191071982E+03  0.78605410093E+02 0.  0.
        -13    1    3    3    0    0 -0.63313451895E+01 -0.32543408650E+02 -0.60323441927E+03  0.60414478726E+03  0.00000000000E+00 0.  1.
         14    1    3    3    0    0  0.14918492955E+02  0.19820376414E+02 -0.75046093055E+02  0.79040020471E+02  0.00000000000E+00 0. -1.
         11    1    5    5    0    0 -0.12260013090E+02  0.40862195767E+02  0.21317132008E+02  0.47691163551E+02  0.00000000000E+00 0. -1.
        -12    1    5    5    0    0 -0.74724662013E+02 -0.17756297151E+02  0.34552459497E+02  0.84219556273E+02  0.00000000000E+00 0.  1.
          5    1    4    4  501    0  0.83293472292E+01 -0.59478774656E+02 -0.65979010858E+02  0.89318558730E+02  0.41800000000E+01 0. -1.
         -5    1    4    4    0  501  0.70068180109E+02  0.49095908276E+02 -0.14454409675E+03  0.16801912504E+03  0.41800000000E+01 0. -1.
</event>
<event>
11    1  0.7577197E-009  0.1984784E+03  0.7561462E-02  0.1055605E+00
         22   -1    0    0    0    0  0.00000000000E+00  0.00000000000E+00  0.55718211517E+03  0.55718211517E+03  0.00000000000E+00 0.  1.
         22   -1    0    0    0    0 -0.00000000000E+00 -0.00000000000E+00 -0.59968854322E+03  0.59968854322E+03  0.00000000000E+00 0. -1.
         24    2    1    2    0    0  0.30776107090E+02  0.71526552959E+02 -0.34696127318E+03  0.36487526459E+03  0.81783965914E+02 0.  0.
         25    2    1    2    0    0 -0.14777160435E+03 -0.16510887200E+03 -0.15785648759E+03  0.29943877010E+03  0.12509004635E+03 0.  0.
        -24    2    1    2    0    0  0.11699549726E+03  0.93582319042E+02  0.46231133271E+03  0.49255662371E+03  0.80216347364E+02 0.  0.
        -13    1    3    3    0    0 -0.19882106434E+02 -0.30213809483E+01 -0.37454293416E+02  0.42511774773E+02  0.00000000000E+00 0.  1.
         14    1    3    3    0    0  0.50658213524E+02  0.74547933907E+02 -0.30950697976E+03  0.32236348982E+03  0.00000000000E+00 0. -1.
         11    1    5    5    0    0  0.94927563012E+00  0.13731087437E+02  0.14166907363E+03  0.14233611738E+03  0.00000000000E+00 0. -1.
        -12    1    5    5    0    0  0.11604622163E+03  0.79851231605E+02  0.32064225908E+03  0.35022050633E+03  0.00000000000E+00 0.  1.
          5    1    4    4  501    0 -0.11682282350E+03 -0.41157771090E+02 -0.56007142283E+02  0.13599928897E+03  0.41800000000E+01 0.  1.
         -5    1    4    4    0  501 -0.30948780848E+02 -0.12395110091E+03 -0.10184934531E+03  0.16343948113E+03  0.41800000000E+01 0.  1.
</event>
<event>
11    1  0.7577197E-009  0.1701618E+03  0.7561462E-02  0.1077891E+00
         22   -1    0    0    0    0  0.00000000000E+00  0.00000000000E+00  0.29158291983E+03  0.29158291983E+03  0.00000000000E+00 0. -1.
         22   -1    0    0    0    0 -0.00000000000E+00 -0.00000000000E+00 -0.23716964274E+04  0.23716964274E+04  0.00000000000E+00 0. -1.
         24    2    1    2    0    0  0.15130431570E+02  0.15825501546E+01 -0.22440889677E+04  0.22455998876E+04  0.80945203982E+02 0.  0.
         25    2    1    2    0    0 -0.10862840156E+03  0.62394128076E+02 -0.29313676920E+02  0.17944350475E+03  0.12509005915E+03 0.  0.
        -24    2    1    2    0    0  0.93497969995E+02 -0.63976678231E+02  0.19328913698E+03  0.23823595489E+03  0.80998728255E+02 0.  0.
        -11    1    3    3    0    0 -0.33135907649E+02 -0.27963806916E+01 -0.77870754782E+03  0.77941725228E+03  0.00000000000E+00 0.  1.
         12    1    3    3    0    0  0.48266339218E+02  0.43789308462E+01 -0.14653814199E+04  0.14661826353E+04  0.00000000000E+00 0. -1.
         11    1    5    5    0    0  0.51652028305E+02 -0.79025336900E+02  0.13952261426E+03  0.16846214943E+03  0.00000000000E+00 0. -1.
        -12    1    5    5    0    0  0.41845941690E+02  0.15048658669E+02  0.53766522716E+02  0.69773805462E+02  0.00000000000E+00 0.  1.
          5    1    4    4  501    0 -0.16895039290E+02  0.71656528400E+02 -0.44176279922E+02  0.85959970467E+02  0.41800000000E+01 0.  1.
         -5    1    4    4    0  501 -0.91733362275E+02 -0.92624003236E+01  0.14862603002E+02  0.93483534283E+02  0.41800000000E+01 0.  1.
</event>
<event>
11    1  0.7577197E-009  0.4341862E+03  0.7561462E-02  0.9553948E-01
         22   -1    0    0    0    0  0.00000000000E+00  0.00000000000E+00  0.80888851046E+03  0.80888851046E+03  0.00000000000E+00 0.  1.
         22   -1    0    0    0    0 -0.00000000000E+00 -0.00000000000E+00 -0.22967321739E+04  0.22967321739E+04  0.00000000000E+00 0.  1.
         24    2    1    2    0    0 -0.22740457845E+03  0.34691518760E+03 -0.20971314318E+04  0.21392805572E+04  0.80610610203E+02 0.  0.
         25    2    1    2    0    0  0.24491930477E+03 -0.35233673098E+03  0.11012629588E+03  0.46032664232E+03  0.12508468627E+03 0.  0.
        -24    2    1    2    0    0 -0.17514726319E+02  0.54215433821E+01  0.49916147247E+03  0.50601348484E+03  0.80940178342E+02 0.  0.
        -13    1    3    3    0    0 -0.14462781633E+03  0.15839088644E+03 -0.11782816135E+04  0.11976445378E+04  0.00000000000E+00 0.  1.
         14    1    3    3    0    0 -0.82776762115E+02  0.18852430116E+03 -0.91884981826E+03  0.94163601938E+03  0.00000000000E+00 0. -1.
         11    1    5    5    0    0 -0.94858141160E+01 -0.17234456280E+02  0.27893314351E+02  0.34132742905E+02  0.00000000000E+00 0. -1.
        -12    1    5    5    0    0 -0.80289122026E+01  0.22655999662E+02  0.47126815812E+03  0.47188074194E+03  0.00000000000E+00 0.  1.
          5    1    4    4  501    0  0.10436735764E+03 -0.19172080769E+03  0.11507639070E+03  0.24679842289E+03  0.41800000000E+01 0.  1.
         -5    1    4    4    0  501  0.14055194712E+03 -0.16061592330E+03 -0.49500948225E+01  0.21352821944E+03  0.41800000000E+01 0.  1.
</event>
<event>
11    1  0.7577197E-009  0.1507103E+03  0.7561462E-02  0.1096155E+00
         22   -1    0    0    0    0  0.00000000000E+00  0.00000000000E+00  0.16019929226E+04  0.16019929226E+04  0.00000000000E+00 0.  1.
         22   -1    0    0    0    0 -0.00000000000E+00 -0.00000000000E+00 -0.12792705067E+03  0.12792705067E+03  0.00000000000E+00 0.  1.
        -24    2    1    2    0    0  0.19526581544E+02 -0.71724198255E+02 -0.66285121012E+02  0.12750234780E+03  0.79608312543E+02 0.  0.
         25    2    1    2    0    0 -0.57333807574E+02  0.13995692390E+03  0.31020703896E+03  0.36708557236E+03  0.12509318278E+03 0.  0.
         24    2    1    2    0    0  0.37807226030E+02 -0.68232725647E+02  0.12301439540E+04  0.12353320531E+04  0.81890431028E+02 0.  0.
        -11    1    5    5    0    0  0.50169522268E+02 -0.20076443280E+02  0.88226498230E+03  0.88391829008E+03  0.00000000000E+00 0.  1.
         12    1    5    5    0    0 -0.12362296238E+02 -0.48156282367E+02  0.34787897172E+03  0.35141376306E+03  0.00000000000E+00 0. -1.
         11    1    3    3    0    0  0.39063379703E+02 -0.55399675864E+02 -0.13813028178E+02  0.69179993257E+02  0.00000000000E+00 0. -1.
        -12    1    3    3    0    0 -0.19536798159E+02 -0.16324522391E+02 -0.52472092834E+02  0.58322354547E+02  0.00000000000E+00 0.  1.
          5    1    4    4  501    0  0.30988451406E+02  0.12946619294E+02  0.10331697258E+03  0.10871875779E+03  0.41800000000E+01 0. -1.
         -5    1    4    4    0  501 -0.88322258980E+02  0.12701030461E+03  0.20689006638E+03  0.25836681458E+03  0.41800000000E+01 0. -1.
</event>
<event>
11    1  0.7577197E-009  0.2806101E+03  0.7561462E-02  0.1008749E+00
         22   -1    0    0    0    0  0.00000000000E+00  0.00000000000E+00  0.18989364820E+04  0.18989364820E+04  0.00000000000E+00 0.  1.
         22   -1    0    0    0    0 -0.00000000000E+00 -0.00000000000E+00 -0.69327296548E+02  0.69327296548E+02  0.00000000000E+00 0. -1.
        -24    2    1    2    0    0 -0.23850386117E+03 -0.34990141910E+02  0.33076491551E+03  0.41727802728E+03  0.81284198315E+02 0.  0.
         25    2    1    2    0    0  0.27896394579E+03  0.49546851303E+02  0.11630191058E+04  0.12035515258E+04  0.12508821472E+03 0.  0.
         24    2    1    2    0    0 -0.40460084621E+02 -0.14556709393E+02  0.33582516415E+03  0.34743422540E+03  0.77994127121E+02 0.  0.
        -11    1    5    5    0    0 -0.48575187955E+02 -0.25154103812E+02  0.12822775267E+03  0.13940815750E+03  0.00000000000E+00 0.  1.
         12    1    5    5    0    0  0.81151033339E+01  0.10597394419E+02  0.20759741148E+03  0.20802606790E+03  0.00000000000E+00 0. -1.
         13    1    3    3    0    0 -0.18162961686E+03 -0.55720950210E+02  0.21703544656E+03  0.28844154880E+03  0.00000000000E+00 0. -1.
        -14    1    3    3    0    0 -0.56874244306E+02  0.20730808301E+02  0.11372946895E+03  0.12883647848E+03  0.00000000000E+00 0.  1.
          5    1    4    4  501    0  0.12639939238E+03  0.61381983515E+02  0.36816157826E+03  0.39408752125E+03  0.41800000000E+01 0. -1.
         -5    1    4    4    0  501  0.15256455341E+03 -0.11835132212E+02  0.79485752749E+03  0.80946400458E+03  0.41800000000E+01 0. -1.
</event>
<event>
11    1  0.7577197E-009  0.1713898E+03  0.7561462E-02  0.1076829E+00
         22   -1    0    0    0    0  0.00000000000E+00  0.00000000000E+00  0.72347156113E+03  0.72347156113E+03  0.00000000000E+00 0. -1.
         22   -1    0    0    0    0 -0.00000000000E+00 -0.00000000000E+00 -0.26229221112E+03  0.26229221112E+03  0.00000000000E+00 0. -1.
        -24    2    1    2    0    0  0.39859671131E+02 -0.95568931585E+02 -0.20513172555E+03  0.24117227478E+03  0.73231326830E+02 0.  0.
         25    2    1    2    0    0  0.38394050378E+02  0.15719046993E+03  0.41497001610E+03  0.46263340401E+03  0.12508639136E+03 0.  0.
         24    2    1    2    0    0 -0.78253721509E+02 -0.61621538346E+02  0.25134105946E+03  0.28195809347E+03  0.80044858550E+02 0.  0.
        -11    1    5    5    0    0 -0.18168051480E+02 -0.57160652240E+01  0.16413927733E+01  0.19116633241E+02  0.00000000000E+00 0.  1.
         12    1    5    5    0    0 -0.60085670029E+02 -0.55905473122E+02  0.24969966669E+03  0.26284146022E+03  0.00000000000E+00 0. -1.
         11    1    3    3    0    0 -0.95740327379E+01 -0.57044722267E+02 -0.13639537617E+03  0.14815350512E+03  0.00000000000E+00 0. -1.
        -12    1    3    3    0    0  0.49433703869E+02 -0.38524209318E+02 -0.68736349382E+02  0.93018769655E+02  0.00000000000E+00 0.  1.
          5    1    4    4  501    0  0.57059703759E+01  0.37796055071E+01 -0.81025675800E+01  0.11400329693E+02  0.41800000000E+01 0.  1.
         -5    1    4    4    0  501  0.32688080002E+02  0.15341086442E+03  0.42307258368E+03  0.45123307431E+03  0.41800000000E+01 0.  1.
</event>
<event>
11    1  0.7577197E-009  0.1585402E+03  0.7561462E-02  0.1088458E+00
         22   -1    0    0    0    0  0.00000000000E+00  0.00000000000E+00  0.23501221914E+04  0.23501221914E+04  0.00000000000E+00 0.  1.
         22   -1    0    0    0    0 -0.00000000000E+00 -0.00000000000E+00 -0.16948141074E+04  0.16948141074E+04  0.00000000000E+00 0. -1.
        -24    2    1    2    0    0 -0.79224382402E+02 -0.57150780530E+02 -0.16725938355E+04  0.16771120490E+04  0.74779489922E+02 0.  0.
         25    2    1    2    0    0  0.38732365382E+02  0.55198710776E+02  0.24680519708E+03  0.28479471448E+03  0.12509248694E+03 0.  0.
         24    2    1    2    0    0  0.40492017020E+02  0.19520697537E+01  0.20810967224E+04  0.20830295353E+04  0.80031635584E+02 0.  0.
        -13    1    5    5    0    0  0.62174115956E+02 -0.10501844452E+02  0.16540343610E+04  0.16552358070E+04  0.00000000000E+00 0.  1.
         14    1    5    5    0    0 -0.21682098937E+02  0.12453914206E+02  0.42706236140E+03  0.42779372823E+03  0.00000000000E+00 0. -1.
         13    1    3    3    0    0 -0.44367301874E+02 -0.27611704650E+02 -0.13785043874E+04  0.13794945487E+04  0.00000000000E+00 0. -1.
        -14    1    3    3    0    0 -0.34857080528E+02 -0.29539075880E+02 -0.29408944806E+03  0.29761750037E+03  0.00000000000E+00 0.  1.
          5    1    4    4  501    0  0.51671731368E+02 -0.27006055623E+02  0.11147911443E+03  0.12587438269E+03  0.41800000000E+01 0.  1.
         -5    1    4    4    0  501 -0.12939365985E+02  0.82204766399E+02  0.13532608264E+03  0.15892033178E+03  0.41800000000E+01 0.  1.
</event>
<event>
11    1  0.7577197E-009  0.1608073E+03  0.7561462E-02  0.1086320E+00
         22   -1    0    0    0    0  0.00000000000E+00  0.00000000000E+00  0.29163015181E+03  0.29163015181E+03  0.00000000000E+00 0. -1.
         22   -1    0    0    0    0 -0.00000000000E+00 -0.00000000000E+00 -0.79037073789E+03  0.79037073789E+03  0.00000000000E+00 0. -1.
        -24    2    1    2    0    0  0.67959199538E+02 -0.20243754742E+02 -0.48716935489E+03  0.49875868449E+03  0.79987390255E+02 0.  0.
         25    2    1    2    0    0 -0.47193686096E+02 -0.80460341204E+02 -0.25987875162E+03  0.30311588369E+03  0.12506463484E+03 0.  0.
         24    2    1    2    0    0 -0.20765513442E+02  0.10070409595E+03  0.24830752043E+03  0.28012632152E+03  0.79003859526E+02 0.  0.
        -13    1    5    5    0    0  0.69621567552E+00 -0.89088728319E+01  0.63961246000E+02  0.64582456761E+02  0.00000000000E+00 0.  1.
         14    1    5    5    0    0 -0.21461729118E+02  0.10961296878E+03  0.18434627443E+03  0.21554386476E+03  0.00000000000E+00 0. -1.
         11    1    3    3    0    0  0.20022229015E+02  0.15787167794E+02 -0.32255953369E+03  0.32356572299E+03  0.00000000000E+00 0. -1.
        -12    1    3    3    0    0  0.47936970524E+02 -0.36030922536E+02 -0.16460982120E+03  0.17519296150E+03  0.00000000000E+00 0.  1.
          5    1    4    4  501    0 -0.32421208400E+02 -0.11037603485E+03 -0.15562225474E+03  0.19357107840E+03  0.41800000000E+01 0.  1.
         -5    1    4    4    0  501 -0.14772477696E+02  0.29915693647E+02 -0.10425649688E+03  0.10954480529E+03  0.41800000000E+01 0.  1.
</event>
<event>
11    1  0.7577197E-009  0.1375680E+03  0.7561462E-02  0.1110305E+00
         22   -1    0    0    0    0  0.00000000000E+00  0.00000000000E+00  0.21447634539E+03  0.21447634539E+03  0.00000000000E+00 0. -1.
         22   -1    0    0    0    0 -0.00000000000E+00 -0.00000000000E+00 -0.91920207351E+03  0.91920207351E+03  0.00000000000E+00 0. -1.
         24    2    1    2    0    0 -0.18509524514E+02  0.40836753618E+02 -0.71147612226E+03  0.71697185055E+03  0.76420671215E+02 0.  0.
         25    2    1    2    0    0  0.72230064598E+02 -0.22036450029E+02 -0.16388704270E+03  0.21956697299E+03  0.12509158844E+03 0.  0.
        -24    2    1    2    0    0 -0.53720540083E+02 -0.18800303590E+02  0.17063743684E+03  0.19713959536E+03  0.80669308700E+02 0.  0.
        -11    1    3    3    0    0  0.60231711244E+01 -0.11329499266E+01 -0.49770533864E+03  0.49774307255E+03  0.00000000000E+00 0.  1.
         12    1    3    3    0    0 -0.24532695639E+02  0.41969703545E+02 -0.21377078363E+03  0.21922877800E+03  0.00000000000E+00 0. -1.
         11    1    5    5    0    0 -0.73912647312E+02 -0.47058081957E+01  0.12561781566E+03  0.14582544248E+03  0.00000000000E+00 0. -1.
        -12    1    5    5    0    0  0.20192107228E+02 -0.14094495394E+02  0.45019621184E+02  0.51314152885E+02  0.00000000000E+00 0.  1.
          5    1    4    4  501    0  0.41034236756E+02  0.47046012897E+02 -0.39967586736E+02  0.74242954583E+02  0.41800000000E+01 0.  1.
         -5    1    4    4    0  501  0.31195827842E+02 -0.69082462925E+02 -0.12391945596E+03  0.14532401840E+03  0.41800000000E+01 0.  1.
</event>
<event>
11    1  0.7577197E-009  0.1990069E+03  0.7561462E-02  0.1055228E+00
         22   -1    0    0    0    0  0.00000000000E+00  0.00000000000E+00  0.48640560232E+03  0.48640560232E+03  0.00000000000E+00 0. -1.
         22   -1    0    0    0    0 -0.00000000000E+00 -0.00000000000E+00 -0.66394460741E+03  0.66394460741E+03  0.00000000000E+00 0.  1.
        -24    2    1    2    0    0 -0.30378445349E+02 -0.32999314147E+02 -0.58427421759E+03  0.59156110378E+03  0.80971436287E+02 0.  0.
         25    2    1    2    0    0  0.67926534383E+02 -0.12645969156E+03  0.14739579252E+03  0.24078806995E+03  0.12508919744E+03 0.  0.
         24    2    1    2    0    0 -0.37548089035E+02  0.15945900571E+03  0.25933941999E+03  0.31800103599E+03  0.83849213710E+02 0.  0.
        -11    1    5    5    0    0 -0.26326104652E+02  0.12861104532E+02  0.85184618826E+02  0.90082690238E+02  0.00000000000E+00 0.  1.
         12    1    5    5    0    0 -0.11221984382E+02  0.14659790118E+03  0.17415480116E+03  0.22791834575E+03  0.00000000000E+00 0. -1.
         13    1    3    3    0    0  0.17254893672E+02  0.16228430767E+02 -0.12795771962E+03  0.13013174605E+03  0.00000000000E+00 0. -1.
        -14    1    3    3    0    0 -0.47633339021E+02 -0.49227744914E+02 -0.45631649797E+03  0.46142935773E+03  0.00000000000E+00 0.  1.
          5    1    4    4  501    0  0.23623196604E+02 -0.13596137580E+03  0.80293560108E+02  0.15971248956E+03  0.41800000000E+01 0.  1.
         -5    1    4    4    0  501  0.44303337779E+02  0.95016842365E+01  0.67102232409E+02  0.81075580393E+02  0.41800000000E+01 0.  1.
</event>
<event>
11    1  0.7577197E-009  0.1407100E+03  0.7561462E-02  0.1106768E+00
         22   -1    0    0    0    0  0.00000000000E+00  0.00000000000E+00  0.70204227170E+03  0.70204227170E+03  0.00000000000E+00 0. -1.
         22   -1    0    0    0    0 -0.00000000000E+00 -0.00000000000E+00 -0.16072563686E+03  0.16072563686E+03  0.00000000000E+00 0. -1.
         24    2    1    2    0    0  0.42986623528E+02  0.40382956632E+02 -0.81898739415E+02  0.12904558522E+03  0.80415959602E+02 0.  0.
         25    2    1    2    0    0 -0.31473906982E+02 -0.10037105954E+03  0.80644954905E+02  0.18225454703E+03  0.12509258470E+03 0.  0.
        -24    2    1    2    0    0 -0.11512716546E+02  0.59988102910E+02  0.54257041936E+03  0.55146777630E+03  0.77478598383E+02 0.  0.
        -13    1    3    3    0    0 -0.14729558757E+02 -0.17885964998E+01  0.57775901420E+01  0.15922924558E+02  0.00000000000E+00 0.  1.
         14    1    3    3    0    0  0.57716182286E+02  0.42171553132E+02 -0.87676329557E+02  0.11312266066E+03  0.00000000000E+00 0. -1.
         11    1    5    5    0    0 -0.19915056987E+01  0.11726138349E+02  0.40824410475E+03  0.40841733249E+03  0.00000000000E+00 0. -1.
        -12    1    5    5    0    0 -0.95212108475E+01  0.48261964562E+02  0.13432631461E+03  0.14305044381E+03  0.00000000000E+00 0.  1.
          5    1    4    4  501    0 -0.47481397963E+02 -0.12469879581E+03  0.60300242994E+02  0.14648503177E+03  0.41800000000E+01 0. -1.
         -5    1    4    4    0  501  0.16007490980E+02  0.24327736264E+02  0.20344711912E+02  0.35769515260E+02  0.41800000000E+01 0. -1.
</event>
<event>
11    1  0.7577197E-009  0.1371259E+03  0.7561462E-02  0.1110811E+00
         22   -1    0    0    0    0  0.00000000000E+00  0.00000000000E+00  0.17951667736E+03  0.17951667736E+03  0.00000000000E+00 0. -1.
         22   -1    0    0    0    0 -0.00000000000E+00 -0.00000000000E+00 -0.57094886532E+03  0.57094886532E+03  0.00000000000E+00 0.  1.
        -24    2    1    2    0    0  0.50353021490E+02  0.15856341130E+02 -0.44558265939E+03  0.45613220151E+03  0.82011149090E+02 0.  0.
         25    2    1    2    0    0 -0.96582084404E+02 -0.13300016326E+02 -0.38298012071E+02  0.16315319588E+03  0.12508892091E+03 0.  0.
         24    2    1    2    0    0  0.46229062914E+02 -0.25563248033E+01  0.92448483505E+02  0.13118014529E+03  0.80733186242E+02 0.  0.
        -13    1    5    5    0    0 -0.14198458409E+02  0.13641271405E+02  0.54646432971E+02  0.58085395266E+02  0.00000000000E+00 0.  1.
         14    1    5    5    0    0  0.60427521323E+02 -0.16197596208E+02  0.37802050534E+02  0.73094750022E+02  0.00000000000E+00 0. -1.
         13    1    3    3    0    0  0.19400023782E+02  0.54390515028E+01 -0.17156327822E+02  0.26462875662E+02  0.00000000000E+00 0. -1.
        -14    1    3    3    0    0  0.30952997708E+02  0.10417289627E+02 -0.42842633157E+03  0.42966932585E+03  0.00000000000E+00 0.  1.
          5    1    4    4  501    0 -0.12122758307E+03 -0.18506255494E+02 -0.53032245586E+02  0.13367310822E+03  0.41800000000E+01 0. -1.
         -5    1    4    4    0  501  0.24645498667E+02  0.52062391672E+01  0.14734233515E+02  0.29480087654E+02  0.41800000000E+01 0. -1.
</event>
<event>
11    1  0.7577197E-009  0.1531228E+03  0.7561462E-02  0.1093730E+00
         22   -1    0    0    0    0  0.00000000000E+00  0.00000000000E+00  0.25895567009E+03  0.25895567009E+03  0.00000000000E+00 0. -1.
         22   -1    0    0    0    0 -0.00000000000E+00 -0.00000000000E+00 -0.24509610880E+03  0.24509610880E+03  0.00000000000E+00 0. -1.
        -24    2    1    2    0    0 -0.80471914252E+02 -0.35637990049E+02 -0.15243203419E+03  0.19367160413E+03  0.80792139968E+02 0.  0.
         25    2    1    2    0    0  0.73066591727E+02  0.55806478964E+02  0.42447629190E+02  0.16093831904E+03  0.12508497668E+03 0.  0.
         24    2    1    2    0    0  0.74053225246E+01 -0.20168488915E+02  0.12384396629E+03  0.14944185573E+03  0.80832750242E+02 0.  0.
        -11    1    5    5    0    0 -0.18611188702E+01  0.20428696420E+02  0.19199540353E+01  0.20602951836E+02  0.00000000000E+00 0.  1.
         12    1    5    5    0    0  0.92664413947E+01 -0.40597185335E+02  0.12192401225E+03  0.12883890389E+03  0.00000000000E+00 0. -1.
         13    1    3    3    0    0 -0.68360941445E+02 -0.48571956861E+02 -0.15454084928E+03  0.17582755019E+03  0.00000000000E+00 0. -1.
        -14    1    3    3    0    0 -0.12110972807E+02  0.12933966812E+02  0.21088150952E+01  0.17844053938E+02  0.00000000000E+00 0.  1.
          5    1    4    4  501    0  0.70145768655E+02  0.80852878465E+02  0.66298497259E+02  0.12597849005E+03  0.41800000000E+01 0. -1.
         -5    1    4    4    0  501  0.29208230721E+01 -0.25046399501E+02 -0.23850868069E+02  0.34959828990E+02  0.41800000000E+01 0. -1.
</event>
<event>
11    1  0.7577197E-009  0.1807501E+03  0.7561462E-02  0.1069038E+00
         22   -1    0    0    0    0  0.00000000000E+00  0.00000000000E+00  0.12045221095E+04  0.12045221095E+04  0.00000000000E+00 0. -1.
         22   -1    0    0    0    0 -0.00000000000E+00 -0.00000000000E+00 -0.13442521014E+03  0.13442521014E+03  0.00000000000E+00 0. -1.
        -24    2    1    2    0    0 -0.34457556474E+01 -0.93346045354E+02 -0.66547373610E+02  0.13713871263E+03  0.75187207363E+02 0.  0.
         25    2    1    2    0    0 -0.28739108536E+02  0.19846979946E+03  0.53196494716E+03  0.58210847225E+03  0.12508945122E+03 0.  0.
         24    2    1    2    0    0  0.32184864183E+02 -0.10512375410E+03  0.60467932582E+03  0.61970013478E+03  0.79399627277E+02 0.  0.
        -11    1    5    5    0    0 -0.14712116505E+02 -0.29610339920E+02  0.66908654684E+02  0.74632343349E+02  0.00000000000E+00 0.  1.
         12    1    5    5    0    0  0.46896980689E+02 -0.75513414183E+02  0.53777067114E+03  0.54506779143E+03  0.00000000000E+00 0. -1.
         11    1    3    3    0    0 -0.27492964009E+02 -0.81192768041E+02 -0.69058408854E+02  0.11007811992E+03  0.00000000000E+00 0. -1.
        -12    1    3    3    0    0  0.24047208362E+02 -0.12153277312E+02  0.25110352441E+01  0.27060592703E+02  0.00000000000E+00 0.  1.
          5    1    4    4  501    0  0.70493453089E+01  0.91264187829E+02  0.10021799251E+03  0.13579382781E+03  0.41800000000E+01 0.  1.
         -5    1    4    4    0  501 -0.35788453845E+02  0.10720561163E+03  0.43174695465E+03  0.44631464444E+03  0.41800000000E+01 0.  1.
</event>
<event>
11    1  0.7577197E-009  0.1688283E+03  0.7561462E-02  0.1079056E+00
         22   -1    0    0    0    0  0.00000000000E+00  0.00000000000E+00  0.25757402766E+03  0.25757402766E+03  0.00000000000E+00 0. -1.
         22   -1    0    0    0    0 -0.00000000000E+00 -0.00000000000E+00 -0.23831106807E+03  0.23831106807E+03  0.00000000000E+00 0. -1.
         24    2    1    2    0    0 -0.30943580288E+02 -0.10026569536E+03 -0.87343175393E+02  0.15904792648E+03  0.81588588674E+02 0.  0.
         25    2    1    2    0    0 -0.55264359155E+01  0.14053478412E+03 -0.18925921160E+01  0.18823334861E+03  0.12509054554E+03 0.  0.
        -24    2    1    2    0    0  0.36470016203E+02 -0.40269088760E+02  0.10849872710E+03  0.14860382065E+03  0.85787295901E+02 0.  0.
        -11    1    3    3    0    0 -0.39188703939E+02 -0.18466905897E+02 -0.66110498236E+01  0.43823362600E+02  0.00000000000E+00 0.  1.
         12    1    3    3    0    0  0.82451236511E+01 -0.81798789462E+02 -0.80732125570E+02  0.11522456388E+03  0.00000000000E+00 0. -1.
         13    1    5    5    0    0  0.21806788890E+02  0.10194289835E+02  0.89569732502E+02  0.92748027297E+02  0.00000000000E+00 0. -1.
        -14    1    5    5    0    0  0.14663227313E+02 -0.50463378595E+02  0.18928994595E+02  0.55855793351E+02  0.00000000000E+00 0.  1.
          5    1    4    4  501    0  0.57747595716E+02  0.61508452583E+02  0.14148869412E+02  0.85648919759E+02  0.41800000000E+01 0. -1.
         -5    1    4    4    0  501 -0.63274031632E+02  0.79026331535E+02 -0.16041461528E+02  0.10258442885E+03  0.41800000000E+01 0. -1.
</event>
<event>
11    1  0.7577197E-009  0.1271524E+03  0.7561462E-02  0.1122818E+00
         22   -1    0    0    0    0  0.00000000000E+00  0.00000000000E+00  0.29998402078E+03  0.29998402078E+03  0.00000000000E+00 0. -1.
         22   -1    0    0    0    0 -0.00000000000E+00 -0.00000000000E+00 -0.81439597767E+03  0.81439597767E+03  0.00000000000E+00 0.  1.
         24    2    1    2    0    0  0.50217566494E+01  0.28524564187E+02 -0.69546809710E+03  0.70066138948E+03  0.80072715855E+02 0.  0.
         25    2    1    2    0    0  0.10657793381E+02 -0.99330624490E+01 -0.72856078635E+02  0.14549319337E+03  0.12509199348E+03 0.  0.
        -24    2    1    2    0    0 -0.15679550030E+02 -0.18591501738E+02  0.25391221885E+03  0.26822541559E+03  0.82957618476E+02 0.  0.
        -11    1    3    3    0    0 -0.55994585330E+01 -0.24392451694E+02 -0.36100930228E+03  0.36187575487E+03  0.00000000000E+00 0.  1.
         12    1    3    3    0    0  0.10621215182E+02  0.52917015881E+02 -0.33445879483E+03  0.33878563461E+03  0.00000000000E+00 0. -1.
         11    1    5    5    0    0  0.14156124982E+01 -0.45146972631E+02  0.20562118199E+03  0.21052392638E+03  0.00000000000E+00 0. -1.
        -12    1    5    5    0    0 -0.17095162528E+02  0.26555470893E+02  0.48291036858E+02  0.57701489210E+02  0.00000000000E+00 0.  1.
          5    1    4    4  501    0  0.52407729229E+01  0.35415772240E+02  0.20509931936E+02  0.41471343506E+02  0.41800000000E+01 0. -1.
         -5    1    4    4    0  501  0.54170204579E+01 -0.45348834689E+02 -0.93366010571E+02  0.10402184986E+03  0.41800000000E+01 0. -1.
</event>
<event>
11    1  0.7577197E-009  0.1282781E+03  0.7561462E-02  0.1121403E+00
         22   -1    0    0    0    0  0.00000000000E+00  0.00000000000E+00  0.10127217852E+04  0.10127217852E+04  0.00000000000E+00 0.  1.
         22   -1    0    0    0    0 -0.00000000000E+00 -0.00000000000E+00 -0.13400912711E+03  0.13400912711E+03  0.00000000000E+00 0. -1.
        -24    2    1    2    0    0 -0.26118773239E+02  0.11290094262E+02 -0.10244893245E+03  0.13128498250E+03  0.77008482161E+02 0.  0.
         25    2    1    2    0    0  0.32933739612E+02  0.71731743365E+01  0.26840486462E+03  0.29803510802E+03  0.12509064162E+03 0.  0.
         24    2    1    2    0    0 -0.68149663721E+01 -0.18463268598E+02  0.71275672596E+03  0.71741082183E+03  0.79175759094E+02 0.  0.
        -11    1    5    5    0    0  0.22246414561E+02 -0.38889864977E+02  0.45868539777E+03  0.46086833119E+03  0.00000000000E+00 0.  1.
         12    1    5    5    0    0 -0.29061380933E+02  0.20426596379E+02  0.25407132818E+03  0.25654249064E+03  0.00000000000E+00 0. -1.
         13    1    3    3    0    0 -0.36243717986E+01 -0.20363807969E+02 -0.87111264743E+02  0.89533196029E+02  0.00000000000E+00 0. -1.
        -14    1    3    3    0    0 -0.22494401441E+02  0.31653902231E+02 -0.15337667710E+02  0.41751786470E+02  0.00000000000E+00 0.  1.
          5    1    4    4  501    0 -0.11273137896E+02 -0.53209947580E+02  0.10905202000E+03  0.12193521897E+03  0.41800000000E+01 0.  1.
         -5    1    4    4    0  501  0.44206877508E+02  0.60383121916E+02  0.15935284463E+03  0.17609988905E+03  0.41800000000E+01 0.  1.
</event>
<event>
11    1  0.7577197E-009  0.1674310E+03  0.7561462E-02  0.1080289E+00
         22   -1    0    0    0    0  0.00000000000E+00  0.00000000000E+00  0.94594899204E+03  0.94594899204E+03  0.00000000000E+00 0.  1.
         22   -1    0    0    0    0 -0.00000000000E+00 -0.00000000000E+00 -0.13340278641E+03  0.13340278641E+03  0.00000000000E+00 0. -1.
        -24    2    1    2    0    0 -0.86094566528E+01  0.61910105275E+00 -0.84609423580E+02  0.11421360591E+03  0.76233110826E+02 0.  0.
         25    2    1    2    0    0  0.96560482210E+02  0.65330899233E+02  0.24449463128E+03  0.29835755178E+03  0.12509017091E+03 0.  0.
         24    2    1    2    0    0 -0.87951025557E+02 -0.65950000285E+02  0.65266099793E+03  0.66678062077E+03  0.80902611697E+02 0.  0.
        -13    1    5    5    0    0 -0.97101421952E+02 -0.75437352093E+02  0.60229378850E+03  0.61471724224E+03  0.00000000000E+00 0.  1.
         14    1    5    5    0    0  0.91503963956E+01  0.94873518074E+01  0.50367209427E+02  0.52063378530E+02  0.00000000000E+00 0. -1.
         11    1    3    3    0    0 -0.36610815429E+02  0.17367202620E+02 -0.63583494692E+02  0.75397827093E+02  0.00000000000E+00 0. -1.
        -12    1    3    3    0    0  0.28001358776E+02 -0.16748101567E+02 -0.21025928888E+02  0.38815778815E+02  0.00000000000E+00 0.  1.
          5    1    4    4  501    0  0.10766131585E+03  0.85963147629E+02  0.23558808248E+03  0.27294658578E+03  0.41800000000E+01 0.  1.
         -5    1    4    4    0  501 -0.11100833642E+02 -0.20632248397E+02  0.89065487980E+01  0.25410965998E+02  0.41800000000E+01 0.  1.
</event>
<event>
11    1  0.7577197E-009  0.2729985E+03  0.7561462E-02  0.1012314E+00
         22   -1    0    0    0    0  0.00000000000E+00  0.00000000000E+00  0.12112145550E+04  0.12112145550E+04  0.00000000000E+00 0. -1.
         22   -1    0    0    0    0 -0.00000000000E+00 -0.00000000000E+00 -0.31172521285E+03  0.31172521285E+03  0.00000000000E+00 0. -1.
        -24    2    1    2    0    0  0.96072304138E+01 -0.80633033756E+01 -0.23439884255E+03  0.24817684880E+03  0.80570560101E+02 0.  0.
         25    2    1    2    0    0  0.10676516092E+03 -0.20853292873E+03  0.29540485210E+03  0.39723574015E+03  0.12508966648E+03 0.  0.
         24    2    1    2    0    0 -0.11637239133E+03  0.21659623210E+03  0.83848333260E+03  0.87752717889E+03  0.80889983421E+02 0.  0.
        -13    1    5    5    0    0 -0.35787111448E+01  0.13421220426E+02  0.10121511636E+02  0.17186661368E+02  0.00000000000E+00 0.  1.
         14    1    5    5    0    0 -0.11279368019E+03  0.20317501168E+03  0.82836182097E+03  0.86034051752E+03  0.00000000000E+00 0. -1.
         11    1    3    3    0    0  0.15431933599E+02  0.34278937331E+02 -0.13114292958E+03  0.13642455094E+03  0.00000000000E+00 0. -1.
        -12    1    3    3    0    0 -0.58247031851E+01 -0.42342240706E+02 -0.10325591297E+03  0.11175229787E+03  0.00000000000E+00 0.  1.
          5    1    4    4  501    0  0.36112529331E+02 -0.21562609924E+01  0.92019360056E+02  0.98963625951E+02  0.41800000000E+01 0.  1.
         -5    1    4    4    0  501  0.70652631586E+02 -0.20637666774E+03  0.20338549205E+03  0.29827211420E+03  0.41800000000E+01 0.  1.
</event>
<event>
11    1  0.7577197E-009  0.1342025E+03  0.7561462E-02  0.1114211E+00
         22   -1    0    0    0    0  0.00000000000E+00  0.00000000000E+00  0.12935266056E+04  0.12935266056E+04  0.00000000000E+00 0. -1.
         22   -1    0    0    0    0 -0.00000000000E+00 -0.00000000000E+00 -0.49476033643E+03  0.49476033643E+03  0.00000000000E+00 0. -1.
        -24    2    1    2    0    0  0.41827386768E+02 -0.36117796302E+02 -0.47788134685E+03  0.48775935683E+03  0.80526908633E+02 0.  0.
         25    2    1    2    0    0  0.15590031099E+02  0.15336581621E+02  0.43782241802E+03  0.45585972835E+03  0.12506543250E+03 0.  0.
         24    2    1    2    0    0 -0.57417417867E+02  0.20781214681E+02  0.83882519800E+03  0.84466785684E+03  0.78150219603E+02 0.  0.
        -11    1    5    5    0    0  0.53473702422E+01  0.26089115408E+01  0.37347186182E+01  0.70248780126E+01  0.00000000000E+00 0.  1.
         12    1    5    5    0    0 -0.62764788109E+02  0.18172303140E+02  0.83509047938E+03  0.83764297883E+03  0.00000000000E+00 0. -1.
         11    1    3    3    0    0  0.38420974997E+02 -0.43034604752E+00 -0.40203976667E+03  0.40387167578E+03  0.00000000000E+00 0. -1.
        -12    1    3    3    0    0  0.34064117709E+01 -0.35687450255E+02 -0.75841580184E+02  0.83887681048E+02  0.00000000000E+00 0.  1.
          5    1    4    4  501    0  0.59609267802E+02 -0.22930282188E+02  0.16813371522E+03  0.17990408901E+03  0.41800000000E+01 0.  1.
         -5    1    4    4    0  501 -0.44019236703E+02  0.38266863809E+02  0.26968870281E+03  0.27595563935E+03  0.41800000000E+01 0.  1.
</event>
<event>
11    1  0.7577197E-009  0.2155277E+03  0.7561462E-02  0.1044056E+00
         22   -1    0    0    0    0  0.00000000000E+00  0.00000000000E+00  0.26373608140E+03  0.26373608140E+03  0.00000000000E+00 0.  1.
         22   -1    0    0    0    0 -0.00000000000E+00 -0.00000000000E+00 -0.46764639413E+03  0.46764639413E+03  0.00000000000E+00 0. -1.
         24    2    1    2    0    0 -0.17250944598E+03  0.55101734187E+02 -0.35140060890E+03  0.40273907459E+03  0.76945852390E+02 0.  0.
         25    2    1    2    0    0  0.14662438442E+03 -0.15478278070E+02  0.75040935078E+02  0.20740814394E+03  0.12509480020E+03 0.  0.
        -24    2    1    2    0    0  0.25885061555E+02 -0.39623456117E+02  0.72449361095E+02  0.12123525700E+03  0.84905965221E+02 0.  0.
        -13    1    3    3    0    0 -0.67181166157E+02 -0.14771487485E+02 -0.10030757570E+03  0.12162695290E+03  0.00000000000E+00 0.  1.
         14    1    3    3    0    0 -0.10532827982E+03  0.69873221672E+02 -0.25109303320E+03  0.28111212169E+03  0.00000000000E+00 0. -1.
         11    1    5    5    0    0  0.38761331630E+02 -0.39250197753E+02  0.82749689142E+01  0.55780766972E+02  0.00000000000E+00 0. -1.
        -12    1    5    5    0    0 -0.12876270075E+02 -0.37325836332E+00  0.64174392181E+02  0.65454490027E+02  0.00000000000E+00 0.  1.
          5    1    4    4  501    0  0.41230015548E+01 -0.14715025498E+02  0.62291267128E+02  0.64274454316E+02  0.41800000000E+01 0.  1.
         -5    1    4    4    0  501  0.14250138287E+03 -0.76325257251E+00  0.12749667950E+02  0.14313368963E+03  0.41800000000E+01 0.  1.
</event>
<event>
11    1  0.7577197E-009  0.1383336E+03  0.7561462E-02  0.1109434E+00
         22   -1    0    0    0    0  0.00000000000E+00  0.00000000000E+00  0.25612535081E+03  0.25612535081E+03  0.00000000000E+00 0.  1.
         22   -1    0    0    0    0 -0.00000000000E+00 -0.00000000000E+00 -0.47073094500E+03  0.47073094500E+03  0.00000000000E+00 0.  1.
        -24    2    1    2    0    0  0.57921251578E+02  0.15493156609E+02 -0.38788789318E+03  0.40113270685E+03  0.82798076944E+02 0.  0.
         25    2    1    2    0    0 -0.56808044141E+02  0.27891705514E+02  0.12275630930E+02  0.14072131603E+03  0.12508675611E+03 0.  0.
         24    2    1    2    0    0 -0.11132074374E+01 -0.43384862124E+02  0.16100666806E+03  0.18500227293E+03  0.80119962180E+02 0.  0.
        -11    1    5    5    0    0  0.39194506188E+02 -0.24406398498E+02  0.90527253363E+02  0.10162216886E+03  0.00000000000E+00 0.  1.
         12    1    5    5    0    0 -0.40307713626E+02 -0.18978463626E+02  0.70479414692E+02  0.83380104070E+02  0.00000000000E+00 0. -1.
         13    1    3    3    0    0  0.27629054971E+02  0.33221744417E+02 -0.77209712802E+02  0.88478182236E+02  0.00000000000E+00 0. -1.
        -14    1    3    3    0    0  0.30292196607E+02 -0.17728587808E+02 -0.31067818038E+03  0.31265452462E+03  0.00000000000E+00 0.  1.
          5    1    4    4  501    0 -0.55642388734E+02 -0.16542857118E+02  0.54161675357E+02  0.79502836573E+02  0.41800000000E+01 0.  1.
         -5    1    4    4    0  501 -0.11656554070E+01  0.44434562632E+02 -0.41886044427E+02  0.61218479453E+02  0.41800000000E+01 0.  1.
</event>
<event>
11    1  0.7577197E-009  0.1523026E+03  0.7561462E-02  0.1094549E+00
         22   -1    0    0    0    0  0.00000000000E+00  0.00000000000E+00  0.58251796121E+03  0.58251796121E+03  0.00000000000E+00 0.  1.
         22   -1    0    0    0    0 -0.00000000000E+00 -0.00000000000E+00 -0.20166663976E+04  0.20166663976E+04  0.00000000000E+00 0. -1.
         24    2    1    2    0    0  0.77324314874E+02 -0.39807521247E+02 -0.19589988044E+04  0.19625649376E+04  0.80131955253E+02 0.  0.
         25    2    1    2    0    0 -0.81830425599E+02  0.15446630305E+02  0.56482498294E+02  0.16055342889E+03  0.12510920819E+03 0.  0.
        -24    2    1    2    0    0  0.45061107242E+01  0.24360890941E+02  0.46836786965E+03  0.47606599238E+03  0.81588048993E+02 0.  0.
        -13    1    3    3    0    0 -0.15739979251E+02 -0.65158992319E+01 -0.17406253978E+03  0.17489417270E+03  0.00000000000E+00 0.  1.
         14    1    3    3    0    0  0.93064294126E+02 -0.33291622015E+02 -0.17849362646E+04  0.17876707649E+04  0.00000000000E+00 0. -1.
         13    1    5    5    0    0 -0.13035149122E+02 -0.20155503275E+02  0.55946354340E+02  0.60878189763E+02  0.00000000000E+00 0. -1.
        -14    1    5    5    0    0  0.17541259846E+02  0.44516394216E+02  0.41242151531E+03  0.41518780261E+03  0.00000000000E+00 0.  1.
          5    1    4    4  501    0 -0.27678399704E+02 -0.15932707189E+01 -0.39811045781E+02  0.48693162641E+02  0.41800000000E+01 0. -1.
         -5    1    4    4    0  501 -0.54152025895E+02  0.17039901024E+02  0.96293544075E+02  0.11186026625E+03  0.41800000000E+01 0. -1.
</event>
<event>
11    1  0.7577197E-009  0.1444424E+03  0.7561462E-02  0.1102697E+00
         22   -1    0    0    0    0  0.00000000000E+00  0.00000000000E+00  0.20747197895E+03  0.20747197895E+03  0.00000000000E+00 0. -1.
         22   -1    0    0    0    0 -0.00000000000E+00 -0.00000000000E+00 -0.29672398407E+03  0.29672398407E+03  0.00000000000E+00 0. -1.
        -24    2    1    2    0    0 -0.68934040698E+02  0.74209031233E+01 -0.13746796981E+03  0.17386548853E+03  0.80776194553E+02 0.  0.
         25    2    1    2    0    0  0.75792404988E+02 -0.27624189122E+02 -0.83501277857E+02  0.17067620649E+03  0.12510123733E+03 0.  0.
         24    2    1    2    0    0 -0.68583642900E+01  0.20203285999E+02  0.13171724256E+03  0.15965426800E+03  0.87663238458E+02 0.  0.
        -11    1    5    5    0    0  0.26023272508E+02  0.68099546541E+00  0.40032976828E+01  0.26338201517E+02  0.00000000000E+00 0.  1.
         12    1    5    5    0    0 -0.32881636798E+02  0.19522290534E+02  0.12771394488E+03  0.13331606648E+03  0.00000000000E+00 0. -1.
         13    1    3    3    0    0 -0.46389795910E+02  0.40476476689E+02 -0.10747810601E+03  0.12386243014E+03  0.00000000000E+00 0. -1.
        -14    1    3    3    0    0 -0.22544244788E+02 -0.33055573566E+02 -0.29989863804E+02  0.50003058385E+02  0.00000000000E+00 0.  1.
          5    1    4    4  501    0 -0.25731803978E+02 -0.55246836595E+01  0.12242686147E+02  0.29325818481E+02  0.41800000000E+01 0.  1.
         -5    1    4    4    0  501  0.10152420897E+03 -0.22099505463E+02 -0.95743964004E+02  0.14135038801E+03  0.41800000000E+01 0.  1.
</event>
<event>
11    1  0.7577197E-009  0.1911795E+03  0.7561462E-02  0.1060942E+00
         22   -1    0    0    0    0  0.00000000000E+00  0.00000000000E+00  0.14865643090E+04  0.14865643090E+04  0.00000000000E+00 0. -1.
         22   -1    0    0    0    0 -0.00000000000E+00 -0.00000000000E+00 -0.33794663973E+03  0.33794663973E+03  0.00000000000E+00 0. -1.
        -24    2    1    2    0    0  0.61565951221E+02  0.45724784259E+02 -0.28532268626E+03  0.30641477183E+03  0.81239490741E+02 0.  0.
         25    2    1    2    0    0 -0.12462460241E+03  0.86206064674E+02  0.22962726118E+03  0.30222287752E+03  0.12508881449E+03 0.  0.
         24    2    1    2    0    0  0.63058651190E+02 -0.13193084893E+03  0.12043130943E+04  0.12158732994E+04  0.81213967394E+02 0.  0.
        -13    1    5    5    0    0  0.68595005663E+02 -0.79292950043E+02  0.97036220293E+03  0.97600996491E+03  0.00000000000E+00 0.  1.
         14    1    5    5    0    0 -0.55363544734E+01 -0.52637898889E+02  0.23395089140E+03  0.23986333444E+03  0.00000000000E+00 0. -1.
         13    1    3    3    0    0  0.65360855101E+02  0.83715208749E+01 -0.23216154955E+03  0.24133194739E+03  0.00000000000E+00 0. -1.
        -14    1    3    3    0    0 -0.37949038802E+01  0.37353263384E+02 -0.53161136710E+02  0.65082824441E+02  0.00000000000E+00 0.  1.
          5    1    4    4  501    0 -0.12333745368E+02 -0.88091009322E+01 -0.11679692952E+02  0.19585942956E+02  0.41800000000E+01 0. -1.
         -5    1    4    4    0  501 -0.11229085704E+03  0.95015165606E+02  0.24130695413E+03  0.28263693457E+03  0.41800000000E+01 0. -1.
</event>
<event>
11    1  0.7577197E-009  0.1366501E+03  0.7561462E-02  0.1111358E+00
         22   -1    0    0    0    0  0.00000000000E+00  0.00000000000E+00  0.15876951761E+03  0.15876951761E+03  0.00000000000E+00 0. -1.
         22   -1    0    0    0    0 -0.00000000000E+00 -0.00000000000E+00 -0.16911972138E+04  0.16911972138E+04  0.00000000000E+00 0. -1.
        -24    2    1    2    0    0 -0.19485818724E+02 -0.35302128462E+02 -0.15866278931E+04  0.15892558798E+04  0.81977086710E+02 0.  0.
         25    2    1    2    0    0 -0.40204045751E+02  0.22189239418E+02 -0.20299877248E+02  0.13478937476E+03  0.12508941958E+03 0.  0.
         24    2    1    2    0    0  0.59689864475E+02  0.13112889044E+02  0.74500074141E+02  0.12592147693E+03  0.81062503815E+02 0.  0.
        -11    1    5    5    0    0 -0.91423734622E+01 -0.15531157954E+02 -0.31264619744E+01  0.18291381151E+02  0.00000000000E+00 0.  1.
         12    1    5    5    0    0  0.68832237937E+02  0.28644046998E+02  0.77626536116E+02  0.10763009578E+03  0.00000000000E+00 0. -1.
         13    1    3    3    0    0  0.18552844126E+02 -0.47510102794E+02 -0.96295287717E+03  0.96430268149E+03  0.00000000000E+00 0. -1.
        -14    1    3    3    0    0 -0.38038662850E+02  0.12207974332E+02 -0.62367501596E+03  0.62495319828E+03  0.00000000000E+00 0.  1.
          5    1    4    4  501    0  0.21958093376E+02  0.51009027142E+01 -0.56330545466E+02  0.60817594705E+02  0.41800000000E+01 0. -1.
         -5    1    4    4    0  501 -0.62162139127E+02  0.17088336704E+02  0.36030668218E+02  0.73971780054E+02  0.41800000000E+01 0. -1.
</event>
<event>
11    1  0.7577197E-009  0.1415004E+03  0.7561462E-02  0.1105894E+00
         22   -1    0    0    0    0  0.00000000000E+00  0.00000000000E+00  0.13180563244E+04  0.13180563244E+04  0.00000000000E+00 0. -1.
         22   -1    0    0    0    0 -0.00000000000E+00 -0.00000000000E+00 -0.28900314343E+03  0.28900314343E+03  0.00000000000E+00 0. -1.
        -24    2    1    2    0    0 -0.57298783705E+02 -0.40731819499E+02 -0.24691564429E+03  0.26930805711E+03  0.81346557992E+02 0.  0.
         25    2    1    2    0    0  0.90559686084E+01  0.14371465695E+02  0.10642933621E+03  0.16511539471E+03  0.12508932955E+03 0.  0.
         24    2    1    2    0    0  0.48242815097E+02  0.26360353804E+02  0.11695394890E+04  0.11726360160E+04  0.65041311095E+02 0.  0.
        -11    1    5    5    0    0  0.70129572547E+01  0.39190464558E+02  0.69362741316E+03  0.69476907125E+03  0.00000000000E+00 0.  1.
         12    1    5    5    0    0  0.41229857842E+02 -0.12830110755E+02  0.47591207587E+03  0.47786694474E+03  0.00000000000E+00 0. -1.
         11    1    3    3    0    0 -0.68710500786E+02 -0.41363285673E+02 -0.13661051076E+03  0.15841239210E+03  0.00000000000E+00 0. -1.
        -12    1    3    3    0    0  0.11411717082E+02  0.63146617471E+00 -0.11030513352E+03  0.11089566501E+03  0.00000000000E+00 0.  1.
          5    1    4    4  501    0 -0.29857345515E+02 -0.45550181661E+02  0.48215883392E+02  0.72859618046E+02  0.41800000000E+01 0. -1.
         -5    1    4    4    0  501  0.38913314123E+02  0.59921647356E+02  0.58213452820E+02  0.92255776660E+02  0.41800000000E+01 0. -1.
</event>
<event>
11    1  0.1343475E-008  0.1665716E+03  0.7561462E-02  0.1081054E+00
         22   -1    0    0    0    0  0.00000000000E+00  0.00000000000E+00  0.54502870296E+03  0.54502870296E+03  0.00000000000E+00 0.  1.
         22   -1    0    0    0    0 -0.00000000000E+00 -0.00000000000E+00 -0.91393492005E+03  0.91393492005E+03  0.00000000000E+00 0. -1.
        -24    2    1    2    0    0  0.41976890558E+02 -0.29278392900E+02 -0.79207010103E+03  0.79830358013E+03  0.85406542278E+02 0.  0.
         25    2    1    2    0    0  0.70953615352E+02  0.16120227319E+02 -0.60896468061E+02  0.15700418862E+03  0.12509059982E+03 0.  0.
         24    2    1    2    0    0 -0.11293050591E+03  0.13158165581E+02  0.48406035200E+03  0.50365585426E+03  0.80177045737E+02 0.  0.
        -11    1    5    5    0    0 -0.60546191012E+02 -0.28726168263E+02  0.30908130077E+03  0.31626299890E+03  0.00000000000E+00 0.  1.
         12    1    5    5    0    0 -0.52384314898E+02  0.41884333844E+02  0.17497905124E+03  0.18739285536E+03  0.00000000000E+00 0. -1.
         13    1    3    3    0    0 -0.45080902045E+01 -0.39059391438E+02 -0.17291749424E+03  0.17733138118E+03  0.00000000000E+00 0. -1.
        -14    1    3    3    0    0  0.46484980762E+02  0.97809985381E+01 -0.61915260679E+03  0.62097219895E+03  0.00000000000E+00 0.  1.
          5    1    4    4  501    0 -0.11204673727E+02  0.33745227029E+02 -0.63428167699E+02  0.72834675246E+02  0.41800000000E+01 0.  1.
         -5    1    4    4    0  501  0.82158289079E+02 -0.17624999710E+02  0.25316996386E+01  0.84169513378E+02  0.41800000000E+01 0.  1.
</event>
<event>
11    1  0.7577197E-009  0.1733855E+03  0.7561462E-02  0.1075122E+00
         22   -1    0    0    0    0  0.00000000000E+00  0.00000000000E+00  0.24249133568E+04  0.24249133568E+04  0.00000000000E+00 0.  1.
         22   -1    0    0    0    0 -0.00000000000E+00 -0.00000000000E+00 -0.40420003153E+03  0.40420003153E+03  0.00000000000E+00 0.  1.
         24    2    1    2    0    0  0.11273865458E+03 -0.40523934756E+02 -0.37405203737E+03  0.40112927728E+03  0.81471325671E+02 0.  0.
         25    2    1    2    0    0 -0.10987882551E+03  0.80829476072E+02  0.53424382462E+03  0.56539332875E+03  0.12508553693E+03 0.  0.
        -24    2    1    2    0    0 -0.28598290687E+01 -0.40305541316E+02  0.18605215380E+04  0.18625907823E+04  0.77918634578E+02 0.  0.
        -11    1    3    3    0    0  0.88109129242E+02 -0.46613339999E+02 -0.35676502246E+03  0.37042854017E+03  0.00000000000E+00 0.  1.
         12    1    3    3    0    0  0.24629525338E+02  0.60894052424E+01 -0.17287014907E+02  0.30700737108E+02  0.00000000000E+00 0. -1.
         13    1    5    5    0    0 -0.66168802823E+01  0.22740162178E+02  0.39545394359E+03  0.39616249139E+03  0.00000000000E+00 0. -1.
        -14    1    5    5    0    0  0.37570512136E+01 -0.63045703493E+02  0.14650675944E+04  0.14664282909E+04  0.00000000000E+00 0.  1.
          5    1    4    4  501    0  0.24017487296E+02  0.54750340811E+01  0.14067316521E+03  0.14287486659E+03  0.41800000000E+01 0.  1.
         -5    1    4    4    0  501 -0.13389631281E+03  0.75354441991E+02  0.39357065941E+03  0.42251846215E+03  0.41800000000E+01 0.  1.
</event>
<event>
11    1  0.7577197E-009  0.1890878E+03  0.7561462E-02  0.1062520E+00
         22   -1    0    0    0    0  0.00000000000E+00  0.00000000000E+00  0.28578886737E+03  0.28578886737E+03  0.00000000000E+00 0.  1.
         22   -1    0    0    0    0 -0.00000000000E+00 -0.00000000000E+00 -0.16886359959E+04  0.16886359959E+04  0.00000000000E+00 0.  1.
         24    2    1    2    0    0 -0.48600798532E+02  0.47758088066E+02 -0.13295889913E+04  0.13337574099E+04  0.80368339544E+02 0.  0.
         25    2    1    2    0    0  0.12232996015E+03  0.74613545529E+02 -0.30367454587E+03  0.35832630711E+03  0.12509081594E+03 0.  0.
        -24    2    1    2    0    0 -0.73729161621E+02 -0.12237163360E+03  0.23041640864E+03  0.28234114628E+03  0.78828900348E+02 0.  0.
        -11    1    3    3    0    0 -0.22709814025E+02  0.68233186709E+02 -0.96605411259E+03  0.96872702650E+03  0.00000000000E+00 0.  1.
         12    1    3    3    0    0 -0.25890984507E+02 -0.20475098643E+02 -0.36353487874E+03  0.36503038339E+03  0.00000000000E+00 0. -1.
         11    1    5    5    0    0 -0.55326959379E+02 -0.19518778150E+02  0.84754600468E+02  0.10307956847E+03  0.00000000000E+00 0. -1.
        -12    1    5    5    0    0 -0.18402202242E+02 -0.10285285545E+03  0.14566180817E+03  0.17926157782E+03  0.00000000000E+00 0.  1.
          5    1    4    4  501    0  0.57172460702E+02 -0.12362245846E+02 -0.34564367777E+02  0.68071163534E+02  0.41800000000E+01 0. -1.
         -5    1    4    4    0  501  0.65157499451E+02  0.86975791375E+02 -0.26911017809E+03  0.29025514358E+03  0.41800000000E+01 0. -1.
</event>
<event>
11    1  0.7577197E-009  0.1336885E+03  0.7561462E-02  0.1114818E+00
         22   -1    0    0    0    0  0.00000000000E+00  0.00000000000E+00  0.26466550272E+03  0.26466550272E+03  0.00000000000E+00 0.  1.
         22   -1    0    0    0    0 -0.00000000000E+00 -0.00000000000E+00 -0.60747988941E+03  0.60747988941E+03  0.00000000000E+00 0. -1.
         24    2    1    2    0    0 -0.90857348256E+01  0.43494598491E+01 -0.55330782369E+03  0.55884679438E+03  0.77837802267E+02 0.  0.
         25    2    1    2    0    0 -0.31561632618E+02 -0.31283338853E+02  0.91768318161E+02  0.16137981420E+03  0.12508891346E+03 0.  0.
        -24    2    1    2    0    0  0.40647367444E+02  0.26933879004E+02  0.11872511884E+03  0.15191878354E+03  0.81277430031E+02 0.  0.
        -11    1    3    3    0    0  0.14232297579E+01 -0.11417413513E+01  0.23986994591E+01  0.30137875426E+01  0.00000000000E+00 0.  1.
         12    1    3    3    0    0 -0.10508964584E+02  0.54912012004E+01 -0.55570652315E+03  0.55583300684E+03  0.00000000000E+00 0. -1.
         13    1    5    5    0    0  0.48047623762E+02 -0.14741091645E+02  0.48011148857E+02  0.69504995120E+02  0.00000000000E+00 0. -1.
        -14    1    5    5    0    0 -0.74002563175E+01  0.41674970649E+02  0.70713969981E+02  0.82413788425E+02  0.00000000000E+00 0.  1.
          5    1    4    4  501    0 -0.49371991957E+02  0.37113699550E+02  0.44773214150E+02  0.76401134740E+02  0.41800000000E+01 0.  1.
         -5    1    4    4    0  501  0.17810359339E+02 -0.68397038404E+02  0.46995104011E+02  0.84978679462E+02  0.41800000000E+01 0.  1.
</event>
<event>
11    1  0.7577197E-009  0.1354871E+03  0.7561462E-02  0.1112705E+00
         22   -1    0    0    0    0  0.00000000000E+00  0.00000000000E+00  0.12025922029E+04  0.12025922029E+04  0.00000000000E+00 0.  1.
         22   -1    0    0    0    0 -0.00000000000E+00 -0.00000000000E+00 -0.72805504799E+03  0.72805504799E+03  0.00000000000E+00 0.  1.
        -24    2    1    2    0    0  0.21657163830E+02  0.12187872910E+02 -0.60056271174E+03  0.60677850186E+03  0.82987966548E+02 0.  0.
         25    2    1    2    0    0 -0.62928261973E+02 -0.43243131460E+02 -0.78512696724E+02  0.16625931483E+03  0.12509189281E+03 0.  0.
         24    2    1    2    0    0  0.41271098142E+02  0.31055258550E+02  0.11536125634E+04  0.11576094342E+04  0.81055062490E+02 0.  0.
        -13    1    5    5    0    0  0.78935193443E+01  0.32944487949E+01  0.91744023564E+03  0.91748010715E+03  0.00000000000E+00 0.  1.
         14    1    5    5    0    0  0.33377578798E+02  0.27760809755E+02  0.23617232774E+03  0.24012932706E+03  0.00000000000E+00 0. -1.
         11    1    3    3    0    0  0.51303413995E+02 -0.36361649350E+01 -0.30428602088E+03  0.30860208114E+03  0.00000000000E+00 0. -1.
        -12    1    3    3    0    0 -0.29646250164E+02  0.15824037845E+02 -0.29627669086E+03  0.29817642071E+03  0.00000000000E+00 0.  1.
          5    1    4    4  501    0 -0.10131211584E+03 -0.30535635081E+02 -0.57554222846E+02  0.12052605856E+03  0.41800000000E+01 0.  1.
         -5    1    4    4    0  501  0.38383853864E+02 -0.12707496379E+02 -0.20958473878E+02  0.45733256269E+02  0.41800000000E+01 0.  1.
</event>
<event>
11    1  0.7577197E-009  0.1719572E+03  0.7561462E-02  0.1076341E+00
         22   -1    0    0    0    0  0.00000000000E+00  0.00000000000E+00  0.15075527918E+04  0.15075527918E+04  0.00000000000E+00 0.  1.
         22   -1    0    0    0    0 -0.00000000000E+00 -0.00000000000E+00 -0.14839770620E+03  0.14839770620E+03  0.00000000000E+00 0. -1.
        -24    2    1    2    0    0 -0.17339219641E+02 -0.66483476647E+02 -0.93134217436E+02  0.14147065050E+03  0.81358842739E+02 0.  0.
         25    2    1    2    0    0  0.50524263159E+02  0.16959353786E+03  0.41281384247E+03  0.46623767936E+03  0.12509051070E+03 0.  0.
         24    2    1    2    0    0 -0.33185043517E+02 -0.10311006121E+03  0.10394754605E+04  0.10482421681E+04  0.81052317113E+02 0.  0.
        -13    1    5    5    0    0 -0.40343966470E+02 -0.11370342483E+03  0.98061781206E+03  0.98801184091E+03  0.00000000000E+00 0.  1.
         14    1    5    5    0    0  0.71589229526E+01  0.10593363613E+02  0.58857648469E+02  0.60230327193E+02  0.00000000000E+00 0. -1.
         13    1    3    3    0    0 -0.13903088220E+02 -0.83759420909E+02 -0.89725028165E+02  0.12352941808E+03  0.00000000000E+00 0. -1.
        -14    1    3    3    0    0 -0.34361314217E+01  0.17275944262E+02 -0.34091892711E+01  0.17941232420E+02  0.00000000000E+00 0.  1.
          5    1    4    4  501    0  0.49500921489E+02  0.18098108216E+03  0.41344572534E+03  0.45404772164E+03  0.41800000000E+01 0. -1.
         -5    1    4    4    0  501  0.10233416700E+01 -0.11387544296E+02 -0.63188286557E+00  0.12189957721E+02  0.41800000000E+01 0. -1.
</event>
<event>
11    1  0.7577197E-009  0.1896562E+03  0.7561462E-02  0.1062089E+00
         22   -1    0    0    0    0  0.00000000000E+00  0.00000000000E+00  0.35134678524E+03  0.35134678524E+03  0.00000000000E+00 0.  1.
         22   -1    0    0    0    0 -0.00000000000E+00 -0.00000000000E+00 -0.20805862559E+03  0.20805862559E+03  0.00000000000E+00 0. -1.
         24    2    1    2    0    0 -0.35320677290E+02 -0.43159766925E+02 -0.49417060765E+01  0.98101052650E+02  0.80554828203E+02 0.  0.
         25    2    1    2    0    0  0.15428843436E+03  0.10265673783E+03 -0.29276328783E+02  0.22549337417E+03  0.12508729579E+03 0.  0.
        -24    2    1    2    0    0 -0.11896775707E+03 -0.59496970900E+02  0.17750619450E+03  0.23581098402E+03  0.80032208059E+02 0.  0.
        -11    1    3    3    0    0 -0.39734158046E+02  0.51081771703E+01  0.18656522778E+02  0.44192336799E+02  0.00000000000E+00 0.  1.
         12    1    3    3    0    0  0.44134807565E+01 -0.48267944095E+02 -0.23598228854E+02  0.53908715850E+02  0.00000000000E+00 0. -1.
         11    1    5    5    0    0 -0.17865741284E+02  0.18316581286E+02  0.45686039332E+02  0.52363117282E+02  0.00000000000E+00 0. -1.
        -12    1    5    5    0    0 -0.10110201579E+03 -0.77813552186E+02  0.13182015517E+03  0.18344786673E+03  0.00000000000E+00 0.  1.
          5    1    4    4  501    0  0.60522675987E+02  0.71820028967E+02 -0.71440177314E+02  0.11807744156E+03  0.41800000000E+01 0.  1.
         -5    1    4    4    0  501  0.93765758372E+02  0.30836708858E+02  0.42163848532E+02  0.10741593261E+03  0.41800000000E+01 0.  1.
</event>
<event>
11    1  0.7577197E-009  0.1985618E+03  0.7561462E-02  0.1055545E+00
         22   -1    0    0    0    0  0.00000000000E+00  0.00000000000E+00  0.19620657146E+04  0.19620657146E+04  0.00000000000E+00 0.  1.
         22   -1    0    0    0    0 -0.00000000000E+00 -0.00000000000E+00 -0.53152780635E+03  0.53152780635E+03  0.00000000000E+00 0.  1.
        -24    2    1    2    0    0 -0.10467249771E+03  0.11164465896E+03 -0.47590517112E+03  0.50640063187E+03  0.80839386482E+02 0.  0.
         25    2    1    2    0    0  0.13999635537E+03 -0.11200976229E+03  0.26581694398E+03  0.34416703481E+03  0.12508850375E+03 0.  0.
         24    2    1    2    0    0 -0.35323857663E+02  0.36510332557E+00  0.16406261354E+04  0.16430258543E+04  0.81436683787E+02 0.  0.
        -13    1    5    5    0    0 -0.52176564959E+02  0.15438767460E+02  0.14565913976E+04  0.14576073714E+04  0.00000000000E+00 0.  1.
         14    1    5    5    0    0  0.16852707297E+02 -0.15073664135E+02  0.18403473777E+03  0.18541848290E+03  0.00000000000E+00 0. -1.
         13    1    3    3    0    0 -0.40284188209E+02  0.70507770832E+02 -0.13937750270E+03  0.16130793479E+03  0.00000000000E+00 0. -1.
        -14    1    3    3    0    0 -0.64388309503E+02  0.41136888133E+02 -0.33652766842E+03  0.34509269708E+03  0.00000000000E+00 0.  1.
          5    1    4    4  501    0  0.10885169631E+03 -0.41966728899E+02  0.75692314768E+02  0.13912834736E+03  0.41800000000E+01 0. -1.
         -5    1    4    4    0  501  0.31144659064E+02 -0.70043033391E+02  0.19012462922E+03  0.20503868745E+03  0.41800000000E+01 0. -1.
</event>
<event>
11    1  0.7577197E-009  0.1566296E+03  0.7561462E-02  0.1090291E+00
         22   -1    0    0    0    0  0.00000000000E+00  0.00000000000E+00  0.11634006536E+03  0.11634006536E+03  0.00000000000E+00 0.  1.
         22   -1    0    0    0    0 -0.00000000000E+00 -0.00000000000E+00 -0.77239749410E+03  0.77239749410E+03  0.00000000000E+00 0.  1.
         24    2    1    2    0    0  0.38570578159E+02  0.89592122166E+02 -0.63587294094E+03  0.65005103731E+03  0.93367640218E+02 0.  0.
         25    2    1    2    0    0 -0.95662746239E+01 -0.67858167187E+02 -0.23839407696E+02  0.14461216888E+03  0.12509243609E+03 0.  0.
        -24    2    1    2    0    0 -0.29004303536E+02 -0.21733954979E+02  0.36549198909E+01  0.94074353267E+02  0.86735293165E+02 0.  0.
        -13    1    3    3    0    0  0.61743946409E+02  0.40043189417E+02 -0.46056487239E+03  0.46640730442E+03  0.00000000000E+00 0.  1.
         14    1    3    3    0    0 -0.23173368249E+02  0.49548932748E+02 -0.17530806855E+03  0.18364373289E+03  0.00000000000E+00 0. -1.
         11    1    5    5    0    0 -0.43284715372E+02  0.18027018568E+02 -0.13007822677E+02  0.48659463973E+02  0.00000000000E+00 0. -1.
        -12    1    5    5    0    0  0.14280411837E+02 -0.39760973547E+02  0.16662742568E+02  0.45414889294E+02  0.00000000000E+00 0.  1.
          5    1    4    4  501    0  0.36500173889E+02 -0.60317779023E+02  0.26868099083E+02  0.75563644092E+02  0.41800000000E+01 0. -1.
         -5    1    4    4    0  501 -0.46066448512E+02 -0.75403881641E+01 -0.50707506778E+02  0.69048524792E+02  0.41800000000E+01 0. -1.
</event>
<event>
11    1  0.7577197E-009  0.1405385E+03  0.7561462E-02  0.1106959E+00
         22   -1    0    0    0    0  0.00000000000E+00  0.00000000000E+00  0.64396209441E+03  0.64396209441E+03  0.00000000000E+00 0.  1.
         22   -1    0    0    0    0 -0.00000000000E+00 -0.00000000000E+00 -0.12302148669E+04  0.12302148669E+04  0.00000000000E+00 0. -1.
        -24    2    1    2    0    0  0.40927777933E+02 -0.15851378111E+02 -0.77418455135E+03  0.77924046587E+03  0.76991135237E+02 0.  0.
         25    2    1    2    0    0 -0.95441512157E+01  0.71739343719E+02 -0.43817406574E+03  0.46139269769E+03  0.12509630427E+03 0.  0.
         24    2    1    2    0    0 -0.31383626718E+02 -0.55887965607E+02  0.62610584463E+03  0.63354379771E+03  0.72531498117E+02 0.  0.
        -13    1    5    5    0    0 -0.25276227489E+02 -0.51758139489E+01  0.43390842905E+03  0.43467482274E+03  0.00000000000E+00 0.  1.
         14    1    5    5    0    0 -0.61073992289E+01 -0.50712151659E+02  0.19219741558E+03  0.19886897497E+03  0.00000000000E+00 0. -1.
         13    1    3    3    0    0  0.16949129144E+02  0.24184087139E+02 -0.51792922912E+03  0.51877049784E+03  0.00000000000E+00 0. -1.
        -14    1    3    3    0    0  0.23978648790E+02 -0.40035465250E+02 -0.25625532223E+03  0.26046996803E+03  0.00000000000E+00 0.  1.
          5    1    4    4  501    0  0.46938645669E+02  0.73604247812E+02 -0.28343734824E+03  0.29660584035E+03  0.41800000000E+01 0. -1.
         -5    1    4    4    0  501 -0.56482796885E+02 -0.18649040928E+01 -0.15473671750E+03  0.16478685734E+03  0.41800000000E+01 0. -1.
</event>
<event>
11    1  0.7577197E-009  0.1357596E+03  0.7561462E-02  0.1112388E+00
         22   -1    0    0    0    0  0.00000000000E+00  0.00000000000E+00  0.23597929269E+04  0.23597929269E+04  0.00000000000E+00 0.  1.
         22   -1    0    0    0    0 -0.00000000000E+00 -0.00000000000E+00 -0.33943000026E+03  0.33943000026E+03  0.00000000000E+00 0. -1.
         24    2    1    2    0    0 -0.21367569593E+02  0.27593918188E+02 -0.32139815188E+03  0.33335661063E+03  0.81313347437E+02 0.  0.
         25    2    1    2    0    0  0.72075991784E+01 -0.76348051098E+02  0.48339985368E+03  0.50516934894E+03  0.12505869893E+03 0.  0.
        -24    2    1    2    0    0  0.14159970414E+02  0.48754132909E+02  0.18583612248E+04  0.18606969676E+04  0.78161966406E+02 0.  0.
        -11    1    3    3    0    0 -0.16987766867E+02 -0.16295580976E+02 -0.27640338674E+02  0.36305901786E+02  0.00000000000E+00 0.  1.
         12    1    3    3    0    0 -0.43798027254E+01  0.43889499164E+02 -0.29375781320E+03  0.29705070885E+03  0.00000000000E+00 0. -1.
         11    1    5    5    0    0 -0.26531394163E+02  0.41844515092E+02  0.80137393255E+03  0.80290414004E+03  0.00000000000E+00 0. -1.
        -12    1    5    5    0    0  0.40691364577E+02  0.69096178172E+01  0.10569872923E+04  0.10577928275E+04  0.00000000000E+00 0.  1.
          5    1    4    4  501    0 -0.42757860651E+02 -0.85230463290E+02  0.33108768723E+03  0.34457074100E+03  0.41800000000E+01 0.  1.
         -5    1    4    4    0  501  0.49965459830E+02  0.88824121925E+01  0.15231216645E+03  0.16059860794E+03  0.41800000000E+01 0.  1.
</event>
<event>
11    1  0.7577197E-009  0.2152672E+03  0.7561462E-02  0.1044223E+00
         22   -1    0    0    0    0  0.00000000000E+00  0.00000000000E+00  0.30664695097E+03  0.30664695097E+03  0.00000000000E+00 0. -1.
         22   -1    0    0    0    0 -0.00000000000E+00 -0.00000000000E+00 -0.47258109692E+03  0.47258109692E+03  0.00000000000E+00 0. -1.
         24    2    1    2    0    0  0.21518584868E+02  0.19547927132E+02 -0.23333888310E+03  0.24851958431E+03  0.80434933137E+02 0.  0.
         25    2    1    2    0    0  0.13662155950E+03 -0.98821629096E+02 -0.13548850073E+03  0.24987059151E+03  0.12508802411E+03 0.  0.
        -24    2    1    2    0    0 -0.15814014436E+03  0.79273701964E+02  0.20289323787E+03  0.28083787207E+03  0.80072587892E+02 0.  0.
        -13    1    3    3    0    0  0.56679649945E+00 -0.29226365516E+02 -0.11774771030E+03  0.12132198886E+03  0.00000000000E+00 0.  1.
         14    1    3    3    0    0  0.20951788369E+02  0.48774292648E+02 -0.11559117280E+03  0.12719759545E+03  0.00000000000E+00 0. -1.
         13    1    5    5    0    0 -0.12330597017E+03  0.85256249272E+02  0.19252193059E+03  0.24400345096E+03  0.00000000000E+00 0. -1.
        -14    1    5    5    0    0 -0.34834174191E+02 -0.59825473075E+01  0.10371307277E+02  0.36834421110E+02  0.00000000000E+00 0.  1.
          5    1    4    4  501    0  0.62802883803E+02  0.17198320009E+02 -0.75488546162E+02  0.99779644351E+02  0.41800000000E+01 0. -1.
         -5    1    4    4    0  501  0.73818675692E+02 -0.11601994911E+03 -0.59999954567E+02  0.15009094716E+03  0.41800000000E+01 0. -1.
</event>
<event>
11    1  0.7577197E-009  0.1281502E+03  0.7561462E-02  0.1121563E+00
         22   -1    0    0    0    0  0.00000000000E+00  0.00000000000E+00  0.84720901442E+03  0.84720901442E+03  0.00000000000E+00 0.  1.
         22   -1    0    0    0    0 -0.00000000000E+00 -0.00000000000E+00 -0.79350355819E+02  0.79350355819E+02  0.00000000000E+00 0.  1.
         24    2    1    2    0    0  0.19464993266E+01 -0.55847694346E+00 -0.34797829719E+02  0.86600870379E+02  0.79276232511E+02 0.  0.
         25    2    1    2    0    0  0.44862783851E+01  0.27624604777E+02  0.25263158665E+03  0.28329035718E+03  0.12508981741E+03 0.  0.
        -24    2    1    2    0    0 -0.64327777117E+01 -0.27066127833E+02  0.55002490167E+03  0.55666814267E+03  0.81105318590E+02 0.  0.
        -13    1    3    3    0    0  0.33397610911E+02  0.11254826076E+01 -0.42609802833E+02  0.54150368633E+02  0.00000000000E+00 0.  1.
         14    1    3    3    0    0 -0.31451111584E+02 -0.16839595511E+01  0.78119731138E+01  0.32450501746E+02  0.00000000000E+00 0. -1.
         13    1    5    5    0    0 -0.32255784162E+02 -0.31435948336E+02  0.17409102445E+03  0.17982307764E+03  0.00000000000E+00 0. -1.
        -14    1    5    5    0    0  0.25823006450E+02  0.43698205030E+01  0.37593387722E+03  0.37684506503E+03  0.00000000000E+00 0.  1.
          5    1    4    4  501    0 -0.24225914232E+02 -0.26274704715E+02  0.19800321489E+03  0.20124611930E+03  0.41800000000E+01 0. -1.
         -5    1    4    4    0  501  0.28712192617E+02  0.53899309492E+02  0.54628371759E+02  0.82044237882E+02  0.41800000000E+01 0. -1.
</event>
<event>
11    1  0.7577197E-009  0.1369365E+03  0.7561462E-02  0.1111028E+00
         22   -1    0    0    0    0  0.00000000000E+00  0.00000000000E+00  0.20034436280E+03  0.20034436280E+03  0.00000000000E+00 0.  1.
         22   -1    0    0    0    0 -0.00000000000E+00 -0.00000000000E+00 -0.93886731290E+03  0.93886731290E+03  0.00000000000E+00 0.  1.
        -24    2    1    2    0    0 -0.19527225001E+02 -0.50188446123E+02 -0.72519297698E+03  0.73150167640E+03  0.79307351939E+02 0.  0.
         25    2    1    2    0    0  0.65649160403E+02  0.50208052998E+02 -0.16893049159E+03  0.22587286972E+03  0.12510148455E+03 0.  0.
         24    2    1    2    0    0 -0.46121935401E+02 -0.19606875860E-01  0.15560051847E+03  0.18183712958E+03  0.82012115165E+02 0.  0.
        -11    1    5    5    0    0 -0.43808818596E+02 -0.18784975477E+02  0.15580008817E+03  0.16292868183E+03  0.00000000000E+00 0.  1.
         12    1    5    5    0    0 -0.23131168057E+01  0.18765368601E+02 -0.19956969303E+00  0.18908447746E+02  0.00000000000E+00 0. -1.
         11    1    3    3    0    0 -0.33887275590E+01  0.80630657731E+01 -0.82763505488E+01  0.12041365476E+02  0.00000000000E+00 0. -1.
        -12    1    3    3    0    0 -0.16138497442E+02 -0.58251511896E+02 -0.71691662643E+03  0.71946031093E+03  0.00000000000E+00 0.  1.
          5    1    4    4  501    0  0.30055576859E+02 -0.28461968064E+02 -0.11895028950E+03  0.12601613032E+03  0.41800000000E+01 0.  1.
         -5    1    4    4    0  501  0.35593583544E+02  0.78670021063E+02 -0.49980202088E+02  0.99856739403E+02  0.41800000000E+01 0.  1.
</event>
<event>
11    1  0.7577197E-009  0.1488701E+03  0.7561462E-02  0.1098039E+00
         22   -1    0    0    0    0  0.00000000000E+00  0.00000000000E+00  0.45985332679E+03  0.45985332679E+03  0.00000000000E+00 0.  1.
         22   -1    0    0    0    0 -0.00000000000E+00 -0.00000000000E+00 -0.25637558688E+04  0.25637558688E+04  0.00000000000E+00 0. -1.
         24    2    1    2    0    0  0.16166647166E+02 -0.79983582777E+02 -0.20810503538E+04  0.20841856263E+04  0.80002600134E+02 0.  0.
         25    2    1    2    0    0 -0.69933984046E+02  0.58548250379E+02 -0.46324414353E+03  0.48842958904E+03  0.12509862986E+03 0.  0.
        -24    2    1    2    0    0  0.53767336880E+02  0.21435332398E+02  0.44039195534E+03  0.45099398018E+03  0.78103110289E+02 0.  0.
        -13    1    3    3    0    0  0.42501589568E+02 -0.20416939483E+02 -0.68814683201E+03  0.68976031992E+03  0.00000000000E+00 0.  1.
         14    1    3    3    0    0 -0.26334942402E+02 -0.59566643294E+02 -0.13929035218E+04  0.13944253064E+04  0.00000000000E+00 0. -1.
         11    1    5    5    0    0  0.62886380474E+02  0.25461597858E+02  0.21652971245E+03  0.22690990765E+03  0.00000000000E+00 0. -1.
        -12    1    5    5    0    0 -0.91190435938E+01 -0.40262654595E+01  0.22386224289E+03  0.22408407253E+03  0.00000000000E+00 0.  1.
          5    1    4    4  501    0 -0.67437023980E+02  0.34796806773E+02 -0.10636073573E+03  0.13072355744E+03  0.41800000000E+01 0. -1.
         -5    1    4    4    0  501 -0.24969600666E+01  0.23751443605E+02 -0.35688340780E+03  0.35770603160E+03  0.41800000000E+01 0. -1.
</event>
<event>
11    1  0.7577197E-009  0.1473826E+03  0.7561462E-02  0.1099584E+00
         22   -1    0    0    0    0  0.00000000000E+00  0.00000000000E+00  0.69970910057E+03  0.69970910057E+03  0.00000000000E+00 0.  1.
         22   -1    0    0    0    0 -0.00000000000E+00 -0.00000000000E+00 -0.80784939798E+03  0.80784939798E+03  0.00000000000E+00 0. -1.
        -24    2    1    2    0    0 -0.20282875897E+02  0.44180156582E+02 -0.62232313067E+03  0.62936422827E+03  0.80311715036E+02 0.  0.
         25    2    1    2    0    0  0.80400835323E+02 -0.91643961730E+02 -0.13313014599E+03  0.21962187261E+03  0.12508885288E+03 0.  0.
         24    2    1    2    0    0 -0.60117959426E+02  0.47463805148E+02  0.64731297925E+03  0.65857239767E+03  0.94002808618E+02 0.  0.
        -11    1    5    5    0    0 -0.96257468643E+01  0.32183481702E+02  0.51552223881E+03  0.51661553423E+03  0.00000000000E+00 0.  1.
         12    1    5    5    0    0 -0.50492212561E+02  0.15280323446E+02  0.13179074044E+03  0.14195686345E+03  0.00000000000E+00 0. -1.
         13    1    3    3    0    0 -0.28237987958E+02 -0.16210391405E+02 -0.24548427945E+03  0.24763419031E+03  0.00000000000E+00 0. -1.
        -14    1    3    3    0    0  0.79551120608E+01  0.60390547987E+02 -0.37683885122E+03  0.38173003796E+03  0.00000000000E+00 0.  1.
          5    1    4    4  501    0  0.80924148683E+01  0.24153224077E+02 -0.58585332757E+02  0.64020145469E+02  0.41800000000E+01 0.  1.
         -5    1    4    4    0  501  0.72308420455E+02 -0.11579718581E+03 -0.74544813229E+02  0.15560172714E+03  0.41800000000E+01 0.  1.
</event>
<event>
11    1  0.7577197E-009  0.1882109E+03  0.7561462E-02  0.1063188E+00
         22   -1    0    0    0    0  0.00000000000E+00  0.00000000000E+00  0.28499325877E+04  0.28499325877E+04  0.00000000000E+00 0.  1.
         22   -1    0    0    0    0 -0.00000000000E+00 -0.00000000000E+00 -0.20723818394E+03  0.20723818394E+03  0.00000000000E+00 0. -1.
         24    2    1    2    0    0 -0.47309623009E+02 -0.12979783598E+03 -0.14898016057E+03  0.21956169417E+03  0.83226021471E+02 0.  0.
         25    2    1    2    0    0 -0.37154960528E+02  0.22325590818E+03  0.80881519937E+03  0.84914815771E+03  0.12508747092E+03 0.  0.
        -24    2    1    2    0    0  0.84464583536E+02 -0.93458072202E+02  0.19828593649E+04  0.19884609197E+04  0.79855438630E+02 0.  0.
        -11    1    3    3    0    0  0.72892637203E+01  0.23843722507E+01  0.51992396616E+01  0.92655647250E+01  0.00000000000E+00 0.  1.
         12    1    3    3    0    0 -0.54598886729E+02 -0.13218220823E+03 -0.15417940023E+03  0.21029612944E+03  0.00000000000E+00 0. -1.
         13    1    5    5    0    0  0.53522171819E+02 -0.28240097281E+02  0.46992988930E+03  0.47381032791E+03  0.00000000000E+00 0. -1.
        -14    1    5    5    0    0  0.30942411717E+02 -0.65217974922E+02  0.15129294756E+04  0.15146505918E+04  0.00000000000E+00 0.  1.
          5    1    4    4  501    0 -0.59541061519E+02  0.12675774100E+03  0.62273236820E+03  0.63829909738E+03  0.41800000000E+01 0.  1.
         -5    1    4    4    0  501  0.22386100992E+02  0.96498167175E+02  0.18608283117E+03  0.21084906033E+03  0.41800000000E+01 0.  1.
</event>
<event>
11    1  0.7577197E-009  0.2745143E+03  0.7561462E-02  0.1011594E+00
         22   -1    0    0    0    0  0.00000000000E+00  0.00000000000E+00  0.64402966184E+03  0.64402966184E+03  0.00000000000E+00 0.  1.
         22   -1    0    0    0    0 -0.00000000000E+00 -0.00000000000E+00 -0.37750623813E+03  0.37750623813E+03  0.00000000000E+00 0.  1.
         24    2    1    2    0    0 -0.23756511914E+02  0.23448405049E+02 -0.20303471084E+03  0.22114036045E+03  0.81029412299E+02 0.  0.
         25    2    1    2    0    0 -0.21136157752E+03 -0.10044097476E+03  0.20705248305E+01  0.26535529418E+03  0.12508812579E+03 0.  0.
        -24    2    1    2    0    0  0.23511808943E+03  0.76992569710E+02  0.46748760972E+03  0.53504024534E+03  0.80715717929E+02 0.  0.
        -13    1    3    3    0    0  0.96512253565E+01  0.53608890923E+01 -0.17125564865E+03  0.17161113740E+03  0.00000000000E+00 0.  1.
         14    1    3    3    0    0 -0.33407737271E+02  0.18087515957E+02 -0.31779062185E+02  0.49529223055E+02  0.00000000000E+00 0. -1.
         13    1    5    5    0    0 -0.19383702950E+01  0.10147035346E+02  0.60198314212E+01  0.11956503504E+02  0.00000000000E+00 0. -1.
        -14    1    5    5    0    0  0.23705645973E+03  0.66845534364E+02  0.46146777830E+03  0.52308374184E+03  0.00000000000E+00 0.  1.
          5    1    4    4  501    0 -0.50631847630E+02 -0.78264859390E+02 -0.33603630101E+02  0.99174838370E+02  0.41800000000E+01 0.  1.
         -5    1    4    4    0  501 -0.16072972989E+03 -0.22176115369E+02  0.35674154932E+02  0.16618045581E+03  0.41800000000E+01 0.  1.
</event>
<event>
11    1  0.7577197E-009  0.1378421E+03  0.7561462E-02  0.1109992E+00
         22   -1    0    0    0    0  0.00000000000E+00  0.00000000000E+00  0.10177482559E+04  0.10177482559E+04  0.00000000000E+00 0. -1.
         22   -1    0    0    0    0 -0.00000000000E+00 -0.00000000000E+00 -0.41849901076E+03  0.41849901076E+03  0.00000000000E+00 0. -1.
        -24    2    1    2    0    0  0.64662477635E+01 -0.18423622565E+02 -0.36291529255E+03  0.37224565705E+03  0.80486504462E+02 0.  0.
         25    2    1    2    0    0 -0.49502402498E+02  0.55459446662E+02  0.63728740648E+02  0.15885867022E+03  0.12509391130E+03 0.  0.
         24    2    1    2    0    0  0.43036154734E+02 -0.37035824096E+02  0.89843579704E+03  0.90514293940E+03  0.94197114875E+02 0.  0.
        -11    1    5    5    0    0 -0.15498988038E+01  0.58316058058E+01  0.16894329271E+01  0.62660989612E+01  0.00000000000E+00 0.  1.
         12    1    5    5    0    0  0.44586053538E+02 -0.42867429902E+02  0.89674636412E+03  0.89887684044E+03  0.00000000000E+00 0. -1.
         13    1    3    3    0    0 -0.56533171583E+01 -0.48116934521E+02 -0.17362700743E+03  0.18025963800E+03  0.00000000000E+00 0. -1.
        -14    1    3    3    0    0  0.12119564922E+02  0.29693311956E+02 -0.18928828512E+03  0.19198601905E+03  0.00000000000E+00 0.  1.
          5    1    4    4  501    0  0.10346947662E+02  0.15780969194E+02  0.82325884490E+02  0.84564306724E+02  0.41800000000E+01 0.  1.
         -5    1    4    4    0  501 -0.59849350159E+02  0.39678477467E+02 -0.18597143841E+02  0.74294363499E+02  0.41800000000E+01 0.  1.
</event>
<event>
11    1  0.7577197E-009  0.1758147E+03  0.7561462E-02  0.1073079E+00
         22   -1    0    0    0    0  0.00000000000E+00  0.00000000000E+00  0.19035690017E+03  0.19035690017E+03  0.00000000000E+00 0.  1.
         22   -1    0    0    0    0 -0.00000000000E+00 -0.00000000000E+00 -0.52949479975E+03  0.52949479975E+03  0.00000000000E+00 0. -1.
        -24    2    1    2    0    0  0.33827037448E+02 -0.12399434909E+03 -0.43039101555E+03  0.45657684693E+03  0.81897031800E+02 0.  0.
         25    2    1    2    0    0 -0.19924771881E+02  0.84219435625E+02  0.38037528871E+02  0.15679239487E+03  0.12508833525E+03 0.  0.
         24    2    1    2    0    0 -0.13902265567E+02  0.39774913465E+02  0.53215587100E+02  0.10648245812E+03  0.82044490663E+02 0.  0.
        -13    1    5    5    0    0  0.14094389624E+02 -0.74156427985E+01 -0.12948934127E+02  0.20526043750E+02  0.00000000000E+00 0.  1.
         14    1    5    5    0    0 -0.27996655192E+02  0.47190556263E+02  0.66164521227E+02  0.85956414371E+02  0.00000000000E+00 0. -1.
         13    1    3    3    0    0  0.25762859893E+02 -0.12426253507E+02 -0.32655657266E+02  0.43411158445E+02  0.00000000000E+00 0. -1.
        -14    1    3    3    0    0  0.80641775550E+01 -0.11156809558E+03 -0.39773535829E+03  0.41316568849E+03  0.00000000000E+00 0.  1.
          5    1    4    4  501    0 -0.24707022498E+02 -0.29186385762E+02  0.77577567542E+01  0.39242034408E+02  0.41800000000E+01 0.  1.
         -5    1    4    4    0  501  0.47822506174E+01  0.11340582139E+03  0.30279772117E+02  0.11755036046E+03  0.41800000000E+01 0.  1.
</event>
<event>
11    1  0.7577197E-009  0.1455263E+03  0.7561462E-02  0.1101540E+00
         22   -1    0    0    0    0  0.00000000000E+00  0.00000000000E+00  0.30690930747E+03  0.30690930747E+03  0.00000000000E+00 0.  1.
         22   -1    0    0    0    0 -0.00000000000E+00 -0.00000000000E+00 -0.65191740351E+03  0.65191740351E+03  0.00000000000E+00 0.  1.
         24    2    1    2    0    0 -0.69653756963E+02  0.17901385273E+02 -0.52070166517E+03  0.53135793061E+03  0.77710493872E+02 0.  0.
         25    2    1    2    0    0  0.11071420005E+03 -0.72855047675E+02 -0.39925780118E+02  0.18656769579E+03  0.12509174685E+03 0.  0.
        -24    2    1    2    0    0 -0.41060443092E+02  0.54953662402E+02  0.21561934925E+03  0.24090108458E+03  0.82678677915E+02 0.  0.
        -11    1    3    3    0    0 -0.37902241205E+02  0.37382256083E+02 -0.43032183839E+03  0.43360223426E+03  0.00000000000E+00 0.  1.
         12    1    3    3    0    0 -0.31751515758E+02 -0.19480870810E+02 -0.90379826775E+02  0.97755696347E+02  0.00000000000E+00 0. -1.
         11    1    5    5    0    0  0.12073687240E+02  0.45814179683E+02  0.61565495356E+02  0.77685411771E+02  0.00000000000E+00 0. -1.
        -12    1    5    5    0    0 -0.53134130332E+02  0.91394827193E+01  0.15405385389E+03  0.16321567280E+03  0.00000000000E+00 0.  1.
          5    1    4    4  501    0  0.13191090976E+03 -0.60043976988E+02 -0.57429036886E+02  0.15595298639E+03  0.41800000000E+01 0.  1.
         -5    1    4    4    0  501 -0.21196709705E+02 -0.12811070687E+02  0.17503256768E+02  0.30614709405E+02  0.41800000000E+01 0.  1.
</event>
<event>
11    1  0.7577197E-009  0.1372296E+03  0.7561462E-02  0.1110692E+00
         22   -1    0    0    0    0  0.00000000000E+00  0.00000000000E+00  0.11147985643E+04  0.11147985643E+04  0.00000000000E+00 0. -1.
         22   -1    0    0    0    0 -0.00000000000E+00 -0.00000000000E+00 -0.11969370750E+03  0.11969370750E+03  0.00000000000E+00 0. -1.
        -24    2    1    2    0    0 -0.39042863977E+02  0.45556471722E+02 -0.81173575282E+02  0.12910478730E+03  0.80493226020E+02 0.  0.
         25    2    1    2    0    0  0.42377688021E+01 -0.36405471024E+01  0.33027568993E+03  0.35321534980E+03  0.12509132547E+03 0.  0.
         24    2    1    2    0    0  0.34805095175E+02 -0.41915924620E+02  0.74600274210E+03  0.75217213466E+03  0.79211675615E+02 0.  0.
        -11    1    5    5    0    0 -0.10883965479E+01 -0.41748586035E+02  0.17009440837E+03  0.17514632968E+03  0.00000000000E+00 0.  1.
         12    1    5    5    0    0  0.35893491723E+02 -0.16733858431E+00  0.57590833374E+03  0.57702580498E+03  0.00000000000E+00 0. -1.
         11    1    3    3    0    0 -0.12215676398E+02 -0.19373440899E+01 -0.72890733133E+02  0.73932638453E+02  0.00000000000E+00 0. -1.
        -12    1    3    3    0    0 -0.26827187579E+02  0.47493815812E+02 -0.82828421494E+01  0.55172148842E+02  0.00000000000E+00 0.  1.
          5    1    4    4  501    0 -0.45057873300E+02  0.15624579210E+02  0.26395793575E+03  0.26826405586E+03  0.41800000000E+01 0.  1.
         -5    1    4    4    0  501  0.49295642102E+02 -0.19265126312E+02  0.66317754178E+02  0.84951293936E+02  0.41800000000E+01 0.  1.
</event>
<event>
11    1  0.7577197E-009  0.1342973E+03  0.7561462E-02  0.1114099E+00
         22   -1    0    0    0    0  0.00000000000E+00  0.00000000000E+00  0.13271438400E+04  0.13271438400E+04  0.00000000000E+00 0. -1.
         22   -1    0    0    0    0 -0.00000000000E+00 -0.00000000000E+00 -0.20797401136E+03  0.20797401136E+03  0.00000000000E+00 0. -1.
         24    2    1    2    0    0 -0.17872765203E+02  0.20769356917E+02 -0.16864847348E+03  0.18935008036E+03  0.81610926974E+02 0.  0.
         25    2    1    2    0    0  0.38935179429E+02  0.24131742996E+02  0.13715455326E+03  0.19119943734E+03  0.12509022400E+03 0.  0.
        -24    2    1    2    0    0 -0.21062414225E+02 -0.44901099913E+02  0.11506637488E+04  0.11545683336E+04  0.80877933194E+02 0.  0.
        -13    1    3    3    0    0  0.15219726023E+02  0.42328775658E+02 -0.71408136004E+02  0.84394829205E+02  0.00000000000E+00 0.  1.
         14    1    3    3    0    0 -0.33092491226E+02 -0.21559418741E+02 -0.97240337479E+02  0.10495525116E+03  0.00000000000E+00 0. -1.
         11    1    5    5    0    0  0.24342544272E+02 -0.41705955414E+02  0.50570061001E+03  0.50800103655E+03  0.00000000000E+00 0. -1.
        -12    1    5    5    0    0 -0.45404958497E+02 -0.31951444990E+01  0.64496313882E+03  0.64656729707E+03  0.00000000000E+00 0.  1.
          5    1    4    4  501    0 -0.80640830108E+01  0.62353426015E+02  0.10508311667E+03  0.12252719282E+03  0.41800000000E+01 0. -1.
         -5    1    4    4    0  501  0.46999262439E+02 -0.38221683019E+02  0.32071436589E+02  0.68672244521E+02  0.41800000000E+01 0. -1.
</event>
<event>
11    1  0.7577197E-009  0.1310062E+03  0.7561462E-02  0.1118039E+00
         22   -1    0    0    0    0  0.00000000000E+00  0.00000000000E+00  0.67791117509E+03  0.67791117509E+03  0.00000000000E+00 0. -1.
         22   -1    0    0    0    0 -0.00000000000E+00 -0.00000000000E+00 -0.31107989992E+03  0.31107989992E+03  0.00000000000E+00 0.  1.
         24    2    1    2    0    0 -0.25432589947E+02  0.63919219130E+01 -0.28010533645E+03  0.29254998283E+03  0.80242256032E+02 0.  0.
         25    2    1    2    0    0  0.11604314464E+01 -0.38735887472E+02  0.18857405075E+03  0.22958653107E+03  0.12509191443E+03 0.  0.
        -24    2    1    2    0    0  0.24272158500E+02  0.32343965559E+02  0.45836256087E+03  0.46685456110E+03  0.78877590156E+02 0.  0.
        -13    1    3    3    0    0  0.80825451514E+00 -0.12861810732E+02 -0.24239258675E+03  0.24273492860E+03  0.00000000000E+00 0.  1.
         14    1    3    3    0    0 -0.26240844462E+02  0.19253732645E+02 -0.37712749701E+02  0.49815054239E+02  0.00000000000E+00 0. -1.
         13    1    5    5    0    0 -0.32349635524E+01 -0.14915561731E+02  0.27718710513E+03  0.27760697077E+03  0.00000000000E+00 0. -1.
        -14    1    5    5    0    0  0.27507122053E+02  0.47259527290E+02  0.18117545574E+03  0.18924759033E+03  0.00000000000E+00 0.  1.
          5    1    4    4  501    0 -0.61597240637E+02 -0.18289030516E+02  0.10232432461E+03  0.12089850494E+03  0.41800000000E+01 0.  1.
         -5    1    4    4    0  501  0.62757672083E+02 -0.20446856956E+02  0.86249726139E+02  0.10868802613E+03  0.41800000000E+01 0.  1.
</event>
<event>
11    1  0.7577197E-009  0.8540939E+03  0.7561462E-02  0.8831704E-01
         22   -1    0    0    0    0  0.00000000000E+00  0.00000000000E+00  0.10582582470E+04  0.10582582470E+04  0.00000000000E+00 0. -1.
         22   -1    0    0    0    0 -0.00000000000E+00 -0.00000000000E+00 -0.20154512349E+04  0.20154512349E+04  0.00000000000E+00 0. -1.
         24    2    1    2    0    0  0.35545517177E+03 -0.67752229721E+03 -0.62081066275E+03  0.98855700441E+03  0.80338220307E+02 0.  0.
         25    2    1    2    0    0  0.14872205070E+03  0.10646884961E+04 -0.75525310420E+03  0.13197479388E+04  0.12509008220E+03 0.  0.
        -24    2    1    2    0    0 -0.50417722248E+03 -0.38716619885E+03  0.41887077905E+03  0.76540453865E+03  0.79366498320E+02 0.  0.
        -13    1    3    3    0    0  0.14327082972E+03 -0.35765694878E+03 -0.30025459744E+03  0.48846478577E+03  0.00000000000E+00 0.  1.
         14    1    3    3    0    0  0.21218434206E+03 -0.31986534843E+03 -0.32055606531E+03  0.50009221864E+03  0.00000000000E+00 0. -1.
         11    1    5    5    0    0 -0.42027681596E+03 -0.33503219066E+03  0.31938117706E+03  0.62520677145E+03  0.00000000000E+00 0. -1.
        -12    1    5    5    0    0 -0.83900406517E+02 -0.52134008185E+02  0.99489601992E+02  0.14019776720E+03  0.00000000000E+00 0.  1.
          5    1    4    4  501    0  0.28110638255E+02  0.69378633559E+02 -0.87031110878E+02  0.11487162155E+03  0.41800000000E+01 0. -1.
         -5    1    4    4    0  501  0.12061141245E+03  0.99530986249E+03 -0.66822199332E+03  0.12048763173E+04  0.41800000000E+01 0. -1.
</event>
<event>
11    1  0.7577197E-009  0.1567517E+03  0.7561462E-02  0.1090173E+00
         22   -1    0    0    0    0  0.00000000000E+00  0.00000000000E+00  0.40606131593E+03  0.40606131593E+03  0.00000000000E+00 0. -1.
         22   -1    0    0    0    0 -0.00000000000E+00 -0.00000000000E+00 -0.70403076100E+03  0.70403076100E+03  0.00000000000E+00 0. -1.
        -24    2    1    2    0    0  0.34622567678E+02 -0.86002092714E+02 -0.56997663598E+03  0.58322111889E+03  0.81721636130E+02 0.  0.
         25    2    1    2    0    0 -0.10206683101E+03  0.77812032599E+02 -0.51406452352E+02  0.18644804964E+03  0.12509157231E+03 0.  0.
         24    2    1    2    0    0  0.67444263334E+02  0.81900601151E+01  0.32341364326E+03  0.34042290840E+03  0.81704138065E+02 0.  0.
        -13    1    5    5    0    0 -0.67543886202E+01  0.25706357591E+02  0.50585369323E+02  0.57142962609E+02  0.00000000000E+00 0.  1.
         14    1    5    5    0    0  0.74198651954E+02 -0.17516297475E+02  0.27282827393E+03  0.28327994579E+03  0.00000000000E+00 0. -1.
         11    1    3    3    0    0  0.96580454697E+01 -0.59415277730E+02 -0.50609274535E+03  0.50966000428E+03  0.00000000000E+00 0. -1.
        -12    1    3    3    0    0  0.24964522208E+02 -0.26586814984E+02 -0.63883890629E+02  0.73561114605E+02  0.00000000000E+00 0.  1.
          5    1    4    4  501    0 -0.32775968211E+02  0.28104445803E+02 -0.84417248893E+02  0.94909790205E+02  0.41800000000E+01 0.  1.
         -5    1    4    4    0  501 -0.69290862800E+02  0.49707586796E+02  0.33010796541E+02  0.91538259438E+02  0.41800000000E+01 0.  1.
</event>
<event>
11    1  0.7577197E-009  0.2204247E+03  0.7561462E-02  0.1040952E+00
         22   -1    0    0    0    0  0.00000000000E+00  0.00000000000E+00  0.41665526499E+03  0.41665526499E+03  0.00000000000E+00 0. -1.
         22   -1    0    0    0    0 -0.00000000000E+00 -0.00000000000E+00 -0.53727955774E+03  0.53727955774E+03  0.00000000000E+00 0. -1.
         24    2    1    2    0    0  0.15719818038E+03 -0.82214960182E+02 -0.42256544571E+03  0.46803708286E+03  0.95008354535E+02 0.  0.
         25    2    1    2    0    0 -0.18851710396E+03  0.14640747295E+03  0.23792634439E+03  0.35948677759E+03  0.12509177147E+03 0.  0.
        -24    2    1    2    0    0  0.31318923578E+02 -0.64192512767E+02  0.64014808577E+02  0.12641096227E+03  0.82342467758E+02 0.  0.
        -13    1    3    3    0    0 -0.99440135273E+01 -0.19908602210E+02 -0.36397358923E+02  0.42661500015E+02  0.00000000000E+00 0.  1.
         14    1    3    3    0    0  0.16714219391E+03 -0.62306357972E+02 -0.38616808679E+03  0.42537558285E+03  0.00000000000E+00 0. -1.
         11    1    5    5    0    0 -0.24241638901E+02 -0.33244456998E+02  0.42796014510E+02  0.59366234811E+02  0.00000000000E+00 0. -1.
        -12    1    5    5    0    0  0.55560562479E+02 -0.30948055769E+02  0.21218794067E+02  0.67044727463E+02  0.00000000000E+00 0.  1.
          5    1    4    4  501    0 -0.76537849407E+02  0.11639639425E+03  0.18591770312E+03  0.23235539098E+03  0.41800000000E+01 0. -1.
         -5    1    4    4    0  501 -0.11197925455E+03  0.30011078697E+02  0.52008641279E+02  0.12713138661E+03  0.41800000000E+01 0. -1.
</event>
<event>
11    1  0.8917920E-009  0.1730695E+03  0.7561462E-02  0.1075391E+00
         22   -1    0    0    0    0  0.00000000000E+00  0.00000000000E+00  0.11487538632E+04  0.11487538632E+04  0.00000000000E+00 0. -1.
         22   -1    0    0    0    0 -0.00000000000E+00 -0.00000000000E+00 -0.12286212062E+03  0.12286212062E+03  0.00000000000E+00 0.  1.
         24    2    1    2    0    0 -0.19875039716E+02  0.69770373366E+02 -0.41433313814E+02  0.11639491334E+03  0.81044026032E+02 0.  0.
         25    2    1    2    0    0 -0.41674065453E+02 -0.16462829976E+03  0.25348917229E+03  0.32976364210E+03  0.12509234339E+03 0.  0.
        -24    2    1    2    0    0  0.61549105169E+02  0.94857926393E+02  0.81383588411E+03  0.82545742839E+03  0.79150497532E+02 0.  0.
        -11    1    3    3    0    0 -0.15965283860E+02  0.63728613658E+02 -0.64599003198E+02  0.92137167862E+02  0.00000000000E+00 0.  1.
         12    1    3    3    0    0 -0.39097558557E+01  0.60417597084E+01  0.23165689384E+02  0.24257745482E+02  0.00000000000E+00 0. -1.
         13    1    5    5    0    0  0.29777095668E+02  0.88220431362E+02  0.72351205678E+03  0.72947872913E+03  0.00000000000E+00 0. -1.
        -14    1    5    5    0    0  0.31772009501E+02  0.66374950311E+01  0.90323827330E+02  0.95978699260E+02  0.00000000000E+00 0.  1.
          5    1    4    4  501    0  0.22155151238E+02 -0.89631609165E+01  0.96883802474E+02  0.99875585414E+02  0.41800000000E+01 0. -1.
         -5    1    4    4    0  501 -0.63829216691E+02 -0.15566513884E+03  0.15660536981E+03  0.22988805669E+03  0.41800000000E+01 0. -1.
</event>
<event>
11    1  0.7577197E-009  0.1341484E+03  0.7561462E-02  0.1114274E+00
         22   -1    0    0    0    0  0.00000000000E+00  0.00000000000E+00  0.20466906595E+04  0.20466906595E+04  0.00000000000E+00 0. -1.
         22   -1    0    0    0    0 -0.00000000000E+00 -0.00000000000E+00 -0.34840636084E+03  0.34840636084E+03  0.00000000000E+00 0.  1.
        -24    2    1    2    0    0  0.80885868799E+01  0.51254568390E+02 -0.27384236331E+03  0.28977194851E+03  0.79282319443E+02 0.  0.
         25    2    1    2    0    0  0.50856692526E+01 -0.22875735020E+02 -0.39835390299E+01  0.12732900455E+03  0.12509054134E+03 0.  0.
         24    2    1    2    0    0 -0.13174256132E+02 -0.28378833370E+02  0.19761102010E+04  0.19779960673E+04  0.80486001573E+02 0.  0.
        -13    1    5    5    0    0 -0.37345305475E+02  0.68871376061E+01  0.58638901321E+03  0.58761737493E+03  0.00000000000E+00 0.  1.
         14    1    5    5    0    0  0.24171049343E+02 -0.35265970976E+02  0.13897211878E+04  0.13903786923E+04  0.00000000000E+00 0. -1.
         13    1    3    3    0    0 -0.31012951592E+02  0.23282469816E+02 -0.66980358517E+02  0.77396673018E+02  0.00000000000E+00 0. -1.
        -14    1    3    3    0    0  0.39101538472E+02  0.27972098574E+02 -0.20686200480E+03  0.21237527549E+03  0.00000000000E+00 0.  1.
          5    1    4    4  501    0 -0.58966051759E+01 -0.38652806583E+02  0.53600270642E+02  0.66477596393E+02  0.41800000000E+01 0. -1.
         -5    1    4    4    0  501  0.10982274429E+02  0.15777071562E+02 -0.57583809672E+02  0.60851408160E+02  0.41800000000E+01 0. -1.
</event>
<event>
11    1  0.7577197E-009  0.1347996E+03  0.7561462E-02  0.1113509E+00
         22   -1    0    0    0    0  0.00000000000E+00  0.00000000000E+00  0.69355492630E+03  0.69355492630E+03  0.00000000000E+00 0.  1.
         22   -1    0    0    0    0 -0.00000000000E+00 -0.00000000000E+00 -0.62575887419E+02  0.62575887419E+02  0.00000000000E+00 0.  1.
         24    2    1    2    0    0  0.25418845689E+02  0.22699567570E+02  0.12661803264E+02  0.88403584520E+02  0.80582159378E+02 0.  0.
         25    2    1    2    0    0 -0.56804278812E+02 -0.51142332328E+02  0.26386462383E+03  0.30185128073E+03  0.12508953482E+03 0.  0.
        -24    2    1    2    0    0  0.31385433122E+02  0.28442764758E+02  0.35445261179E+03  0.36587594847E+03  0.80215456033E+02 0.  0.
        -11    1    3    3    0    0  0.33148100675E+02  0.39890910680E+02 -0.15841795195E+02  0.54231391355E+02  0.00000000000E+00 0.  1.
         12    1    3    3    0    0 -0.77292549854E+01 -0.17191343110E+02  0.28503598459E+02  0.34172193165E+02  0.00000000000E+00 0. -1.
         11    1    5    5    0    0 -0.11632789900E+02 -0.20311192027E+02  0.13423328067E+03  0.13625872435E+03  0.00000000000E+00 0. -1.
        -12    1    5    5    0    0  0.43018223022E+02  0.48753956785E+02  0.22021933112E+03  0.22961722412E+03  0.00000000000E+00 0.  1.
          5    1    4    4  501    0 -0.82250288333E+02 -0.68683520828E+02  0.23903073946E+03  0.26198416511E+03  0.41800000000E+01 0.  1.
         -5    1    4    4    0  501  0.25446009522E+02  0.17541188500E+02  0.24833884371E+02  0.39867115616E+02  0.41800000000E+01 0.  1.
</event>
<event>
11    1  0.7577197E-009  0.2692182E+03  0.7561462E-02  0.1014132E+00
         22   -1    0    0    0    0  0.00000000000E+00  0.00000000000E+00  0.28634427499E+03  0.28634427499E+03  0.00000000000E+00 0. -1.
         22   -1    0    0    0    0 -0.00000000000E+00 -0.00000000000E+00 -0.77167166448E+03  0.77167166448E+03  0.00000000000E+00 0. -1.
        -24    2    1    2    0    0  0.86785634696E+02  0.21164611424E+03 -0.44331089397E+03  0.50535854856E+03  0.80851034766E+02 0.  0.
         25    2    1    2    0    0 -0.12715705445E+03 -0.22954826256E+03 -0.21416945334E+03  0.36108121749E+03  0.12509903893E+03 0.  0.
         24    2    1    2    0    0  0.40371419751E+02  0.17902148324E+02  0.17215295782E+03  0.19157617343E+03  0.71515389188E+02 0.  0.
        -11    1    5    5    0    0 -0.18622777962E+02 -0.24707539562E+01  0.21763431977E+02  0.28749947053E+02  0.00000000000E+00 0.  1.
         12    1    5    5    0    0  0.58994197713E+02  0.20372902281E+02  0.15038952584E+03  0.16282622637E+03  0.00000000000E+00 0. -1.
         11    1    3    3    0    0  0.58895543425E+02  0.19539695032E+03 -0.41482670637E+03  0.46230925748E+03  0.00000000000E+00 0. -1.
        -12    1    3    3    0    0  0.27890091272E+02  0.16249163918E+02 -0.28484187600E+02  0.43049291079E+02  0.00000000000E+00 0.  1.
          5    1    4    4  501    0 -0.15199394311E+03 -0.19384567697E+03 -0.17292037553E+03  0.30099374395E+03  0.41800000000E+01 0.  1.
         -5    1    4    4    0  501  0.24836888666E+02 -0.35702585589E+02 -0.41249077810E+02  0.60087473540E+02  0.41800000000E+01 0.  1.
</event>
<event>
11    1  0.7577197E-009  0.1489785E+03  0.7561462E-02  0.1097927E+00
         22   -1    0    0    0    0  0.00000000000E+00  0.00000000000E+00  0.42686834841E+03  0.42686834841E+03  0.00000000000E+00 0. -1.
         22   -1    0    0    0    0 -0.00000000000E+00 -0.00000000000E+00 -0.56629596165E+03  0.56629596165E+03  0.00000000000E+00 0.  1.
        -24    2    1    2    0    0 -0.11315946759E+02  0.31478884363E-01 -0.36495710999E+03  0.37397562895E+03  0.80845700400E+02 0.  0.
         25    2    1    2    0    0 -0.65352896656E+02  0.27197463811E+02 -0.16114588931E+03  0.21593214913E+03  0.12509193518E+03 0.  0.
         24    2    1    2    0    0  0.76668843415E+02 -0.27228942695E+02  0.38667538605E+03  0.40325653198E+03  0.80488816247E+02 0.  0.
        -11    1    5    5    0    0  0.42640725260E+02  0.22396734859E+02  0.23877813795E+03  0.24358744702E+03  0.00000000000E+00 0.  1.
         12    1    5    5    0    0  0.34028118155E+02 -0.49625677554E+02  0.14789724810E+03  0.15966908496E+03  0.00000000000E+00 0. -1.
         13    1    3    3    0    0 -0.22805108153E+02  0.35637528348E+02 -0.15302292616E+03  0.15876436098E+03  0.00000000000E+00 0. -1.
        -14    1    3    3    0    0  0.11489161394E+02 -0.35606049463E+02 -0.21193418382E+03  0.21521126797E+03  0.00000000000E+00 0.  1.
          5    1    4    4  501    0 -0.14366627294E+02  0.41352572861E+02  0.23468806815E+01  0.44038795522E+02  0.41800000000E+01 0.  1.
         -5    1    4    4    0  501 -0.50986269362E+02 -0.14155109051E+02 -0.16349276999E+03  0.17189335361E+03  0.41800000000E+01 0.  1.
</event>
<event>
11    1  0.7577197E-009  0.1282335E+03  0.7561462E-02  0.1121459E+00
         22   -1    0    0    0    0  0.00000000000E+00  0.00000000000E+00  0.63078009071E+03  0.63078009071E+03  0.00000000000E+00 0. -1.
         22   -1    0    0    0    0 -0.00000000000E+00 -0.00000000000E+00 -0.30834533704E+03  0.30834533704E+03  0.00000000000E+00 0.  1.
        -24    2    1    2    0    0  0.13688582982E+02 -0.24783333168E+02 -0.26726949315E+03  0.28065147428E+03  0.80812605073E+02 0.  0.
         25    2    1    2    0    0 -0.17433875723E+02  0.21174170481E+02  0.10034111750E+03  0.16268525156E+03  0.12508343494E+03 0.  0.
         24    2    1    2    0    0  0.37452927409E+01  0.36091626863E+01  0.48936312931E+03  0.49578870192E+03  0.79392136520E+02 0.  0.
        -11    1    5    5    0    0 -0.32997695761E+02 -0.91976933608E+01  0.13430316122E+03  0.13860297473E+03  0.00000000000E+00 0.  1.
         12    1    5    5    0    0  0.36742988501E+02  0.12806856047E+02  0.35505996809E+03  0.35718572719E+03  0.00000000000E+00 0. -1.
         13    1    3    3    0    0 -0.57211889260E+01 -0.43555132357E+01  0.37921170991E+01  0.81291235916E+01  0.00000000000E+00 0. -1.
        -14    1    3    3    0    0  0.19409771908E+02 -0.20427819932E+02 -0.27106161025E+03  0.27252235069E+03  0.00000000000E+00 0.  1.
          5    1    4    4  501    0  0.38989305402E+02  0.44343090978E+02  0.77273427119E+02  0.97340282473E+02  0.41800000000E+01 0. -1.
         -5    1    4    4    0  501 -0.56423181124E+02 -0.23168920497E+02  0.23067690379E+02  0.65344969084E+02  0.41800000000E+01 0. -1.
</event>
<event>
11    1  0.7577197E-009  0.2368711E+03  0.7561462E-02  0.1031135E+00
         22   -1    0    0    0    0  0.00000000000E+00  0.00000000000E+00  0.52741409582E+02  0.52741409582E+02  0.00000000000E+00 0.  1.
         22   -1    0    0    0    0 -0.00000000000E+00 -0.00000000000E+00 -0.20328256081E+04  0.20328256081E+04  0.00000000000E+00 0.  1.
        -24    2    1    2    0    0 -0.71401658737E+02  0.89279398712E+02 -0.72862084830E+03  0.74184980995E+03  0.79898636017E+02 0.  0.
         25    2    1    2    0    0  0.16359303713E+03  0.10465630589E+03 -0.85503346749E+03  0.88568935027E+03  0.12509104882E+03 0.  0.
         24    2    1    2    0    0 -0.92191378390E+02 -0.19393570460E+03 -0.39642988269E+03  0.45802785742E+03  0.80762358307E+02 0.  0.
        -11    1    5    5    0    0 -0.41583463322E+02 -0.63320726107E+02 -0.22046282429E+03  0.23311489800E+03  0.00000000000E+00 0.  1.
         12    1    5    5    0    0 -0.50607915068E+02 -0.13061497850E+03 -0.17596705840E+03  0.22491295942E+03  0.00000000000E+00 0. -1.
         13    1    3    3    0    0 -0.67227649158E+02  0.22898076479E+02 -0.31429289179E+03  0.32221716365E+03  0.00000000000E+00 0. -1.
        -14    1    3    3    0    0 -0.41740095793E+01  0.66381322232E+02 -0.41432795651E+03  0.41963264631E+03  0.00000000000E+00 0.  1.
          5    1    4    4  501    0  0.83591023827E+02  0.62169122363E+02 -0.21152972873E+03  0.23582781340E+03  0.41800000000E+01 0.  1.
         -5    1    4    4    0  501  0.80002013300E+02  0.42487183528E+02 -0.64350373876E+03  0.64986153687E+03  0.41800000000E+01 0.  1.
</event>
<event>
11    1  0.9540564E-009  0.1641999E+03  0.7561462E-02  0.1083192E+00
         22   -1    0    0    0    0  0.00000000000E+00  0.00000000000E+00  0.65388313627E+03  0.65388313627E+03  0.00000000000E+00 0.  1.
         22   -1    0    0    0    0 -0.00000000000E+00 -0.00000000000E+00 -0.11682587167E+04  0.11682587167E+04  0.00000000000E+00 0. -1.
        -24    2    1    2    0    0  0.25450930538E+02 -0.30004225828E+02 -0.68226885199E+03  0.68774964412E+03  0.77206108326E+02 0.  0.
         25    2    1    2    0    0 -0.12591212238E+03  0.63459607614E+02 -0.45765879516E+03  0.49495434496E+03  0.12508895414E+03 0.  0.
         24    2    1    2    0    0  0.10046119184E+03 -0.33455381786E+02  0.62555206671E+03  0.63943786390E+03  0.79709974161E+02 0.  0.
        -13    1    5    5    0    0  0.83112496628E+02 -0.26595583095E+02  0.60659890239E+03  0.61284356937E+03  0.00000000000E+00 0.  1.
         14    1    5    5    0    0  0.17348695210E+02 -0.68597986905E+01  0.18953164320E+02  0.26594294526E+02  0.00000000000E+00 0. -1.
         13    1    3    3    0    0  0.41700072058E+02 -0.14394340588E+02 -0.61932835752E+03  0.62089750158E+03  0.00000000000E+00 0. -1.
        -14    1    3    3    0    0 -0.16249141520E+02 -0.15609885240E+02 -0.62940494470E+02  0.66852142535E+02  0.00000000000E+00 0.  1.
          5    1    4    4  501    0 -0.13116509371E+03  0.88438761062E+01 -0.35306295366E+03  0.37676706013E+03  0.41800000000E+01 0. -1.
         -5    1    4    4    0  501  0.52529713345E+01  0.54615731507E+02 -0.10459584151E+03  0.11818728483E+03  0.41800000000E+01 0. -1.
</event>
<event>
11    1  0.7577197E-009  0.1635387E+03  0.7561462E-02  0.1083795E+00
         22   -1    0    0    0    0  0.00000000000E+00  0.00000000000E+00  0.91237600395E+03  0.91237600395E+03  0.00000000000E+00 0.  1.
         22   -1    0    0    0    0 -0.00000000000E+00 -0.00000000000E+00 -0.12754608824E+03  0.12754608824E+03  0.00000000000E+00 0.  1.
        -24    2    1    2    0    0  0.38059090931E+01  0.14767691976E+02 -0.34399077125E+02  0.86869119438E+02  0.78296728760E+02 0.  0.
         25    2    1    2    0    0 -0.23147720989E+02 -0.11701858753E+03  0.60600784130E+02  0.18316391784E+03  0.12508956370E+03 0.  0.
         24    2    1    2    0    0  0.19341811896E+02  0.10225089555E+03  0.75862820870E+03  0.76988905492E+03  0.79893970494E+02 0.  0.
        -11    1    5    5    0    0 -0.18078174782E+02  0.65434441548E+02  0.57213747885E+03  0.57615083203E+03  0.00000000000E+00 0.  1.
         12    1    5    5    0    0  0.37419986678E+02  0.36816454006E+02  0.18649072985E+03  0.19373822289E+03  0.00000000000E+00 0. -1.
         13    1    3    3    0    0  0.19045772645E+02 -0.16500890835E+02  0.12778393201E+02  0.28254348104E+02  0.00000000000E+00 0. -1.
        -14    1    3    3    0    0 -0.15239863552E+02  0.31268582811E+02 -0.47177470326E+02  0.58614771334E+02  0.00000000000E+00 0.  1.
          5    1    4    4  501    0 -0.22122764548E+02 -0.12351214652E+03  0.88884786677E+02  0.15382667113E+03  0.41800000000E+01 0. -1.
         -5    1    4    4    0  501 -0.10249564407E+01  0.64935589911E+01 -0.28284002547E+02  0.29337246703E+02  0.41800000000E+01 0. -1.
</event>
<event>
11    1  0.7577197E-009  0.2549942E+03  0.7561462E-02  0.1021272E+00
         22   -1    0    0    0    0  0.00000000000E+00  0.00000000000E+00  0.18058394960E+04  0.18058394960E+04  0.00000000000E+00 0. -1.
         22   -1    0    0    0    0 -0.00000000000E+00 -0.00000000000E+00 -0.13602543653E+03  0.13602543653E+03  0.00000000000E+00 0.  1.
        -24    2    1    2    0    0 -0.86114609074E+01 -0.24059828086E+03  0.93741671849E+02  0.27056952522E+03  0.80365894037E+02 0.  0.
         25    2    1    2    0    0 -0.25772112163E+02  0.19271357086E+03  0.24486329426E+03  0.33676092322E+03  0.12508862608E+03 0.  0.
         24    2    1    2    0    0  0.34383573071E+02  0.47884710001E+02  0.13312090933E+04  0.13345344840E+04  0.73412964826E+02 0.  0.
        -13    1    5    5    0    0  0.15704703903E+01  0.34222573973E+02  0.21111528097E+03  0.21387686365E+03  0.00000000000E+00 0.  1.
         14    1    5    5    0    0  0.32813102680E+02  0.13662136028E+02  0.11200938124E+04  0.11206576204E+04  0.00000000000E+00 0. -1.
         11    1    3    3    0    0  0.17463420991E+01 -0.12315972253E+02 -0.13312103316E+02  0.18219357232E+02  0.00000000000E+00 0. -1.
        -12    1    3    3    0    0 -0.10357803007E+02 -0.22828230861E+03  0.10705377516E+03  0.25235016799E+03  0.00000000000E+00 0.  1.
          5    1    4    4  501    0 -0.38655384698E+02  0.14036304308E+03  0.24220075133E+03  0.28262112266E+03  0.41800000000E+01 0.  1.
         -5    1    4    4    0  501  0.12883272534E+02  0.52350527776E+02  0.26625429265E+01  0.54139800558E+02  0.41800000000E+01 0.  1.
</event>
<event>
11    1  0.7577197E-009  0.1800100E+03  0.7561462E-02  0.1069635E+00
         22   -1    0    0    0    0  0.00000000000E+00  0.00000000000E+00  0.94639341945E+03  0.94639341945E+03  0.00000000000E+00 0. -1.
         22   -1    0    0    0    0 -0.00000000000E+00 -0.00000000000E+00 -0.26673432269E+03  0.26673432269E+03  0.00000000000E+00 0. -1.
        -24    2    1    2    0    0  0.65463162313E+01 -0.55518657987E+02 -0.20977663361E+03  0.23136588000E+03  0.79992241987E+02 0.  0.
         25    2    1    2    0    0 -0.23739947944E+02 -0.82593561865E+02  0.11420164318E+03  0.18993440868E+03  0.12509109763E+03 0.  0.
         24    2    1    2    0    0  0.17193631713E+02  0.13811221985E+03  0.77523408719E+03  0.79182745347E+03  0.81438442306E+02 0.  0.
        -13    1    5    5    0    0  0.39104270462E+00 -0.90925261503E+01  0.17298655941E+02  0.19546622305E+02  0.00000000000E+00 0.  1.
         14    1    5    5    0    0  0.16802589008E+02  0.14720474600E+03  0.75793543125E+03  0.77228083116E+03  0.00000000000E+00 0. -1.
         13    1    3    3    0    0 -0.32744716918E+02 -0.33999822645E+02 -0.14590107554E+03  0.15334708432E+03  0.00000000000E+00 0. -1.
        -14    1    3    3    0    0  0.39291033149E+02 -0.21518835342E+02 -0.63875558070E+02  0.78018795678E+02  0.00000000000E+00 0.  1.
          5    1    4    4  501    0 -0.36439755423E+02 -0.10515133354E+03  0.11932155224E+03  0.16321692299E+03  0.41800000000E+01 0. -1.
         -5    1    4    4    0  501  0.12699807479E+02  0.22557771673E+02 -0.51199090651E+01  0.26717485692E+02  0.41800000000E+01 0. -1.
</event>
<event>
11    1  0.7577197E-009  0.1468756E+03  0.7561462E-02  0.1100115E+00
         22   -1    0    0    0    0  0.00000000000E+00  0.00000000000E+00  0.12980538425E+04  0.12980538425E+04  0.00000000000E+00 0.  1.
         22   -1    0    0    0    0 -0.00000000000E+00 -0.00000000000E+00 -0.18504194164E+03  0.18504194164E+03  0.00000000000E+00 0.  1.
        -24    2    1    2    0    0  0.42651989750E+02  0.65912254446E+02 -0.15173097113E+03  0.18869833136E+03  0.80132110557E+02 0.  0.
         25    2    1    2    0    0  0.14492885538E+02 -0.60469203856E+02  0.39174782243E+03  0.41590889376E+03  0.12508910099E+03 0.  0.
         24    2    1    2    0    0 -0.57144875288E+02 -0.54430505897E+01  0.87299504958E+03  0.87848855903E+03  0.79540104217E+02 0.  0.
        -11    1    5    5    0    0 -0.20631770618E+02  0.31500889519E+02  0.55529130310E+03  0.55656662431E+03  0.00000000000E+00 0.  1.
         12    1    5    5    0    0 -0.36513104669E+02 -0.36943940109E+02  0.31770374648E+03  0.32192193472E+03  0.00000000000E+00 0. -1.
         11    1    3    3    0    0  0.24451822144E+02 -0.14390470290E+01 -0.33348285911E+01  0.24720104050E+02  0.00000000000E+00 0. -1.
        -12    1    3    3    0    0  0.18200167606E+02  0.67351301475E+02 -0.14839614254E+03  0.16397822731E+03  0.00000000000E+00 0.  1.
          5    1    4    4  501    0 -0.41856167279E+02  0.13337336235E+01  0.57044057181E+02  0.70888746951E+02  0.41800000000E+01 0.  1.
         -5    1    4    4    0  501  0.56349052817E+02 -0.61802937480E+02  0.33470376525E+03  0.34502014681E+03  0.41800000000E+01 0.  1.
</event>
<event>
11    1  0.7577197E-009  0.1256277E+03  0.7561462E-02  0.1124761E+00
         22   -1    0    0    0    0  0.00000000000E+00  0.00000000000E+00  0.10609895439E+04  0.10609895439E+04  0.00000000000E+00 0. -1.
         22   -1    0    0    0    0 -0.00000000000E+00 -0.00000000000E+00 -0.64751145745E+03  0.64751145745E+03  0.00000000000E+00 0. -1.
         24    2    1    2    0    0 -0.20348026374E+02 -0.71046920942E+01 -0.60753276557E+03  0.61298956020E+03  0.78712266228E+02 0.  0.
         25    2    1    2    0    0  0.20926044682E+02 -0.48161748354E+01  0.80647924378E+02  0.15037456572E+03  0.12508927781E+03 0.  0.
        -24    2    1    2    0    0 -0.57801830804E+00  0.11920866930E+02  0.94036292765E+03  0.94513687543E+03  0.94121391932E+02 0.  0.
        -13    1    3    3    0    0 -0.11249281090E+02  0.26950128110E+02 -0.98506677470E+02  0.10274444626E+03  0.00000000000E+00 0.  1.
         14    1    3    3    0    0 -0.90987452834E+01 -0.34054820205E+02 -0.50902608810E+03  0.51024511395E+03  0.00000000000E+00 0. -1.
         13    1    5    5    0    0  0.37438966208E+01  0.32888156775E+01  0.93295556359E+03  0.93296887232E+03  0.00000000000E+00 0. -1.
        -14    1    5    5    0    0 -0.43219149288E+01  0.86320512521E+01  0.74073640603E+01  0.12168003114E+02  0.00000000000E+00 0.  1.
          5    1    4    4  501    0  0.64760131848E+01 -0.76885905214E+01  0.11355649186E+03  0.11407717744E+03  0.41800000000E+01 0. -1.
         -5    1    4    4    0  501  0.14450031497E+02  0.28724156860E+01 -0.32908567478E+02  0.36297388275E+02  0.41800000000E+01 0. -1.
</event>
<event>
11    1  0.7577197E-009  0.3464892E+03  0.7561462E-02  0.9822341E-01
         22   -1    0    0    0    0  0.00000000000E+00  0.00000000000E+00  0.12370801238E+04  0.12370801238E+04  0.00000000000E+00 0.  1.
         22   -1    0    0    0    0 -0.00000000000E+00 -0.00000000000E+00 -0.59623956253E+03  0.59623956253E+03  0.00000000000E+00 0. -1.
        -24    2    1    2    0    0  0.64245006447E+01  0.41318148248E+02 -0.42326126774E+03  0.43297484246E+03  0.81047207577E+02 0.  0.
         25    2    1    2    0    0  0.26414475049E+03  0.14360903736E+03  0.47400629978E+02  0.32907452916E+03  0.12508885320E+03 0.  0.
         24    2    1    2    0    0 -0.27056925114E+03 -0.18492718561E+03  0.10167011991E+04  0.10712703147E+04  0.80826823631E+02 0.  0.
        -13    1    5    5    0    0 -0.27173339620E+03 -0.18545342088E+03  0.10177600982E+04  0.10696109701E+04  0.00000000000E+00 0.  1.
         14    1    5    5    0    0  0.11641450576E+01  0.52623527640E+00 -0.10588991121E+01  0.16593446329E+01  0.00000000000E+00 0. -1.
         11    1    3    3    0    0  0.39664122953E+02  0.40614238920E+02 -0.23194486090E+03  0.23879107511E+03  0.00000000000E+00 0. -1.
        -12    1    3    3    0    0 -0.33239622308E+02  0.70390932812E+00 -0.19131640683E+03  0.19418376735E+03  0.00000000000E+00 0.  1.
          5    1    4    4  501    0  0.24283549187E+03  0.91472195939E+02  0.69757548816E+01  0.25961966855E+03  0.41800000000E+01 0.  1.
         -5    1    4    4    0  501  0.21309258628E+02  0.52136841421E+02  0.40424875096E+02  0.69454860616E+02  0.41800000000E+01 0.  1.
</event>
<event>
11    1  0.7577197E-009  0.1290791E+03  0.7561462E-02  0.1120406E+00
         22   -1    0    0    0    0  0.00000000000E+00  0.00000000000E+00  0.25779050368E+03  0.25779050368E+03  0.00000000000E+00 0.  1.
         22   -1    0    0    0    0 -0.00000000000E+00 -0.00000000000E+00 -0.12025004569E+04  0.12025004569E+04  0.00000000000E+00 0.  1.
        -24    2    1    2    0    0 -0.32965540908E+02  0.30944192002E+01 -0.10767969661E+04  0.10802367612E+04  0.79520134161E+02 0.  0.
         25    2    1    2    0    0  0.43141990488E+01  0.14931214370E+02 -0.81110999294E+02  0.14989289004E+03  0.12508929131E+03 0.  0.
         24    2    1    2    0    0  0.28651341859E+02 -0.18025633571E+02  0.21319801220E+03  0.23016130932E+03  0.79843678806E+02 0.  0.
        -13    1    5    5    0    0  0.16495278785E+02  0.29456259828E+02  0.12250073785E+03  0.12706768369E+03  0.00000000000E+00 0.  1.
         14    1    5    5    0    0  0.12156063075E+02 -0.47481893398E+02  0.90697274351E+02  0.10309362563E+03  0.00000000000E+00 0. -1.
         13    1    3    3    0    0 -0.53406376048E+02  0.14479549797E+02 -0.51736385302E+03  0.52031457290E+03  0.00000000000E+00 0. -1.
        -14    1    3    3    0    0  0.20440835140E+02 -0.11385130597E+02 -0.55943311311E+03  0.55992218833E+03  0.00000000000E+00 0.  1.
          5    1    4    4  501    0  0.42042865292E+02 -0.18089838205E+02  0.88635541450E+01  0.46806834547E+02  0.41800000000E+01 0. -1.
         -5    1    4    4    0  501 -0.37728666243E+02  0.33021052576E+02 -0.89974553439E+02  0.10308605549E+03  0.41800000000E+01 0. -1.
</event>
<event>
11    1  0.7577197E-009  0.1360574E+03  0.7561462E-02  0.1112043E+00
         22   -1    0    0    0    0  0.00000000000E+00  0.00000000000E+00  0.49739739285E+03  0.49739739285E+03  0.00000000000E+00 0.  1.
         22   -1    0    0    0    0 -0.00000000000E+00 -0.00000000000E+00 -0.12683034419E+04  0.12683034419E+04  0.00000000000E+00 0.  1.
        -24    2    1    2    0    0 -0.27256972074E+02  0.47171924227E+02 -0.11991505900E+04  0.12034272323E+04  0.85480014183E+02 0.  0.
         25    2    1    2    0    0  0.14462839517E+02 -0.18587452373E+02  0.15668679736E+01  0.12731300494E+03  0.12510587132E+03 0.  0.
         24    2    1    2    0    0  0.12794132557E+02 -0.28584471853E+02  0.42667767305E+03  0.43496059752E+03  0.78460963891E+02 0.  0.
        -11    1    5    5    0    0 -0.30504023830E+02 -0.11162038974E+02  0.25468276580E+03  0.25674578435E+03  0.00000000000E+00 0.  1.
         12    1    5    5    0    0  0.43298156387E+02 -0.17422432880E+02  0.17199490725E+03  0.17821481317E+03  0.00000000000E+00 0. -1.
         13    1    3    3    0    0  0.80659978969E+01  0.20366871464E+02 -0.68714197464E+02  0.72121499627E+02  0.00000000000E+00 0. -1.
        -14    1    3    3    0    0 -0.35322969971E+02  0.26805052763E+02 -0.11304363926E+04  0.11313057326E+04  0.00000000000E+00 0.  1.
          5    1    4    4  501    0 -0.42584452738E+02  0.28527091021E+02 -0.97661786844E+01  0.52345784770E+02  0.41800000000E+01 0.  1.
         -5    1    4    4    0  501  0.57047292256E+02 -0.47114543394E+02  0.11333046658E+02  0.74967220167E+02  0.41800000000E+01 0.  1.
</event>
<event>
11    1  0.7577197E-009  0.1718885E+03  0.7561462E-02  0.1076400E+00
         22   -1    0    0    0    0  0.00000000000E+00  0.00000000000E+00  0.41726690167E+03  0.41726690167E+03  0.00000000000E+00 0. -1.
         22   -1    0    0    0    0 -0.00000000000E+00 -0.00000000000E+00 -0.17211299761E+04  0.17211299761E+04  0.00000000000E+00 0.  1.
         24    2    1    2    0    0 -0.11457194090E+03 -0.42263285221E+02 -0.14163376005E+04  0.14239667653E+04  0.82196320528E+02 0.  0.
         25    2    1    2    0    0  0.10596235680E+03 -0.29423710503E+02 -0.26991264827E+03  0.31716737977E+03  0.12509409777E+03 0.  0.
        -24    2    1    2    0    0  0.86095840940E+01  0.71686995724E+02  0.38238717433E+03  0.39726273274E+03  0.79903550829E+02 0.  0.
        -13    1    3    3    0    0 -0.12331345160E+03 -0.51903975174E+02 -0.12576833271E+04  0.12647796572E+04  0.00000000000E+00 0.  1.
         14    1    3    3    0    0  0.87415107092E+01  0.96406899523E+01 -0.15865427340E+03  0.15918710809E+03  0.00000000000E+00 0. -1.
         13    1    5    5    0    0  0.34357210235E+02  0.68252357223E+02  0.33072909841E+03  0.33944150997E+03  0.00000000000E+00 0. -1.
        -14    1    5    5    0    0 -0.25747626141E+02  0.34346385015E+01  0.51658075925E+02  0.57821222762E+02  0.00000000000E+00 0.  1.
          5    1    4    4  501    0 -0.22299018558E+02 -0.18923517872E+02 -0.18941048548E+02  0.35093895158E+02  0.41800000000E+01 0.  1.
         -5    1    4    4    0  501  0.12826137536E+03 -0.10500192631E+02 -0.25097159973E+03  0.28207348462E+03  0.41800000000E+01 0.  1.
</event>
<event>
11    1  0.7577197E-009  0.1497482E+03  0.7561462E-02  0.1097136E+00
         22   -1    0    0    0    0  0.00000000000E+00  0.00000000000E+00  0.24034360257E+04  0.24034360257E+04  0.00000000000E+00 0. -1.
         22   -1    0    0    0    0 -0.00000000000E+00 -0.00000000000E+00 -0.57273048243E+02  0.57273048243E+02  0.00000000000E+00 0.  1.
         24    2    1    2    0    0 -0.13734976949E+01  0.80578623106E+02  0.64695483994E+02  0.13005779173E+03  0.78960259258E+02 0.  0.
         25    2    1    2    0    0 -0.14340928171E+02 -0.86512643305E+02  0.22167014168E+03  0.26921244952E+03  0.12509033373E+03 0.  0.
        -24    2    1    2    0    0  0.15714425866E+02  0.59340201987E+01  0.20597973518E+04  0.20614388327E+04  0.80515680187E+02 0.  0.
        -11    1    3    3    0    0 -0.73582586588E+01  0.68416702220E+02  0.51663089027E+01  0.69004926352E+02  0.00000000000E+00 0.  1.
         12    1    3    3    0    0  0.59847609639E+01  0.12161920886E+02  0.59529175091E+02  0.61052865375E+02  0.00000000000E+00 0. -1.
         13    1    5    5    0    0  0.82675327321E+01 -0.15548286664E+02  0.18948528386E+04  0.18949346641E+04  0.00000000000E+00 0. -1.
        -14    1    5    5    0    0  0.74468931336E+01  0.21482306863E+02  0.16494451324E+03  0.16650416864E+03  0.00000000000E+00 0.  1.
          5    1    4    4  501    0  0.25198778879E+02 -0.88731429707E+02  0.20720075811E+03  0.22684327549E+03  0.41800000000E+01 0. -1.
         -5    1    4    4    0  501 -0.39539707050E+02  0.22187864021E+01  0.14469383566E+02  0.42369174024E+02  0.41800000000E+01 0. -1.
</event>
<event>
11    1  0.7577197E-009  0.1600558E+03  0.7561462E-02  0.1087025E+00
         22   -1    0    0    0    0  0.00000000000E+00  0.00000000000E+00  0.69432205530E+03  0.69432205530E+03  0.00000000000E+00 0. -1.
         22   -1    0    0    0    0 -0.00000000000E+00 -0.00000000000E+00 -0.96322219630E+03  0.96322219630E+03  0.00000000000E+00 0. -1.
        -24    2    1    2    0    0 -0.71954186923E+02 -0.73189596705E+02 -0.85563388127E+03  0.86533727256E+03  0.78518369983E+02 0.  0.
         25    2    1    2    0    0  0.36274184288E+02  0.62165736086E+02 -0.47062647051E+02  0.15179332434E+03  0.12508367350E+03 0.  0.
         24    2    1    2    0    0  0.35680002635E+02  0.11023860619E+02  0.63379638731E+03  0.64041365471E+03  0.83888023442E+02 0.  0.
        -13    1    5    5    0    0  0.16351579294E+02  0.42154125851E+02  0.48772859189E+03  0.48981988916E+03  0.00000000000E+00 0.  1.
         14    1    5    5    0    0  0.19328423341E+02 -0.31130265231E+02  0.14606779543E+03  0.15059376555E+03  0.00000000000E+00 0. -1.
         11    1    3    3    0    0  0.17384294925E+00 -0.47167460248E+02 -0.45445526307E+03  0.45689647149E+03  0.00000000000E+00 0. -1.
        -12    1    3    3    0    0 -0.72128029872E+02 -0.26022136457E+02 -0.40117861820E+03  0.40844080107E+03  0.00000000000E+00 0.  1.
          5    1    4    4  501    0  0.43604771003E+02  0.48487486577E+02  0.30835494380E+02  0.72254498285E+02  0.41800000000E+01 0. -1.
         -5    1    4    4    0  501 -0.73305867146E+01  0.13678249509E+02 -0.77898141431E+02  0.79538826051E+02  0.41800000000E+01 0. -1.
</event>
<event>
11    1  0.7577197E-009  0.1511978E+03  0.7561462E-02  0.1095661E+00
         22   -1    0    0    0    0  0.00000000000E+00  0.00000000000E+00  0.93944170029E+02  0.93944170029E+02  0.00000000000E+00 0.  1.
         22   -1    0    0    0    0 -0.00000000000E+00 -0.00000000000E+00 -0.13281461222E+04  0.13281461222E+04  0.00000000000E+00 0. -1.
         24    2    1    2    0    0 -0.34896172561E+02 -0.23493608165E+02 -0.10093682022E+04  0.10134465335E+04  0.80498547234E+02 0.  0.
         25    2    1    2    0    0  0.10864294792E+03 -0.10826013321E+02 -0.24011918487E+03  0.29190862745E+03  0.12503172055E+03 0.  0.
        -24    2    1    2    0    0 -0.73746775355E+02  0.34319621486E+02  0.15285434899E+02  0.11673513130E+03  0.82322676501E+02 0.  0.
        -11    1    3    3    0    0  0.73964589478E+01  0.13694170290E+02 -0.48646824720E+02  0.51075938173E+02  0.00000000000E+00 0.  1.
         12    1    3    3    0    0 -0.42292631509E+02 -0.37187778455E+02 -0.96072137750E+03  0.96237059531E+03  0.00000000000E+00 0. -1.
         11    1    5    5    0    0  0.13427360109E+02  0.21285957705E+02  0.13532240946E+02  0.28574596060E+02  0.00000000000E+00 0. -1.
        -12    1    5    5    0    0 -0.87174135464E+02  0.13033663780E+02  0.17531939523E+01  0.88160535244E+02  0.00000000000E+00 0.  1.
          5    1    4    4  501    0  0.67679074029E+02  0.32805550530E+02 -0.21326867078E+03  0.22618059056E+03  0.41800000000E+01 0.  1.
         -5    1    4    4    0  501  0.40963873887E+02 -0.43631563850E+02 -0.26850514086E+02  0.65728036898E+02  0.41800000000E+01 0.  1.
</event>
<event>
11    1  0.7577197E-009  0.1787522E+03  0.7561462E-02  0.1070657E+00
         22   -1    0    0    0    0  0.00000000000E+00  0.00000000000E+00  0.76429416549E+03  0.76429416549E+03  0.00000000000E+00 0. -1.
         22   -1    0    0    0    0 -0.00000000000E+00 -0.00000000000E+00 -0.20456741150E+03  0.20456741150E+03  0.00000000000E+00 0. -1.
        -24    2    1    2    0    0 -0.50878452068E+02 -0.42692228607E+02 -0.12364527366E+03  0.16306042648E+03  0.83001841639E+02 0.  0.
         25    2    1    2    0    0  0.23459660996E+02  0.16203301435E+03  0.15542871519E+03  0.25809277615E+03  0.12509493259E+03 0.  0.
         24    2    1    2    0    0  0.27418791072E+02 -0.11934078575E+03  0.52794331246E+03  0.54770837436E+03  0.79160020983E+02 0.  0.
        -13    1    5    5    0    0 -0.20515066154E+02 -0.43523367010E+02  0.10709999415E+03  0.11741192513E+03  0.00000000000E+00 0.  1.
         14    1    5    5    0    0  0.47933857227E+02 -0.75817418737E+02  0.42084331831E+03  0.43029644923E+03  0.00000000000E+00 0. -1.
         11    1    3    3    0    0 -0.43270288606E+02 -0.60168756031E+02 -0.12346275037E+03  0.14399877710E+03  0.00000000000E+00 0. -1.
        -12    1    3    3    0    0 -0.76081634623E+01  0.17476527424E+02 -0.18252329134E+00  0.19061649373E+02  0.00000000000E+00 0.  1.
          5    1    4    4  501    0  0.71579292091E+02  0.61830034764E+02  0.76005357195E+02  0.12141184035E+03  0.41800000000E+01 0.  1.
         -5    1    4    4    0  501 -0.48119631095E+02  0.10020297959E+03  0.79423357996E+02  0.13668093580E+03  0.41800000000E+01 0.  1.
</event>
<event>
11    1  0.7577197E-009  0.1466007E+03  0.7561462E-02  0.1100404E+00
         22   -1    0    0    0    0  0.00000000000E+00  0.00000000000E+00  0.15630106263E+03  0.15630106263E+03  0.00000000000E+00 0. -1.
         22   -1    0    0    0    0 -0.00000000000E+00 -0.00000000000E+00 -0.66096589770E+03  0.66096589770E+03  0.00000000000E+00 0. -1.
         24    2    1    2    0    0  0.15373211577E+02 -0.15681455222E+02 -0.48076038120E+03  0.48793042437E+03  0.80394721326E+02 0.  0.
         25    2    1    2    0    0  0.61982235954E+02  0.27905075976E+02 -0.11647521620E+03  0.18393756378E+03  0.12508421379E+03 0.  0.
        -24    2    1    2    0    0 -0.77355447531E+02 -0.12223620754E+02  0.92570762339E+02  0.14539897218E+03  0.80238599846E+02 0.  0.
        -11    1    3    3    0    0  0.13556355193E+02 -0.86774007698E+01 -0.14651968003E+02  0.21765849779E+02  0.00000000000E+00 0.  1.
         12    1    3    3    0    0  0.18168563841E+01 -0.70040544521E+01 -0.46610841320E+03  0.46616457459E+03  0.00000000000E+00 0. -1.
         11    1    5    5    0    0 -0.56119902287E+02  0.30872605210E+02  0.51299430397E+02  0.82062127344E+02  0.00000000000E+00 0. -1.
        -12    1    5    5    0    0 -0.21235545244E+02 -0.43096225964E+02  0.41271331942E+02  0.63336844841E+02  0.00000000000E+00 0.  1.
          5    1    4    4  501    0  0.49313113331E+02  0.29342767650E+02  0.85743077881E+01  0.58170201253E+02  0.41800000000E+01 0. -1.
         -5    1    4    4    0  501  0.12669122623E+02 -0.14376916746E+01 -0.12504952399E+03  0.12576736252E+03  0.41800000000E+01 0. -1.
</event>
<event>
11    1  0.7577197E-009  0.1453138E+03  0.7561462E-02  0.1101766E+00
         22   -1    0    0    0    0  0.00000000000E+00  0.00000000000E+00  0.28622688277E+03  0.28622688277E+03  0.00000000000E+00 0.  1.
         22   -1    0    0    0    0 -0.00000000000E+00 -0.00000000000E+00 -0.25465669936E+03  0.25465669936E+03  0.00000000000E+00 0.  1.
         24    2    1    2    0    0  0.26228573072E+02 -0.10496100572E+02 -0.12441089737E+03  0.15070438870E+03  0.80222410947E+02 0.  0.
         25    2    1    2    0    0 -0.96673872241E+02  0.12943382845E+01 -0.42872023699E+02  0.16380424394E+03  0.12508519909E+03 0.  0.
        -24    2    1    2    0    0  0.70445299169E+02  0.92017622871E+01  0.19885310447E+03  0.22637494948E+03  0.81583380605E+02 0.  0.
        -13    1    3    3    0    0  0.40820961585E+02  0.22695394338E+02 -0.86127962229E+02  0.97976822293E+02  0.00000000000E+00 0.  1.
         14    1    3    3    0    0 -0.14592388513E+02 -0.33191494909E+02 -0.38282935138E+02  0.52727566411E+02  0.00000000000E+00 0. -1.
         11    1    5    5    0    0 -0.41450200805E+01 -0.17340671741E+02  0.75984202408E+01  0.19380817270E+02  0.00000000000E+00 0. -1.
        -12    1    5    5    0    0  0.74590319249E+02  0.26542434029E+02  0.19125468423E+03  0.20699413221E+03  0.00000000000E+00 0.  1.
          5    1    4    4  501    0 -0.11106627787E+03 -0.86119139849E+01 -0.69731248400E+02  0.13149069376E+03  0.41800000000E+01 0.  1.
         -5    1    4    4    0  501  0.14392405626E+02  0.99062522695E+01  0.26859224701E+02  0.32313550180E+02  0.41800000000E+01 0.  1.
</event>
<event>
11    1  0.7577197E-009  0.1472256E+03  0.7561462E-02  0.1099748E+00
         22   -1    0    0    0    0  0.00000000000E+00  0.00000000000E+00  0.14123424521E+04  0.14123424521E+04  0.00000000000E+00 0.  1.
         22   -1    0    0    0    0 -0.00000000000E+00 -0.00000000000E+00 -0.72914653567E+03  0.72914653567E+03  0.00000000000E+00 0.  1.
        -24    2    1    2    0    0 -0.26545883857E+02 -0.72837678107E+02 -0.71184742043E+03  0.72045360536E+03  0.79477268509E+02 0.  0.
         25    2    1    2    0    0  0.56645787593E+02  0.89298339160E+02  0.62574586525E+03  0.64682245233E+03  0.12505382174E+03 0.  0.
         24    2    1    2    0    0 -0.30099903737E+02 -0.16460661053E+02  0.76929747157E+03  0.77421293004E+03  0.80063123274E+02 0.  0.
        -11    1    5    5    0    0  0.62762324386E+01 -0.31731591320E+00  0.60956313640E+03  0.60959552905E+03  0.00000000000E+00 0.  1.
         12    1    5    5    0    0 -0.36376136175E+02 -0.16143345140E+02  0.15973433517E+03  0.16461740098E+03  0.00000000000E+00 0. -1.
         13    1    3    3    0    0 -0.15981416799E+02  0.13965784824E+02 -0.88874150991E+02  0.91373210204E+02  0.00000000000E+00 0. -1.
        -14    1    3    3    0    0 -0.10564467058E+02 -0.86803462931E+02 -0.62297326944E+03  0.62908039516E+03  0.00000000000E+00 0.  1.
          5    1    4    4  501    0  0.72790596007E+02  0.33554698636E+02  0.17733559737E+03  0.19465296084E+03  0.41800000000E+01 0.  1.
         -5    1    4    4    0  501 -0.16144808413E+02  0.55743640524E+02  0.44841026788E+03  0.45216949150E+03  0.41800000000E+01 0.  1.
</event>
<event>
11    1  0.7577197E-009  0.1521668E+03  0.7561462E-02  0.1094685E+00
         22   -1    0    0    0    0  0.00000000000E+00  0.00000000000E+00  0.21028769377E+03  0.21028769377E+03  0.00000000000E+00 0. -1.
         22   -1    0    0    0    0 -0.00000000000E+00 -0.00000000000E+00 -0.11406812804E+04  0.11406812804E+04  0.00000000000E+00 0. -1.
        -24    2    1    2    0    0 -0.82370500681E+02 -0.19441593380E+02 -0.72619086729E+03  0.73553481075E+03  0.80594088865E+02 0.  0.
         25    2    1    2    0    0  0.98903415474E+02 -0.22711451796E+02 -0.38212592350E+03  0.41468784939E+03  0.12509234745E+03 0.  0.
         24    2    1    2    0    0 -0.16532914793E+02  0.42153045176E+02  0.17792320414E+03  0.20074631404E+03  0.81192361338E+02 0.  0.
        -11    1    5    5    0    0  0.15506219398E+02  0.73873801223E+01  0.55465493414E+00  0.17184989589E+02  0.00000000000E+00 0.  1.
         12    1    5    5    0    0 -0.32039134191E+02  0.34765665054E+02  0.17736854921E+03  0.18356132445E+03  0.00000000000E+00 0. -1.
         11    1    3    3    0    0 -0.68702626095E+02  0.61213880076E+01 -0.65567999800E+03  0.65929794630E+03  0.00000000000E+00 0. -1.
        -12    1    3    3    0    0 -0.13667874586E+02 -0.25562981387E+02 -0.70510869289E+02  0.76236864449E+02  0.00000000000E+00 0.  1.
          5    1    4    4  501    0  0.11561115851E+03 -0.10852776010E+02 -0.19951816821E+03  0.23088675702E+03  0.41800000000E+01 0. -1.
         -5    1    4    4    0  501 -0.16707743036E+02 -0.11858675786E+02 -0.18260775529E+03  0.18380109238E+03  0.41800000000E+01 0. -1.
</event>
<event>
11    1  0.7577197E-009  0.1553103E+03  0.7561462E-02  0.1091573E+00
         22   -1    0    0    0    0  0.00000000000E+00  0.00000000000E+00  0.19867436396E+03  0.19867436396E+03  0.00000000000E+00 0. -1.
         22   -1    0    0    0    0 -0.00000000000E+00 -0.00000000000E+00 -0.25411188961E+04  0.25411188961E+04  0.00000000000E+00 0. -1.
         24    2    1    2    0    0 -0.96945291776E+01  0.49993632188E+02 -0.24049376212E+04  0.24069152427E+04  0.83202622741E+02 0.  0.
         25    2    1    2    0    0 -0.84204819223E+02 -0.35729278972E+02 -0.52575879208E+02  0.16364096520E+03  0.12508840658E+03 0.  0.
        -24    2    1    2    0    0  0.93899348400E+02 -0.14264353216E+02  0.11506896820E+03  0.16923705225E+03  0.79873356066E+02 0.  0.
        -11    1    3    3    0    0  0.30997577313E+02  0.36367657203E+02 -0.81580084645E+03  0.81719916627E+03  0.00000000000E+00 0.  1.
         12    1    3    3    0    0 -0.40692106490E+02  0.13625974985E+02 -0.15891367747E+04  0.15897160764E+04  0.00000000000E+00 0. -1.
         11    1    5    5    0    0  0.28535571908E+02 -0.10759503761E+02  0.96488675487E+02  0.10119343004E+03  0.00000000000E+00 0. -1.
        -12    1    5    5    0    0  0.65363776492E+02 -0.35048494556E+01  0.18580292718E+02  0.68043622217E+02  0.00000000000E+00 0.  1.
          5    1    4    4  501    0 -0.11053876982E+03 -0.39581690755E+02 -0.16535205423E+02  0.11864406978E+03  0.41800000000E+01 0.  1.
         -5    1    4    4    0  501  0.26333950593E+02  0.38524117834E+01 -0.36040673786E+02  0.44996895419E+02  0.41800000000E+01 0.  1.
</event>
<event>
11    1  0.7577197E-009  0.1278913E+03  0.7561462E-02  0.1121887E+00
         22   -1    0    0    0    0  0.00000000000E+00  0.00000000000E+00  0.10974849827E+04  0.10974849827E+04  0.00000000000E+00 0. -1.
         22   -1    0    0    0    0 -0.00000000000E+00 -0.00000000000E+00 -0.12342450258E+04  0.12342450258E+04  0.00000000000E+00 0.  1.
        -24    2    1    2    0    0  0.10961700970E+02  0.97374760077E+01 -0.11893734939E+04  0.11920753986E+04  0.78863619747E+02 0.  0.
         25    2    1    2    0    0  0.73466676767E+01  0.10408876753E+02  0.52987722283E+02  0.13644573536E+03  0.12508965483E+03 0.  0.
         24    2    1    2    0    0 -0.18308368647E+02 -0.20146352761E+02  0.99962572849E+03  0.10032088745E+04  0.80220801306E+02 0.  0.
        -11    1    5    5    0    0 -0.22760939638E+02 -0.15365181975E+02  0.10416063668E+03  0.10771994905E+03  0.00000000000E+00 0.  1.
         12    1    5    5    0    0  0.44525709912E+01 -0.47811707860E+01  0.89546509181E+03  0.89548892546E+03  0.00000000000E+00 0. -1.
         13    1    3    3    0    0  0.38297126867E+02  0.13191314037E+02 -0.36482702207E+03  0.36706870845E+03  0.00000000000E+00 0. -1.
        -14    1    3    3    0    0 -0.27335425897E+02 -0.34538380291E+01 -0.82454647185E+03  0.82500669012E+03  0.00000000000E+00 0.  1.
          5    1    4    4  501    0 -0.15845088435E+01 -0.46732951106E+02 -0.12889279091E+02  0.48683521882E+02  0.41800000000E+01 0.  1.
         -5    1    4    4    0  501  0.89311765202E+01  0.57141827859E+02  0.65877001374E+02  0.87762213481E+02  0.41800000000E+01 0.  1.
</event>
<event>
11    1  0.7577197E-009  0.2013848E+03  0.7561462E-02  0.1053549E+00
         22   -1    0    0    0    0  0.00000000000E+00  0.00000000000E+00  0.21904938287E+03  0.21904938287E+03  0.00000000000E+00 0. -1.
         22   -1    0    0    0    0 -0.00000000000E+00 -0.00000000000E+00 -0.17286820444E+04  0.17286820444E+04  0.00000000000E+00 0.  1.
        -24    2    1    2    0    0  0.30689155263E+01 -0.35413636530E+01 -0.15225646530E+04  0.15247201527E+04  0.80910209636E+02 0.  0.
         25    2    1    2    0    0  0.72269059660E+02  0.14174581235E+03 -0.86570704935E+02  0.22012986584E+03  0.12509188055E+03 0.  0.
         24    2    1    2    0    0 -0.75337975186E+02 -0.13820444870E+03  0.99502696385E+02  0.20288140874E+03  0.80522042209E+02 0.  0.
        -13    1    5    5    0    0 -0.14318875612E+02 -0.23877323300E+02 -0.13498755678E+02  0.30941447471E+02  0.00000000000E+00 0.  1.
         14    1    5    5    0    0 -0.61019099574E+02 -0.11432712539E+03  0.11300145206E+03  0.17193996127E+03  0.00000000000E+00 0. -1.
         11    1    3    3    0    0  0.10360136594E+01  0.15673196627E+02 -0.59818294937E+02  0.61846186835E+02  0.00000000000E+00 0. -1.
        -12    1    3    3    0    0  0.20329018668E+01 -0.19214560280E+02 -0.14627463580E+04  0.14628739658E+04  0.00000000000E+00 0.  1.
          5    1    4    4  501    0  0.10032169623E+03  0.11795706267E+03 -0.95594791522E+02  0.18202787680E+03  0.41800000000E+01 0.  1.
         -5    1    4    4    0  501 -0.28052636571E+02  0.23788749682E+02  0.90240865863E+01  0.38101989039E+02  0.41800000000E+01 0.  1.
</event>
<event>
11    1  0.7577197E-009  0.1641207E+03  0.7561462E-02  0.1083264E+00
         22   -1    0    0    0    0  0.00000000000E+00  0.00000000000E+00  0.30690973566E+04  0.30690973566E+04  0.00000000000E+00 0.  1.
         22   -1    0    0    0    0 -0.00000000000E+00 -0.00000000000E+00 -0.22246650847E+03  0.22246650847E+03  0.00000000000E+00 0. -1.
        -24    2    1    2    0    0 -0.82183124099E+02 -0.69197162778E+02 -0.19578119772E+03  0.23724880027E+03  0.80089965836E+02 0.  0.
         25    2    1    2    0    0  0.33788793941E+02  0.39852885083E+02  0.95235056519E+03  0.96195017338E+03  0.12508637815E+03 0.  0.
         24    2    1    2    0    0  0.48394330158E+02  0.29344277696E+02  0.20900614807E+04  0.20923648914E+04  0.80191945141E+02 0.  0.
        -13    1    5    5    0    0  0.30837468163E+02  0.43064979218E+01  0.18622340944E+04  0.18624943806E+04  0.00000000000E+00 0.  1.
         14    1    5    5    0    0  0.17556861995E+02  0.25037779774E+02  0.22782738623E+03  0.22987051080E+03  0.00000000000E+00 0. -1.
         11    1    3    3    0    0  0.12009709915E+01 -0.21318931513E+02 -0.97288491610E+02  0.99604165435E+02  0.00000000000E+00 0. -1.
        -12    1    3    3    0    0 -0.83384095091E+02 -0.47878231265E+02 -0.98492706107E+02  0.13764463484E+03  0.00000000000E+00 0.  1.
          5    1    4    4  501    0  0.12591829090E+02  0.67305163917E+02  0.26574926310E+03  0.27446071210E+03  0.41800000000E+01 0.  1.
         -5    1    4    4    0  501  0.21196964851E+02 -0.27452278834E+02  0.68660130210E+03  0.68748946128E+03  0.41800000000E+01 0.  1.
</event>
<event>
11    1  0.7577197E-009  0.1437749E+03  0.7561462E-02  0.1103415E+00
         22   -1    0    0    0    0  0.00000000000E+00  0.00000000000E+00  0.17597408481E+04  0.17597408481E+04  0.00000000000E+00 0.  1.
         22   -1    0    0    0    0 -0.00000000000E+00 -0.00000000000E+00 -0.41046028820E+03  0.41046028820E+03  0.00000000000E+00 0.  1.
         24    2    1    2    0    0  0.59367129472E+02  0.50368884415E+02 -0.39126247857E+03  0.40736924398E+03  0.82473591074E+02 0.  0.
         25    2    1    2    0    0  0.13553310350E+02 -0.80188882282E+02  0.72364112100E+03  0.73886290248E+03  0.12509183668E+03 0.  0.
        -24    2    1    2    0    0 -0.72920439822E+02  0.29819997866E+02  0.10169019175E+04  0.10239689899E+04  0.90644137013E+02 0.  0.
        -11    1    3    3    0    0  0.51046285646E+02  0.66243397337E+02 -0.22318679687E+03  0.23834063285E+03  0.00000000000E+00 0.  1.
         12    1    3    3    0    0  0.83208438259E+01 -0.15874512921E+02 -0.16807568169E+03  0.16902861113E+03  0.00000000000E+00 0. -1.
         11    1    5    5    0    0  0.35493467954E+01 -0.22177015855E+02  0.10411583807E+03  0.10651068318E+03  0.00000000000E+00 0. -1.
        -12    1    5    5    0    0 -0.76469786617E+02  0.51997013722E+02  0.91278607944E+03  0.91745830669E+03  0.00000000000E+00 0.  1.
          5    1    4    4  501    0 -0.33751551063E+02 -0.15977105954E+02  0.49962692096E+03  0.50103789044E+03  0.41800000000E+01 0.  1.
         -5    1    4    4    0  501  0.47304861413E+02 -0.64211776328E+02  0.22401420004E+03  0.23782501204E+03  0.41800000000E+01 0.  1.
</event>
<event>
11    1  0.7577197E-009  0.2740003E+03  0.7561462E-02  0.1011838E+00
         22   -1    0    0    0    0  0.00000000000E+00  0.00000000000E+00  0.27195670720E+03  0.27195670720E+03  0.00000000000E+00 0.  1.
         22   -1    0    0    0    0 -0.00000000000E+00 -0.00000000000E+00 -0.16608570135E+04  0.16608570135E+04  0.00000000000E+00 0.  1.
         24    2    1    2    0    0  0.36080646082E+02 -0.53459033210E+02 -0.13362640651E+04  0.13403638626E+04  0.82546660259E+02 0.  0.
         25    2    1    2    0    0  0.19845380493E+03 -0.10887379823E+03  0.75148229609E+02  0.26931810815E+03  0.12509024875E+03 0.  0.
        -24    2    1    2    0    0 -0.23453445102E+03  0.16233283144E+03 -0.12778447079E+03  0.32313174997E+03  0.82017680948E+02 0.  0.
        -13    1    3    3    0    0  0.48258425529E+02 -0.56793764388E+02 -0.69664674027E+03  0.70062192946E+03  0.00000000000E+00 0.  1.
         14    1    3    3    0    0 -0.12177779447E+02  0.33347311781E+01 -0.63961732483E+03  0.63974193310E+03  0.00000000000E+00 0. -1.
         13    1    5    5    0    0 -0.17437826557E+03  0.76995036355E+02 -0.99163277333E+02  0.21487059058E+03  0.00000000000E+00 0. -1.
        -14    1    5    5    0    0 -0.60156185448E+02  0.85337795082E+02 -0.28621193457E+02  0.10826115939E+03  0.00000000000E+00 0.  1.
          5    1    4    4  501    0  0.30927876894E+02 -0.32100831703E+02  0.72215151370E+02  0.84967625909E+02  0.41800000000E+01 0. -1.
         -5    1    4    4    0  501  0.16752592804E+03 -0.76772966524E+02  0.29330782383E+01  0.18435048224E+03  0.41800000000E+01 0. -1.
</event>
<event>
11    1  0.7577197E-009  0.1922493E+03  0.7561462E-02  0.1060144E+00
         22   -1    0    0    0    0  0.00000000000E+00  0.00000000000E+00  0.58618084264E+03  0.58618084264E+03  0.00000000000E+00 0.  1.
         22   -1    0    0    0    0 -0.00000000000E+00 -0.00000000000E+00 -0.66671881394E+03  0.66671881394E+03  0.00000000000E+00 0. -1.
         24    2    1    2    0    0 -0.27361495706E+02  0.47537445431E+02 -0.59426235660E+03  0.60244186579E+03  0.82340712992E+02 0.  0.
         25    2    1    2    0    0 -0.19374964261E+02 -0.17544041312E+03  0.18304136014E+03  0.28338372350E+03  0.12508983744E+03 0.  0.
        -24    2    1    2    0    0  0.46736459967E+02  0.12790296769E+03  0.33068302517E+03  0.36707406728E+03  0.82756521790E+02 0.  0.
        -13    1    3    3    0    0  0.17808992061E+02  0.50182918140E+02 -0.34932074011E+03  0.35335600312E+03  0.00000000000E+00 0.  1.
         14    1    3    3    0    0 -0.45170487767E+02 -0.26454727093E+01 -0.24494161650E+03  0.24908586267E+03  0.00000000000E+00 0. -1.
         13    1    5    5    0    0  0.18651180881E+02  0.65785702402E+01  0.12555747980E+03  0.12710556584E+03  0.00000000000E+00 0. -1.
        -14    1    5    5    0    0  0.28085279086E+02  0.12132439745E+03  0.20512554537E+03  0.23996850144E+03  0.00000000000E+00 0.  1.
          5    1    4    4  501    0  0.29984614518E+02 -0.61810377671E+02  0.13290751982E+03  0.14967124346E+03  0.41800000000E+01 0. -1.
         -5    1    4    4    0  501 -0.49359578778E+02 -0.11363003545E+03  0.50133840321E+02  0.13371248004E+03  0.41800000000E+01 0. -1.
</event>
<event>
11    1  0.7577197E-009  0.1485803E+03  0.7561462E-02  0.1098338E+00
         22   -1    0    0    0    0  0.00000000000E+00  0.00000000000E+00  0.39736889379E+04  0.39736889379E+04  0.00000000000E+00 0.  1.
         22   -1    0    0    0    0 -0.00000000000E+00 -0.00000000000E+00 -0.20617374537E+03  0.20617374537E+03  0.00000000000E+00 0.  1.
         24    2    1    2    0    0  0.67353816578E+02  0.37817919529E+02 -0.15031182047E+03  0.18765339677E+03  0.81568512917E+02 0.  0.
         25    2    1    2    0    0 -0.13251793355E+03  0.32831852360E+01  0.19196026023E+03  0.26470256260E+03  0.12508766175E+03 0.  0.
        -24    2    1    2    0    0  0.65164116975E+02 -0.41101104766E+02  0.37258667528E+04  0.37275067239E+04  0.79294730387E+02 0.  0.
        -11    1    3    3    0    0  0.70268282717E+02 -0.31364556545E+01 -0.10629408047E+03  0.12745940708E+03  0.00000000000E+00 0.  1.
         12    1    3    3    0    0 -0.29144661395E+01  0.40954375184E+02 -0.44017740000E+02  0.60193989685E+02  0.00000000000E+00 0. -1.
         13    1    5    5    0    0 -0.77268882006E+01  0.60503212653E+01  0.79051468549E+02  0.79658306964E+02  0.00000000000E+00 0. -1.
        -14    1    5    5    0    0  0.72891005176E+02 -0.47151426031E+02  0.36468152843E+04  0.36478484170E+04  0.00000000000E+00 0.  1.
          5    1    4    4  501    0 -0.65333668163E+02  0.54803485162E+02  0.14372723319E+03  0.16717326383E+03  0.41800000000E+01 0.  1.
         -5    1    4    4    0  501 -0.67184265389E+02 -0.51520299926E+02  0.48233027042E+02  0.97529298767E+02  0.41800000000E+01 0.  1.
</event>
<event>
11    1  0.7577197E-009  0.1706476E+03  0.7561462E-02  0.1077469E+00
         22   -1    0    0    0    0  0.00000000000E+00  0.00000000000E+00  0.67008432371E+03  0.67008432371E+03  0.00000000000E+00 0. -1.
         22   -1    0    0    0    0 -0.00000000000E+00 -0.00000000000E+00 -0.96320238118E+02  0.96320238118E+02  0.00000000000E+00 0. -1.
        -24    2    1    2    0    0 -0.63108221186E+02  0.10735201436E+03  0.16488514246E+02  0.14925848686E+03  0.80617133603E+02 0.  0.
         25    2    1    2    0    0  0.58593923419E+02 -0.70095821981E+02  0.22708213947E+03  0.27489400890E+03  0.12511493094E+03 0.  0.
         24    2    1    2    0    0  0.45142977668E+01 -0.37256192375E+02  0.33019343187E+03  0.34225206606E+03  0.81855797089E+02 0.  0.
        -13    1    5    5    0    0 -0.37764114627E+02 -0.89846099396E+01  0.15847746039E+03  0.16316236398E+03  0.00000000000E+00 0.  1.
         14    1    5    5    0    0  0.42278412394E+02 -0.28271582435E+02  0.17171597149E+03  0.17908970208E+03  0.00000000000E+00 0. -1.
         11    1    3    3    0    0 -0.29675689342E+02  0.87893304758E+02  0.43114860130E+02  0.10229746196E+03  0.00000000000E+00 0. -1.
        -12    1    3    3    0    0 -0.33432531844E+02  0.19458709598E+02 -0.26626345884E+02  0.46961024902E+02  0.00000000000E+00 0.  1.
          5    1    4    4  501    0 -0.15303382816E+02  0.16612026872E+02  0.25923336368E+01  0.23115915645E+02  0.41800000000E+01 0. -1.
         -5    1    4    4    0  501  0.73897306235E+02 -0.86707848854E+02  0.22448980583E+03  0.25177809326E+03  0.41800000000E+01 0. -1.
</event>
<event>
11    1  0.7577197E-009  0.1656529E+03  0.7561462E-02  0.1081878E+00
         22   -1    0    0    0    0  0.00000000000E+00  0.00000000000E+00  0.29917431082E+03  0.29917431082E+03  0.00000000000E+00 0. -1.
         22   -1    0    0    0    0 -0.00000000000E+00 -0.00000000000E+00 -0.38276949792E+03  0.38276949792E+03  0.00000000000E+00 0.  1.
         24    2    1    2    0    0  0.89402402371E+02  0.33547779099E+02 -0.11850321211E+03  0.17212432055E+03  0.80408503356E+02 0.  0.
         25    2    1    2    0    0 -0.12314442322E+03 -0.26868120282E+02 -0.19506060792E+03  0.26378525981E+03  0.12509027809E+03 0.  0.
        -24    2    1    2    0    0  0.33742020853E+02 -0.66796588173E+01  0.22996863294E+03  0.24603422837E+03  0.80399798391E+02 0.  0.
        -11    1    3    3    0    0  0.59014694922E+02  0.53666835471E+02 -0.10787163446E+03  0.13416092191E+03  0.00000000000E+00 0.  1.
         12    1    3    3    0    0  0.30387707449E+02 -0.20119056372E+02 -0.10631577657E+02  0.37963398646E+02  0.00000000000E+00 0. -1.
         13    1    5    5    0    0  0.23323019978E+02  0.24024203336E+02  0.19688308843E+03  0.19970998002E+03  0.00000000000E+00 0. -1.
        -14    1    5    5    0    0  0.10419000875E+02 -0.30703862154E+02  0.33085544501E+02  0.46324248351E+02  0.00000000000E+00 0.  1.
          5    1    4    4  501    0 -0.50174526506E+02  0.16153918915E+02 -0.19965878896E+01  0.52913995971E+02  0.41800000000E+01 0.  1.
         -5    1    4    4    0  501 -0.72969896717E+02 -0.43022039197E+02 -0.19306402003E+03  0.21087126384E+03  0.41800000000E+01 0.  1.
</event>
<event>
11    1  0.7577197E-009  0.1374886E+03  0.7561462E-02  0.1110396E+00
         22   -1    0    0    0    0  0.00000000000E+00  0.00000000000E+00  0.11764380062E+03  0.11764380062E+03  0.00000000000E+00 0.  1.
         22   -1    0    0    0    0 -0.00000000000E+00 -0.00000000000E+00 -0.19942010564E+04  0.19942010564E+04  0.00000000000E+00 0.  1.
         24    2    1    2    0    0  0.11011897294E+02  0.85508091086E+00 -0.18668549490E+04  0.18692368647E+04  0.93685979836E+02 0.  0.
         25    2    1    2    0    0  0.42359868048E+02 -0.28025231201E+02 -0.34243540993E+02  0.13931700042E+03  0.12512727321E+03 0.  0.
        -24    2    1    2    0    0 -0.53371765343E+02  0.27170150290E+02  0.24541234284E+02  0.10329099181E+03  0.80498412446E+02 0.  0.
        -13    1    3    3    0    0  0.33951308352E+02  0.19161200842E+02 -0.16434620017E+04  0.16439243273E+04  0.00000000000E+00 0.  1.
         14    1    3    3    0    0 -0.22939411058E+02 -0.18306119931E+02 -0.22339294733E+03  0.22531253743E+03  0.00000000000E+00 0. -1.
         11    1    5    5    0    0 -0.24471625731E+02 -0.27805501535E+02  0.15826493317E+01  0.37074400338E+02  0.00000000000E+00 0. -1.
        -12    1    5    5    0    0 -0.28900139611E+02  0.54975651825E+02  0.22958584952E+02  0.66216591472E+02  0.00000000000E+00 0.  1.
          5    1    4    4  501    0  0.79268818453E+02  0.10580890656E+02 -0.30215516705E+02  0.85591767570E+02  0.41800000000E+01 0. -1.
         -5    1    4    4    0  501 -0.36908950405E+02 -0.38606121857E+02 -0.40280242880E+01  0.53725232848E+02  0.41800000000E+01 0. -1.
</event>
<event>
11    1  0.7577197E-009  0.2539740E+03  0.7561462E-02  0.1021803E+00
         22   -1    0    0    0    0  0.00000000000E+00  0.00000000000E+00  0.21111859696E+03  0.21111859696E+03  0.00000000000E+00 0.  1.
         22   -1    0    0    0    0 -0.00000000000E+00 -0.00000000000E+00 -0.73860787762E+03  0.73860787762E+03  0.00000000000E+00 0.  1.
         24    2    1    2    0    0 -0.18597472710E+03 -0.11051772726E+03 -0.53960725565E+03  0.58739708419E+03  0.84015337928E+02 0.  0.
         25    2    1    2    0    0  0.20671188481E+03  0.13931071428E+03  0.51025975792E+01  0.27894782712E+03  0.12509426572E+03 0.  0.
        -24    2    1    2    0    0 -0.20737157710E+02 -0.28792987023E+02  0.70153774194E+01  0.83381563275E+02  0.75127915998E+02 0.  0.
        -13    1    3    3    0    0 -0.13691979332E+03 -0.41740299015E+02 -0.28127355994E+03  0.31560116902E+03  0.00000000000E+00 0.  1.
         14    1    3    3    0    0 -0.49054933772E+02 -0.68777428242E+02 -0.25833369572E+03  0.27179591518E+03  0.00000000000E+00 0. -1.
         11    1    5    5    0    0 -0.25835216396E+01 -0.52511667388E+02 -0.51760553169E+00  0.52577730185E+02  0.00000000000E+00 0. -1.
        -12    1    5    5    0    0 -0.18153636071E+02  0.23718680365E+02  0.75329829511E+01  0.30803833089E+02  0.00000000000E+00 0.  1.
          5    1    4    4  501    0  0.25267239867E+02  0.80339304809E+02 -0.19464206060E+02  0.86539962013E+02  0.41800000000E+01 0.  1.
         -5    1    4    4    0  501  0.18144464494E+03  0.58971409471E+02  0.24566803640E+02  0.19240786510E+03  0.41800000000E+01 0.  1.
</event>
<event>
11    1  0.7577197E-009  0.1318809E+03  0.7561462E-02  0.1116979E+00
         22   -1    0    0    0    0  0.00000000000E+00  0.00000000000E+00  0.61850916102E+03  0.61850916102E+03  0.00000000000E+00 0.  1.
         22   -1    0    0    0    0 -0.00000000000E+00 -0.00000000000E+00 -0.10656208543E+04  0.10656208543E+04  0.00000000000E+00 0. -1.
        -24    2    1    2    0    0  0.94419868300E+01 -0.13388277458E+02 -0.93895560181E+03  0.94241965112E+03  0.79049222421E+02 0.  0.
         25    2    1    2    0    0 -0.41317072049E+02 -0.13619642267E+02 -0.85307482048E+02  0.15754455903E+03  0.12510126493E+03 0.  0.
         24    2    1    2    0    0  0.31875085219E+02  0.27007919725E+02  0.57715139054E+03  0.58416580521E+03  0.80003197330E+02 0.  0.
        -13    1    5    5    0    0  0.40806662946E+02  0.40899521932E+02  0.54468279339E+03  0.54773834999E+03  0.00000000000E+00 0.  1.
         14    1    5    5    0    0 -0.89315777266E+01 -0.13891602207E+02  0.32468597155E+02  0.36427455220E+02  0.00000000000E+00 0. -1.
         13    1    3    3    0    0  0.11958780488E+02 -0.46244292413E+02 -0.54788882310E+03  0.54996700764E+03  0.00000000000E+00 0. -1.
        -14    1    3    3    0    0 -0.25167936579E+01  0.32856014955E+02 -0.39106677870E+03  0.39245264348E+03  0.00000000000E+00 0.  1.
          5    1    4    4  501    0  0.41026439972E+01  0.41515094519E+02  0.51117845107E+01  0.42236684311E+02  0.41800000000E+01 0.  1.
         -5    1    4    4    0  501 -0.45419716047E+02 -0.55134736786E+02 -0.90419266558E+02  0.11530787471E+03  0.41800000000E+01 0.  1.
</event>
<event>
11    1  0.7577197E-009  0.1572426E+03  0.7561462E-02  0.1089700E+00
         22   -1    0    0    0    0  0.00000000000E+00  0.00000000000E+00  0.84530668073E+03  0.84530668073E+03  0.00000000000E+00 0. -1.
         22   -1    0    0    0    0 -0.00000000000E+00 -0.00000000000E+00 -0.20633666806E+03  0.20633666806E+03  0.00000000000E+00 0. -1.
        -24    2    1    2    0    0 -0.27212328137E+02 -0.91604607073E+02 -0.15805654622E+03  0.20427697768E+03  0.87265668906E+02 0.  0.
         25    2    1    2    0    0  0.71330048808E+01  0.93482285865E+02  0.26083750653E+03  0.30409478860E+03  0.12509043974E+03 0.  0.
         24    2    1    2    0    0  0.20079323257E+02 -0.18776787928E+01  0.53618905236E+03  0.54327158250E+03  0.85080006918E+02 0.  0.
        -11    1    5    5    0    0  0.25378854856E+02 -0.24856487281E+02  0.94546119622E+02  0.10099950480E+03  0.00000000000E+00 0.  1.
         12    1    5    5    0    0 -0.52995315991E+01  0.22978808488E+02  0.44164293274E+03  0.44227207770E+03  0.00000000000E+00 0. -1.
         13    1    3    3    0    0  0.12365173873E+02 -0.29047512096E+02 -0.11365089479E+03  0.11795414944E+03  0.00000000000E+00 0. -1.
        -14    1    3    3    0    0 -0.39577502010E+02 -0.62557094976E+02 -0.44405651431E+02  0.86322828246E+02  0.00000000000E+00 0.  1.
          5    1    4    4  501    0  0.37035357131E+02  0.11371348758E+03  0.20795081748E+03  0.23992371669E+03  0.41800000000E+01 0.  1.
         -5    1    4    4    0  501 -0.29902352251E+02 -0.20231201717E+02  0.52886689043E+02  0.64171071917E+02  0.41800000000E+01 0.  1.
</event>
<event>
11    1  0.7577197E-009  0.1342463E+03  0.7561462E-02  0.1114159E+00
         22   -1    0    0    0    0  0.00000000000E+00  0.00000000000E+00  0.35585036808E+03  0.35585036808E+03  0.00000000000E+00 0.  1.
         22   -1    0    0    0    0 -0.00000000000E+00 -0.00000000000E+00 -0.31212869725E+03  0.31212869725E+03  0.00000000000E+00 0. -1.
        -24    2    1    2    0    0 -0.43522057882E+01  0.14821842442E+02 -0.15733758763E+03  0.17736864121E+03  0.80410756088E+02 0.  0.
         25    2    1    2    0    0  0.48795012299E+02 -0.33247521008E+02 -0.10009923843E+03  0.17074047010E+03  0.12508437039E+03 0.  0.
         24    2    1    2    0    0 -0.44442806511E+02  0.18425678566E+02  0.30115849689E+03  0.31986995402E+03  0.96465945056E+02 0.  0.
        -11    1    5    5    0    0  0.25244597748E+02  0.17783626844E+02  0.15371685890E+03  0.15678781779E+03  0.00000000000E+00 0.  1.
         12    1    5    5    0    0 -0.69687404259E+02  0.64205172121E+00  0.14744163800E+03  0.16308213623E+03  0.00000000000E+00 0. -1.
         13    1    3    3    0    0  0.14635870493E+02 -0.29629309243E+02 -0.73655236661E+02  0.80729167956E+02  0.00000000000E+00 0. -1.
        -14    1    3    3    0    0 -0.18988076281E+02  0.44451151685E+02 -0.83682350967E+02  0.96639473252E+02  0.00000000000E+00 0.  1.
          5    1    4    4  501    0  0.31870883023E+02  0.20804666962E+02  0.15997350828E+02  0.41496686441E+02  0.41800000000E+01 0.  1.
         -5    1    4    4    0  501  0.16924129277E+02 -0.54052187970E+02 -0.11609658926E+03  0.12924378366E+03  0.41800000000E+01 0.  1.
</event>
<event>
11    1  0.9055626E-009  0.2188443E+03  0.7561462E-02  0.1041944E+00
         22   -1    0    0    0    0  0.00000000000E+00  0.00000000000E+00  0.50624253325E+03  0.50624253325E+03  0.00000000000E+00 0. -1.
         22   -1    0    0    0    0 -0.00000000000E+00 -0.00000000000E+00 -0.32510393049E+04  0.32510393049E+04  0.00000000000E+00 0.  1.
        -24    2    1    2    0    0  0.92082763161E+01 -0.60633106014E+01 -0.19069376275E+04  0.19084818486E+04  0.75962458504E+02 0.  0.
         25    2    1    2    0    0  0.60816252199E+02  0.17138686032E+03 -0.13146895714E+04  0.13330895983E+04  0.12508851027E+03 0.  0.
         24    2    1    2    0    0 -0.70024528515E+02 -0.16532354972E+03  0.47683042726E+03  0.51571039131E+03  0.79715999976E+02 0.  0.
        -13    1    5    5    0    0 -0.12766190195E+02 -0.94820888031E+02  0.32497317810E+03  0.33876473090E+03  0.00000000000E+00 0.  1.
         14    1    5    5    0    0 -0.57258338320E+02 -0.70502661690E+02  0.15185724916E+03  0.17694566040E+03  0.00000000000E+00 0. -1.
         11    1    3    3    0    0 -0.12392635385E+02 -0.51023480552E-01 -0.53811701520E+02  0.55220279206E+02  0.00000000000E+00 0. -1.
        -12    1    3    3    0    0  0.21600911701E+02 -0.60122871208E+01 -0.18531259260E+04  0.18532615694E+04  0.00000000000E+00 0.  1.
          5    1    4    4  501    0 -0.32464734929E+02  0.65159999863E+02 -0.30803930270E+03  0.31655247433E+03  0.41800000000E+01 0.  1.
         -5    1    4    4    0  501  0.93280987128E+02  0.10622686046E+03 -0.10066502687E+04  0.10165371239E+04  0.41800000000E+01 0.  1.
</event>
<event>
11    1  0.7577197E-009  0.1582492E+03  0.7561462E-02  0.1088736E+00
         22   -1    0    0    0    0  0.00000000000E+00  0.00000000000E+00  0.11740888237E+03  0.11740888237E+03  0.00000000000E+00 0.  1.
         22   -1    0    0    0    0 -0.00000000000E+00 -0.00000000000E+00 -0.15263778178E+04  0.15263778178E+04  0.00000000000E+00 0.  1.
        -24    2    1    2    0    0  0.79642646010E+02  0.59572506947E+02 -0.13090232624E+04  0.13152368611E+04  0.80089104084E+02 0.  0.
         25    2    1    2    0    0 -0.44599301405E+02 -0.63458795084E+02 -0.16408349171E+03  0.22042385251E+03  0.12508863316E+03 0.  0.
         24    2    1    2    0    0 -0.35043344604E+02  0.38862881372E+01  0.64137818724E+02  0.10812598653E+03  0.79589132020E+02 0.  0.
        -13    1    5    5    0    0  0.17618595558E+02  0.24370259566E+02  0.27738883550E+02  0.40911735741E+02  0.00000000000E+00 0.  1.
         14    1    5    5    0    0 -0.52661940163E+02 -0.20483971428E+02  0.36398935175E+02  0.67214250788E+02  0.00000000000E+00 0. -1.
         11    1    3    3    0    0 -0.37542159465E+01  0.22002041967E+02 -0.87790270994E+02  0.90583197500E+02  0.00000000000E+00 0. -1.
        -12    1    3    3    0    0  0.83396861956E+02  0.37570464980E+02 -0.12212329914E+04  0.12246536636E+04  0.00000000000E+00 0.  1.
          5    1    4    4  501    0 -0.39788379505E+02 -0.74146074592E+02 -0.18086908580E+03  0.19952908088E+03  0.41800000000E+01 0. -1.
         -5    1    4    4    0  501 -0.48109219004E+01  0.10687279508E+02  0.16785594083E+02  0.20894771631E+02  0.41800000000E+01 0. -1.
</event>
<event>
11    1  0.7577197E-009  0.1295903E+03  0.7561462E-02  0.1119773E+00
         22   -1    0    0    0    0  0.00000000000E+00  0.00000000000E+00  0.14533001406E+03  0.14533001406E+03  0.00000000000E+00 0.  1.
         22   -1    0    0    0    0 -0.00000000000E+00 -0.00000000000E+00 -0.27441812797E+03  0.27441812797E+03  0.00000000000E+00 0.  1.
        -24    2    1    2    0    0  0.16534785126E+02  0.20555980353E+02 -0.12969975324E+03  0.15501396853E+03  0.80692979891E+02 0.  0.
         25    2    1    2    0    0  0.18640705877E+02 -0.26457780250E+02 -0.74288884732E+02  0.14904163340E+03  0.12508828899E+03 0.  0.
         24    2    1    2    0    0 -0.35175491003E+02  0.59017998975E+01  0.74900524063E+02  0.11569254010E+03  0.80638259654E+02 0.  0.
        -11    1    5    5    0    0 -0.41250945916E+02  0.24436016347E+02  0.81956711801E+02  0.94950840139E+02  0.00000000000E+00 0.  1.
         12    1    5    5    0    0  0.60754549126E+01 -0.18534216450E+02 -0.70561877380E+01  0.20741699959E+02  0.00000000000E+00 0. -1.
         13    1    3    3    0    0  0.35346472214E+02  0.21585595248E+02 -0.24457368699E+02  0.48098585258E+02  0.00000000000E+00 0. -1.
        -14    1    3    3    0    0 -0.18811687087E+02 -0.10296148947E+01 -0.10524238454E+03  0.10691538328E+03  0.00000000000E+00 0.  1.
          5    1    4    4  501    0  0.41202656598E+02  0.37224245547E+02 -0.55891200561E+02  0.78896147355E+02  0.41800000000E+01 0. -1.
         -5    1    4    4    0  501 -0.22561950722E+02 -0.63682025797E+02 -0.18397684171E+02  0.70145486048E+02  0.41800000000E+01 0. -1.
</event>
<event>
11    1  0.7577197E-009  0.1559964E+03  0.7561462E-02  0.1090904E+00
         22   -1    0    0    0    0  0.00000000000E+00  0.00000000000E+00  0.96977944990E+03  0.96977944990E+03  0.00000000000E+00 0.  1.
         22   -1    0    0    0    0 -0.00000000000E+00 -0.00000000000E+00 -0.18793159701E+03  0.18793159701E+03  0.00000000000E+00 0.  1.
        -24    2    1    2    0    0 -0.37999064408E+02 -0.87156599325E+02 -0.13366350742E+03  0.18147103002E+03  0.77624737158E+02 0.  0.
         25    2    1    2    0    0  0.53262932635E+02  0.61058260969E+02  0.17079939213E+03  0.22668372839E+03  0.12509208264E+03 0.  0.
         24    2    1    2    0    0 -0.15263868227E+02  0.26098338356E+02  0.74471196818E+03  0.74955628849E+03  0.79527386073E+02 0.  0.
        -11    1    5    5    0    0  0.25401855642E+02  0.26950792183E+02  0.51025461651E+03  0.51159688539E+03  0.00000000000E+00 0.  1.
         12    1    5    5    0    0 -0.40665723869E+02 -0.85245382706E+00  0.23445735167E+03  0.23795940310E+03  0.00000000000E+00 0. -1.
         11    1    3    3    0    0  0.23275891295E+02 -0.18471406241E+02 -0.23291767976E+02  0.37755349549E+02  0.00000000000E+00 0. -1.
        -12    1    3    3    0    0 -0.61274955703E+02 -0.68685193083E+02 -0.11037173945E+03  0.14371568047E+03  0.00000000000E+00 0.  1.
          5    1    4    4  501    0  0.64573478630E+02 -0.11271668074E+02  0.12213503505E+03  0.13867668813E+03  0.41800000000E+01 0. -1.
         -5    1    4    4    0  501 -0.11310545995E+02  0.72329929043E+02  0.48664357083E+02  0.88007040266E+02  0.41800000000E+01 0. -1.
</event>
<event>
11    1  0.7577197E-009  0.1407438E+03  0.7561462E-02  0.1106731E+00
         22   -1    0    0    0    0  0.00000000000E+00  0.00000000000E+00  0.46482398225E+03  0.46482398225E+03  0.00000000000E+00 0.  1.
         22   -1    0    0    0    0 -0.00000000000E+00 -0.00000000000E+00 -0.44296430187E+03  0.44296430187E+03  0.00000000000E+00 0.  1.
        -24    2    1    2    0    0  0.40567359444E+02  0.46312049465E+02 -0.34612561305E+03  0.36046376196E+03  0.79628305889E+02 0.  0.
         25    2    1    2    0    0 -0.59222355274E+02 -0.73470712142E+02 -0.12239487881E+02  0.15716810649E+03  0.12508707259E+03 0.  0.
         24    2    1    2    0    0  0.18654995831E+02  0.27158662678E+02  0.38022478132E+03  0.39015641567E+03  0.81028035448E+02 0.  0.
        -11    1    5    5    0    0 -0.14065928760E+02  0.17205557689E+02  0.32097929785E+03  0.32174771362E+03  0.00000000000E+00 0.  1.
         12    1    5    5    0    0  0.32720924591E+02  0.99531049892E+01  0.59245483465E+02  0.68408702048E+02  0.00000000000E+00 0. -1.
         11    1    3    3    0    0  0.64663833070E+02  0.34402536363E+02 -0.23598603964E+03  0.24709179816E+03  0.00000000000E+00 0. -1.
        -12    1    3    3    0    0 -0.24096473627E+02  0.11909513102E+02 -0.11013957342E+03  0.11337196380E+03  0.00000000000E+00 0.  1.
          5    1    4    4  501    0 -0.24016476636E+01  0.11566815549E+02 -0.47330106342E+02  0.48960907874E+02  0.41800000000E+01 0.  1.
         -5    1    4    4    0  501 -0.56820707610E+02 -0.85037527691E+02  0.35090618461E+02  0.10820719862E+03  0.41800000000E+01 0.  1.
</event>
<event>
11    1  0.7577197E-009  0.2821754E+03  0.7561462E-02  0.1008030E+00
         22   -1    0    0    0    0  0.00000000000E+00  0.00000000000E+00  0.12705335413E+04  0.12705335413E+04  0.00000000000E+00 0. -1.
         22   -1    0    0    0    0 -0.00000000000E+00 -0.00000000000E+00 -0.17712163211E+03  0.17712163211E+03  0.00000000000E+00 0. -1.
         24    2    1    2    0    0 -0.24268021664E+03  0.83061146585E+02  0.15019789615E+02  0.26936363022E+03  0.80859938063E+02 0.  0.
         25    2    1    2    0    0  0.16591027764E+03 -0.21466097737E+03  0.75524788668E+03  0.81218992252E+03  0.12509014540E+03 0.  0.
        -24    2    1    2    0    0  0.76769939006E+02  0.13159983079E+03  0.32314423288E+03  0.36610162064E+03  0.79975386202E+02 0.  0.
        -13    1    3    3    0    0 -0.13041342438E+03  0.84712365930E+02  0.21013312328E+02  0.15692484028E+03  0.00000000000E+00 0.  1.
         14    1    3    3    0    0 -0.11226679226E+03 -0.16512193444E+01 -0.59935227129E+01  0.11243878994E+03  0.00000000000E+00 0. -1.
         13    1    5    5    0    0  0.68815162702E+02  0.84329921930E+02  0.14312937736E+03  0.17981401784E+03  0.00000000000E+00 0. -1.
        -14    1    5    5    0    0  0.79547763041E+01  0.47269908858E+02  0.18001485552E+03  0.18628760280E+03  0.00000000000E+00 0.  1.
          5    1    4    4  501    0 -0.32168602804E+00  0.14765915587E+02  0.42311359951E+02  0.45009547053E+02  0.41800000000E+01 0.  1.
         -5    1    4    4    0  501  0.16623196366E+03 -0.22942689296E+03  0.71293652672E+03  0.76718037546E+03  0.41800000000E+01 0.  1.
</event>
<event>
11    1  0.7577197E-009  0.1342493E+03  0.7561462E-02  0.1114156E+00
         22   -1    0    0    0    0  0.00000000000E+00  0.00000000000E+00  0.36325088559E+02  0.36325088559E+02  0.00000000000E+00 0.  1.
         22   -1    0    0    0    0 -0.00000000000E+00 -0.00000000000E+00 -0.21409865648E+04  0.21409865648E+04  0.00000000000E+00 0. -1.
        -24    2    1    2    0    0  0.50258765308E+02 -0.46926194233E+02 -0.11020966726E+04  0.11077962586E+04  0.88698724626E+02 0.  0.
         25    2    1    2    0    0 -0.18607005734E+02  0.81334403732E+01 -0.95535528229E+03  0.96372377513E+03  0.12508967118E+03 0.  0.
         24    2    1    2    0    0 -0.31651759574E+02  0.38792753860E+02 -0.47209521403E+02  0.10579161962E+03  0.80351827825E+02 0.  0.
        -13    1    5    5    0    0 -0.40027539483E+02  0.38399448710E+02  0.23595377132E+01  0.55518366299E+02  0.00000000000E+00 0.  1.
         14    1    5    5    0    0  0.83757799089E+01  0.39330515058E+00 -0.49569059116E+02  0.50273253323E+02  0.00000000000E+00 0. -1.
         13    1    3    3    0    0  0.44353336903E+02 -0.35483521638E+01 -0.21177060651E+03  0.21639454494E+03  0.00000000000E+00 0. -1.
        -14    1    3    3    0    0  0.59054284050E+01 -0.43377842070E+02 -0.89032606606E+03  0.89140171369E+03  0.00000000000E+00 0.  1.
          5    1    4    4  501    0 -0.63746192529E+02  0.30262811131E+02 -0.69037242953E+03  0.69398197286E+03  0.41800000000E+01 0.  1.
         -5    1    4    4    0  501  0.45139186795E+02 -0.22129370757E+02 -0.26498285276E+03  0.26974180227E+03  0.41800000000E+01 0.  1.
</event>
<event>
11    1  0.7577197E-009  0.2035539E+03  0.7561462E-02  0.1052039E+00
         22   -1    0    0    0    0  0.00000000000E+00  0.00000000000E+00  0.12446234411E+04  0.12446234411E+04  0.00000000000E+00 0. -1.
         22   -1    0    0    0    0 -0.00000000000E+00 -0.00000000000E+00 -0.37458248169E+03  0.37458248169E+03  0.00000000000E+00 0. -1.
        -24    2    1    2    0    0  0.68160023528E+02 -0.14239402976E+03 -0.31489539535E+03  0.36046286119E+03  0.76501736995E+02 0.  0.
         25    2    1    2    0    0 -0.57837498822E+02  0.21679989515E+03  0.47231800965E+03  0.53766111055E+03  0.12509115378E+03 0.  0.
         24    2    1    2    0    0 -0.10322524706E+02 -0.74405865394E+02  0.71261834511E+03  0.72108195105E+03  0.80569764921E+02 0.  0.
        -11    1    5    5    0    0 -0.30729680270E+02 -0.14376253433E+02  0.10937726208E+03  0.11451801331E+03  0.00000000000E+00 0.  1.
         12    1    5    5    0    0  0.20407155564E+02 -0.60029611961E+02  0.60324108303E+03  0.60656393774E+03  0.00000000000E+00 0. -1.
         11    1    3    3    0    0  0.75187679116E+02 -0.13263806355E+03 -0.31317495437E+03  0.34831680270E+03  0.00000000000E+00 0. -1.
        -12    1    3    3    0    0 -0.70276555880E+01 -0.97559662065E+01 -0.17204409774E+01  0.12146058490E+02  0.00000000000E+00 0.  1.
          5    1    4    4  501    0 -0.26416732564E+02  0.21836973740E+03  0.44221981142E+03  0.49392207886E+03  0.41800000000E+01 0. -1.
         -5    1    4    4    0  501 -0.31420766258E+02 -0.15698422441E+01  0.30098198224E+02  0.43739031691E+02  0.41800000000E+01 0. -1.
</event>
<event>
11    1  0.7577197E-009  0.1391713E+03  0.7561462E-02  0.1108487E+00
         22   -1    0    0    0    0  0.00000000000E+00  0.00000000000E+00  0.17512432013E+04  0.17512432013E+04  0.00000000000E+00 0.  1.
         22   -1    0    0    0    0 -0.00000000000E+00 -0.00000000000E+00 -0.13524327206E+04  0.13524327206E+04  0.00000000000E+00 0. -1.
        -24    2    1    2    0    0 -0.18437390741E+02 -0.57844369140E+02 -0.13000577373E+04  0.13038399382E+04  0.78501947528E+02 0.  0.
         25    2    1    2    0    0  0.17368217549E+02  0.77796939192E+02  0.62181333638E+02  0.16082697958E+03  0.12507909650E+03 0.  0.
         24    2    1    2    0    0  0.10691731917E+01 -0.19952570052E+02  0.16366868844E+04  0.16390090041E+04  0.84895876926E+02 0.  0.
        -11    1    5    5    0    0  0.19093182440E+02  0.24830407193E+02  0.10017768137E+04  0.10022663733E+04  0.00000000000E+00 0.  1.
         12    1    5    5    0    0 -0.18024009248E+02 -0.44782977245E+02  0.63491007070E+03  0.63674263077E+03  0.00000000000E+00 0. -1.
         11    1    3    3    0    0  0.95958970546E+01 -0.46461147593E+02 -0.11375954403E+04  0.11385842548E+04  0.00000000000E+00 0. -1.
        -12    1    3    3    0    0 -0.28033287796E+02 -0.11383221547E+02 -0.16246229693E+03  0.16525568336E+03  0.00000000000E+00 0.  1.
          5    1    4    4  501    0  0.53548972386E+01  0.80319313894E+02  0.95560996773E+02  0.12501697330E+03  0.41800000000E+01 0. -1.
         -5    1    4    4    0  501  0.12013320311E+02 -0.25223747018E+01 -0.33379663136E+02  0.35810006284E+02  0.41800000000E+01 0. -1.
</event>
<event>
11    1  0.7577197E-009  0.1706044E+03  0.7561462E-02  0.1077507E+00
         22   -1    0    0    0    0  0.00000000000E+00  0.00000000000E+00  0.61701892672E+03  0.61701892672E+03  0.00000000000E+00 0. -1.
         22   -1    0    0    0    0 -0.00000000000E+00 -0.00000000000E+00 -0.92912428711E+03  0.92912428711E+03  0.00000000000E+00 0. -1.
        -24    2    1    2    0    0 -0.38753883350E+01 -0.18152004128E+02 -0.84994306883E+03  0.85393849689E+03  0.80394168502E+02 0.  0.
         25    2    1    2    0    0  0.34952880730E+02 -0.95756576624E+02  0.28914762728E+02  0.16393496196E+03  0.12509029703E+03 0.  0.
         24    2    1    2    0    0 -0.31077492395E+02  0.11390858075E+03  0.50892294571E+03  0.52826975499E+03  0.78264896765E+02 0.  0.
        -13    1    5    5    0    0 -0.44761818236E+02  0.49114665603E+02  0.16229551659E+03  0.17537304655E+03  0.00000000000E+00 0.  1.
         14    1    5    5    0    0  0.13684325841E+02  0.64793915149E+02  0.34662742912E+03  0.35289670844E+03  0.00000000000E+00 0. -1.
         11    1    3    3    0    0 -0.60707261517E+01 -0.12623568456E+02 -0.84732281137E+03  0.84743858471E+03  0.00000000000E+00 0. -1.
        -12    1    3    3    0    0  0.21953378167E+01 -0.55284356715E+01 -0.26202574587E+01  0.64999121727E+01  0.00000000000E+00 0.  1.
          5    1    4    4  501    0  0.13393315377E+02 -0.10935839371E+03 -0.16701199041E+02  0.11151251777E+03  0.41800000000E+01 0.  1.
         -5    1    4    4    0  501  0.21559565353E+02  0.13601817081E+02  0.45615961769E+02  0.52422444184E+02  0.41800000000E+01 0.  1.
</event>
<event>
11    1  0.7577197E-009  0.1374707E+03  0.7561462E-02  0.1110416E+00
         22   -1    0    0    0    0  0.00000000000E+00  0.00000000000E+00  0.77584952956E+02  0.77584952956E+02  0.00000000000E+00 0.  1.
         22   -1    0    0    0    0 -0.00000000000E+00 -0.00000000000E+00 -0.12116638166E+04  0.12116638166E+04  0.00000000000E+00 0.  1.
        -24    2    1    2    0    0  0.51284608555E+02  0.18949562714E+02 -0.89836684143E+03  0.90343307009E+03  0.78352621863E+02 0.  0.
         25    2    1    2    0    0 -0.53597953045E+02 -0.71860472355E+02 -0.24774908837E+03  0.29165606052E+03  0.12508788429E+03 0.  0.
         24    2    1    2    0    0  0.23133444897E+01  0.52910909641E+02  0.12037066180E+02  0.94159638913E+02  0.76917037880E+02 0.  0.
        -11    1    5    5    0    0 -0.12418172136E+02  0.64364918471E+02  0.26342341813E+02  0.70646816639E+02  0.00000000000E+00 0.  1.
         12    1    5    5    0    0  0.14731516625E+02 -0.11454008830E+02 -0.14305275633E+02  0.23512822275E+02  0.00000000000E+00 0. -1.
         13    1    3    3    0    0  0.60865853751E+01  0.41858824717E+02 -0.30719359826E+03  0.31009210654E+03  0.00000000000E+00 0. -1.
        -14    1    3    3    0    0  0.45198023180E+02 -0.22909262004E+02 -0.59117324317E+03  0.59334096355E+03  0.00000000000E+00 0.  1.
          5    1    4    4  501    0 -0.53549757900E+02 -0.27421295681E+02 -0.26367583578E+02  0.65819646701E+02  0.41800000000E+01 0.  1.
         -5    1    4    4    0  501 -0.48195144567E-01 -0.44439176673E+02 -0.22138150479E+03  0.22583641382E+03  0.41800000000E+01 0.  1.
</event>
<event>
11    1  0.7577197E-009  0.1978543E+03  0.7561462E-02  0.1056051E+00
         22   -1    0    0    0    0  0.00000000000E+00  0.00000000000E+00  0.58356034727E+03  0.58356034727E+03  0.00000000000E+00 0.  1.
         22   -1    0    0    0    0 -0.00000000000E+00 -0.00000000000E+00 -0.74037486130E+03  0.74037486130E+03  0.00000000000E+00 0. -1.
         24    2    1    2    0    0 -0.14433267569E+03 -0.58143099336E+02 -0.63049212679E+03  0.65449230788E+03  0.81408340194E+02 0.  0.
         25    2    1    2    0    0  0.14085881115E+03  0.94027427467E+01  0.26492642095E+01  0.18863826594E+03  0.12509100897E+03 0.  0.
        -24    2    1    2    0    0  0.34738645366E+01  0.48740356589E+02  0.47102834856E+03  0.48080463475E+03  0.83172721257E+02 0.  0.
        -11    1    3    3    0    0 -0.88603666337E+02  0.47913626336E+01 -0.26513388061E+03  0.27958816408E+03  0.00000000000E+00 0.  1.
         12    1    3    3    0    0 -0.55729009353E+02 -0.62934461969E+02 -0.36535824618E+03  0.37490414380E+03  0.00000000000E+00 0. -1.
         13    1    5    5    0    0 -0.84781077366E+01  0.14997036831E+02  0.13523600369E+02  0.21901533998E+02  0.00000000000E+00 0. -1.
        -14    1    5    5    0    0  0.11951972273E+02  0.33743319758E+02  0.45750474819E+03  0.45890310076E+03  0.00000000000E+00 0.  1.
          5    1    4    4  501    0  0.90059231954E+02 -0.55624610283E+02 -0.89599085993E+00  0.10593883957E+03  0.41800000000E+01 0.  1.
         -5    1    4    4    0  501  0.50799579200E+02  0.65027353030E+02  0.35452550694E+01  0.82699426373E+02  0.41800000000E+01 0.  1.
</event>
<event>
11    1  0.7577197E-009  0.1528794E+03  0.7561462E-02  0.1093972E+00
         22   -1    0    0    0    0  0.00000000000E+00  0.00000000000E+00  0.11749047524E+03  0.11749047524E+03  0.00000000000E+00 0. -1.
         22   -1    0    0    0    0 -0.00000000000E+00 -0.00000000000E+00 -0.63392224160E+03  0.63392224160E+03  0.00000000000E+00 0.  1.
        -24    2    1    2    0    0 -0.73806698561E+02 -0.25229681159E+02 -0.27809811330E+03  0.29923192608E+03  0.78212654993E+02 0.  0.
         25    2    1    2    0    0  0.76830806800E+02  0.95558481063E+02 -0.28555609593E+03  0.33499874463E+03  0.12508988290E+03 0.  0.
         24    2    1    2    0    0 -0.30241082390E+01 -0.70328799904E+02  0.47222442872E+02  0.11718204612E+03  0.80909749081E+02 0.  0.
        -11    1    5    5    0    0  0.34642149069E+02 -0.15039446892E+02  0.50583353995E+01  0.38103152257E+02  0.00000000000E+00 0.  1.
         12    1    5    5    0    0 -0.37666257308E+02 -0.55289353012E+02  0.42164107473E+02  0.79078893866E+02  0.00000000000E+00 0. -1.
         11    1    3    3    0    0 -0.19231084356E+02  0.25777841298E+02 -0.52293913870E+02  0.61392060850E+02  0.00000000000E+00 0. -1.
        -12    1    3    3    0    0 -0.54575614205E+02 -0.51007522457E+02 -0.22580419943E+03  0.23783986523E+03  0.00000000000E+00 0.  1.
          5    1    4    4  501    0  0.33509085683E+02  0.11955840219E+03 -0.18521147957E+03  0.22301980837E+03  0.41800000000E+01 0.  1.
         -5    1    4    4    0  501  0.43321721117E+02 -0.23999921129E+02 -0.10034461636E+03  0.11197893626E+03  0.41800000000E+01 0.  1.
</event>
<event>
11    1  0.7577197E-009  0.1282874E+03  0.7561462E-02  0.1121391E+00
         22   -1    0    0    0    0  0.00000000000E+00  0.00000000000E+00  0.24276237585E+03  0.24276237585E+03  0.00000000000E+00 0. -1.
         22   -1    0    0    0    0 -0.00000000000E+00 -0.00000000000E+00 -0.60695017747E+03  0.60695017747E+03  0.00000000000E+00 0. -1.
         24    2    1    2    0    0  0.25963847629E+02  0.18215434302E+02 -0.45663880437E+03  0.46586955629E+03  0.86657500487E+02 0.  0.
         25    2    1    2    0    0 -0.15532258122E+02  0.91398808154E+01 -0.10912458670E+03  0.16697351555E+03  0.12508873254E+03 0.  0.
        -24    2    1    2    0    0 -0.10431589506E+02 -0.27355315118E+02  0.20157558946E+03  0.21686948148E+03  0.74448118888E+02 0.  0.
        -13    1    3    3    0    0 -0.31395424048E+02  0.15093161196E+02 -0.17234073741E+03  0.17582606729E+03  0.00000000000E+00 0.  1.
         14    1    3    3    0    0  0.57359271677E+02  0.31222731068E+01 -0.28429806696E+03  0.29004348900E+03  0.00000000000E+00 0. -1.
         13    1    5    5    0    0 -0.62438234350E+01 -0.29605776625E+02  0.20726122162E+03  0.20945811354E+03  0.00000000000E+00 0. -1.
        -14    1    5    5    0    0 -0.41877660714E+01  0.22504615076E+01 -0.56856321595E+01  0.74113679385E+01  0.00000000000E+00 0.  1.
          5    1    4    4  501    0 -0.10596606011E+02  0.65752642352E+02 -0.41672681915E+02  0.78675173042E+02  0.41800000000E+01 0.  1.
         -5    1    4    4    0  501 -0.49356521115E+01 -0.56612761536E+02 -0.67451904786E+02  0.88298342509E+02  0.41800000000E+01 0.  1.
</event>
<event>
11    1  0.7577197E-009  0.1409470E+03  0.7561462E-02  0.1106506E+00
         22   -1    0    0    0    0  0.00000000000E+00  0.00000000000E+00  0.20570785277E+03  0.20570785277E+03  0.00000000000E+00 0. -1.
         22   -1    0    0    0    0 -0.00000000000E+00 -0.00000000000E+00 -0.28319965058E+04  0.28319965058E+04  0.00000000000E+00 0. -1.
         24    2    1    2    0    0  0.51668758920E+02 -0.23183397627E+02 -0.15123128613E+04  0.15156203359E+04  0.82508675690E+02 0.  0.
         25    2    1    2    0    0 -0.70199926327E+02  0.55339867304E+02 -0.13036582772E+04  0.13126929189E+04  0.12508902845E+03 0.  0.
        -24    2    1    2    0    0  0.18531167407E+02 -0.32156469678E+02  0.18968248546E+03  0.20939110378E+03  0.80546547673E+02 0.  0.
        -13    1    3    3    0    0  0.46204172127E+02 -0.52672613457E+02 -0.10461547846E+04  0.10484984802E+04  0.00000000000E+00 0.  1.
         14    1    3    3    0    0  0.54645867924E+01  0.29489215830E+02 -0.46615807676E+03  0.46712185572E+03  0.00000000000E+00 0. -1.
         13    1    5    5    0    0  0.28719386846E+02  0.19155113917E+02  0.97059230641E+02  0.10301560961E+03  0.00000000000E+00 0. -1.
        -14    1    5    5    0    0 -0.10188219439E+02 -0.51311583594E+02  0.92623254822E+02  0.10637549417E+03  0.00000000000E+00 0.  1.
          5    1    4    4  501    0 -0.97768859699E+02  0.68753224633E+02 -0.91088904276E+03  0.91870674126E+03  0.41800000000E+01 0.  1.
         -5    1    4    4    0  501  0.27568933373E+02 -0.13413357329E+02 -0.39276923442E+03  0.39398617761E+03  0.41800000000E+01 0.  1.
</event>
<event>
11    1  0.7577197E-009  0.1355980E+03  0.7561462E-02  0.1112576E+00
         22   -1    0    0    0    0  0.00000000000E+00  0.00000000000E+00  0.20785364659E+03  0.20785364659E+03  0.00000000000E+00 0. -1.
         22   -1    0    0    0    0 -0.00000000000E+00 -0.00000000000E+00 -0.27327792587E+04  0.27327792587E+04  0.00000000000E+00 0.  1.
         24    2    1    2    0    0 -0.82461822176E+01  0.49748397283E+02 -0.23039944636E+04  0.23059158208E+04  0.79463083334E+02 0.  0.
         25    2    1    2    0    0  0.46304386184E+02 -0.72598326802E+02 -0.40440284214E+03  0.43197548781E+03  0.12508617074E+03 0.  0.
        -24    2    1    2    0    0 -0.38058203966E+02  0.22849929519E+02  0.18347169359E+03  0.20274159675E+03  0.73971254789E+02 0.  0.
        -11    1    3    3    0    0  0.95159597911E+01 -0.19914971425E+02 -0.48805546106E+03  0.48855428833E+03  0.00000000000E+00 0.  1.
         12    1    3    3    0    0 -0.17762142009E+02  0.69663368708E+02 -0.18159390026E+04  0.18173615324E+04  0.00000000000E+00 0. -1.
         11    1    5    5    0    0 -0.42526905896E+02  0.20565691900E+02  0.18926830222E+03  0.19507428235E+03  0.00000000000E+00 0. -1.
        -12    1    5    5    0    0  0.44687019298E+01  0.22842376190E+01 -0.57966086325E+01  0.76673143979E+01  0.00000000000E+00 0.  1.
          5    1    4    4  501    0  0.66642366303E+02 -0.90631294210E+02 -0.23757967695E+03  0.26290076413E+03  0.41800000000E+01 0.  1.
         -5    1    4    4    0  501 -0.20337980119E+02  0.18032967409E+02 -0.16682316518E+03  0.16907472369E+03  0.41800000000E+01 0.  1.
</event>
<event>
11    1  0.9884705E-009  0.1906972E+03  0.7561462E-02  0.1061304E+00
         22   -1    0    0    0    0  0.00000000000E+00  0.00000000000E+00  0.99423122388E+03  0.99423122388E+03  0.00000000000E+00 0. -1.
         22   -1    0    0    0    0 -0.00000000000E+00 -0.00000000000E+00 -0.12780083753E+04  0.12780083753E+04  0.00000000000E+00 0. -1.
        -24    2    1    2    0    0 -0.33264445483E+02 -0.57946438495E+02 -0.11356141335E+04  0.11396315704E+04  0.68383790834E+02 0.  0.
         25    2    1    2    0    0  0.85817197119E+02 -0.78418796752E+02 -0.78117405160E+02  0.18778650957E+03  0.12508934879E+03 0.  0.
         24    2    1    2    0    0 -0.52552751636E+02  0.13636523525E+03  0.92995438729E+03  0.94482151922E+03  0.80717232689E+02 0.  0.
        -13    1    5    5    0    0  0.14256536016E+02  0.27498722747E+02  0.89320347430E+02  0.94538632510E+02  0.00000000000E+00 0.  1.
         14    1    5    5    0    0 -0.66809287652E+02  0.10886651250E+03  0.84063403986E+03  0.85028288671E+03  0.00000000000E+00 0. -1.
         13    1    3    3    0    0 -0.30932687970E+02 -0.23330029158E+02 -0.95079746991E+03  0.95158654374E+03  0.00000000000E+00 0. -1.
        -14    1    3    3    0    0 -0.23317575131E+01 -0.34616409337E+02 -0.18481666363E+03  0.18804502664E+03  0.00000000000E+00 0.  1.
          5    1    4    4  501    0  0.36760629140E+02 -0.10752594005E+02  0.31578320364E+02  0.49815909603E+02  0.41800000000E+01 0.  1.
         -5    1    4    4    0  501  0.49056567979E+02 -0.67666202747E+02 -0.10969572552E+03  0.13797059996E+03  0.41800000000E+01 0.  1.
</event>
<event>
11    1  0.7577197E-009  0.1395633E+03  0.7561462E-02  0.1108047E+00
         22   -1    0    0    0    0  0.00000000000E+00  0.00000000000E+00  0.36430704375E+03  0.36430704375E+03  0.00000000000E+00 0.  1.
         22   -1    0    0    0    0 -0.00000000000E+00 -0.00000000000E+00 -0.43899914606E+03  0.43899914606E+03  0.00000000000E+00 0. -1.
        -24    2    1    2    0    0  0.56297055075E+02  0.34963761269E+02 -0.37796647044E+03  0.39320763445E+03  0.85800745920E+02 0.  0.
         25    2    1    2    0    0 -0.11414297290E+02  0.25114919397E+02  0.56066047419E+02  0.13982767128E+03  0.12508929061E+03 0.  0.
         24    2    1    2    0    0 -0.44882757785E+02 -0.60078680667E+02  0.24720832071E+03  0.27027088408E+03  0.79438574623E+02 0.  0.
        -13    1    5    5    0    0 -0.17372074222E+02 -0.72357250640E+02  0.20741703666E+03  0.22036149341E+03  0.00000000000E+00 0.  1.
         14    1    5    5    0    0 -0.27510683562E+02  0.12278569973E+02  0.39791284050E+02  0.49909390669E+02  0.00000000000E+00 0. -1.
         13    1    3    3    0    0  0.73417468108E+02  0.41045917899E+02 -0.34917338033E+03  0.35916144215E+03  0.00000000000E+00 0. -1.
        -14    1    3    3    0    0 -0.17120413033E+02 -0.60821566296E+01 -0.28793090110E+02  0.34046192295E+02  0.00000000000E+00 0.  1.
          5    1    4    4  501    0  0.20326716216E+01 -0.48719956234E+02  0.55291559379E+01  0.49252511151E+02  0.41800000000E+01 0. -1.
         -5    1    4    4    0  501 -0.13446968912E+02  0.73834875631E+02  0.50536891481E+02  0.90575160132E+02  0.41800000000E+01 0. -1.
</event>
<event>
11    1  0.7577197E-009  0.1376541E+03  0.7561462E-02  0.1110207E+00
         22   -1    0    0    0    0  0.00000000000E+00  0.00000000000E+00  0.70624727607E+03  0.70624727607E+03  0.00000000000E+00 0.  1.
         22   -1    0    0    0    0 -0.00000000000E+00 -0.00000000000E+00 -0.82266469196E+03  0.82266469196E+03  0.00000000000E+00 0.  1.
         24    2    1    2    0    0 -0.57348392742E+02 -0.58403440490E+01 -0.76160669670E+03  0.76836315253E+03  0.83750975783E+02 0.  0.
         25    2    1    2    0    0  0.55629233472E+02 -0.34608288771E+02  0.37245386097E+02  0.14603767507E+03  0.12508972174E+03 0.  0.
        -24    2    1    2    0    0  0.17191592697E+01  0.40448632820E+02  0.60794389471E+03  0.61451114043E+03  0.79931941006E+02 0.  0.
        -11    1    3    3    0    0 -0.78753992239E+02  0.12151339936E+01 -0.56333470536E+03  0.56881425625E+03  0.00000000000E+00 0.  1.
         12    1    3    3    0    0  0.21405599497E+02 -0.70554780426E+01 -0.19827199134E+03  0.19954889628E+03  0.00000000000E+00 0. -1.
         11    1    5    5    0    0 -0.54597304998E+01  0.43473265819E+01  0.17425730037E+01  0.71933626499E+01  0.00000000000E+00 0. -1.
        -12    1    5    5    0    0  0.71788897695E+01  0.36101306238E+02  0.60620132171E+03  0.60731777778E+03  0.00000000000E+00 0.  1.
          5    1    4    4  501    0  0.61045698122E+02  0.35323137499E+02  0.23354929887E+02  0.74412542303E+02  0.41800000000E+01 0.  1.
         -5    1    4    4    0  501 -0.54164646502E+01 -0.69931426270E+02  0.13890456210E+02  0.71625132762E+02  0.41800000000E+01 0.  1.
</event>
<event>
11    1  0.7577197E-009  0.1598240E+03  0.7561462E-02  0.1087243E+00
         22   -1    0    0    0    0  0.00000000000E+00  0.00000000000E+00  0.38230041832E+04  0.38230041832E+04  0.00000000000E+00 0.  1.
         22   -1    0    0    0    0 -0.00000000000E+00 -0.00000000000E+00 -0.38860909186E+03  0.38860909186E+03  0.00000000000E+00 0.  1.
        -24    2    1    2    0    0  0.71988349492E+02  0.68490949081E+02 -0.35785059890E+03  0.37970196455E+03  0.79013911315E+02 0.  0.
         25    2    1    2    0    0 -0.82671851755E+02 -0.62511204910E+02  0.32141637353E+03  0.36013700628E+03  0.12509153573E+03 0.  0.
         24    2    1    2    0    0  0.10683502263E+02 -0.59797441715E+01  0.34708293167E+04  0.34717743042E+04  0.80067341893E+02 0.  0.
        -13    1    5    5    0    0  0.18567054103E+02  0.86875597337E+01  0.33140085468E+04  0.33140719451E+04  0.00000000000E+00 0.  1.
         14    1    5    5    0    0 -0.78835518397E+01 -0.14667303905E+02  0.15682076989E+03  0.15770235909E+03  0.00000000000E+00 0. -1.
         11    1    3    3    0    0  0.71322528890E+01  0.22462801218E+02 -0.21430977126E+03  0.21560177301E+03  0.00000000000E+00 0. -1.
        -12    1    3    3    0    0  0.64856096603E+02  0.46028147863E+02 -0.14354082765E+03  0.16410019154E+03  0.00000000000E+00 0.  1.
          5    1    4    4  501    0  0.28353318520E+02 -0.27941243248E+02  0.44982518842E+02  0.60212317235E+02  0.41800000000E+01 0.  1.
         -5    1    4    4    0  501 -0.11102517028E+03 -0.34569961661E+02  0.27643385468E+03  0.29992468905E+03  0.41800000000E+01 0.  1.
</event>
<event>
11    1  0.7577197E-009  0.1631866E+03  0.7561462E-02  0.1084118E+00
         22   -1    0    0    0    0  0.00000000000E+00  0.00000000000E+00  0.97433673654E+02  0.97433673654E+02  0.00000000000E+00 0. -1.
         22   -1    0    0    0    0 -0.00000000000E+00 -0.00000000000E+00 -0.25681507756E+04  0.25681507756E+04  0.00000000000E+00 0.  1.
         24    2    1    2    0    0 -0.19225046215E+02 -0.11212889283E+01 -0.22577992978E+04  0.22592074937E+04  0.77394902477E+02 0.  0.
         25    2    1    2    0    0  0.91366465513E+02 -0.71322625078E+02 -0.21927061113E+03  0.27778009789E+03  0.12508970385E+03 0.  0.
        -24    2    1    2    0    0 -0.72141419298E+02  0.72443914006E+02  0.63528069774E+01  0.12859685763E+03  0.77745022872E+02 0.  0.
        -13    1    3    3    0    0 -0.42620053556E+01  0.26099207782E+02 -0.18631519429E+04  0.18633396083E+04  0.00000000000E+00 0.  1.
         14    1    3    3    0    0 -0.14963040859E+02 -0.27220496710E+02 -0.39464735487E+03  0.39586788546E+03  0.00000000000E+00 0. -1.
         11    1    5    5    0    0 -0.66854259380E+02  0.30436512650E+02 -0.23120782819E+02  0.77009375388E+02  0.00000000000E+00 0. -1.
        -12    1    5    5    0    0 -0.52871599176E+01  0.42007401357E+02  0.29473589796E+02  0.51587482243E+02  0.00000000000E+00 0.  1.
          5    1    4    4  501    0  0.14832501495E+02  0.35511102117E+02 -0.42764263884E+02  0.57682719594E+02  0.41800000000E+01 0.  1.
         -5    1    4    4    0  501  0.76533964018E+02 -0.10683372720E+03 -0.17650634725E+03  0.22009737830E+03  0.41800000000E+01 0.  1.
</event>
<event>
11    1  0.7577197E-009  0.1298319E+03  0.7561462E-02  0.1119476E+00
         22   -1    0    0    0    0  0.00000000000E+00  0.00000000000E+00  0.22324131353E+04  0.22324131353E+04  0.00000000000E+00 0.  1.
         22   -1    0    0    0    0 -0.00000000000E+00 -0.00000000000E+00 -0.30858105391E+03  0.30858105391E+03  0.00000000000E+00 0.  1.
         24    2    1    2    0    0  0.62481361550E+01  0.15032381058E+02 -0.26065578520E+03  0.27290608019E+03  0.79191404583E+02 0.  0.
         25    2    1    2    0    0  0.24937660760E+02 -0.30341220310E+02  0.63977987017E+02  0.14588874715E+03  0.12509143515E+03 0.  0.
        -24    2    1    2    0    0 -0.31185796915E+02  0.15308839252E+02  0.21205098796E+04  0.21221993619E+04  0.77207950706E+02 0.  0.
        -11    1    3    3    0    0  0.36443811281E+02 -0.13839650092E+02 -0.13213450512E+03  0.13776507082E+03  0.00000000000E+00 0.  1.
         12    1    3    3    0    0 -0.30195675126E+02  0.28872031150E+02 -0.12852128008E+03  0.13514100937E+03  0.00000000000E+00 0. -1.
         13    1    5    5    0    0  0.15500782698E+01  0.38780802131E+02  0.66457012994E+03  0.66570249433E+03  0.00000000000E+00 0. -1.
        -14    1    5    5    0    0 -0.32735875185E+02 -0.23471962879E+02  0.14559397497E+04  0.14564968676E+04  0.00000000000E+00 0.  1.
          5    1    4    4  501    0  0.89878071236E+01  0.25642716814E+02 -0.26523838850E+02  0.38200995142E+02  0.41800000000E+01 0. -1.
         -5    1    4    4    0  501  0.15949853636E+02 -0.55983937124E+02  0.90501825867E+02  0.10768775201E+03  0.41800000000E+01 0. -1.
</event>
<event>
11    1  0.7577197E-009  0.1602493E+03  0.7561462E-02  0.1086843E+00
         22   -1    0    0    0    0  0.00000000000E+00  0.00000000000E+00  0.19455607616E+03  0.19455607616E+03  0.00000000000E+00 0. -1.
         22   -1    0    0    0    0 -0.00000000000E+00 -0.00000000000E+00 -0.23270936070E+03  0.23270936070E+03  0.00000000000E+00 0. -1.
        -24    2    1    2    0    0 -0.57594222480E+01 -0.57321405445E+02 -0.75301208221E+02  0.12425970189E+03  0.80319904673E+02 0.  0.
         25    2    1    2    0    0 -0.83972682888E+02 -0.98657056531E+01 -0.24631865015E+02  0.15298176882E+03  0.12509176311E+03 0.  0.
         24    2    1    2    0    0  0.89732105136E+02  0.67187111098E+02  0.61779788697E+02  0.15002396615E+03  0.78259117914E+02 0.  0.
        -13    1    5    5    0    0 -0.13153258983E+02  0.11410113236E+01  0.12578275791E+02  0.18235217317E+02  0.00000000000E+00 0.  1.
         14    1    5    5    0    0  0.10288536412E+03  0.66046099775E+02  0.49201512906E+02  0.13178874883E+03  0.00000000000E+00 0. -1.
         13    1    3    3    0    0  0.33925074676E+02 -0.17242945134E+02 -0.48958952802E+02  0.62009748493E+02  0.00000000000E+00 0. -1.
        -14    1    3    3    0    0 -0.39684496924E+02 -0.40078460311E+02 -0.26342255419E+02  0.62249953394E+02  0.00000000000E+00 0.  1.
          5    1    4    4  501    0 -0.11020263273E+03  0.11196868441E+02 -0.37055249971E+02  0.11687837300E+03  0.41800000000E+01 0.  1.
         -5    1    4    4    0  501  0.26229949844E+02 -0.21062574094E+02  0.12423384956E+02  0.36103395824E+02  0.41800000000E+01 0.  1.
</event>
<event>
11    1  0.7577197E-009  0.2038530E+03  0.7561462E-02  0.1051832E+00
         22   -1    0    0    0    0  0.00000000000E+00  0.00000000000E+00  0.67035743268E+03  0.67035743268E+03  0.00000000000E+00 0. -1.
         22   -1    0    0    0    0 -0.00000000000E+00 -0.00000000000E+00 -0.46431711048E+03  0.46431711048E+03  0.00000000000E+00 0.  1.
        -24    2    1    2    0    0  0.47512811474E+02 -0.68408638533E+01 -0.37793313032E+03  0.38941954498E+03  0.80683742774E+02 0.  0.
         25    2    1    2    0    0  0.57777118806E+02  0.13500575795E+03  0.81300298918E+02  0.20933562847E+03  0.12508763570E+03 0.  0.
         24    2    1    2    0    0 -0.10528993028E+03 -0.12816489410E+03  0.50267315360E+03  0.53591936971E+03  0.83767905469E+02 0.  0.
        -11    1    5    5    0    0 -0.47644572325E+02 -0.40763547219E+02  0.86861581762E+02  0.10712892439E+03  0.00000000000E+00 0.  1.
         12    1    5    5    0    0 -0.57645357956E+02 -0.87401346877E+02  0.41581157183E+03  0.42879044532E+03  0.00000000000E+00 0. -1.
         13    1    3    3    0    0 -0.11068102973E+02 -0.13243917305E+02 -0.18951869242E+02  0.25633524860E+02  0.00000000000E+00 0. -1.
        -14    1    3    3    0    0  0.58580914447E+02  0.64030534516E+01 -0.35898126108E+03  0.36378602012E+03  0.00000000000E+00 0.  1.
          5    1    4    4  501    0  0.74559778238E+02  0.55964684703E+02 -0.18190231437E+01  0.93338029281E+02  0.41800000000E+01 0.  1.
         -5    1    4    4    0  501 -0.16782659432E+02  0.79041073247E+02  0.83119322062E+02  0.11599759919E+03  0.41800000000E+01 0.  1.
</event>
<event>
11    1  0.7577197E-009  0.1320634E+03  0.7561462E-02  0.1116759E+00
         22   -1    0    0    0    0  0.00000000000E+00  0.00000000000E+00  0.29586125307E+02  0.29586125307E+02  0.00000000000E+00 0. -1.
         22   -1    0    0    0    0 -0.00000000000E+00 -0.00000000000E+00 -0.25050439563E+04  0.25050439563E+04  0.00000000000E+00 0.  1.
        -24    2    1    2    0    0 -0.41504950178E+02  0.11184748436E+02 -0.14336530135E+04  0.14367962943E+04  0.84704596644E+02 0.  0.
         25    2    1    2    0    0  0.44676231814E+02  0.26498843581E+02 -0.97458947074E+03  0.98395688117E+03  0.12509337760E+03 0.  0.
         24    2    1    2    0    0 -0.31712816362E+01 -0.37683592017E+02 -0.67215346813E+02  0.11387690621E+03  0.83785063021E+02 0.  0.
        -13    1    5    5    0    0 -0.74344964221E+01 -0.25525457712E+02 -0.86606759330E+02  0.90595537915E+02  0.00000000000E+00 0.  1.
         14    1    5    5    0    0  0.42632147859E+01 -0.12158134305E+02  0.19391412517E+02  0.23281368291E+02  0.00000000000E+00 0. -1.
         11    1    3    3    0    0  0.22741904253E+02  0.17699351956E+02 -0.33010331451E+03  0.33135880782E+03  0.00000000000E+00 0. -1.
        -12    1    3    3    0    0 -0.64246854432E+02 -0.65146035206E+01 -0.11035496990E+04  0.11054374865E+04  0.00000000000E+00 0.  1.
          5    1    4    4  501    0  0.67951250210E+02 -0.10518760709E+02 -0.29446871028E+03  0.30241909739E+03  0.41800000000E+01 0. -1.
         -5    1    4    4    0  501 -0.23275018396E+02  0.37017604290E+02 -0.68012076046E+03  0.68153778378E+03  0.41800000000E+01 0. -1.
</event>
<event>
11    1  0.7577197E-009  0.1315885E+03  0.7561462E-02  0.1117333E+00
         22   -1    0    0    0    0  0.00000000000E+00  0.00000000000E+00  0.13103703678E+03  0.13103703678E+03  0.00000000000E+00 0.  1.
         22   -1    0    0    0    0 -0.00000000000E+00 -0.00000000000E+00 -0.69523997018E+03  0.69523997018E+03  0.00000000000E+00 0.  1.
         24    2    1    2    0    0 -0.43263834779E+02 -0.20384288717E+02 -0.48086379523E+03  0.48968039951E+03  0.79180966631E+02 0.  0.
         25    2    1    2    0    0  0.13338112473E+01  0.14855562716E+02 -0.16959560962E+03  0.21126243635E+03  0.12508668760E+03 0.  0.
        -24    2    1    2    0    0  0.41930023532E+02  0.55287260010E+01  0.86256471444E+02  0.12533417110E+03  0.80497092467E+02 0.  0.
        -13    1    3    3    0    0 -0.47317946808E+02 -0.23878721189E+02 -0.48139304445E+03  0.48430201802E+03  0.00000000000E+00 0.  1.
         14    1    3    3    0    0  0.40541120291E+01  0.34944324725E+01  0.52924922493E+00  0.53783814844E+01  0.00000000000E+00 0. -1.
         13    1    5    5    0    0  0.34034407628E+02  0.16154654187E+02 -0.39644112882E+00  0.37675866547E+02  0.00000000000E+00 0. -1.
        -14    1    5    5    0    0  0.78956159038E+01 -0.10625928186E+02  0.86652912573E+02  0.87658304557E+02  0.00000000000E+00 0.  1.
          5    1    4    4  501    0 -0.22893499032E+02  0.11991096228E+02  0.11420316200E+02  0.28562120173E+02  0.41800000000E+01 0.  1.
         -5    1    4    4    0  501  0.24227310279E+02  0.28644664879E+01 -0.18101592582E+03  0.18270031618E+03  0.41800000000E+01 0.  1.
</event>
<event>
11    1  0.7577197E-009  0.1639720E+03  0.7561462E-02  0.1083400E+00
         22   -1    0    0    0    0  0.00000000000E+00  0.00000000000E+00  0.17517695273E+03  0.17517695273E+03  0.00000000000E+00 0.  1.
         22   -1    0    0    0    0 -0.00000000000E+00 -0.00000000000E+00 -0.33044954453E+03  0.33044954453E+03  0.00000000000E+00 0.  1.
         24    2    1    2    0    0 -0.62455983772E+02  0.38430360409E+02 -0.10737108488E+03  0.15292695822E+03  0.80501317828E+02 0.  0.
         25    2    1    2    0    0  0.14182342484E+03 -0.81307247810E+02 -0.89626946491E+02  0.22451148365E+03  0.12509062465E+03 0.  0.
        -24    2    1    2    0    0 -0.79367441067E+02  0.42876887401E+02  0.41725439567E+02  0.12818805538E+03  0.80953981134E+02 0.  0.
        -11    1    3    3    0    0 -0.53949440996E+02  0.49924561774E+02 -0.11517845565E+03  0.13663484438E+03  0.00000000000E+00 0.  1.
         12    1    3    3    0    0 -0.85065427752E+01 -0.11494201365E+02  0.78073707729E+01  0.16292113841E+02  0.00000000000E+00 0. -1.
         11    1    5    5    0    0  0.92793337280E+01 -0.94327730570E+01 -0.62416696482E+01  0.14630163430E+02  0.00000000000E+00 0. -1.
        -12    1    5    5    0    0 -0.88646774795E+02  0.52309660458E+02  0.47967109215E+02  0.11355789195E+03  0.00000000000E+00 0.  1.
          5    1    4    4  501    0  0.44355056756E+02 -0.77391239809E+00  0.27292088745E+02  0.52252277541E+02  0.41800000000E+01 0.  1.
         -5    1    4    4    0  501  0.97468368083E+02 -0.80533335412E+02 -0.11691903524E+03  0.17225920611E+03  0.41800000000E+01 0.  1.
</event>
<event>
11    1  0.7577197E-009  0.1629404E+03  0.7561462E-02  0.1084344E+00
         22   -1    0    0    0    0  0.00000000000E+00  0.00000000000E+00  0.22464484811E+04  0.22464484811E+04  0.00000000000E+00 0. -1.
         22   -1    0    0    0    0 -0.00000000000E+00 -0.00000000000E+00 -0.24126657599E+02  0.24126657599E+02  0.00000000000E+00 0.  1.
        -24    2    1    2    0    0 -0.49668199665E+02 -0.87802702072E+02  0.49186524150E+03  0.50857478433E+03  0.80874290832E+02 0.  0.
         25    2    1    2    0    0 -0.56312462431E+02  0.14879169850E+02  0.40488826270E+03  0.42775570867E+03  0.12509179792E+03 0.  0.
         24    2    1    2    0    0  0.10598066210E+03  0.72923532221E+02  0.13255683193E+04  0.13342446457E+04  0.80793954857E+02 0.  0.
        -13    1    5    5    0    0  0.35540772118E+02 -0.24402304147E+01  0.15057935374E+03  0.15473604292E+03  0.00000000000E+00 0.  1.
         14    1    5    5    0    0  0.70439889978E+02  0.75363762636E+02  0.11749889656E+04  0.11795086028E+04  0.00000000000E+00 0. -1.
         11    1    3    3    0    0 -0.61245179400E+02 -0.54339017199E+02  0.22623974715E+03  0.24059950951E+03  0.00000000000E+00 0. -1.
        -12    1    3    3    0    0  0.11576979735E+02 -0.33463684873E+02  0.26562549435E+03  0.26797527482E+03  0.00000000000E+00 0.  1.
          5    1    4    4  501    0 -0.70414239991E+02 -0.37653872808E+02  0.28565905721E+03  0.29663875117E+03  0.41800000000E+01 0.  1.
         -5    1    4    4    0  501  0.14101777559E+02  0.52533042659E+02  0.11922920549E+03  0.13111695750E+03  0.41800000000E+01 0.  1.
</event>
<event>
11    1  0.7577197E-009  0.1992858E+03  0.7561462E-02  0.1055030E+00
         22   -1    0    0    0    0  0.00000000000E+00  0.00000000000E+00  0.63218732279E+02  0.63218732279E+02  0.00000000000E+00 0. -1.
         22   -1    0    0    0    0 -0.00000000000E+00 -0.00000000000E+00 -0.19937088696E+04  0.19937088696E+04  0.00000000000E+00 0.  1.
        -24    2    1    2    0    0  0.12117827603E+03  0.84996809198E+02 -0.11990272466E+04  0.12107013009E+04  0.78883900246E+02 0.  0.
         25    2    1    2    0    0 -0.10279608018E+03 -0.15433738721E+03 -0.69844561608E+03  0.73338985741E+03  0.12508933259E+03 0.  0.
         24    2    1    2    0    0 -0.18382195850E+02  0.69340578008E+02 -0.33017274608E+02  0.11283644356E+03  0.80597156838E+02 0.  0.
        -13    1    5    5    0    0 -0.14605793546E+02  0.25771146425E+02 -0.56059516397E+02  0.63404657336E+02  0.00000000000E+00 0.  1.
         14    1    5    5    0    0 -0.37764023039E+01  0.43569431583E+02  0.23042241789E+02  0.49431786227E+02  0.00000000000E+00 0. -1.
         11    1    3    3    0    0  0.98742543595E+01  0.36262443710E+02 -0.14897551083E+03  0.15364299057E+03  0.00000000000E+00 0. -1.
        -12    1    3    3    0    0  0.11130402167E+03  0.48734365489E+02 -0.10500517358E+04  0.10570583103E+04  0.00000000000E+00 0.  1.
          5    1    4    4  501    0 -0.94754116443E+02 -0.70160690967E+02 -0.24279275785E+03  0.26993825369E+03  0.41800000000E+01 0.  1.
         -5    1    4    4    0  501 -0.80419637333E+01 -0.84176696240E+02 -0.45565285823E+03  0.46345160371E+03  0.41800000000E+01 0.  1.
</event>
<event>
11    1  0.7577197E-009  0.2085661E+03  0.7561462E-02  0.1048626E+00
         22   -1    0    0    0    0  0.00000000000E+00  0.00000000000E+00  0.27215377720E+03  0.27215377720E+03  0.00000000000E+00 0.  1.
         22   -1    0    0    0    0 -0.00000000000E+00 -0.00000000000E+00 -0.77532818336E+03  0.77532818336E+03  0.00000000000E+00 0.  1.
         24    2    1    2    0    0 -0.15066010374E+03 -0.74610428514E+02 -0.39682211968E+03  0.43836590759E+03  0.80197826471E+02 0.  0.
         25    2    1    2    0    0  0.17561464472E+03  0.18796595209E+01 -0.30993655420E+03  0.37756022232E+03  0.12508803816E+03 0.  0.
        -24    2    1    2    0    0 -0.24954540986E+02  0.72730768994E+02  0.20358426772E+03  0.23155583065E+03  0.79114188154E+02 0.  0.
        -13    1    3    3    0    0 -0.12162646885E+03 -0.76146892422E+02 -0.37642938691E+03  0.40285286456E+03  0.00000000000E+00 0.  1.
         14    1    3    3    0    0 -0.29033634885E+02  0.15364639079E+01 -0.20392732773E+02  0.35513043039E+02  0.00000000000E+00 0. -1.
         13    1    5    5    0    0  0.16642854823E+02  0.56617245016E+01  0.98926255165E+02  0.10047608522E+03  0.00000000000E+00 0. -1.
        -14    1    5    5    0    0 -0.41597395809E+02  0.67069044492E+02  0.10465801256E+03  0.13107974542E+03  0.00000000000E+00 0.  1.
          5    1    4    4  501    0  0.78417842105E+02 -0.49961763998E+02 -0.20600064751E+03  0.22605148749E+03  0.41800000000E+01 0. -1.
         -5    1    4    4    0  501  0.97196802618E+02  0.51841423519E+02 -0.10393590669E+03  0.15150873484E+03  0.41800000000E+01 0. -1.
</event>
<event>
11    1  0.7577197E-009  0.1368903E+03  0.7561462E-02  0.1111081E+00
         22   -1    0    0    0    0  0.00000000000E+00  0.00000000000E+00  0.19095075656E+04  0.19095075656E+04  0.00000000000E+00 0.  1.
         22   -1    0    0    0    0 -0.00000000000E+00 -0.00000000000E+00 -0.54005838590E+03  0.54005838590E+03  0.00000000000E+00 0. -1.
        -24    2    1    2    0    0 -0.18311332761E+02 -0.53563712206E+02 -0.47897933112E+03  0.48885421246E+03  0.79704863276E+02 0.  0.
         25    2    1    2    0    0  0.39566150630E+02  0.27243437899E+02  0.26294449495E+02  0.13655264949E+03  0.12509013880E+03 0.  0.
         24    2    1    2    0    0 -0.21254817869E+02  0.26320274307E+02  0.18221340613E+04  0.18241590895E+04  0.78989381837E+02 0.  0.
        -11    1    5    5    0    0 -0.50880257134E+02  0.15751958713E+02  0.12867118773E+04  0.12878137986E+04  0.00000000000E+00 0.  1.
         12    1    5    5    0    0  0.29625439265E+02  0.10568315594E+02  0.53542218400E+03  0.53634529089E+03  0.00000000000E+00 0. -1.
         11    1    3    3    0    0 -0.20156836327E+02 -0.69944315186E+02 -0.44688111205E+03  0.45277061917E+03  0.00000000000E+00 0. -1.
        -12    1    3    3    0    0  0.18455035662E+01  0.16380602980E+02 -0.32098219074E+02  0.36083593296E+02  0.00000000000E+00 0.  1.
          5    1    4    4  501    0  0.27662803326E+02  0.77385430198E+02  0.16722972375E+02  0.83969433128E+02  0.41800000000E+01 0.  1.
         -5    1    4    4    0  501  0.11903347304E+02 -0.50141992299E+02  0.95714771202E+01  0.52583216362E+02  0.41800000000E+01 0.  1.
</event>
<event>
11    1  0.7577197E-009  0.1294829E+03  0.7561462E-02  0.1119906E+00
         22   -1    0    0    0    0  0.00000000000E+00  0.00000000000E+00  0.52607368822E+03  0.52607368822E+03  0.00000000000E+00 0.  1.
         22   -1    0    0    0    0 -0.00000000000E+00 -0.00000000000E+00 -0.51720687135E+03  0.51720687135E+03  0.00000000000E+00 0.  1.
         24    2    1    2    0    0 -0.30725564041E+01  0.17834207089E+02 -0.48436030764E+03  0.49138946241E+03  0.80815819020E+02 0.  0.
         25    2    1    2    0    0  0.27255004195E+02  0.79835850402E+01  0.14870115981E+03  0.19638270760E+03  0.12509020758E+03 0.  0.
        -24    2    1    2    0    0 -0.24182447791E+02 -0.25817792129E+02  0.34452596471E+03  0.35550838956E+03  0.80229206124E+02 0.  0.
        -13    1    3    3    0    0 -0.40094937130E+00  0.31129025391E+01 -0.47192271618E+03  0.47193315307E+03  0.00000000000E+00 0.  1.
         14    1    3    3    0    0 -0.26716070328E+01  0.14721304550E+02 -0.12437591470E+02  0.19456309346E+02  0.00000000000E+00 0. -1.
         13    1    5    5    0    0 -0.28021770623E+02  0.23321005300E+02  0.11085863480E+03  0.11669929660E+03  0.00000000000E+00 0. -1.
        -14    1    5    5    0    0  0.38393228322E+01 -0.49138797429E+02  0.23366732990E+03  0.23880909295E+03  0.00000000000E+00 0.  1.
          5    1    4    4  501    0  0.21739834304E+01 -0.40887094859E+02  0.13281834184E+03  0.13904914620E+03  0.41800000000E+01 0.  1.
         -5    1    4    4    0  501  0.25081020764E+02  0.48870679899E+02  0.15882817972E+02  0.57333561402E+02  0.41800000000E+01 0.  1.
</event>
<event>
11    1  0.7577197E-009  0.1255395E+03  0.7561462E-02  0.1124874E+00
         22   -1    0    0    0    0  0.00000000000E+00  0.00000000000E+00  0.89768533391E+03  0.89768533391E+03  0.00000000000E+00 0. -1.
         22   -1    0    0    0    0 -0.00000000000E+00 -0.00000000000E+00 -0.20603196491E+03  0.20603196491E+03  0.00000000000E+00 0. -1.
         24    2    1    2    0    0  0.13431067648E+02 -0.50029710643E+01 -0.14961127451E+03  0.17041323884E+03  0.80322569757E+02 0.  0.
         25    2    1    2    0    0 -0.84421209838E+01 -0.49054479371E+01  0.45755010636E+02  0.13355244971E+03  0.12508957990E+03 0.  0.
        -24    2    1    2    0    0 -0.49889466640E+01  0.99084190014E+01  0.79550963288E+03  0.79975161026E+03  0.81510709496E+02 0.  0.
        -11    1    3    3    0    0  0.66257879677E+01  0.29046701373E+02 -0.19165140288E+02  0.35424772817E+02  0.00000000000E+00 0.  1.
         12    1    3    3    0    0  0.68052796801E+01 -0.34049672437E+02 -0.13044613423E+03  0.13498846602E+03  0.00000000000E+00 0. -1.
         13    1    5    5    0    0 -0.52276834350E+01  0.45758076668E+02  0.48375907348E+03  0.48594646972E+03  0.00000000000E+00 0. -1.
        -14    1    5    5    0    0  0.23873677101E+00 -0.35849657666E+02  0.31175055940E+03  0.31380514055E+03  0.00000000000E+00 0.  1.
          5    1    4    4  501    0  0.40876452693E+02  0.56234437059E+01 -0.23586158416E+02  0.47710447207E+02  0.41800000000E+01 0. -1.
         -5    1    4    4    0  501 -0.49318573677E+02 -0.10528891643E+02  0.69341169051E+02  0.85842002505E+02  0.41800000000E+01 0. -1.
</event>
<event>
11    1  0.7577197E-009  0.1797264E+03  0.7561462E-02  0.1069864E+00
         22   -1    0    0    0    0  0.00000000000E+00  0.00000000000E+00  0.12563520099E+04  0.12563520099E+04  0.00000000000E+00 0. -1.
         22   -1    0    0    0    0 -0.00000000000E+00 -0.00000000000E+00 -0.15771605104E+03  0.15771605104E+03  0.00000000000E+00 0.  1.
        -24    2    1    2    0    0 -0.30075727013E+02 -0.12350172267E+03 -0.95859927616E+02  0.17914615566E+03  0.82140090732E+02 0.  0.
         25    2    1    2    0    0  0.35943124671E+02  0.15179370866E+03  0.56160074885E+03  0.59613468536E+03  0.12509166153E+03 0.  0.
         24    2    1    2    0    0 -0.58673976579E+01 -0.28291985983E+02  0.63289513759E+03  0.63878721989E+03  0.81596533550E+02 0.  0.
        -13    1    5    5    0    0  0.58174274063E+01 -0.24848249491E+02  0.53613192849E+02  0.59377204480E+02  0.00000000000E+00 0.  1.
         14    1    5    5    0    0 -0.11684825064E+02 -0.34437364914E+01  0.57928194474E+03  0.57941001541E+03  0.00000000000E+00 0. -1.
         11    1    3    3    0    0  0.21579559262E+02 -0.77125405692E+01 -0.58358018391E+01  0.23647774590E+02  0.00000000000E+00 0. -1.
        -12    1    3    3    0    0 -0.51655286275E+02 -0.11578918210E+03 -0.90024125776E+02  0.15549838107E+03  0.00000000000E+00 0.  1.
          5    1    4    4  501    0  0.54039653379E+02  0.15106030799E+03  0.55269327790E+03  0.57552309477E+03  0.41800000000E+01 0. -1.
         -5    1    4    4    0  501 -0.18096528708E+02  0.73340066792E+00  0.89074709544E+01  0.20611590589E+02  0.41800000000E+01 0. -1.
</event>
<event>
11    1  0.7577197E-009  0.1684628E+03  0.7561462E-02  0.1079377E+00
         22   -1    0    0    0    0  0.00000000000E+00  0.00000000000E+00  0.12578867180E+03  0.12578867180E+03  0.00000000000E+00 0.  1.
         22   -1    0    0    0    0 -0.00000000000E+00 -0.00000000000E+00 -0.17634084915E+04  0.17634084915E+04  0.00000000000E+00 0. -1.
        -24    2    1    2    0    0 -0.63741130243E+02 -0.98694606136E+02 -0.14655221185E+04  0.14723698807E+04  0.79463380616E+02 0.  0.
         25    2    1    2    0    0 -0.23400024685E+02  0.10400560610E+03 -0.23495097217E+03  0.28672979892E+03  0.12508913227E+03 0.  0.
         24    2    1    2    0    0  0.87141154927E+02 -0.53109999634E+01  0.62853270931E+02  0.13009748370E+03  0.73164431218E+02 0.  0.
        -11    1    5    5    0    0  0.28696766361E+02 -0.18527195966E+02  0.61279765319E+02  0.70156760384E+02  0.00000000000E+00 0.  1.
         12    1    5    5    0    0  0.58444388566E+02  0.13216196002E+02  0.15735056114E+01  0.59940723315E+02  0.00000000000E+00 0. -1.
         11    1    3    3    0    0 -0.61757059061E+01 -0.19919856512E+02 -0.74269530514E+03  0.74298805933E+03  0.00000000000E+00 0. -1.
        -12    1    3    3    0    0 -0.57565424336E+02 -0.78774749624E+02 -0.72282681331E+03  0.72938182134E+03  0.00000000000E+00 0.  1.
          5    1    4    4  501    0 -0.13384299504E+02  0.12403013137E+03 -0.13353893679E+03  0.18279150145E+03  0.41800000000E+01 0.  1.
         -5    1    4    4    0  501 -0.10015725181E+02 -0.20024525272E+02 -0.10141203538E+03  0.10393829748E+03  0.41800000000E+01 0.  1.
</event>
<event>
11    1  0.7577197E-009  0.1653485E+03  0.7561462E-02  0.1082152E+00
         22   -1    0    0    0    0  0.00000000000E+00  0.00000000000E+00  0.27509511927E+03  0.27509511927E+03  0.00000000000E+00 0. -1.
         22   -1    0    0    0    0 -0.00000000000E+00 -0.00000000000E+00 -0.73487884609E+03  0.73487884609E+03  0.00000000000E+00 0. -1.
         24    2    1    2    0    0  0.97644190164E+01  0.12661034706E+03 -0.54766935694E+03  0.56790214212E+03  0.80284460740E+02 0.  0.
         25    2    1    2    0    0 -0.70952093221E+02 -0.33529016205E+02 -0.12303364648E+03  0.19219493554E+03  0.12507286125E+03 0.  0.
        -24    2    1    2    0    0  0.61187674205E+02 -0.93081330856E+02  0.21091927660E+03  0.24987688770E+03  0.74454362766E+02 0.  0.
        -13    1    3    3    0    0  0.20802231966E+02  0.48305255263E+02 -0.96939827637E+02  0.11028808060E+03  0.00000000000E+00 0.  1.
         14    1    3    3    0    0 -0.11037812949E+02  0.78305091799E+02 -0.45072952930E+03  0.45761406152E+03  0.00000000000E+00 0. -1.
         11    1    5    5    0    0  0.22482555776E+02 -0.66373229936E+02  0.18112060848E+03  0.19420490669E+03  0.00000000000E+00 0. -1.
        -12    1    5    5    0    0  0.38705118429E+02 -0.26708100920E+02  0.29798668118E+02  0.55671981005E+02  0.00000000000E+00 0.  1.
          5    1    4    4  501    0  0.30708891123E+02 -0.30266045382E+02 -0.21288697805E+02  0.48267489590E+02  0.41800000000E+01 0. -1.
         -5    1    4    4    0  501 -0.10166098434E+03 -0.32629708235E+01 -0.10174494867E+03  0.14392744595E+03  0.41800000000E+01 0. -1.
</event>
<event>
11    1  0.7577197E-009  0.2752695E+03  0.7561462E-02  0.1011237E+00
         22   -1    0    0    0    0  0.00000000000E+00  0.00000000000E+00  0.18522786648E+04  0.18522786648E+04  0.00000000000E+00 0.  1.
         22   -1    0    0    0    0 -0.00000000000E+00 -0.00000000000E+00 -0.88835883805E+03  0.88835883805E+03  0.00000000000E+00 0.  1.
         24    2    1    2    0    0 -0.58417578996E+02  0.24025279519E+03 -0.85131154757E+03  0.89018722972E+03  0.81042789999E+02 0.  0.
         25    2    1    2    0    0  0.36822127479E+02 -0.16219194844E+03  0.73498562953E+03  0.76388028345E+03  0.12508842718E+03 0.  0.
        -24    2    1    2    0    0  0.21595451517E+02 -0.78060846756E+02  0.10802457448E+04  0.10865699897E+04  0.84519902984E+02 0.  0.
        -11    1    3    3    0    0 -0.72382492853E+02  0.12801584012E+03 -0.47434594784E+03  0.49661993398E+03  0.00000000000E+00 0.  1.
         12    1    3    3    0    0  0.13964913857E+02  0.11223695508E+03 -0.37696559973E+03  0.39356729575E+03  0.00000000000E+00 0. -1.
         11    1    5    5    0    0  0.29357889022E+00 -0.91555893763E+02  0.81404137271E+03  0.81917392802E+03  0.00000000000E+00 0. -1.
        -12    1    5    5    0    0  0.21301872627E+02  0.13495047007E+02  0.26620437212E+03  0.26739606169E+03  0.00000000000E+00 0.  1.
          5    1    4    4  501    0 -0.15652189498E+02  0.64387588435E+01  0.16527139578E+02  0.24022227085E+02  0.41800000000E+01 0. -1.
         -5    1    4    4    0  501  0.52474316977E+02 -0.16863070728E+03  0.71845848995E+03  0.73985805636E+03  0.41800000000E+01 0. -1.
</event>
<event>
11    1  0.7577197E-009  0.2302798E+03  0.7561462E-02  0.1034962E+00
         22   -1    0    0    0    0  0.00000000000E+00  0.00000000000E+00  0.10848320908E+04  0.10848320908E+04  0.00000000000E+00 0.  1.
         22   -1    0    0    0    0 -0.00000000000E+00 -0.00000000000E+00 -0.12411007239E+04  0.12411007239E+04  0.00000000000E+00 0. -1.
         24    2    1    2    0    0 -0.13534243059E+03  0.78587911713E+02 -0.75646819997E+03  0.77653264839E+03  0.79152909427E+02 0.  0.
         25    2    1    2    0    0 -0.46943195122E+02 -0.14930445923E+03 -0.44229311388E+03  0.48555743610E+03  0.12508932831E+03 0.  0.
        -24    2    1    2    0    0  0.18228562571E+03  0.70716547520E+02  0.10424926807E+04  0.10638427302E+04  0.82106551623E+02 0.  0.
        -11    1    3    3    0    0 -0.40352910816E+02  0.15133677632E+02 -0.83791725176E+02  0.94225467990E+02  0.00000000000E+00 0.  1.
         12    1    3    3    0    0 -0.94989519775E+02  0.63454234081E+02 -0.67267647479E+03  0.68230718040E+03  0.00000000000E+00 0. -1.
         11    1    5    5    0    0  0.73713654171E+02 -0.12160611206E+01  0.24729963334E+03  0.25805482027E+03  0.00000000000E+00 0. -1.
        -12    1    5    5    0    0  0.10857197154E+03  0.71932608641E+02  0.79519304741E+03  0.80578790996E+03  0.00000000000E+00 0.  1.
          5    1    4    4  501    0 -0.61405652432E+02 -0.13380798844E+03 -0.23635738240E+03  0.27849150173E+03  0.41800000000E+01 0.  1.
         -5    1    4    4    0  501  0.14462457309E+02 -0.15496470793E+02 -0.20593573148E+03  0.20706593438E+03  0.41800000000E+01 0.  1.
</event>
<event>
11    1  0.7577197E-009  0.1877302E+03  0.7561462E-02  0.1063556E+00
         22   -1    0    0    0    0  0.00000000000E+00  0.00000000000E+00  0.12919908078E+04  0.12919908078E+04  0.00000000000E+00 0.  1.
         22   -1    0    0    0    0 -0.00000000000E+00 -0.00000000000E+00 -0.85659651663E+03  0.85659651663E+03  0.00000000000E+00 0.  1.
        -24    2    1    2    0    0  0.10508585319E+03 -0.80353964513E+02 -0.79995254483E+03  0.81609598782E+03  0.92675731429E+02 0.  0.
         25    2    1    2    0    0  0.22763326060E+02  0.15128602737E+03  0.19062040633E+03  0.27456613703E+03  0.12507914775E+03 0.  0.
         24    2    1    2    0    0 -0.12784917925E+03 -0.70932062852E+02  0.10447264297E+04  0.10579251996E+04  0.79847635502E+02 0.  0.
        -13    1    5    5    0    0 -0.13864331476E+03 -0.61368534743E+02  0.97552124883E+03  0.98723339323E+03  0.00000000000E+00 0.  1.
         14    1    5    5    0    0  0.10794135511E+02 -0.95635281097E+01  0.69205180866E+02  0.70691806385E+02  0.00000000000E+00 0. -1.
         11    1    3    3    0    0  0.78806442989E+02 -0.55385149408E+02 -0.30570073474E+03  0.32051662898E+03  0.00000000000E+00 0. -1.
        -12    1    3    3    0    0  0.26279410203E+02 -0.24968815105E+02 -0.49425181009E+03  0.49557935883E+03  0.00000000000E+00 0.  1.
          5    1    4    4  501    0  0.40337492307E+02  0.38342493516E+02  0.43468071484E+01  0.55978810518E+02  0.41800000000E+01 0.  1.
         -5    1    4    4    0  501 -0.17574166247E+02  0.11294353385E+03  0.18627359918E+03  0.21858732651E+03  0.41800000000E+01 0.  1.
</event>
<event>
11    1  0.7577197E-009  0.1427039E+03  0.7561462E-02  0.1104576E+00
         22   -1    0    0    0    0  0.00000000000E+00  0.00000000000E+00  0.75966319361E+03  0.75966319361E+03  0.00000000000E+00 0. -1.
         22   -1    0    0    0    0 -0.00000000000E+00 -0.00000000000E+00 -0.27872698396E+03  0.27872698396E+03  0.00000000000E+00 0. -1.
         24    2    1    2    0    0 -0.35082703193E+02  0.51279271371E+02 -0.15101439022E+03  0.18128656602E+03  0.78734447558E+02 0.  0.
         25    2    1    2    0    0  0.48909591086E+02 -0.78740059234E+02 -0.54739568467E+02  0.16502500056E+03  0.12507871691E+03 0.  0.
        -24    2    1    2    0    0 -0.13826887893E+02  0.27460787863E+02  0.68669016834E+03  0.69207861099E+03  0.80524150437E+02 0.  0.
        -11    1    3    3    0    0 -0.43361342868E+01  0.20195880240E+02  0.32821622836E+01  0.20915263051E+02  0.00000000000E+00 0.  1.
         12    1    3    3    0    0 -0.30746568907E+02  0.31083391130E+02 -0.15429655250E+03  0.16037130297E+03  0.00000000000E+00 0. -1.
         11    1    5    5    0    0 -0.30398447930E+01 -0.13509833255E+02  0.51679803872E+03  0.51698352882E+03  0.00000000000E+00 0. -1.
        -12    1    5    5    0    0 -0.10787043100E+02  0.40970621118E+02  0.16989212962E+03  0.17509508217E+03  0.00000000000E+00 0.  1.
          5    1    4    4  501    0 -0.19385227619E+02 -0.83885620534E+02 -0.39089999826E+02  0.94647159855E+02  0.41800000000E+01 0. -1.
         -5    1    4    4    0  501  0.68294818705E+02  0.51455612999E+01 -0.15649568641E+02  0.70377840701E+02  0.41800000000E+01 0. -1.
</event>
<event>
11    1  0.7577197E-009  0.1470153E+03  0.7561462E-02  0.1099968E+00
         22   -1    0    0    0    0  0.00000000000E+00  0.00000000000E+00  0.13641027917E+03  0.13641027917E+03  0.00000000000E+00 0.  1.
         22   -1    0    0    0    0 -0.00000000000E+00 -0.00000000000E+00 -0.10341308250E+04  0.10341308250E+04  0.00000000000E+00 0.  1.
        -24    2    1    2    0    0 -0.45989663793E+02 -0.45043075120E+02 -0.74443240269E+03  0.75159065330E+03  0.81024565114E+02 0.  0.
         25    2    1    2    0    0 -0.34062232865E+02  0.57087676092E+02 -0.23804209289E+03  0.27700091416E+03  0.12508489113E+03 0.  0.
         24    2    1    2    0    0  0.80051896658E+02 -0.12044600972E+02  0.84753949795E+02  0.14194953667E+03  0.80081585794E+02 0.  0.
        -13    1    5    5    0    0  0.49848189368E+02  0.31108999650E+02  0.30006428869E+02  0.65977250746E+02  0.00000000000E+00 0.  1.
         14    1    5    5    0    0  0.30203707290E+02 -0.43153600622E+02  0.54747520926E+02  0.75972285922E+02  0.00000000000E+00 0. -1.
         13    1    3    3    0    0 -0.38212591988E+02 -0.60434318635E+02 -0.37498960749E+03  0.38174561527E+03  0.00000000000E+00 0. -1.
        -14    1    3    3    0    0 -0.77770718049E+01  0.15391243515E+02 -0.36944279520E+03  0.36984503802E+03  0.00000000000E+00 0.  1.
          5    1    4    4  501    0 -0.56819709741E+02 -0.24244175654E+01 -0.18625185611E+03  0.19478599416E+03  0.41800000000E+01 0. -1.
         -5    1    4    4    0  501  0.22757476876E+02  0.59512093657E+02 -0.51790236775E+02  0.82214919999E+02  0.41800000000E+01 0. -1.
</event>
<event>
11    1  0.7577197E-009  0.1312574E+03  0.7561462E-02  0.1117734E+00
         22   -1    0    0    0    0  0.00000000000E+00  0.00000000000E+00  0.11383651768E+04  0.11383651768E+04  0.00000000000E+00 0. -1.
         22   -1    0    0    0    0 -0.00000000000E+00 -0.00000000000E+00 -0.69915096238E+03  0.69915096238E+03  0.00000000000E+00 0.  1.
         24    2    1    2    0    0  0.11257503938E+02  0.37145937588E+02 -0.65734499744E+03  0.66350324734E+03  0.81409836601E+02 0.  0.
         25    2    1    2    0    0 -0.26938193327E+02  0.11051979945E+01  0.74968538316E+02  0.14830593022E+03  0.12508988560E+03 0.  0.
        -24    2    1    2    0    0  0.15680689389E+02 -0.38251135583E+02  0.10215906736E+04  0.10257069616E+04  0.81964830464E+02 0.  0.
        -11    1    3    3    0    0 -0.13365859949E+02 -0.16485441932E+02 -0.34370259612E+03  0.34435721364E+03  0.00000000000E+00 0.  1.
         12    1    3    3    0    0  0.24623363887E+02  0.53631379521E+02 -0.31364240132E+03  0.31914603370E+03  0.00000000000E+00 0. -1.
         13    1    5    5    0    0 -0.31815525461E+02 -0.27331779477E+02  0.39376671865E+03  0.39599429610E+03  0.00000000000E+00 0. -1.
        -14    1    5    5    0    0  0.47496214850E+02 -0.10919356106E+02  0.62782395492E+03  0.62971266553E+03  0.00000000000E+00 0.  1.
          5    1    4    4  501    0  0.65582270659E+01 -0.55333420625E+02  0.57682032313E+02  0.80308698359E+02  0.41800000000E+01 0.  1.
         -5    1    4    4    0  501 -0.33496420393E+02  0.56438618620E+02  0.17286506002E+02  0.67997231860E+02  0.41800000000E+01 0.  1.
</event>
<event>
11    1  0.7577197E-009  0.1326709E+03  0.7561462E-02  0.1116030E+00
         22   -1    0    0    0    0  0.00000000000E+00  0.00000000000E+00  0.75709837046E+03  0.75709837046E+03  0.00000000000E+00 0.  1.
         22   -1    0    0    0    0 -0.00000000000E+00 -0.00000000000E+00 -0.70456000849E+03  0.70456000849E+03  0.00000000000E+00 0. -1.
        -24    2    1    2    0    0  0.45423242608E+01 -0.43841883844E+02 -0.68244600186E+03  0.68870774743E+03  0.81505045383E+02 0.  0.
         25    2    1    2    0    0  0.67392632612E+01  0.55842477691E+02  0.28273234023E+03  0.31424562769E+03  0.12509571664E+03 0.  0.
         24    2    1    2    0    0 -0.11281587522E+02 -0.12000593848E+02  0.45225202360E+03  0.45870500384E+03  0.74880566440E+02 0.  0.
        -11    1    5    5    0    0 -0.36036681845E+02 -0.25668929823E+02  0.34345832470E+03  0.34629634304E+03  0.00000000000E+00 0.  1.
         12    1    5    5    0    0  0.24755094323E+02  0.13668335975E+02  0.10879369890E+03  0.11240866080E+03  0.00000000000E+00 0. -1.
         13    1    3    3    0    0 -0.10187896029E+02 -0.56384450764E+02 -0.28028179081E+03  0.28607845388E+03  0.00000000000E+00 0. -1.
        -14    1    3    3    0    0  0.14730220290E+02  0.12542566920E+02 -0.40216421105E+03  0.40262929355E+03  0.00000000000E+00 0.  1.
          5    1    4    4  501    0  0.16962471127E+02  0.93015671448E+02  0.23064730604E+03  0.24930963227E+03  0.41800000000E+01 0. -1.
         -5    1    4    4    0  501 -0.10223207866E+02 -0.37173193757E+02  0.52085034194E+02  0.64935995412E+02  0.41800000000E+01 0. -1.
</event>
<event>
11    1  0.7577197E-009  0.1437521E+03  0.7561462E-02  0.1103439E+00
         22   -1    0    0    0    0  0.00000000000E+00  0.00000000000E+00  0.59264465743E+03  0.59264465743E+03  0.00000000000E+00 0.  1.
         22   -1    0    0    0    0 -0.00000000000E+00 -0.00000000000E+00 -0.41452505371E+03  0.41452505371E+03  0.00000000000E+00 0.  1.
         24    2    1    2    0    0  0.59642221673E+02  0.96736153464E+01 -0.35221791883E+03  0.36628157512E+03  0.80336520251E+02 0.  0.
         25    2    1    2    0    0 -0.39227828706E+02 -0.78090990321E+02  0.70013551317E+02  0.16788497639E+03  0.12508574105E+03 0.  0.
        -24    2    1    2    0    0 -0.20414392968E+02  0.68417374975E+02  0.46032397124E+03  0.47300315963E+03  0.82074026871E+02 0.  0.
        -13    1    3    3    0    0 -0.86441100248E+01  0.27477682647E+02 -0.78673907261E+02  0.83781426136E+02  0.00000000000E+00 0.  1.
         14    1    3    3    0    0  0.68286331698E+02 -0.17804067301E+02 -0.27354401157E+03  0.28250014898E+03  0.00000000000E+00 0. -1.
         13    1    5    5    0    0  0.23084343876E+01  0.57069964645E+02  0.13364791905E+03  0.14534123985E+03  0.00000000000E+00 0. -1.
        -14    1    5    5    0    0 -0.22722827355E+02  0.11347410330E+02  0.32667605218E+03  0.32766191978E+03  0.00000000000E+00 0.  1.
          5    1    4    4  501    0 -0.22124500553E+02  0.27811996182E+02 -0.60792201140E+01  0.36296418192E+02  0.41800000000E+01 0.  1.
         -5    1    4    4    0  501 -0.17103328153E+02 -0.10590298650E+03  0.76092771431E+02  0.13158855820E+03  0.41800000000E+01 0.  1.
</event>
<event>
11    1  0.7577197E-009  0.1468589E+03  0.7561462E-02  0.1100132E+00
         22   -1    0    0    0    0  0.00000000000E+00  0.00000000000E+00  0.44999271610E+03  0.44999271610E+03  0.00000000000E+00 0. -1.
         22   -1    0    0    0    0 -0.00000000000E+00 -0.00000000000E+00 -0.57303111714E+03  0.57303111714E+03  0.00000000000E+00 0. -1.
         24    2    1    2    0    0 -0.25429418163E+02  0.66430433724E+02 -0.42040619522E+03  0.43394707292E+03  0.80678592454E+02 0.  0.
         25    2    1    2    0    0  0.52427093211E+02 -0.11394143832E+03 -0.83311309846E+02  0.19575333604E+03  0.12508933909E+03 0.  0.
        -24    2    1    2    0    0 -0.26997675048E+02  0.47511004599E+02  0.38067910403E+03  0.39332342428E+03  0.82465543267E+02 0.  0.
        -11    1    3    3    0    0 -0.23461771452E+02  0.13475256262E+02 -0.31312581617E+03  0.31429256116E+03  0.00000000000E+00 0.  1.
         12    1    3    3    0    0 -0.19676467112E+01  0.52955177462E+02 -0.10728037905E+03  0.11965451176E+03  0.00000000000E+00 0. -1.
         11    1    5    5    0    0 -0.43481683348E+02  0.53424338572E+02  0.35853162653E+03  0.36508867959E+03  0.00000000000E+00 0. -1.
        -12    1    5    5    0    0  0.16484008300E+02 -0.59133339727E+01  0.22147477493E+02  0.28234744688E+02  0.00000000000E+00 0.  1.
          5    1    4    4  501    0  0.41950830591E+02 -0.12095617196E+03 -0.18293250730E+02  0.12939236123E+03  0.41800000000E+01 0. -1.
         -5    1    4    4    0  501  0.10476262620E+02  0.70147336399E+01 -0.65018059117E+02  0.66360974811E+02  0.41800000000E+01 0. -1.
</event>
<event>
11    1  0.7577197E-009  0.1368935E+03  0.7561462E-02  0.1111078E+00
         22   -1    0    0    0    0  0.00000000000E+00  0.00000000000E+00  0.23686101609E+04  0.23686101609E+04  0.00000000000E+00 0. -1.
         22   -1    0    0    0    0 -0.00000000000E+00 -0.00000000000E+00 -0.25855888781E+02  0.25855888781E+02  0.00000000000E+00 0.  1.
         24    2    1    2    0    0 -0.38099063566E+02 -0.80537782169E+01  0.10383523157E+03  0.13972011929E+03  0.84991496234E+02 0.  0.
         25    2    1    2    0    0  0.18159507181E+02  0.60681254109E+02  0.77749710385E+03  0.79003822911E+03  0.12508666858E+03 0.  0.
        -24    2    1    2    0    0  0.19939556385E+02 -0.52627475892E+02  0.14614219367E+04  0.14647077013E+04  0.80295304903E+02 0.  0.
        -13    1    3    3    0    0 -0.12476996035E+02 -0.36985420864E+02  0.13225495290E+02  0.41212989606E+02  0.00000000000E+00 0.  1.
         14    1    3    3    0    0 -0.25622067531E+02  0.28931642647E+02  0.90609736277E+02  0.98507129686E+02  0.00000000000E+00 0. -1.
         11    1    5    5    0    0  0.24369551500E+02 -0.19640873875E+02  0.12719301475E+04  0.12723151885E+04  0.00000000000E+00 0. -1.
        -12    1    5    5    0    0 -0.44299951149E+01 -0.32986602018E+02  0.18949178926E+03  0.19239251276E+03  0.00000000000E+00 0.  1.
          5    1    4    4  501    0  0.61277898264E+02  0.28874069101E+01  0.24187605137E+03  0.24956925805E+03  0.41800000000E+01 0.  1.
         -5    1    4    4    0  501 -0.43118391084E+02  0.57793847199E+02  0.53562105248E+03  0.54046897107E+03  0.41800000000E+01 0.  1.
</event>
<event>
11    1  0.7577197E-009  0.1706170E+03  0.7561462E-02  0.1077496E+00
         22   -1    0    0    0    0  0.00000000000E+00  0.00000000000E+00  0.21702830352E+04  0.21702830352E+04  0.00000000000E+00 0. -1.
         22   -1    0    0    0    0 -0.00000000000E+00 -0.00000000000E+00 -0.12456893761E+04  0.12456893761E+04  0.00000000000E+00 0. -1.
         24    2    1    2    0    0  0.86038295283E+02 -0.77834799418E+02 -0.12325278943E+04  0.12405971822E+04  0.80594752805E+02 0.  0.
         25    2    1    2    0    0 -0.10261732559E+03  0.61700334374E+02  0.96573419988E+03  0.98113592531E+03  0.12509161577E+03 0.  0.
        -24    2    1    2    0    0  0.16579030309E+02  0.16134465043E+02  0.11913873534E+04  0.11942393038E+04  0.79173881831E+02 0.  0.
        -13    1    3    3    0    0  0.14151471750E+02 -0.20441071816E+02 -0.68077192412E+03  0.68122574396E+03  0.00000000000E+00 0.  1.
         14    1    3    3    0    0  0.71886823533E+02 -0.57393727601E+02 -0.55175597015E+03  0.55937143828E+03  0.00000000000E+00 0. -1.
         13    1    5    5    0    0 -0.10191962800E+01  0.48949797156E+01  0.11160632894E+04  0.11160744892E+04  0.00000000000E+00 0. -1.
        -14    1    5    5    0    0  0.17598226589E+02  0.11239485328E+02  0.75324064032E+02  0.78164814539E+02  0.00000000000E+00 0.  1.
          5    1    4    4  501    0 -0.98413563873E+02  0.92958404993E+02  0.86375079298E+03  0.87430509514E+03  0.41800000000E+01 0.  1.
         -5    1    4    4    0  501 -0.42037617189E+01 -0.31258070619E+02  0.10198340690E+03  0.10683083017E+03  0.41800000000E+01 0.  1.
</event>
<event>
11    1  0.7577197E-009  0.1382143E+03  0.7561462E-02  0.1109569E+00
         22   -1    0    0    0    0  0.00000000000E+00  0.00000000000E+00  0.30532591019E+03  0.30532591019E+03  0.00000000000E+00 0.  1.
         22   -1    0    0    0    0 -0.00000000000E+00 -0.00000000000E+00 -0.23934470339E+03  0.23934470339E+03  0.00000000000E+00 0. -1.
         24    2    1    2    0    0  0.21132721168E+02 -0.55249250495E+02 -0.16360601550E+03  0.19173776946E+03  0.80606279823E+02 0.  0.
         25    2    1    2    0    0 -0.22229793336E+02  0.51974699798E+02  0.34071590119E+02  0.14143509626E+03  0.12508988796E+03 0.  0.
        -24    2    1    2    0    0  0.10970721687E+01  0.32745506969E+01  0.19551563219E+03  0.21149774786E+03  0.80579207419E+02 0.  0.
        -13    1    3    3    0    0  0.37470854405E+02  0.46686489147E+01 -0.57426668098E+02  0.68729058056E+02  0.00000000000E+00 0.  1.
         14    1    3    3    0    0 -0.16338133237E+02 -0.59917899410E+02 -0.10617934740E+03  0.12300871141E+03  0.00000000000E+00 0. -1.
         11    1    5    5    0    0 -0.12087569204E+02  0.34215537334E+02  0.47868312234E+02  0.60068191587E+02  0.00000000000E+00 0. -1.
        -12    1    5    5    0    0  0.13184641373E+02 -0.30940986637E+02  0.14764731995E+03  0.15142955627E+03  0.00000000000E+00 0.  1.
          5    1    4    4  501    0 -0.28524800754E+02 -0.30268647604E+02  0.41004231564E+02  0.58554886150E+02  0.41800000000E+01 0.  1.
         -5    1    4    4    0  501  0.62950074175E+01  0.82243347403E+02 -0.69326414452E+01  0.82880210110E+02  0.41800000000E+01 0.  1.
</event>
<event>
11    1  0.7577197E-009  0.1329562E+03  0.7561462E-02  0.1115689E+00
         22   -1    0    0    0    0  0.00000000000E+00  0.00000000000E+00  0.94090095863E+03  0.94090095863E+03  0.00000000000E+00 0.  1.
         22   -1    0    0    0    0 -0.00000000000E+00 -0.00000000000E+00 -0.14834216715E+03  0.14834216715E+03  0.00000000000E+00 0.  1.
        -24    2    1    2    0    0 -0.45456456152E+01 -0.11609607076E+02 -0.78332563518E+02  0.11243958614E+03  0.79694567909E+02 0.  0.
         25    2    1    2    0    0 -0.21707848178E+02 -0.25722677636E+02  0.32887386986E+02  0.13364980199E+03  0.12509117688E+03 0.  0.
         24    2    1    2    0    0  0.26253493793E+02  0.37332284712E+02  0.83800396801E+03  0.84315373764E+03  0.81084088992E+02 0.  0.
        -11    1    5    5    0    0  0.25063092675E+02  0.34524833381E+02  0.83889319517E+03  0.83997733043E+03  0.00000000000E+00 0.  1.
         12    1    5    5    0    0  0.11904011177E+01  0.28074513306E+01 -0.88922716766E+00  0.31764072079E+01  0.00000000000E+00 0. -1.
         13    1    3    3    0    0  0.87346174848E+01 -0.36294315148E+02 -0.10098319389E+02  0.38672301575E+02  0.00000000000E+00 0. -1.
        -14    1    3    3    0    0 -0.13280263100E+02  0.24684708072E+02 -0.68234244129E+02  0.73767284568E+02  0.00000000000E+00 0.  1.
          5    1    4    4  501    0  0.19448829518E+02 -0.64370493273E+02  0.37040613651E+02  0.76884958434E+02  0.41800000000E+01 0. -1.
         -5    1    4    4    0  501 -0.41156677695E+02  0.38647815637E+02 -0.41532266646E+01  0.56764843558E+02  0.41800000000E+01 0. -1.
</event>
<event>
11    1  0.7577197E-009  0.1527674E+03  0.7561462E-02  0.1094084E+00
         22   -1    0    0    0    0  0.00000000000E+00  0.00000000000E+00  0.22793399388E+03  0.22793399388E+03  0.00000000000E+00 0. -1.
         22   -1    0    0    0    0 -0.00000000000E+00 -0.00000000000E+00 -0.79376268660E+03  0.79376268660E+03  0.00000000000E+00 0. -1.
        -24    2    1    2    0    0 -0.80321212244E+02 -0.33967387339E+02 -0.66098656755E+03  0.67144062605E+03  0.79523526605E+02 0.  0.
         25    2    1    2    0    0  0.93216939512E+02  0.16711856414E+02 -0.65266724567E+02  0.16992798647E+03  0.12508833396E+03 0.  0.
         24    2    1    2    0    0 -0.12895727268E+02  0.17255530925E+02  0.16042459940E+03  0.18032806796E+03  0.79486520071E+02 0.  0.
        -11    1    5    5    0    0  0.72622815243E+01  0.19384196253E+02  0.22069645621E+01  0.20817264227E+02  0.00000000000E+00 0.  1.
         12    1    5    5    0    0 -0.20158008793E+02 -0.21286653283E+01  0.15821763484E+03  0.15951080373E+03  0.00000000000E+00 0. -1.
         13    1    3    3    0    0 -0.63679424078E+02 -0.25045458122E+02 -0.63815165071E+03  0.64180984203E+03  0.00000000000E+00 0. -1.
        -14    1    3    3    0    0 -0.16641788166E+02 -0.89219292169E+01 -0.22834916846E+02  0.29630784021E+02  0.00000000000E+00 0.  1.
          5    1    4    4  501    0  0.11431389673E+03  0.43622751007E+02 -0.49832765458E+02  0.13217937927E+03  0.41800000000E+01 0. -1.
         -5    1    4    4    0  501 -0.21096957217E+02 -0.26910894592E+02 -0.15433959109E+02  0.37748607198E+02  0.41800000000E+01 0. -1.
</event>
<event>
11    1  0.7577197E-009  0.2469082E+03  0.7561462E-02  0.1025559E+00
         22   -1    0    0    0    0  0.00000000000E+00  0.00000000000E+00  0.87402099260E+02  0.87402099260E+02  0.00000000000E+00 0.  1.
         22   -1    0    0    0    0 -0.00000000000E+00 -0.00000000000E+00 -0.13219620879E+04  0.13219620879E+04  0.00000000000E+00 0.  1.
        -24    2    1    2    0    0 -0.14586811250E+03  0.48657200222E+02 -0.38487474129E+03  0.42220604634E+03  0.80525459962E+02 0.  0.
         25    2    1    2    0    0  0.10547657353E+03 -0.24025319738E+03 -0.49589870482E+03  0.57481331082E+03  0.12509160821E+03 0.  0.
         24    2    1    2    0    0  0.40391538971E+02  0.19159599716E+03 -0.35378654253E+03  0.41234483000E+03  0.80764092300E+02 0.  0.
        -13    1    5    5    0    0 -0.20064330527E+01  0.13958091903E+03 -0.19368229584E+03  0.23874607945E+03  0.00000000000E+00 0.  1.
         14    1    5    5    0    0  0.42397972023E+02  0.52015078128E+02 -0.16010424670E+03  0.17359875056E+03  0.00000000000E+00 0. -1.
         13    1    3    3    0    0 -0.32485978620E+01  0.83930874182E+01 -0.10617554205E+03  0.10655629044E+03  0.00000000000E+00 0. -1.
        -14    1    3    3    0    0 -0.14261951464E+03  0.40264112804E+02 -0.27869919925E+03  0.31564975589E+03  0.00000000000E+00 0.  1.
          5    1    4    4  501    0  0.13414662199E+02 -0.40152490221E+02 -0.20794832311E+03  0.21225492484E+03  0.41800000000E+01 0. -1.
         -5    1    4    4    0  501  0.92061911332E+02 -0.20010070716E+03 -0.28795038171E+03  0.36255838598E+03  0.41800000000E+01 0. -1.
</event>
<event>
11    1  0.7577197E-009  0.3991311E+03  0.7561462E-02  0.9652325E-01
         22   -1    0    0    0    0  0.00000000000E+00  0.00000000000E+00  0.29702322786E+04  0.29702322786E+04  0.00000000000E+00 0. -1.
         22   -1    0    0    0    0 -0.00000000000E+00 -0.00000000000E+00 -0.84593411956E+02  0.84593411956E+02  0.00000000000E+00 0.  1.
        -24    2    1    2    0    0 -0.18669660186E+02  0.73892989547E+02  0.81395828123E+02  0.13760750957E+03  0.80633837438E+02 0.  0.
         25    2    1    2    0    0 -0.30392984143E+03  0.16637153811E+03  0.96897090945E+03  0.10366315047E+04  0.12508963179E+03 0.  0.
         24    2    1    2    0    0  0.32259950162E+03 -0.24026452765E+03  0.18352721291E+04  0.18805866763E+04  0.81147874589E+02 0.  0.
        -13    1    5    5    0    0  0.73622897824E+02 -0.82198464994E+02  0.64176572918E+03  0.65118366832E+03  0.00000000000E+00 0.  1.
         14    1    5    5    0    0  0.24897660379E+03 -0.15806606266E+03  0.11935063999E+04  0.12294030080E+04  0.00000000000E+00 0. -1.
         13    1    3    3    0    0 -0.45903003325E+02  0.21813192515E+02  0.27105167213E+02  0.57598534457E+02  0.00000000000E+00 0. -1.
        -14    1    3    3    0    0  0.27233343139E+02  0.52079797032E+02  0.54290660910E+02  0.80008975118E+02  0.00000000000E+00 0.  1.
          5    1    4    4  501    0 -0.71168110241E+02  0.50576989379E+02  0.11815131310E+03  0.14696985050E+03  0.41800000000E+01 0.  1.
         -5    1    4    4    0  501 -0.23276173119E+03  0.11579454873E+03  0.85081959635E+03  0.88966165420E+03  0.41800000000E+01 0.  1.
</event>
<event>
11    1  0.7577197E-009  0.1567550E+03  0.7561462E-02  0.1090170E+00
         22   -1    0    0    0    0  0.00000000000E+00  0.00000000000E+00  0.15165906576E+03  0.15165906576E+03  0.00000000000E+00 0.  1.
         22   -1    0    0    0    0 -0.00000000000E+00 -0.00000000000E+00 -0.40038731966E+03  0.40038731966E+03  0.00000000000E+00 0. -1.
         24    2    1    2    0    0 -0.26492030139E+02 -0.45564204501E+02 -0.19735102898E+03  0.22070330244E+03  0.83573887526E+02 0.  0.
         25    2    1    2    0    0 -0.20035085202E+02  0.12115916872E+03 -0.10067829209E+03  0.20215185450E+03  0.12509318517E+03 0.  0.
        -24    2    1    2    0    0  0.46527115341E+02 -0.75594964221E+02  0.49301067161E+02  0.12919122848E+03  0.79877451230E+02 0.  0.
        -11    1    3    3    0    0 -0.21923804362E+02 -0.60360256222E+02 -0.81202694049E+02  0.10352724883E+03  0.00000000000E+00 0.  1.
         12    1    3    3    0    0 -0.45682257763E+01  0.14796051721E+02 -0.11614833493E+03  0.11717605361E+03  0.00000000000E+00 0. -1.
         13    1    5    5    0    0  0.21136254111E+02  0.12415936464E+02 -0.12928530589E+01  0.24547264311E+02  0.00000000000E+00 0. -1.
        -14    1    5    5    0    0  0.25390861230E+02 -0.88010900685E+02  0.50593920220E+02  0.10464396417E+03  0.00000000000E+00 0.  1.
          5    1    4    4  501    0  0.55362371914E+01  0.13500416477E+03 -0.51089668227E+02  0.14451436270E+03  0.41800000000E+01 0. -1.
         -5    1    4    4    0  501 -0.25571322393E+02 -0.13844996049E+02 -0.49588623860E+02  0.57637491799E+02  0.41800000000E+01 0. -1.
</event>
<event>
11    1  0.7577197E-009  0.1359599E+03  0.7561462E-02  0.1112156E+00
         22   -1    0    0    0    0  0.00000000000E+00  0.00000000000E+00  0.70872332410E+03  0.70872332410E+03  0.00000000000E+00 0.  1.
         22   -1    0    0    0    0 -0.00000000000E+00 -0.00000000000E+00 -0.50732294080E+03  0.50732294080E+03  0.00000000000E+00 0.  1.
        -24    2    1    2    0    0  0.26810441066E+02  0.13304534433E+02 -0.41649593389E+03  0.42518338769E+03  0.80101434657E+02 0.  0.
         25    2    1    2    0    0 -0.52570160505E+02 -0.58725750041E+02 -0.16899957721E+02  0.14881620208E+03  0.12509323698E+03 0.  0.
         24    2    1    2    0    0  0.25759719439E+02  0.45421215608E+02  0.63479627490E+03  0.64204667513E+03  0.80814432121E+02 0.  0.
        -13    1    5    5    0    0  0.15237603704E+02  0.47407225266E+02  0.62656500975E+03  0.62854064388E+03  0.00000000000E+00 0.  1.
         14    1    5    5    0    0  0.10522115736E+02 -0.19860096577E+01  0.82312651566E+01  0.13506031245E+02  0.00000000000E+00 0. -1.
         13    1    3    3    0    0 -0.26175864592E+02 -0.62173743814E+01 -0.93718880871E+02  0.97504155107E+02  0.00000000000E+00 0. -1.
        -14    1    3    3    0    0  0.52986305658E+02  0.19521908814E+02 -0.32277705301E+03  0.32767923258E+03  0.00000000000E+00 0.  1.
          5    1    4    4  501    0  0.38024152325E+02 -0.24181857013E+02 -0.24518798577E+02  0.51470790283E+02  0.41800000000E+01 0.  1.
         -5    1    4    4    0  501 -0.90594312831E+02 -0.34543893028E+02  0.76188408561E+01  0.97345411801E+02  0.41800000000E+01 0.  1.
</event>
<event>
11    1  0.7577197E-009  0.2218219E+03  0.7561462E-02  0.1040082E+00
         22   -1    0    0    0    0  0.00000000000E+00  0.00000000000E+00  0.46579667543E+03  0.46579667543E+03  0.00000000000E+00 0. -1.
         22   -1    0    0    0    0 -0.00000000000E+00 -0.00000000000E+00 -0.24264004314E+03  0.24264004314E+03  0.00000000000E+00 0. -1.
         24    2    1    2    0    0 -0.92404253796E+01 -0.17393349256E+03 -0.65460294698E+02  0.20131713095E+03  0.76845896040E+02 0.  0.
         25    2    1    2    0    0  0.30844652702E+01  0.20150245338E+03  0.35327668579E+02  0.23980772094E+03  0.12508775404E+03 0.  0.
        -24    2    1    2    0    0  0.61559601094E+01 -0.27568960818E+02  0.25328925842E+03  0.26731186668E+03  0.80636481770E+02 0.  0.
        -11    1    3    3    0    0  0.31319613629E+02 -0.11118693131E+03 -0.35849132552E+02  0.12094879990E+03  0.00000000000E+00 0.  1.
         12    1    3    3    0    0 -0.40560039009E+02 -0.62746561252E+02 -0.29611162146E+02  0.80368331058E+02  0.00000000000E+00 0. -1.
         13    1    5    5    0    0 -0.11516200569E+02 -0.59471042095E+00  0.22226342670E+03  0.22256236745E+03  0.00000000000E+00 0. -1.
        -14    1    5    5    0    0  0.17672160679E+02 -0.26974250397E+02  0.31025831717E+02  0.44749499229E+02  0.00000000000E+00 0.  1.
          5    1    4    4  501    0  0.29813262053E+02  0.41218684187E+02 -0.35831826199E+02  0.62363472395E+02  0.41800000000E+01 0.  1.
         -5    1    4    4    0  501 -0.26728796783E+02  0.16028376919E+03  0.71159494778E+02  0.17744424854E+03  0.41800000000E+01 0.  1.
</event>
<event>
11    1  0.7577197E-009  0.1422785E+03  0.7561462E-02  0.1105040E+00
         22   -1    0    0    0    0  0.00000000000E+00  0.00000000000E+00  0.11845850267E+04  0.11845850267E+04  0.00000000000E+00 0. -1.
         22   -1    0    0    0    0 -0.00000000000E+00 -0.00000000000E+00 -0.59226398206E+03  0.59226398206E+03  0.00000000000E+00 0.  1.
        -24    2    1    2    0    0  0.62757516208E+02 -0.23994445002E+02 -0.55570407871E+03  0.56517673241E+03  0.78124749867E+02 0.  0.
         25    2    1    2    0    0 -0.75305224703E+02  0.71690186546E+02  0.19304814089E+03  0.25243888001E+03  0.12508974269E+03 0.  0.
         24    2    1    2    0    0  0.12547708494E+02 -0.47695741544E+02  0.95497698244E+03  0.95923339631E+03  0.75599886712E+02 0.  0.
        -13    1    5    5    0    0 -0.29011834527E+02 -0.12429412066E+02  0.22197419821E+03  0.22420687210E+03  0.00000000000E+00 0.  1.
         14    1    5    5    0    0  0.41559543022E+02 -0.35266329478E+02  0.73300278423E+03  0.73502652422E+03  0.00000000000E+00 0. -1.
         13    1    3    3    0    0  0.35445171251E+02  0.24984407193E+02 -0.17131612257E+03  0.17671953661E+03  0.00000000000E+00 0. -1.
        -14    1    3    3    0    0  0.27312344957E+02 -0.48978852195E+02 -0.38438795614E+03  0.38845719580E+03  0.00000000000E+00 0.  1.
          5    1    4    4  501    0 -0.66978091982E+02  0.60448051925E+02  0.21087054351E+03  0.22939897625E+03  0.41800000000E+01 0.  1.
         -5    1    4    4    0  501 -0.83271327206E+01  0.11242134622E+02 -0.17822402616E+02  0.23039903758E+02  0.41800000000E+01 0.  1.
</event>
<event>
11    1  0.7577197E-009  0.1271936E+03  0.7561462E-02  0.1122766E+00
         22   -1    0    0    0    0  0.00000000000E+00  0.00000000000E+00  0.32509134994E+03  0.32509134994E+03  0.00000000000E+00 0.  1.
         22   -1    0    0    0    0 -0.00000000000E+00 -0.00000000000E+00 -0.34914514222E+03  0.34914514222E+03  0.00000000000E+00 0. -1.
        -24    2    1    2    0    0 -0.80328042882E+01 -0.61758794351E+01 -0.24542260150E+03  0.25834028071E+03  0.80029868671E+02 0.  0.
         25    2    1    2    0    0 -0.14073645162E+02 -0.22808124942E+01 -0.47413760181E+02  0.13453113290E+03  0.12508913410E+03 0.  0.
         24    2    1    2    0    0  0.22106449450E+02  0.84566919293E+01  0.26878256941E+03  0.28136507855E+03  0.79762316050E+02 0.  0.
        -11    1    5    5    0    0 -0.12570723674E+02 -0.19375988456E+02  0.18571047823E+03  0.18714121339E+03  0.00000000000E+00 0.  1.
         12    1    5    5    0    0  0.34677173124E+02  0.27832680385E+02  0.83072091179E+02  0.94223865162E+02  0.00000000000E+00 0. -1.
         13    1    3    3    0    0  0.59754609038E+01  0.27206144472E+02 -0.19071959540E+03  0.19274294928E+03  0.00000000000E+00 0. -1.
        -14    1    3    3    0    0 -0.14008265192E+02 -0.33382023907E+02 -0.54703006107E+02  0.65597331432E+02  0.00000000000E+00 0.  1.
          5    1    4    4  501    0  0.74893445336E+01  0.57730322281E+02 -0.66717933121E+01  0.58744068792E+02  0.41800000000E+01 0.  1.
         -5    1    4    4    0  501 -0.21562989696E+02 -0.60011134775E+02 -0.40741966869E+02  0.75787064107E+02  0.41800000000E+01 0.  1.
</event>
<event>
11    1  0.7577197E-009  0.2203280E+03  0.7561462E-02  0.1041012E+00
         22   -1    0    0    0    0  0.00000000000E+00  0.00000000000E+00  0.98940351489E+02  0.98940351489E+02  0.00000000000E+00 0.  1.
         22   -1    0    0    0    0 -0.00000000000E+00 -0.00000000000E+00 -0.11249545637E+04  0.11249545637E+04  0.00000000000E+00 0. -1.
         24    2    1    2    0    0 -0.22557372112E+02  0.17739264588E+03 -0.78673697260E+03  0.81090273608E+03  0.81432164878E+02 0.  0.
         25    2    1    2    0    0  0.22354906695E+02 -0.18972002275E+03 -0.23984405143E+03  0.33115870404E+03  0.12508992512E+03 0.  0.
        -24    2    1    2    0    0  0.20246541787E+00  0.12327376870E+02  0.56681181396E+00  0.81833475080E+02  0.80897411302E+02 0.  0.
        -11    1    3    3    0    0 -0.15009137650E+02  0.18145613686E+02 -0.33311035316E+02  0.40794148881E+02  0.00000000000E+00 0.  1.
         12    1    3    3    0    0 -0.75482344626E+01  0.15924703219E+03 -0.75342593728E+03  0.77010858720E+03  0.00000000000E+00 0. -1.
         11    1    5    5    0    0 -0.21185707755E+02 -0.28634542550E+02  0.53290162915E+00  0.35623801373E+02  0.00000000000E+00 0. -1.
        -12    1    5    5    0    0  0.21388173173E+02  0.40961919420E+02  0.33910184807E-01  0.46209673707E+02  0.00000000000E+00 0.  1.
          5    1    4    4  501    0  0.40180483568E+02 -0.19951727438E+03 -0.23275804859E+03  0.30921739217E+03  0.41800000000E+01 0.  1.
         -5    1    4    4    0  501 -0.17825576873E+02  0.97972516270E+01 -0.70860028414E+01  0.21941311870E+02  0.41800000000E+01 0.  1.
</event>
<event>
11    1  0.7577197E-009  0.1540977E+03  0.7561462E-02  0.1092764E+00
         22   -1    0    0    0    0  0.00000000000E+00  0.00000000000E+00  0.23348300238E+03  0.23348300238E+03  0.00000000000E+00 0. -1.
         22   -1    0    0    0    0 -0.00000000000E+00 -0.00000000000E+00 -0.39467434179E+03  0.39467434179E+03  0.00000000000E+00 0. -1.
         24    2    1    2    0    0  0.18096530143E+02  0.87886325570E+02 -0.24076430570E+03  0.26960922468E+03  0.81671246532E+02 0.  0.
         25    2    1    2    0    0 -0.32026599469E+02 -0.85920144074E+02 -0.81863608907E+02  0.17537346335E+03  0.12508487900E+03 0.  0.
        -24    2    1    2    0    0  0.13930069326E+02 -0.19661814965E+01  0.16143657519E+03  0.18317465614E+03  0.85400668270E+02 0.  0.
        -13    1    3    3    0    0  0.36083582307E+02  0.13891867428E+02 -0.43732321595E+02  0.58374008298E+02  0.00000000000E+00 0.  1.
         14    1    3    3    0    0 -0.17987052164E+02  0.73994458142E+02 -0.19703198410E+03  0.21123521638E+03  0.00000000000E+00 0. -1.
         13    1    5    5    0    0  0.36116600046E+02  0.30381359863E+02  0.83127423745E+02  0.95590817574E+02  0.00000000000E+00 0. -1.
        -14    1    5    5    0    0 -0.22186530720E+02 -0.32347541360E+02  0.78309151449E+02  0.87583838567E+02  0.00000000000E+00 0.  1.
          5    1    4    4  501    0  0.30930725682E+02  0.32656169359E+01 -0.54276295140E+02  0.62695794591E+02  0.41800000000E+01 0.  1.
         -5    1    4    4    0  501 -0.62957325151E+02 -0.89185761010E+02 -0.27587313766E+02  0.11267766876E+03  0.41800000000E+01 0.  1.
</event>
<event>
11    1  0.7577197E-009  0.1438502E+03  0.7561462E-02  0.1103334E+00
         22   -1    0    0    0    0  0.00000000000E+00  0.00000000000E+00  0.16085056881E+03  0.16085056881E+03  0.00000000000E+00 0. -1.
         22   -1    0    0    0    0 -0.00000000000E+00 -0.00000000000E+00 -0.82486982849E+03  0.82486982849E+03  0.00000000000E+00 0. -1.
        -24    2    1    2    0    0  0.48546457072E+02  0.36001268260E+02 -0.70539527441E+03  0.71255968425E+03  0.80659535340E+02 0.  0.
         25    2    1    2    0    0 -0.62605201952E+02  0.39551564427E+02 -0.19526044342E+02  0.14667172235E+03  0.12509032804E+03 0.  0.
         24    2    1    2    0    0  0.14058744881E+02 -0.75552832686E+02  0.60902059075E+02  0.12648899071E+03  0.79903223564E+02 0.  0.
        -13    1    5    5    0    0  0.65550617593E+01  0.10802249256E+02 -0.86845974273E+01  0.15332307593E+02  0.00000000000E+00 0.  1.
         14    1    5    5    0    0  0.75036831213E+01 -0.86355081943E+02  0.69586656502E+02  0.11115668311E+03  0.00000000000E+00 0. -1.
         11    1    3    3    0    0  0.40271857901E+02 -0.79067240171E+01 -0.52914241368E+03  0.53073160145E+03  0.00000000000E+00 0. -1.
        -12    1    3    3    0    0  0.82745991706E+01  0.43907992277E+02 -0.17625286073E+03  0.18182808280E+03  0.00000000000E+00 0.  1.
          5    1    4    4  501    0  0.38120286032E+02  0.53824624611E+01 -0.18512675743E+01  0.38768888312E+02  0.41800000000E+01 0. -1.
         -5    1    4    4    0  501 -0.10072548798E+03  0.34169101966E+02 -0.17674776768E+02  0.10790283403E+03  0.41800000000E+01 0. -1.
</event>
<event>
11    1  0.7577197E-009  0.1394396E+03  0.7561462E-02  0.1108186E+00
         22   -1    0    0    0    0  0.00000000000E+00  0.00000000000E+00  0.28884309155E+03  0.28884309155E+03  0.00000000000E+00 0.  1.
         22   -1    0    0    0    0 -0.00000000000E+00 -0.00000000000E+00 -0.21841213421E+04  0.21841213421E+04  0.00000000000E+00 0.  1.
        -24    2    1    2    0    0 -0.45920679956E+01  0.43710597180E+02 -0.19671368768E+04  0.19692486765E+04  0.79882127064E+02 0.  0.
         25    2    1    2    0    0  0.55127102052E+02 -0.76662848367E+02 -0.17630850388E+03  0.23589925464E+03  0.12509028779E+03 0.  0.
         24    2    1    2    0    0 -0.50535034057E+02  0.32952251187E+02  0.24816713020E+03  0.26781650250E+03  0.80617082411E+02 0.  0.
        -13    1    5    5    0    0 -0.40492735208E+02  0.38680044594E+02  0.24992589105E+03  0.25612254581E+03  0.00000000000E+00 0.  1.
         14    1    5    5    0    0 -0.10042298848E+02 -0.57277934079E+01 -0.17587608493E+01  0.11693956696E+02  0.00000000000E+00 0. -1.
         13    1    3    3    0    0  0.89801694467E+01  0.23150837548E+02 -0.15761080410E+03  0.15955491310E+03  0.00000000000E+00 0. -1.
        -14    1    3    3    0    0 -0.13572237442E+02  0.20559759632E+02 -0.18095260727E+04  0.18096937634E+04  0.00000000000E+00 0.  1.
          5    1    4    4  501    0  0.36354740507E+02  0.24994741321E+02 -0.93173969127E+02  0.10317589434E+03  0.41800000000E+01 0.  1.
         -5    1    4    4    0  501  0.18772361545E+02 -0.10165758969E+03 -0.83134534751E+02  0.13272336029E+03  0.41800000000E+01 0.  1.
</event>
<event>
11    1  0.7577197E-009  0.1907007E+03  0.7561462E-02  0.1061302E+00
         22   -1    0    0    0    0  0.00000000000E+00  0.00000000000E+00  0.76715636193E+03  0.76715636193E+03  0.00000000000E+00 0.  1.
         22   -1    0    0    0    0 -0.00000000000E+00 -0.00000000000E+00 -0.27207464465E+03  0.27207464465E+03  0.00000000000E+00 0. -1.
        -24    2    1    2    0    0  0.13309237816E+03 -0.35739739154E+02 -0.16679667677E+03  0.22902065881E+03  0.75089418031E+02 0.  0.
         25    2    1    2    0    0 -0.15526465160E+03  0.11592853491E+03  0.12740672062E+03  0.26348957359E+03  0.12509094968E+03 0.  0.
         24    2    1    2    0    0  0.22172273438E+02 -0.80188795757E+02  0.53447167343E+03  0.54672077418E+03  0.79509638068E+02 0.  0.
        -11    1    5    5    0    0  0.18957345210E+02 -0.88608662286E+02  0.52776259237E+03  0.53548504169E+03  0.00000000000E+00 0.  1.
         12    1    5    5    0    0  0.32149282281E+01  0.84198665290E+01  0.67090810593E+01  0.11235732488E+02  0.00000000000E+00 0. -1.
         13    1    3    3    0    0  0.10499872657E+03 -0.30273182932E+02 -0.74161301397E+02  0.13206474477E+03  0.00000000000E+00 0. -1.
        -14    1    3    3    0    0  0.28093651591E+02 -0.54665562216E+01 -0.92635375376E+02  0.96955914041E+02  0.00000000000E+00 0.  1.
          5    1    4    4  501    0 -0.34356949852E+02  0.74990110134E+02  0.10537353552E+03  0.13388417012E+03  0.41800000000E+01 0. -1.
         -5    1    4    4    0  501 -0.12090770174E+03  0.40938424777E+02  0.22033185100E+02  0.12960540347E+03  0.41800000000E+01 0. -1.
</event>
<event>
11    1  0.7577197E-009  0.1363197E+03  0.7561462E-02  0.1111739E+00
         22   -1    0    0    0    0  0.00000000000E+00  0.00000000000E+00  0.19863089008E+04  0.19863089008E+04  0.00000000000E+00 0. -1.
         22   -1    0    0    0    0 -0.00000000000E+00 -0.00000000000E+00 -0.35182190467E+03  0.35182190467E+03  0.00000000000E+00 0. -1.
         24    2    1    2    0    0 -0.47034206954E+02 -0.29280745440E+02 -0.32363698317E+03  0.33823463163E+03  0.81192305529E+02 0.  0.
         25    2    1    2    0    0  0.10037685342E+02  0.22557805161E+02  0.18563508517E+03  0.22519930872E+03  0.12507891150E+03 0.  0.
        -24    2    1    2    0    0  0.36996521612E+02  0.67229402786E+01  0.17724888941E+04  0.17746968651E+04  0.80113311631E+02 0.  0.
        -11    1    3    3    0    0 -0.27257015882E+02 -0.52359175349E+02 -0.13753755274E+03  0.14966965816E+03  0.00000000000E+00 0.  1.
         12    1    3    3    0    0 -0.19777191071E+02  0.23078429909E+02 -0.18609943043E+03  0.18856497347E+03  0.00000000000E+00 0. -1.
         13    1    5    5    0    0  0.29562724451E+02  0.39639830304E+02  0.13318424773E+04  0.13327601642E+04  0.00000000000E+00 0. -1.
        -14    1    5    5    0    0  0.74337971611E+01 -0.32916890025E+02  0.44064641682E+03  0.44193670095E+03  0.00000000000E+00 0.  1.
          5    1    4    4  501    0  0.48898582249E+02 -0.26649388774E+02  0.12913571022E+03  0.14069387095E+03  0.41800000000E+01 0. -1.
         -5    1    4    4    0  501 -0.38860896907E+02  0.49207193936E+02  0.56499374947E+02  0.84505437771E+02  0.41800000000E+01 0. -1.
</event>
<event>
11    1  0.7577197E-009  0.1639290E+03  0.7561462E-02  0.1083439E+00
         22   -1    0    0    0    0  0.00000000000E+00  0.00000000000E+00  0.68690432652E+03  0.68690432652E+03  0.00000000000E+00 0. -1.
         22   -1    0    0    0    0 -0.00000000000E+00 -0.00000000000E+00 -0.64101883184E+03  0.64101883184E+03  0.00000000000E+00 0.  1.
        -24    2    1    2    0    0  0.11835458706E+02  0.66450895884E+02 -0.51717404169E+03  0.52763885141E+03  0.79862184288E+02 0.  0.
         25    2    1    2    0    0 -0.52097509872E+02  0.34869155638E+02 -0.68595892184E+02  0.15583047429E+03  0.12509089392E+03 0.  0.
         24    2    1    2    0    0  0.40262051167E+02 -0.10132005152E+03  0.63165542855E+03  0.64445383267E+03  0.66673656107E+02 0.  0.
        -13    1    5    5    0    0  0.58558789056E+02 -0.77565382196E+02  0.45402371794E+03  0.46430922535E+03  0.00000000000E+00 0.  1.
         14    1    5    5    0    0 -0.18296737889E+02 -0.23754669325E+02  0.17763171061E+03  0.18014460732E+03  0.00000000000E+00 0. -1.
         13    1    3    3    0    0 -0.26661497109E+02 -0.10471852552E+01 -0.14605436961E+03  0.14847158282E+03  0.00000000000E+00 0. -1.
        -14    1    3    3    0    0  0.38496955815E+02  0.67498081139E+02 -0.37111967208E+03  0.37916726859E+03  0.00000000000E+00 0.  1.
          5    1    4    4  501    0 -0.76789480791E+02 -0.19553799877E+02 -0.31545017752E+02  0.85390491244E+02  0.41800000000E+01 0.  1.
         -5    1    4    4    0  501  0.24691970919E+02  0.54422955515E+02 -0.37050874431E+02  0.70439983042E+02  0.41800000000E+01 0.  1.
</event>
<event>
11    1  0.7577197E-009  0.1275721E+03  0.7561462E-02  0.1122289E+00
         22   -1    0    0    0    0  0.00000000000E+00  0.00000000000E+00  0.54739492093E+03  0.54739492093E+03  0.00000000000E+00 0. -1.
         22   -1    0    0    0    0 -0.00000000000E+00 -0.00000000000E+00 -0.24330439872E+03  0.24330439872E+03  0.00000000000E+00 0.  1.
         24    2    1    2    0    0 -0.64410500220E+01  0.22115823077E+02 -0.18705944029E+03  0.20484417322E+03  0.80245276148E+02 0.  0.
         25    2    1    2    0    0  0.31048953954E+02 -0.41150941376E+02  0.61254794513E+02  0.14851643008E+03  0.12509013804E+03 0.  0.
        -24    2    1    2    0    0 -0.24607903932E+02  0.19035118299E+02  0.42989516799E+03  0.43733871635E+03  0.74077072629E+02 0.  0.
        -11    1    3    3    0    0 -0.65519558913E+01  0.16983953389E+02 -0.19474944493E+03  0.19559838727E+03  0.00000000000E+00 0.  1.
         12    1    3    3    0    0  0.11090586932E+00  0.51318696884E+01  0.76900046393E+01  0.92457859570E+01  0.00000000000E+00 0. -1.
         11    1    5    5    0    0 -0.32670248133E+02  0.22451599819E+01  0.40461600731E+03  0.40593903388E+03  0.00000000000E+00 0. -1.
        -12    1    5    5    0    0  0.80623442014E+01  0.16789958317E+02  0.25279160685E+02  0.31399682470E+02  0.00000000000E+00 0.  1.
          5    1    4    4  501    0  0.64990295514E+02  0.13186168058E+02  0.11825716792E+02  0.67490247568E+02  0.41800000000E+01 0.  1.
         -5    1    4    4    0  501 -0.33941341561E+02 -0.54337109434E+02  0.49429077721E+02  0.81026182515E+02  0.41800000000E+01 0.  1.
</event>
<event>
11    1  0.7577197E-009  0.1497449E+03  0.7561462E-02  0.1097140E+00
         22   -1    0    0    0    0  0.00000000000E+00  0.00000000000E+00  0.12934832448E+03  0.12934832448E+03  0.00000000000E+00 0. -1.
         22   -1    0    0    0    0 -0.00000000000E+00 -0.00000000000E+00 -0.16486579079E+04  0.16486579079E+04  0.00000000000E+00 0. -1.
         24    2    1    2    0    0  0.15722629909E+00 -0.49828708182E+02 -0.14900889369E+04  0.14931382997E+04  0.81326609022E+02 0.  0.
         25    2    1    2    0    0 -0.26491630994E+02 -0.41862490440E+02 -0.74049113005E+02  0.15357517831E+03  0.12509112533E+03 0.  0.
        -24    2    1    2    0    0  0.26334404695E+02  0.91691198622E+02  0.44828466427E+02  0.13129275441E+03  0.78277833283E+02 0.  0.
        -11    1    3    3    0    0  0.98646420715E+00 -0.44928433253E+01 -0.33073782659E+01  0.56654658918E+01  0.00000000000E+00 0.  1.
         12    1    3    3    0    0 -0.82923790806E+00 -0.45335864857E+02 -0.14867815586E+04  0.14874728338E+04  0.00000000000E+00 0. -1.
         11    1    5    5    0    0  0.98160931707E+01  0.10037129153E+03  0.49073413234E+02  0.11215592599E+03  0.00000000000E+00 0. -1.
        -12    1    5    5    0    0  0.16518311525E+02 -0.86800929100E+01 -0.42449468065E+01  0.19136828419E+02  0.00000000000E+00 0.  1.
          5    1    4    4  501    0 -0.17914994429E+02  0.34471273850E+02 -0.65372904992E+02  0.76159732492E+02  0.41800000000E+01 0.  1.
         -5    1    4    4    0  501 -0.85766365657E+01 -0.76333764290E+02 -0.86762080138E+01  0.77415445817E+02  0.41800000000E+01 0.  1.
</event>
<event>
11    1  0.7577197E-009  0.1666928E+03  0.7561462E-02  0.1080946E+00
         22   -1    0    0    0    0  0.00000000000E+00  0.00000000000E+00  0.17265332395E+04  0.17265332395E+04  0.00000000000E+00 0. -1.
         22   -1    0    0    0    0 -0.00000000000E+00 -0.00000000000E+00 -0.39669875706E+03  0.39669875706E+03  0.00000000000E+00 0.  1.
         24    2    1    2    0    0  0.94932374809E+02 -0.50324406483E+02 -0.33479516556E+03  0.36051744124E+03  0.79626131889E+02 0.  0.
         25    2    1    2    0    0 -0.15681798868E+03  0.38866418348E+02  0.17335142355E+03  0.26795401949E+03  0.12508461322E+03 0.  0.
        -24    2    1    2    0    0  0.61885613868E+02  0.11457988135E+02  0.14912782245E+04  0.14947605358E+04  0.80232176085E+02 0.  0.
        -13    1    3    3    0    0 -0.94893574398E+00  0.11593444078E+02 -0.86097963161E+02  0.86880191558E+02  0.00000000000E+00 0.  1.
         14    1    3    3    0    0  0.95881310553E+02 -0.61917850561E+02 -0.24869720240E+03  0.27363724968E+03  0.00000000000E+00 0. -1.
         11    1    5    5    0    0  0.76546142771E+02  0.70310213332E+01  0.14072732390E+04  0.14093710358E+04  0.00000000000E+00 0. -1.
        -12    1    5    5    0    0 -0.14660528903E+02  0.44269668022E+01  0.84004985429E+02  0.85389500055E+02  0.00000000000E+00 0.  1.
          5    1    4    4  501    0 -0.47735120731E+02 -0.18249719161E+01 -0.11630951988E+02  0.49342919632E+02  0.41800000000E+01 0. -1.
         -5    1    4    4    0  501 -0.10908286795E+03  0.40691390264E+02  0.18498237553E+03  0.21861109985E+03  0.41800000000E+01 0. -1.
</event>
<event>
11    1  0.7577197E-009  0.1365505E+03  0.7561462E-02  0.1111473E+00
         22   -1    0    0    0    0  0.00000000000E+00  0.00000000000E+00  0.12690439805E+04  0.12690439805E+04  0.00000000000E+00 0. -1.
         22   -1    0    0    0    0 -0.00000000000E+00 -0.00000000000E+00 -0.13648444828E+03  0.13648444828E+03  0.00000000000E+00 0.  1.
        -24    2    1    2    0    0  0.36404462103E+01  0.89802812399E+01 -0.68661790742E+02  0.10600191787E+03  0.80175225502E+02 0.  0.
         25    2    1    2    0    0 -0.73380994758E+01  0.46028335966E+02  0.47646480316E+02  0.14173944556E+03  0.12508967953E+03 0.  0.
         24    2    1    2    0    0  0.36976532656E+01 -0.55008617206E+02  0.11535748427E+04  0.11577870654E+04  0.81831231929E+02 0.  0.
        -13    1    5    5    0    0  0.24387697016E+02 -0.71816737633E+01  0.10949881352E+03  0.11241141563E+03  0.00000000000E+00 0.  1.
         14    1    5    5    0    0 -0.20690043751E+02 -0.47826943442E+02  0.10440760291E+04  0.10453756497E+04  0.00000000000E+00 0. -1.
         11    1    3    3    0    0  0.11831483541E+01  0.39047505339E+02 -0.10452281137E+02  0.40439556059E+02  0.00000000000E+00 0. -1.
        -12    1    3    3    0    0  0.24572978562E+01 -0.30067224099E+02 -0.58209509604E+02  0.65562361810E+02  0.00000000000E+00 0.  1.
          5    1    4    4  501    0  0.38145373672E+02  0.66440225187E+02  0.50127394503E+02  0.91649337887E+02  0.41800000000E+01 0.  1.
         -5    1    4    4    0  501 -0.45483473147E+02 -0.20411889222E+02 -0.24809141873E+01  0.50090107669E+02  0.41800000000E+01 0.  1.
</event>
<event>
11    1  0.7577197E-009  0.1611855E+03  0.7561462E-02  0.1085968E+00
         22   -1    0    0    0    0  0.00000000000E+00  0.00000000000E+00  0.23232434452E+03  0.23232434452E+03  0.00000000000E+00 0.  1.
         22   -1    0    0    0    0 -0.00000000000E+00 -0.00000000000E+00 -0.19806435429E+04  0.19806435429E+04  0.00000000000E+00 0.  1.
         24    2    1    2    0    0  0.11244083270E+03 -0.13541669434E+02 -0.17466368650E+04  0.17521560444E+04  0.80524207128E+02 0.  0.
         25    2    1    2    0    0 -0.21989143231E+02 -0.21161440212E+02 -0.19293672138E+03  0.23195552401E+03  0.12508979850E+03 0.  0.
        -24    2    1    2    0    0 -0.90451689471E+02  0.34703109645E+02  0.19125438806E+03  0.22885631900E+03  0.80069718670E+02 0.  0.
        -11    1    3    3    0    0  0.85061211421E+02 -0.16995228576E+02 -0.16297048184E+04  0.16320116552E+04  0.00000000000E+00 0.  1.
         12    1    3    3    0    0  0.27379621282E+02  0.34535591425E+01 -0.11693204662E+03  0.12014438921E+03  0.00000000000E+00 0. -1.
         13    1    5    5    0    0 -0.52064536054E+02  0.50523323054E+02  0.70490728789E+02  0.10115465848E+03  0.00000000000E+00 0. -1.
        -14    1    5    5    0    0 -0.38387153417E+02 -0.15820213409E+02  0.12076365927E+03  0.12770166052E+03  0.00000000000E+00 0.  1.
          5    1    4    4  501    0  0.13496141420E+01 -0.13705396728E+02  0.16014482845E+02  0.21531266071E+02  0.41800000000E+01 0.  1.
         -5    1    4    4    0  501 -0.23338757373E+02 -0.74560434833E+01 -0.20895120423E+03  0.21042425794E+03  0.41800000000E+01 0.  1.
</event>
<event>
11    1  0.7577197E-009  0.1495495E+03  0.7561462E-02  0.1097340E+00
         22   -1    0    0    0    0  0.00000000000E+00  0.00000000000E+00  0.14731641837E+04  0.14731641837E+04  0.00000000000E+00 0.  1.
         22   -1    0    0    0    0 -0.00000000000E+00 -0.00000000000E+00 -0.39686032393E+03  0.39686032393E+03  0.00000000000E+00 0. -1.
         24    2    1    2    0    0 -0.15434437172E+02 -0.57530450047E+02 -0.30434038550E+03  0.32058102595E+03  0.81247457906E+02 0.  0.
         25    2    1    2    0    0 -0.16307397753E+02  0.13165878648E+03  0.19298884137E+02  0.18335786534E+03  0.12509073736E+03 0.  0.
        -24    2    1    2    0    0  0.31741834925E+02 -0.74128336432E+02  0.13613453612E+04  0.13660856164E+04  0.80163361688E+02 0.  0.
        -13    1    3    3    0    0  0.19264320576E+02  0.11508055567E+02 -0.50977263492E+02  0.55697673051E+02  0.00000000000E+00 0.  1.
         14    1    3    3    0    0 -0.34698757748E+02 -0.69038505614E+02 -0.25336312201E+03  0.26488335290E+03  0.00000000000E+00 0. -1.
         11    1    5    5    0    0  0.52442274784E+02 -0.31253912717E+02  0.55775667506E+03  0.56108778976E+03  0.00000000000E+00 0. -1.
        -12    1    5    5    0    0 -0.20700439859E+02 -0.42874423715E+02  0.80358868609E+03  0.80499782660E+03  0.00000000000E+00 0.  1.
          5    1    4    4  501    0 -0.68541497115E+02  0.68930013132E+02  0.27773763219E+02  0.10118368377E+03  0.41800000000E+01 0. -1.
         -5    1    4    4    0  501  0.52234099361E+02  0.62728773348E+02 -0.84748790823E+01  0.82174181574E+02  0.41800000000E+01 0. -1.
</event>
<event>
11    1  0.7577197E-009  0.1396670E+03  0.7561462E-02  0.1107931E+00
         22   -1    0    0    0    0  0.00000000000E+00  0.00000000000E+00  0.21467060673E+03  0.21467060673E+03  0.00000000000E+00 0.  1.
         22   -1    0    0    0    0 -0.00000000000E+00 -0.00000000000E+00 -0.14333597461E+04  0.14333597461E+04  0.00000000000E+00 0.  1.
         24    2    1    2    0    0  0.38155587027E+02 -0.25910414733E+02 -0.12485920703E+04  0.12521145829E+04  0.81740885789E+02 0.  0.
         25    2    1    2    0    0 -0.97137005101E+02  0.28343572217E+02 -0.13026968122E+03  0.20701449355E+03  0.12508339158E+03 0.  0.
        -24    2    1    2    0    0  0.58981418074E+02 -0.24331574840E+01  0.16017261208E+03  0.18890127640E+03  0.80893130925E+02 0.  0.
        -13    1    3    3    0    0  0.28216940553E+02  0.20993112048E+01 -0.11104999612E+04  0.11108603723E+04  0.00000000000E+00 0.  1.
         14    1    3    3    0    0  0.99386464736E+01 -0.28009725938E+02 -0.13809210905E+03  0.14125421064E+03  0.00000000000E+00 0. -1.
         13    1    5    5    0    0  0.65307796786E+02 -0.53966510673E+01  0.61142274948E+02  0.89624828868E+02  0.00000000000E+00 0. -1.
        -14    1    5    5    0    0 -0.63263787111E+01  0.29634935833E+01  0.99030337132E+02  0.99276447530E+02  0.00000000000E+00 0.  1.
          5    1    4    4  501    0 -0.10351742224E+03  0.65707368569E+02 -0.10197312811E+03  0.15952838697E+03  0.41800000000E+01 0. -1.
         -5    1    4    4    0  501  0.63804171391E+01 -0.37363796352E+02 -0.28296553113E+02  0.47486106587E+02  0.41800000000E+01 0. -1.
</event>
<event>
11    1  0.7577197E-009  0.1513458E+03  0.7561462E-02  0.1095512E+00
         22   -1    0    0    0    0  0.00000000000E+00  0.00000000000E+00  0.29775503622E+03  0.29775503622E+03  0.00000000000E+00 0.  1.
         22   -1    0    0    0    0 -0.00000000000E+00 -0.00000000000E+00 -0.36432227029E+03  0.36432227029E+03  0.00000000000E+00 0.  1.
        -24    2    1    2    0    0 -0.39970686490E+01 -0.87210563235E+02 -0.19183997890E+03  0.22497186794E+03  0.78664508920E+02 0.  0.
         25    2    1    2    0    0 -0.73268111819E+01  0.80662365010E+02 -0.11210071470E+03  0.18647835923E+03  0.12509000332E+03 0.  0.
         24    2    1    2    0    0  0.11323879831E+02  0.65481982253E+01  0.23737345953E+03  0.25062707934E+03  0.79351524608E+02 0.  0.
        -13    1    5    5    0    0  0.28516067595E+02 -0.28815373636E+02  0.10569493415E+03  0.11320296363E+03  0.00000000000E+00 0.  1.
         14    1    5    5    0    0 -0.17192187764E+02  0.35363571861E+02  0.13167852537E+03  0.13742411571E+03  0.00000000000E+00 0. -1.
         11    1    3    3    0    0 -0.36111270920E+02 -0.28858346927E+02 -0.48984658809E+02  0.67352244754E+02  0.00000000000E+00 0. -1.
        -12    1    3    3    0    0  0.32114202271E+02 -0.58352216308E+02 -0.14285532009E+03  0.15761962319E+03  0.00000000000E+00 0.  1.
          5    1    4    4  501    0  0.25443944629E+02  0.86978743294E+00  0.17186710898E+02  0.31000101289E+02  0.41800000000E+01 0.  1.
         -5    1    4    4    0  501 -0.32770755811E+02  0.79792577577E+02 -0.12928742560E+03  0.15547825794E+03  0.41800000000E+01 0.  1.
</event>
<event>
11    1  0.7577197E-009  0.1345186E+03  0.7561462E-02  0.1113838E+00
         22   -1    0    0    0    0  0.00000000000E+00  0.00000000000E+00  0.39578400530E+03  0.39578400530E+03  0.00000000000E+00 0. -1.
         22   -1    0    0    0    0 -0.00000000000E+00 -0.00000000000E+00 -0.23481742866E+03  0.23481742866E+03  0.00000000000E+00 0. -1.
         24    2    1    2    0    0 -0.37804760362E+01  0.35552719250E+01 -0.15115748178E+03  0.17018680830E+03  0.78025851259E+02 0.  0.
         25    2    1    2    0    0  0.34355346531E+02 -0.41848708062E+02  0.17060627632E+01  0.13631541871E+03  0.12508948207E+03 0.  0.
        -24    2    1    2    0    0 -0.30574870495E+02  0.38293436137E+02  0.31041799565E+03  0.32409920695E+03  0.79244898676E+02 0.  0.
        -11    1    3    3    0    0  0.29999405213E+02  0.13677072216E+02 -0.11519297320E+03  0.11981839463E+03  0.00000000000E+00 0.  1.
         12    1    3    3    0    0 -0.33779881249E+02 -0.10121800291E+02 -0.35964508580E+02  0.50368413671E+02  0.00000000000E+00 0. -1.
         13    1    5    5    0    0 -0.52901576104E+02  0.45290926959E+02  0.23965479566E+03  0.24956815884E+03  0.00000000000E+00 0. -1.
        -14    1    5    5    0    0  0.22326705609E+02 -0.69974908221E+01  0.70763199985E+02  0.74531048116E+02  0.00000000000E+00 0.  1.
          5    1    4    4  501    0  0.14954793444E+02  0.36688464692E+02 -0.29431197270E+02  0.49531374513E+02  0.41800000000E+01 0. -1.
         -5    1    4    4    0  501  0.19400553088E+02 -0.78537172754E+02  0.31137260033E+02  0.86784044194E+02  0.41800000000E+01 0. -1.
</event>
<event>
11    1  0.7577197E-009  0.2665774E+03  0.7561462E-02  0.1015421E+00
         22   -1    0    0    0    0  0.00000000000E+00  0.00000000000E+00  0.47098360775E+03  0.47098360775E+03  0.00000000000E+00 0. -1.
         22   -1    0    0    0    0 -0.00000000000E+00 -0.00000000000E+00 -0.72506133081E+03  0.72506133081E+03  0.00000000000E+00 0. -1.
        -24    2    1    2    0    0  0.26060684004E+02 -0.24053367814E+03 -0.62404553677E+03  0.67420157968E+03  0.81113059994E+02 0.  0.
         25    2    1    2    0    0  0.30668945848E+02  0.14752771190E+03  0.32471913993E+03  0.37920379468E+03  0.12509191838E+03 0.  0.
         24    2    1    2    0    0 -0.56729629852E+02  0.93005966243E+02  0.45248673781E+02  0.14263956421E+03  0.80188790613E+02 0.  0.
        -13    1    5    5    0    0 -0.15527540669E+02 -0.39127936728E+01  0.32919109324E+02  0.36607133625E+02  0.00000000000E+00 0.  1.
         14    1    5    5    0    0 -0.41202089183E+02  0.96918759915E+02  0.12329564456E+02  0.10603243059E+03  0.00000000000E+00 0. -1.
         13    1    3    3    0    0  0.32736161284E+02 -0.44369299414E+02 -0.93953580970E+02  0.10893836038E+03  0.00000000000E+00 0. -1.
        -14    1    3    3    0    0 -0.66754772795E+01 -0.19616437873E+03 -0.53009195580E+03  0.56526321929E+03  0.00000000000E+00 0.  1.
          5    1    4    4  501    0  0.22690087628E+01  0.31733002081E+02 -0.12272201477E+01  0.32110906109E+02  0.41800000000E+01 0. -1.
         -5    1    4    4    0  501  0.28399937085E+02  0.11579470982E+03  0.32594636007E+03  0.34709288857E+03  0.41800000000E+01 0. -1.
</event>
<event>
11    1  0.7577197E-009  0.1397761E+03  0.7561462E-02  0.1107809E+00
         22   -1    0    0    0    0  0.00000000000E+00  0.00000000000E+00  0.13845084936E+03  0.13845084936E+03  0.00000000000E+00 0. -1.
         22   -1    0    0    0    0 -0.00000000000E+00 -0.00000000000E+00 -0.12036528459E+04  0.12036528459E+04  0.00000000000E+00 0. -1.
        -24    2    1    2    0    0  0.16007467819E+02  0.61488174592E+02 -0.10204068637E+04  0.10253638685E+04  0.78127208332E+02 0.  0.
         25    2    1    2    0    0 -0.64324091867E+02 -0.15989237964E+02 -0.12108800722E+03  0.18629040973E+03  0.12509423143E+03 0.  0.
         24    2    1    2    0    0  0.48316624048E+02 -0.45498936629E+02  0.76292874369E+02  0.13044941705E+03  0.82412367614E+02 0.  0.
        -13    1    5    5    0    0  0.15746830697E+02 -0.59162456280E+02  0.20779273563E+02  0.64652433210E+02  0.00000000000E+00 0.  1.
         14    1    5    5    0    0  0.32569793351E+02  0.13663519652E+02  0.55513600806E+02  0.65796983841E+02  0.00000000000E+00 0. -1.
         11    1    3    3    0    0  0.25234504178E+02  0.74946621867E+02 -0.68304939743E+03  0.68761199500E+03  0.00000000000E+00 0. -1.
        -12    1    3    3    0    0 -0.92270363591E+01 -0.13458447275E+02 -0.33735746627E+03  0.33775187350E+03  0.00000000000E+00 0.  1.
          5    1    4    4  501    0 -0.15381558513E+02  0.19514474271E+02 -0.12309658094E+03  0.12564890643E+03  0.41800000000E+01 0.  1.
         -5    1    4    4    0  501 -0.48942533354E+02 -0.35503712235E+02  0.20085737131E+01  0.60641503296E+02  0.41800000000E+01 0.  1.
</event>
<event>
11    1  0.7577197E-009  0.2201208E+03  0.7561462E-02  0.1041142E+00
         22   -1    0    0    0    0  0.00000000000E+00  0.00000000000E+00  0.36194005365E+03  0.36194005365E+03  0.00000000000E+00 0.  1.
         22   -1    0    0    0    0 -0.00000000000E+00 -0.00000000000E+00 -0.64836009978E+03  0.64836009978E+03  0.00000000000E+00 0.  1.
         24    2    1    2    0    0  0.55786991833E+02 -0.73873875126E+02 -0.48763901095E+03  0.50287533751E+03  0.80760523722E+02 0.  0.
         25    2    1    2    0    0 -0.21349231902E+03  0.28379325996E+00  0.27575288818E+02  0.24897122165E+03  0.12508885576E+03 0.  0.
        -24    2    1    2    0    0  0.15770532719E+03  0.73590081866E+02  0.17364367601E+03  0.25845359427E+03  0.79747500277E+02 0.  0.
        -13    1    3    3    0    0  0.48419778411E+02 -0.27177810824E+02 -0.39487917164E+03  0.39876392582E+03  0.00000000000E+00 0.  1.
         14    1    3    3    0    0  0.73672134219E+01 -0.46696064301E+02 -0.92759839317E+02  0.10411141169E+03  0.00000000000E+00 0. -1.
         13    1    5    5    0    0 -0.65787134912E+01  0.10013351080E+02  0.25918292667E+02  0.28553538587E+02  0.00000000000E+00 0. -1.
        -14    1    5    5    0    0  0.16428404068E+03  0.63576730786E+02  0.14772538334E+03  0.22990005568E+03  0.00000000000E+00 0.  1.
          5    1    4    4  501    0  0.16518592645E+02  0.21729730435E+01  0.45213778430E+01  0.17762347041E+02  0.41800000000E+01 0. -1.
         -5    1    4    4    0  501 -0.23001091167E+03 -0.18891797835E+01  0.23053910975E+02  0.23120887461E+03  0.41800000000E+01 0. -1.
</event>
<event>
11    1  0.7577197E-009  0.1300746E+03  0.7561462E-02  0.1119177E+00
         22   -1    0    0    0    0  0.00000000000E+00  0.00000000000E+00  0.37721651294E+03  0.37721651294E+03  0.00000000000E+00 0. -1.
         22   -1    0    0    0    0 -0.00000000000E+00 -0.00000000000E+00 -0.26452583826E+03  0.26452583826E+03  0.00000000000E+00 0. -1.
         24    2    1    2    0    0 -0.77810017746E+00  0.39337413611E+02 -0.21531430704E+03  0.23279461533E+03  0.79278272931E+02 0.  0.
         25    2    1    2    0    0  0.29879688955E+02 -0.94897608787E+01  0.10480135400E+03  0.16617489481E+03  0.12509164837E+03 0.  0.
        -24    2    1    2    0    0 -0.29101588778E+02 -0.29847652732E+02  0.22320362772E+03  0.24277284106E+03  0.85912793502E+02 0.  0.
        -13    1    3    3    0    0  0.75193503206E+01  0.36262669914E+02 -0.31079024544E+02  0.48346950526E+02  0.00000000000E+00 0.  1.
         14    1    3    3    0    0 -0.82974504981E+01  0.30747436965E+01 -0.18423528250E+03  0.18444766480E+03  0.00000000000E+00 0. -1.
         11    1    5    5    0    0 -0.44757859615E+02 -0.50917412841E+02  0.14044220252E+03  0.15594826442E+03  0.00000000000E+00 0. -1.
        -12    1    5    5    0    0  0.15656270837E+02  0.21069760110E+02  0.82761425199E+02  0.86824576639E+02  0.00000000000E+00 0.  1.
          5    1    4    4  501    0 -0.13178881437E+02 -0.20044148483E+02  0.11739877531E+03  0.11989743804E+03  0.41800000000E+01 0.  1.
         -5    1    4    4    0  501  0.43058570391E+02  0.10554387604E+02 -0.12597421309E+02  0.46277456774E+02  0.41800000000E+01 0.  1.
</event>
<event>
11    1  0.7577197E-009  0.2027328E+03  0.7561462E-02  0.1052608E+00
         22   -1    0    0    0    0  0.00000000000E+00  0.00000000000E+00  0.12026554616E+04  0.12026554616E+04  0.00000000000E+00 0.  1.
         22   -1    0    0    0    0 -0.00000000000E+00 -0.00000000000E+00 -0.40086301297E+03  0.40086301297E+03  0.00000000000E+00 0.  1.
         24    2    1    2    0    0  0.17097446292E+03  0.26860384148E+02 -0.28147831023E+03  0.34009417766E+03  0.80500082857E+02 0.  0.
         25    2    1    2    0    0 -0.10312850332E+03 -0.77475638539E+02  0.59808812570E+01  0.17977996228E+03  0.12508837330E+03 0.  0.
        -24    2    1    2    0    0 -0.67845959599E+02  0.50615254391E+02  0.10772898776E+04  0.10836443346E+04  0.81034470450E+02 0.  0.
        -13    1    3    3    0    0  0.84306221608E+02  0.13269913417E+02 -0.67436168917E+02  0.10877162535E+03  0.00000000000E+00 0.  1.
         14    1    3    3    0    0  0.86668241309E+02  0.13590470732E+02 -0.21404214131E+03  0.23132255230E+03  0.00000000000E+00 0. -1.
         11    1    5    5    0    0  0.17374202942E+02  0.47911781642E+01  0.10333369287E+03  0.10489361467E+03  0.00000000000E+00 0. -1.
        -12    1    5    5    0    0 -0.85220162541E+02  0.45824076226E+02  0.97395618469E+03  0.97875071993E+03  0.00000000000E+00 0.  1.
          5    1    4    4  501    0 -0.10933490866E+03 -0.81362921339E+02  0.42090051794E+02  0.14269930652E+03  0.41800000000E+01 0.  1.
         -5    1    4    4    0  501  0.62064053450E+01  0.38872827999E+01 -0.36109170537E+02  0.37080655762E+02  0.41800000000E+01 0.  1.
</event>
<event>
11    1  0.7577197E-009  0.5742980E+03  0.7561462E-02  0.9241289E-01
         22   -1    0    0    0    0  0.00000000000E+00  0.00000000000E+00  0.88655163890E+03  0.88655163890E+03  0.00000000000E+00 0. -1.
         22   -1    0    0    0    0 -0.00000000000E+00 -0.00000000000E+00 -0.93005931414E+02  0.93005931414E+02  0.00000000000E+00 0.  1.
         24    2    1    2    0    0 -0.29621459765E+02 -0.11652490176E+03  0.13839840618E+03  0.20232555985E+03  0.85592229349E+02 0.  0.
         25    2    1    2    0    0  0.14700913762E+03  0.17820996342E+03  0.42746415226E+03  0.50174115524E+03  0.12509239703E+03 0.  0.
        -24    2    1    2    0    0 -0.11738767785E+03 -0.61685061654E+02  0.22768314906E+03  0.27549085523E+03  0.80440544556E+02 0.  0.
        -11    1    3    3    0    0 -0.33805889257E+02 -0.29677802241E+01  0.30600053557E+02  0.45694738709E+02  0.00000000000E+00 0.  1.
         12    1    3    3    0    0  0.41844294926E+01 -0.11355712154E+03  0.10779835262E+03  0.15663082114E+03  0.00000000000E+00 0. -1.
         11    1    5    5    0    0 -0.83417636642E+02  0.11994524565E+01  0.11564637892E+03  0.14259742545E+03  0.00000000000E+00 0. -1.
        -12    1    5    5    0    0 -0.33970041209E+02 -0.62884514110E+02  0.11203677014E+03  0.13289342978E+03  0.00000000000E+00 0.  1.
          5    1    4    4  501    0  0.38867330161E+02  0.90442723386E+02  0.28887479530E+03  0.30521578486E+03  0.41800000000E+01 0. -1.
         -5    1    4    4    0  501  0.10814180745E+03  0.87767240032E+02  0.13858935696E+03  0.19652537038E+03  0.41800000000E+01 0. -1.
</event>
<event>
11    1  0.7577197E-009  0.1275607E+03  0.7561462E-02  0.1122303E+00
         22   -1    0    0    0    0  0.00000000000E+00  0.00000000000E+00  0.13398331766E+04  0.13398331766E+04  0.00000000000E+00 0.  1.
         22   -1    0    0    0    0 -0.00000000000E+00 -0.00000000000E+00 -0.57921906095E+03  0.57921906095E+03  0.00000000000E+00 0.  1.
         24    2    1    2    0    0  0.59640038897E+01  0.24562862196E+02 -0.55394734464E+03  0.56037169910E+03  0.80745755184E+02 0.  0.
         25    2    1    2    0    0 -0.18863248401E+02 -0.22443487380E+01  0.17459010783E+03  0.21561649793E+03  0.12509160317E+03 0.  0.
        -24    2    1    2    0    0  0.12899244512E+02 -0.22318513458E+02  0.11399713525E+04  0.11430640405E+04  0.79976307639E+02 0.  0.
        -13    1    3    3    0    0 -0.52355733953E+00  0.17022505259E+01 -0.51318719479E+03  0.51319028504E+03  0.00000000000E+00 0.  1.
         14    1    3    3    0    0  0.64875612292E+01  0.22860611670E+02 -0.40760149849E+02  0.47181414056E+02  0.00000000000E+00 0. -1.
         13    1    5    5    0    0  0.18609931504E+02 -0.11088703340E+02  0.76237084880E+02  0.79255170199E+02  0.00000000000E+00 0. -1.
        -14    1    5    5    0    0 -0.57106869923E+01 -0.11229810118E+02  0.10637342676E+04  0.10638088703E+04  0.00000000000E+00 0.  1.
          5    1    4    4  501    0 -0.68547841951E+02  0.66953551995E+01  0.64594756833E+02  0.94517667278E+02  0.41800000000E+01 0. -1.
         -5    1    4    4    0  501  0.49684593549E+02 -0.89397039375E+01  0.10999535100E+03  0.12109883065E+03  0.41800000000E+01 0. -1.
</event>
<event>
11    1  0.7577197E-009  0.1356891E+03  0.7561462E-02  0.1112470E+00
         22   -1    0    0    0    0  0.00000000000E+00  0.00000000000E+00  0.38912748574E+02  0.38912748574E+02  0.00000000000E+00 0. -1.
         22   -1    0    0    0    0 -0.00000000000E+00 -0.00000000000E+00 -0.41524383869E+04  0.41524383869E+04  0.00000000000E+00 0. -1.
        -24    2    1    2    0    0  0.80369644060E+01 -0.49380126893E+02 -0.33433923425E+04  0.33447301519E+04  0.80277292955E+02 0.  0.
         25    2    1    2    0    0 -0.46058537509E+02  0.75389099085E+02 -0.72949509426E+03  0.74539720779E+03  0.12509596195E+03 0.  0.
         24    2    1    2    0    0  0.38021573103E+02 -0.26008972192E+02 -0.40638201576E+02  0.10122377574E+03  0.80452984359E+02 0.  0.
        -11    1    5    5    0    0  0.88893695932E+01 -0.16095924417E+02 -0.61405354613E+02  0.64099276515E+02  0.00000000000E+00 0.  1.
         12    1    5    5    0    0  0.29132203510E+02 -0.99130477747E+01  0.20767153037E+02  0.37124499226E+02  0.00000000000E+00 0. -1.
         11    1    3    3    0    0 -0.94489826020E+01 -0.68191808975E+02 -0.24887233496E+04  0.24896753437E+04  0.00000000000E+00 0. -1.
        -12    1    3    3    0    0  0.17485947008E+02  0.18811682081E+02 -0.85466899285E+03  0.85505480822E+03  0.00000000000E+00 0.  1.
          5    1    4    4  501    0 -0.72235555390E+02  0.85795670493E+01 -0.24518601607E+03  0.25578357905E+03  0.41800000000E+01 0.  1.
         -5    1    4    4    0  501  0.26177017881E+02  0.66809532036E+02 -0.48430907819E+03  0.48961362874E+03  0.41800000000E+01 0.  1.
</event>
<event>
11    1  0.7577197E-009  0.8948736E+03  0.7561462E-02  0.8785983E-01
         22   -1    0    0    0    0  0.00000000000E+00  0.00000000000E+00  0.60806067702E+03  0.60806067702E+03  0.00000000000E+00 0. -1.
         22   -1    0    0    0    0 -0.00000000000E+00 -0.00000000000E+00 -0.32924291456E+03  0.32924291456E+03  0.00000000000E+00 0. -1.
         24    2    1    2    0    0  0.63236413454E+02 -0.15985393171E+03 -0.22257535656E+02  0.19121393250E+03  0.80717077614E+02 0.  0.
         25    2    1    2    0    0 -0.10740731739E+03  0.39423968728E+03  0.15096654857E+03  0.45321083939E+03  0.12509157962E+03 0.  0.
        -24    2    1    2    0    0  0.44170903935E+02 -0.23438575558E+03  0.15010874954E+03  0.29287881970E+03  0.79734654729E+02 0.  0.
        -13    1    3    3    0    0  0.56609932344E+02 -0.74250433411E+02  0.20048375963E+02  0.95497375255E+02  0.00000000000E+00 0.  1.
         14    1    3    3    0    0  0.66264811104E+01 -0.85603498295E+02 -0.42305911619E+02  0.95716557242E+02  0.00000000000E+00 0. -1.
         11    1    5    5    0    0  0.58597817305E+02 -0.97402848573E+02  0.64310297359E+02  0.13060181258E+03  0.00000000000E+00 0. -1.
        -12    1    5    5    0    0 -0.14426913370E+02 -0.13698290700E+03  0.85798452186E+02  0.16227700711E+03  0.00000000000E+00 0.  1.
          5    1    4    4  501    0 -0.13522504424E+01  0.23419983845E+03  0.98723292885E+02  0.25419510985E+03  0.41800000000E+01 0. -1.
         -5    1    4    4    0  501 -0.10605506695E+03  0.16003984883E+03  0.52243255687E+02  0.19901572954E+03  0.41800000000E+01 0. -1.
</event>
<event>
11    1  0.7577197E-009  0.4674988E+03  0.7561462E-02  0.9469230E-01
         22   -1    0    0    0    0  0.00000000000E+00  0.00000000000E+00  0.80099044538E+03  0.80099044538E+03  0.00000000000E+00 0. -1.
         22   -1    0    0    0    0 -0.00000000000E+00 -0.00000000000E+00 -0.20078044214E+04  0.20078044214E+04  0.00000000000E+00 0. -1.
         24    2    1    2    0    0 -0.13288004091E+03 -0.22787279443E+03 -0.11644617052E+04  0.11967656896E+04  0.81816485021E+02 0.  0.
         25    2    1    2    0    0  0.38149322354E+03 -0.16032526354E+03 -0.68906219082E+03  0.81344127192E+03  0.12505490918E+03 0.  0.
        -24    2    1    2    0    0 -0.24861318263E+03  0.38819805796E+03  0.64670992002E+03  0.79858790524E+03  0.83681987062E+02 0.  0.
        -13    1    3    3    0    0 -0.17699445852E+01 -0.64362917952E+02 -0.21429438245E+03  0.22375835238E+03  0.00000000000E+00 0.  1.
         14    1    3    3    0    0 -0.13111009632E+03 -0.16350987647E+03 -0.95016732278E+03  0.97300733725E+03  0.00000000000E+00 0. -1.
         13    1    5    5    0    0 -0.21019428526E+03  0.37022540572E+03  0.57857663278E+03  0.71833098819E+03  0.00000000000E+00 0. -1.
        -14    1    5    5    0    0 -0.38418897375E+02  0.17972652241E+02  0.68133287238E+02  0.80256917047E+02  0.00000000000E+00 0.  1.
          5    1    4    4  501    0  0.25570296985E+03 -0.41274878383E+02 -0.41096001383E+03  0.48579134384E+03  0.41800000000E+01 0. -1.
         -5    1    4    4    0  501  0.12579025369E+03 -0.11905038515E+03 -0.27810217699E+03  0.32764992809E+03  0.41800000000E+01 0. -1.
</event>
<event>
11    1  0.7577197E-009  0.1417576E+03  0.7561462E-02  0.1105611E+00
         22   -1    0    0    0    0  0.00000000000E+00  0.00000000000E+00  0.30620310673E+03  0.30620310673E+03  0.00000000000E+00 0.  1.
         22   -1    0    0    0    0 -0.00000000000E+00 -0.00000000000E+00 -0.44931349891E+03  0.44931349891E+03  0.00000000000E+00 0. -1.
         24    2    1    2    0    0 -0.21580107356E+02  0.34130771302E+02 -0.31871848220E+03  0.33102732431E+03  0.79793533307E+02 0.  0.
         25    2    1    2    0    0  0.60478282149E+02 -0.83938844759E+02 -0.55371819972E+02  0.17148932061E+03  0.12505677257E+03 0.  0.
        -24    2    1    2    0    0 -0.38898174793E+02  0.49808073457E+02  0.23097990999E+03  0.25299996072E+03  0.81629339823E+02 0.  0.
        -11    1    3    3    0    0 -0.11153587171E+02  0.60534257087E+01 -0.19420599292E+01  0.12838148868E+02  0.00000000000E+00 0.  1.
         12    1    3    3    0    0 -0.10426520185E+02  0.28077345593E+02 -0.31677642227E+03  0.31818917544E+03  0.00000000000E+00 0. -1.
         13    1    5    5    0    0 -0.56013320625E+02  0.90748546578E+01  0.10282907193E+03  0.11744642655E+03  0.00000000000E+00 0. -1.
        -14    1    5    5    0    0  0.17115145832E+02  0.40733218800E+02  0.12815083806E+03  0.13555353417E+03  0.00000000000E+00 0.  1.
          5    1    4    4  501    0  0.95175461656E+02 -0.49982475004E+02 -0.58868838607E+02  0.12263616460E+03  0.41800000000E+01 0. -1.
         -5    1    4    4    0  501 -0.34697179508E+02 -0.33956369755E+02  0.34970186350E+01  0.48853156009E+02  0.41800000000E+01 0. -1.
</event>
<event>
11    1  0.7577197E-009  0.2413861E+03  0.7561462E-02  0.1028591E+00
         22   -1    0    0    0    0  0.00000000000E+00  0.00000000000E+00  0.45683365528E+03  0.45683365528E+03  0.00000000000E+00 0. -1.
         22   -1    0    0    0    0 -0.00000000000E+00 -0.00000000000E+00 -0.82529345374E+03  0.82529345374E+03  0.00000000000E+00 0.  1.
         24    2    1    2    0    0  0.28797841843E+02  0.61582858504E+02 -0.51623559696E+03  0.52696459904E+03  0.81060057494E+02 0.  0.
         25    2    1    2    0    0  0.18058591516E+03 -0.52647268379E+02 -0.22564521797E+03  0.31929420375E+03  0.12510002612E+03 0.  0.
        -24    2    1    2    0    0 -0.20938375700E+03 -0.89355901251E+01  0.37342101647E+03  0.43586830622E+03  0.81342008563E+02 0.  0.
        -11    1    3    3    0    0 -0.23597758179E+02  0.42528486944E+02 -0.28369069829E+03  0.28782970432E+03  0.00000000000E+00 0.  1.
         12    1    3    3    0    0  0.52395600022E+02  0.19054371560E+02 -0.23254489866E+03  0.23913489472E+03  0.00000000000E+00 0. -1.
         13    1    5    5    0    0 -0.16093370906E+03 -0.12706301365E+02  0.20705991864E+03  0.26255460140E+03  0.00000000000E+00 0. -1.
        -14    1    5    5    0    0 -0.48450047942E+02  0.37707112399E+01  0.16636109782E+03  0.17331370482E+03  0.00000000000E+00 0.  1.
          5    1    4    4  501    0  0.82121486232E+02 -0.87197963845E+02 -0.10144424122E+03  0.15702174969E+03  0.41800000000E+01 0.  1.
         -5    1    4    4    0  501  0.98464428929E+02  0.34550695466E+02 -0.12420097675E+03  0.16227245406E+03  0.41800000000E+01 0.  1.
</event>
<event>
11    1  0.7577197E-009  0.1349993E+03  0.7561462E-02  0.1113275E+00
         22   -1    0    0    0    0  0.00000000000E+00  0.00000000000E+00  0.11187940023E+04  0.11187940023E+04  0.00000000000E+00 0.  1.
         22   -1    0    0    0    0 -0.00000000000E+00 -0.00000000000E+00 -0.18308823774E+03  0.18308823774E+03  0.00000000000E+00 0. -1.
        -24    2    1    2    0    0  0.13928906702E+02  0.49181983660E+02 -0.15116091486E+03  0.17843901434E+03  0.79862242021E+02 0.  0.
         25    2    1    2    0    0 -0.18918941364E+02 -0.40345265772E+02  0.25315041658E+03  0.28586303796E+03  0.12508747438E+03 0.  0.
         24    2    1    2    0    0  0.49900346624E+01 -0.88367178881E+01  0.83371626286E+03  0.83758018776E+03  0.79716848539E+02 0.  0.
        -13    1    5    5    0    0 -0.60637310340E+01  0.84304602055E+01  0.78023011466E+03  0.78029922038E+03  0.00000000000E+00 0.  1.
         14    1    5    5    0    0  0.11053765696E+02 -0.17267178094E+02  0.53486148200E+02  0.57280967386E+02  0.00000000000E+00 0. -1.
         11    1    3    3    0    0 -0.61714591408E+01 -0.10341071967E+02 -0.89855038814E+02  0.90658439638E+02  0.00000000000E+00 0. -1.
        -12    1    3    3    0    0  0.20100365842E+02  0.59523055627E+02 -0.61305876045E+02  0.87780574706E+02  0.00000000000E+00 0.  1.
          5    1    4    4  501    0 -0.68462156586E+02 -0.42066503020E+02  0.12802291717E+03  0.15120845638E+03  0.41800000000E+01 0. -1.
         -5    1    4    4    0  501  0.49543215222E+02  0.17212372485E+01  0.12512749941E+03  0.13465458158E+03  0.41800000000E+01 0. -1.
</event>
<event>
11    1  0.7577197E-009  0.3187232E+03  0.7561462E-02  0.9925644E-01
         22   -1    0    0    0    0  0.00000000000E+00  0.00000000000E+00  0.10590436818E+04  0.10590436818E+04  0.00000000000E+00 0. -1.
         22   -1    0    0    0    0 -0.00000000000E+00 -0.00000000000E+00 -0.14409522208E+04  0.14409522208E+04  0.00000000000E+00 0.  1.
        -24    2    1    2    0    0  0.40435778966E+02  0.10047755652E+03 -0.61412832191E+03  0.62850035647E+03  0.78283527800E+02 0.  0.
         25    2    1    2    0    0 -0.16864274888E+03 -0.36078095452E+03 -0.74227971995E+03  0.85160288707E+03  0.12508005722E+03 0.  0.
         24    2    1    2    0    0  0.12820696992E+03  0.26030339800E+03  0.97449950285E+03  0.10198926591E+04  0.79604452894E+02 0.  0.
        -11    1    5    5    0    0 -0.43108549972E+01 -0.23274258189E+01  0.37028026934E+02  0.37350704951E+02  0.00000000000E+00 0.  1.
         12    1    5    5    0    0  0.13251782491E+03  0.26263082381E+03  0.93747147591E+03  0.98254195416E+03  0.00000000000E+00 0. -1.
         11    1    3    3    0    0 -0.10213463952E+02  0.58905398241E+02 -0.40379470130E+03  0.40819642525E+03  0.00000000000E+00 0. -1.
        -12    1    3    3    0    0  0.50649242918E+02  0.41572158284E+02 -0.21033362061E+03  0.22030393122E+03  0.00000000000E+00 0.  1.
          5    1    4    4  501    0 -0.87236492562E+02 -0.24939711332E+03 -0.37090693698E+03  0.45541031396E+03  0.41800000000E+01 0.  1.
         -5    1    4    4    0  501 -0.81406256320E+02 -0.11138384120E+03 -0.37137278298E+03  0.39619257311E+03  0.41800000000E+01 0.  1.
</event>
<event>
11    1  0.7577197E-009  0.2371064E+03  0.7561462E-02  0.1031001E+00
         22   -1    0    0    0    0  0.00000000000E+00  0.00000000000E+00  0.21187842382E+04  0.21187842382E+04  0.00000000000E+00 0.  1.
         22   -1    0    0    0    0 -0.00000000000E+00 -0.00000000000E+00 -0.29346689832E+03  0.29346689832E+03  0.00000000000E+00 0.  1.
         24    2    1    2    0    0  0.18882444378E+03 -0.59854040299E+02 -0.22265317569E+03  0.30882416547E+03  0.80998468032E+02 0.  0.
         25    2    1    2    0    0 -0.27506396335E+03  0.14045299068E+03  0.13137538507E+04  0.13553541053E+04  0.12509334144E+03 0.  0.
        -24    2    1    2    0    0  0.86239519568E+02 -0.80598950381E+02  0.73421666484E+03  0.74807286569E+03  0.81273955939E+02 0.  0.
        -11    1    3    3    0    0  0.18738588491E+03 -0.39365763598E+02 -0.21206140290E+03  0.28571519352E+03  0.00000000000E+00 0.  1.
         12    1    3    3    0    0  0.14385588723E+01 -0.20488276701E+02 -0.10591772788E+02  0.23108971950E+02  0.00000000000E+00 0. -1.
         11    1    5    5    0    0  0.49503876543E+02 -0.90413982571E+02  0.58949146003E+03  0.59843588084E+03  0.00000000000E+00 0. -1.
        -12    1    5    5    0    0  0.36735643025E+02  0.98150321898E+01  0.14472520481E+03  0.14963698484E+03  0.00000000000E+00 0.  1.
          5    1    4    4  501    0 -0.21756144184E+03  0.95747711401E+02  0.11726471510E+04  0.11965029956E+04  0.41800000000E+01 0.  1.
         -5    1    4    4    0  501 -0.57502521514E+02  0.44705279279E+02  0.14110669966E+03  0.15885110974E+03  0.41800000000E+01 0.  1.
</event>
<event>
11    1  0.7577197E-009  0.1897048E+03  0.7561462E-02  0.1062052E+00
         22   -1    0    0    0    0  0.00000000000E+00  0.00000000000E+00  0.19760643065E+03  0.19760643065E+03  0.00000000000E+00 0. -1.
         22   -1    0    0    0    0 -0.00000000000E+00 -0.00000000000E+00 -0.64767324321E+03  0.64767324321E+03  0.00000000000E+00 0.  1.
        -24    2    1    2    0    0 -0.28038267768E+02 -0.58653465468E+02 -0.46168547031E+03  0.47235276898E+03  0.75744910031E+02 0.  0.
         25    2    1    2    0    0  0.53353997940E+01  0.18122172727E+03 -0.20458806262E+02  0.22121285578E+03  0.12508710517E+03 0.  0.
         24    2    1    2    0    0  0.22702867974E+02 -0.12256826180E+03  0.32077464014E+02  0.15171404911E+03  0.80310584515E+02 0.  0.
        -11    1    5    5    0    0  0.23170756104E+02 -0.60589135167E+02 -0.22972085884E+02  0.68816015349E+02  0.00000000000E+00 0.  1.
         12    1    5    5    0    0 -0.46788812977E+00 -0.61979126636E+02  0.55049549898E+02  0.82898033763E+02  0.00000000000E+00 0. -1.
         13    1    3    3    0    0 -0.24219062409E+02  0.13044634591E+02 -0.15029996560E+03  0.15279661363E+03  0.00000000000E+00 0. -1.
        -14    1    3    3    0    0 -0.38192053595E+01 -0.71698100058E+02 -0.31138550471E+03  0.31955615535E+03  0.00000000000E+00 0.  1.
          5    1    4    4  501    0 -0.49336421251E+02  0.74268013244E+02  0.25030294127E+02  0.92702795412E+02  0.41800000000E+01 0.  1.
         -5    1    4    4    0  501  0.54671821045E+02  0.10695371403E+03 -0.45489100389E+02  0.12851006036E+03  0.41800000000E+01 0.  1.
</event>
<event>
11    1  0.7577197E-009  0.1278241E+03  0.7561462E-02  0.1121972E+00
         22   -1    0    0    0    0  0.00000000000E+00  0.00000000000E+00  0.53350144836E+03  0.53350144836E+03  0.00000000000E+00 0.  1.
         22   -1    0    0    0    0 -0.00000000000E+00 -0.00000000000E+00 -0.65875274591E+03  0.65875274591E+03  0.00000000000E+00 0. -1.
         24    2    1    2    0    0  0.15924041539E+02  0.30195952558E+02 -0.54502991384E+03  0.55181999517E+03  0.79261147126E+02 0.  0.
         25    2    1    2    0    0 -0.31625549898E+02 -0.49761267177E+02 -0.61350046009E+02  0.15128507463E+03  0.12508791526E+03 0.  0.
        -24    2    1    2    0    0  0.15701508359E+02  0.19565314620E+02  0.48112866231E+03  0.48914912446E+03  0.84573857473E+02 0.  0.
        -11    1    3    3    0    0 -0.30180210958E+01 -0.11051308526E+02 -0.11057350536E+02  0.15921836337E+02  0.00000000000E+00 0.  1.
         12    1    3    3    0    0  0.18942062635E+02  0.41247261083E+02 -0.53397256330E+03  0.53589815884E+03  0.00000000000E+00 0. -1.
         13    1    5    5    0    0  0.21144907776E+02 -0.35545363783E+01  0.27367203453E+02  0.34766444721E+02  0.00000000000E+00 0. -1.
        -14    1    5    5    0    0 -0.54433994170E+01  0.23119850998E+02  0.45376145885E+03  0.45438267974E+03  0.00000000000E+00 0.  1.
          5    1    4    4  501    0 -0.76314314304E+02 -0.52371665262E+02 -0.48218598361E+02  0.10444697946E+03  0.41800000000E+01 0.  1.
         -5    1    4    4    0  501  0.44688764406E+02  0.26103980847E+01 -0.13131447648E+02  0.46838095175E+02  0.41800000000E+01 0.  1.
</event>
<event>
11    1  0.7577197E-009  0.1501448E+03  0.7561462E-02  0.1096731E+00
         22   -1    0    0    0    0  0.00000000000E+00  0.00000000000E+00  0.26332941114E+04  0.26332941114E+04  0.00000000000E+00 0. -1.
         22   -1    0    0    0    0 -0.00000000000E+00 -0.00000000000E+00 -0.12692533732E+04  0.12692533732E+04  0.00000000000E+00 0. -1.
        -24    2    1    2    0    0  0.13984905933E+01  0.30309961510E+02 -0.12373408588E+04  0.12404068020E+04  0.81706695750E+02 0.  0.
         25    2    1    2    0    0  0.49913241771E+02 -0.94280999457E+02  0.20408453051E+03  0.26206120271E+03  0.12508133278E+03 0.  0.
         24    2    1    2    0    0 -0.51311732365E+02  0.63971037947E+02  0.23972970665E+04  0.24000794799E+04  0.81382411392E+02 0.  0.
        -13    1    5    5    0    0  0.12687986413E+02 -0.63816439488E+01  0.12709663284E+03  0.12788770252E+03  0.00000000000E+00 0.  1.
         14    1    5    5    0    0 -0.63999718778E+02  0.70352681896E+02  0.22702004337E+04  0.22721917774E+04  0.00000000000E+00 0. -1.
         13    1    3    3    0    0 -0.25733294599E+02  0.48139072041E+02 -0.80529782718E+03  0.80714568894E+03  0.00000000000E+00 0. -1.
        -14    1    3    3    0    0  0.27131785192E+02 -0.17829110530E+02 -0.43204303159E+03  0.43326111307E+03  0.00000000000E+00 0.  1.
          5    1    4    4  501    0  0.80949559696E+02 -0.94521578191E+02  0.19125608914E+03  0.22821815001E+03  0.41800000000E+01 0.  1.
         -5    1    4    4    0  501 -0.31036317925E+02  0.24057873364E+00  0.12828441374E+02  0.33843052707E+02  0.41800000000E+01 0.  1.
</event>
<event>
11    1  0.7577197E-009  0.1339248E+03  0.7561462E-02  0.1114539E+00
         22   -1    0    0    0    0  0.00000000000E+00  0.00000000000E+00  0.10942163444E+04  0.10942163444E+04  0.00000000000E+00 0. -1.
         22   -1    0    0    0    0 -0.00000000000E+00 -0.00000000000E+00 -0.16209950779E+03  0.16209950779E+03  0.00000000000E+00 0.  1.
         24    2    1    2    0    0 -0.27012051688E+02 -0.37566856196E+02 -0.12897937673E+03  0.15912979500E+03  0.80905453565E+02 0.  0.
         25    2    1    2    0    0  0.45496588909E+02  0.76393903684E+02  0.37657785461E+03  0.40664982189E+03  0.12508888412E+03 0.  0.
        -24    2    1    2    0    0 -0.18484537221E+02 -0.38827047488E+02  0.68451835873E+03  0.69053623530E+03  0.80160408565E+02 0.  0.
        -11    1    3    3    0    0 -0.38724767821E+01 -0.58598194553E+02 -0.63060911474E+02  0.86170894374E+02  0.00000000000E+00 0.  1.
         12    1    3    3    0    0 -0.23139574906E+02  0.21031338357E+02 -0.65918465251E+02  0.72958900629E+02  0.00000000000E+00 0. -1.
         11    1    5    5    0    0 -0.36408789342E+02 -0.50642075969E+02  0.60376201865E+03  0.60697511890E+03  0.00000000000E+00 0. -1.
        -12    1    5    5    0    0  0.17924252121E+02  0.11815028481E+02  0.80756340081E+02  0.83561116408E+02  0.00000000000E+00 0.  1.
          5    1    4    4  501    0  0.38452237869E+02  0.10447873647E+03  0.21198771110E+03  0.23947994285E+03  0.41800000000E+01 0.  1.
         -5    1    4    4    0  501  0.70443510396E+01 -0.28084832784E+02  0.16459014352E+03  0.16716987904E+03  0.41800000000E+01 0.  1.
</event>
<event>
11    1  0.7577197E-009  0.1567913E+03  0.7561462E-02  0.1090135E+00
         22   -1    0    0    0    0  0.00000000000E+00  0.00000000000E+00  0.17516722335E+03  0.17516722335E+03  0.00000000000E+00 0. -1.
         22   -1    0    0    0    0 -0.00000000000E+00 -0.00000000000E+00 -0.20875849285E+04  0.20875849285E+04  0.00000000000E+00 0. -1.
        -24    2    1    2    0    0 -0.64874032643E+02 -0.67710384469E+02 -0.19132776821E+04  0.19173488585E+04  0.82473149176E+02 0.  0.
         25    2    1    2    0    0  0.97975277299E+02  0.60261686070E+02 -0.11281943297E+03  0.20397652777E+03  0.12509026203E+03 0.  0.
         24    2    1    2    0    0 -0.33101244657E+02  0.74486983981E+01  0.11367940992E+03  0.14142676551E+03  0.76989260665E+02 0.  0.
        -13    1    5    5    0    0  0.68597710907E+01  0.34473648399E+02  0.57336243973E+02  0.67252760288E+02  0.00000000000E+00 0.  1.
         14    1    5    5    0    0 -0.39961015747E+02 -0.27024950001E+02  0.56343165950E+02  0.74174005227E+02  0.00000000000E+00 0. -1.
         11    1    3    3    0    0 -0.24408051668E+02 -0.61925480059E+02 -0.64770402327E+03  0.65111521241E+03  0.00000000000E+00 0. -1.
        -12    1    3    3    0    0 -0.40465980974E+02 -0.57849044093E+01 -0.12655736588E+04  0.12662336461E+04  0.00000000000E+00 0.  1.
          5    1    4    4  501    0  0.12680028808E+03  0.41661041008E+02 -0.76733537853E+02  0.15401124513E+03  0.41800000000E+01 0. -1.
         -5    1    4    4    0  501 -0.28825010778E+02  0.18600645063E+02 -0.36085895115E+02  0.49965282640E+02  0.41800000000E+01 0. -1.
</event>
<event>
11    1  0.7577197E-009  0.1581697E+03  0.7561462E-02  0.1088811E+00
         22   -1    0    0    0    0  0.00000000000E+00  0.00000000000E+00  0.79811134632E+03  0.79811134632E+03  0.00000000000E+00 0.  1.
         22   -1    0    0    0    0 -0.00000000000E+00 -0.00000000000E+00 -0.15076720112E+03  0.15076720112E+03  0.00000000000E+00 0.  1.
        -24    2    1    2    0    0  0.13710080716E+02  0.50668126642E+02 -0.95099967139E+02  0.13357336207E+03  0.77734252000E+02 0.  0.
         25    2    1    2    0    0  0.82277111926E+02 -0.66495420830E+02  0.20448462145E+03  0.26201732931E+03  0.12509179153E+03 0.  0.
         24    2    1    2    0    0 -0.95987192642E+02  0.15827294187E+02  0.53795949089E+03  0.55328785606E+03  0.85223197730E+02 0.  0.
        -11    1    5    5    0    0 -0.38485037821E+02 -0.32873868312E+02  0.28039626191E+03  0.28492780322E+03  0.00000000000E+00 0.  1.
         12    1    5    5    0    0 -0.57502154821E+02  0.48701162500E+02  0.25756322897E+03  0.26836005283E+03  0.00000000000E+00 0. -1.
         13    1    3    3    0    0  0.18930872408E+02  0.51317403654E+02 -0.19924059341E+02  0.58213589381E+02  0.00000000000E+00 0. -1.
        -14    1    3    3    0    0 -0.52207916921E+01 -0.64927701155E+00 -0.75175907798E+02  0.75359772689E+02  0.00000000000E+00 0.  1.
          5    1    4    4  501    0  0.11456211925E+03 -0.63584978430E+02  0.16103520752E+03  0.20764715050E+03  0.41800000000E+01 0. -1.
         -5    1    4    4    0  501 -0.32285007323E+02 -0.29104423991E+01  0.43449413929E+02  0.54370178807E+02  0.41800000000E+01 0. -1.
</event>
<event>
11    1  0.7577197E-009  0.1922178E+03  0.7561462E-02  0.1060167E+00
         22   -1    0    0    0    0  0.00000000000E+00  0.00000000000E+00  0.45219386370E+03  0.45219386370E+03  0.00000000000E+00 0. -1.
         22   -1    0    0    0    0 -0.00000000000E+00 -0.00000000000E+00 -0.20150979070E+03  0.20150979070E+03  0.00000000000E+00 0.  1.
        -24    2    1    2    0    0  0.14859003887E+03  0.11189136640E+03 -0.52428914946E+02  0.20850074371E+03  0.78262963634E+02 0.  0.
         25    2    1    2    0    0 -0.96064147194E+02  0.66238824725E+01  0.85654523423E+02  0.17960648335E+03  0.12509834245E+03 0.  0.
         24    2    1    2    0    0 -0.52525891675E+02 -0.11851524888E+03  0.21745846453E+03  0.26559642734E+03  0.80302209864E+02 0.  0.
        -11    1    5    5    0    0  0.43956989441E+01  0.10505435786E+02  0.14040912366E+02  0.18078538943E+02  0.00000000000E+00 0.  1.
         12    1    5    5    0    0 -0.56921590619E+02 -0.12902068466E+03  0.20341755216E+03  0.24751788840E+03  0.00000000000E+00 0. -1.
         11    1    3    3    0    0  0.12126240771E+03  0.96696256008E+02 -0.94932916530E+01  0.15538616424E+03  0.00000000000E+00 0. -1.
        -12    1    3    3    0    0  0.27327631159E+02  0.15195110395E+02 -0.42935623293E+02  0.53114579470E+02  0.00000000000E+00 0.  1.
          5    1    4    4  501    0 -0.86568956407E+02  0.41534499089E+02  0.10159515341E+03  0.13985115811E+03  0.41800000000E+01 0. -1.
         -5    1    4    4    0  501 -0.94951907873E+01 -0.34910616616E+02 -0.15940629991E+02  0.39755325242E+02  0.41800000000E+01 0. -1.
</event>
<event>
11    1  0.7577197E-009  0.1589914E+03  0.7561462E-02  0.1088030E+00
         22   -1    0    0    0    0  0.00000000000E+00  0.00000000000E+00  0.18683048061E+03  0.18683048061E+03  0.00000000000E+00 0. -1.
         22   -1    0    0    0    0 -0.00000000000E+00 -0.00000000000E+00 -0.26956481028E+04  0.26956481028E+04  0.00000000000E+00 0. -1.
        -24    2    1    2    0    0 -0.87759045557E+02 -0.40893791182E+02 -0.21726409705E+04  0.21762807825E+04  0.80344916573E+02 0.  0.
         25    2    1    2    0    0  0.83251166658E+02  0.75811856486E+02 -0.49597821827E+03  0.52375669320E+03  0.12509391009E+03 0.  0.
         24    2    1    2    0    0  0.45078788984E+01 -0.34918065304E+02  0.15980156654E+03  0.18244110767E+03  0.80676048755E+02 0.  0.
        -13    1    5    5    0    0  0.14272278467E+02  0.13163324719E+02  0.49980841451E+01  0.20048738001E+02  0.00000000000E+00 0.  1.
         14    1    5    5    0    0 -0.97643995687E+01 -0.48081390022E+02  0.15480348240E+03  0.16239236967E+03  0.00000000000E+00 0. -1.
         13    1    3    3    0    0 -0.87169791816E+02 -0.47304781638E+02 -0.21581071813E+04  0.21603849011E+04  0.00000000000E+00 0. -1.
        -14    1    3    3    0    0 -0.58925374073E+00  0.64109904553E+01 -0.14533789201E+02  0.15895881452E+02  0.00000000000E+00 0.  1.
          5    1    4    4  501    0  0.80772206240E+02  0.72816657434E+00 -0.15794232741E+03  0.17744838888E+03  0.41800000000E+01 0.  1.
         -5    1    4    4    0  501  0.24789604181E+01  0.75083689911E+02 -0.33803589086E+03  0.34630830432E+03  0.41800000000E+01 0.  1.
</event>
<event>
11    1  0.7577197E-009  0.1547593E+03  0.7561462E-02  0.1092113E+00
         22   -1    0    0    0    0  0.00000000000E+00  0.00000000000E+00  0.34520422790E+03  0.34520422790E+03  0.00000000000E+00 0.  1.
         22   -1    0    0    0    0 -0.00000000000E+00 -0.00000000000E+00 -0.15431074601E+03  0.15431074601E+03  0.00000000000E+00 0. -1.
         24    2    1    2    0    0  0.24502747898E+02  0.25067938050E+01 -0.72424911532E+02  0.11177914120E+03  0.81501778678E+02 0.  0.
         25    2    1    2    0    0 -0.55607521450E+02 -0.83516563531E+02  0.12157322337E+03  0.20123282723E+03  0.12508952509E+03 0.  0.
        -24    2    1    2    0    0  0.31104773552E+02  0.81009769726E+02  0.14174517006E+03  0.18650300548E+03  0.84626166701E+02 0.  0.
        -13    1    3    3    0    0 -0.16164246305E+02 -0.28871310108E+02 -0.21572797569E+02  0.39499632922E+02  0.00000000000E+00 0.  1.
         14    1    3    3    0    0  0.40666994203E+02  0.31378103914E+02 -0.50852113963E+02  0.72279508280E+02  0.00000000000E+00 0. -1.
         11    1    5    5    0    0  0.52807968962E+02  0.29900875910E+02  0.47288389578E+02  0.76934620003E+02  0.00000000000E+00 0. -1.
        -12    1    5    5    0    0 -0.21703195410E+02  0.51108893816E+02  0.94456780477E+02  0.10956838548E+03  0.00000000000E+00 0.  1.
          5    1    4    4  501    0 -0.89333731102E+02 -0.30169456875E+02  0.90496964675E+02  0.13075887984E+03  0.41800000000E+01 0. -1.
         -5    1    4    4    0  501  0.33726209653E+02 -0.53347106656E+02  0.31076258695E+02  0.70473947389E+02  0.41800000000E+01 0. -1.
</event>
<event>
11    1  0.7577197E-009  0.1328224E+03  0.7561462E-02  0.1115849E+00
         22   -1    0    0    0    0  0.00000000000E+00  0.00000000000E+00  0.11925418232E+03  0.11925418232E+03  0.00000000000E+00 0.  1.
         22   -1    0    0    0    0 -0.00000000000E+00 -0.00000000000E+00 -0.82422357547E+03  0.82422357547E+03  0.00000000000E+00 0.  1.
        -24    2    1    2    0    0  0.23018466489E+02  0.40254495210E+02 -0.55832771870E+03  0.56608782694E+03  0.81088298503E+02 0.  0.
         25    2    1    2    0    0 -0.44259200680E+02 -0.14532962696E+02 -0.22365678469E+03  0.26046212552E+03  0.12509227651E+03 0.  0.
         24    2    1    2    0    0  0.21240734191E+02 -0.25721532514E+02  0.77015110235E+02  0.11692780533E+03  0.81412642946E+02 0.  0.
        -13    1    5    5    0    0  0.25200670043E+01 -0.28193013382E+02  0.89779104146E+02  0.94135457095E+02  0.00000000000E+00 0.  1.
         14    1    5    5    0    0  0.18720667187E+02  0.24714808677E+01 -0.12763993911E+02  0.22792348237E+02  0.00000000000E+00 0. -1.
         11    1    3    3    0    0  0.84074138618E+00 -0.22683403738E+02 -0.81082923378E+02  0.84200261964E+02  0.00000000000E+00 0. -1.
        -12    1    3    3    0    0  0.22177725103E+02  0.62937898948E+02 -0.47724479532E+03  0.48188756498E+03  0.00000000000E+00 0.  1.
          5    1    4    4  501    0  0.17195409621E+02  0.19694395035E+02 -0.16958587211E+03  0.17164029751E+03  0.41800000000E+01 0. -1.
         -5    1    4    4    0  501 -0.61454610300E+02 -0.34227357731E+02 -0.54070912572E+02  0.88821828009E+02  0.41800000000E+01 0. -1.
</event>
<event>
11    1  0.7577197E-009  0.1279758E+03  0.7561462E-02  0.1121781E+00
         22   -1    0    0    0    0  0.00000000000E+00  0.00000000000E+00  0.31779099575E+03  0.31779099575E+03  0.00000000000E+00 0. -1.
         22   -1    0    0    0    0 -0.00000000000E+00 -0.00000000000E+00 -0.32055712764E+03  0.32055712764E+03  0.00000000000E+00 0. -1.
         24    2    1    2    0    0 -0.25063990007E+02  0.22268271276E+01 -0.26109896622E+03  0.27940497054E+03  0.96235674491E+02 0.  0.
         25    2    1    2    0    0  0.48348284285E+02 -0.27133520559E+02  0.79747681535E+02  0.15836969046E+03  0.12508989414E+03 0.  0.
        -24    2    1    2    0    0 -0.23284294278E+02  0.24906693431E+02  0.17858515279E+03  0.20057346240E+03  0.84702746597E+02 0.  0.
        -11    1    3    3    0    0 -0.47072209283E+02  0.24956378983E+02 -0.83783012115E+02  0.99288503150E+02  0.00000000000E+00 0.  1.
         12    1    3    3    0    0  0.22008219276E+02 -0.22729551856E+02 -0.17731595411E+03  0.18011646739E+03  0.00000000000E+00 0. -1.
         13    1    5    5    0    0 -0.50492443997E+02 -0.51565851019E+01  0.10032859618E+03  0.11243622406E+03  0.00000000000E+00 0. -1.
        -14    1    5    5    0    0  0.27208149719E+02  0.30063278533E+02  0.78256556616E+02  0.88137238332E+02  0.00000000000E+00 0.  1.
          5    1    4    4  501    0  0.51128917623E+02 -0.19775503577E+02  0.11207696771E+03  0.12483571545E+03  0.41800000000E+01 0.  1.
         -5    1    4    4    0  501 -0.27806333385E+01 -0.73580169820E+01 -0.32329286179E+02  0.33533975018E+02  0.41800000000E+01 0.  1.
</event>
<event>
11    1  0.7577197E-009  0.1497503E+03  0.7561462E-02  0.1097134E+00
         22   -1    0    0    0    0  0.00000000000E+00  0.00000000000E+00  0.54886223362E+03  0.54886223362E+03  0.00000000000E+00 0.  1.
         22   -1    0    0    0    0 -0.00000000000E+00 -0.00000000000E+00 -0.21067338310E+03  0.21067338310E+03  0.00000000000E+00 0.  1.
         24    2    1    2    0    0 -0.16130412498E+02  0.64040956734E+02 -0.12372647341E+03  0.16122370272E+03  0.79519857578E+02 0.  0.
         25    2    1    2    0    0  0.88889955572E+02 -0.91086502968E+02  0.72390746720E+02  0.19257754894E+03  0.12509003526E+03 0.  0.
        -24    2    1    2    0    0 -0.72759543074E+02  0.27045546234E+02  0.38952457722E+03  0.40573436506E+03  0.82858711372E+02 0.  0.
        -11    1    3    3    0    0  0.23170078928E+01  0.70634403407E+01 -0.94124966621E+02  0.94418060012E+02  0.00000000000E+00 0.  1.
         12    1    3    3    0    0 -0.18447420391E+02  0.56977516393E+02 -0.29601506791E+02  0.66805642709E+02  0.00000000000E+00 0. -1.
         11    1    5    5    0    0  0.16418783877E+01  0.67765141650E+01 -0.15390165672E+01  0.71404118133E+01  0.00000000000E+00 0. -1.
        -12    1    5    5    0    0 -0.74401421462E+02  0.20269032069E+02  0.39106359379E+03  0.39859395324E+03  0.00000000000E+00 0.  1.
          5    1    4    4  501    0 -0.77435752872E+01 -0.28006298625E+02  0.71288886646E+02  0.77096650252E+02  0.41800000000E+01 0. -1.
         -5    1    4    4    0  501  0.96633530859E+02 -0.63080204343E+02  0.11018600743E+01  0.11548089869E+03  0.41800000000E+01 0. -1.
</event>
<event>
11    1  0.7577197E-009  0.1347922E+03  0.7561462E-02  0.1113517E+00
         22   -1    0    0    0    0  0.00000000000E+00  0.00000000000E+00  0.27675743590E+03  0.27675743590E+03  0.00000000000E+00 0.  1.
         22   -1    0    0    0    0 -0.00000000000E+00 -0.00000000000E+00 -0.56694767238E+03  0.56694767238E+03  0.00000000000E+00 0.  1.
        -24    2    1    2    0    0  0.19350280038E+02 -0.94465335474E+00 -0.22983423376E+03  0.24436454563E+03  0.80715119045E+02 0.  0.
         25    2    1    2    0    0 -0.67692940500E+02 -0.10679446161E+02 -0.30520959042E+03  0.33689240402E+03  0.12508882061E+03 0.  0.
         24    2    1    2    0    0  0.48342660462E+02  0.11624099516E+02  0.24485358770E+03  0.26244815862E+03  0.80334451162E+02 0.  0.
        -11    1    5    5    0    0  0.13808127438E+02  0.38272536499E+02  0.17822719245E+03  0.18281242726E+03  0.00000000000E+00 0.  1.
         12    1    5    5    0    0  0.34534533024E+02 -0.26648436983E+02  0.66626395256E+02  0.79635731362E+02  0.00000000000E+00 0. -1.
         11    1    3    3    0    0  0.45609918217E+02 -0.18127028300E+02 -0.10932988563E+03  0.11984105176E+03  0.00000000000E+00 0. -1.
        -12    1    3    3    0    0 -0.26259638179E+02  0.17182374945E+02 -0.12050434814E+03  0.12452349387E+03  0.00000000000E+00 0.  1.
          5    1    4    4  501    0 -0.46711120220E+02  0.48415892942E+02 -0.22565620129E+03  0.23550843089E+03  0.41800000000E+01 0.  1.
         -5    1    4    4    0  501 -0.20981820279E+02 -0.59095339103E+02 -0.79553389132E+02  0.10138397313E+03  0.41800000000E+01 0.  1.
</event>
<event>
11    1  0.7577197E-009  0.1503214E+03  0.7561462E-02  0.1096551E+00
         22   -1    0    0    0    0  0.00000000000E+00  0.00000000000E+00  0.25095148380E+02  0.25095148380E+02  0.00000000000E+00 0.  1.
         22   -1    0    0    0    0 -0.00000000000E+00 -0.00000000000E+00 -0.34323181413E+04  0.34323181413E+04  0.00000000000E+00 0.  1.
        -24    2    1    2    0    0  0.24930558758E+02  0.23003906579E+02 -0.18287912688E+04  0.18316076618E+04  0.95699580074E+02 0.  0.
         25    2    1    2    0    0  0.53983230056E+02 -0.54249983959E+02 -0.14263314695E+04  0.14338501989E+04  0.12509069593E+03 0.  0.
         24    2    1    2    0    0 -0.78913788814E+02  0.31246077380E+02 -0.15210025463E+03  0.19195542891E+03  0.80676488597E+02 0.  0.
        -13    1    5    5    0    0 -0.61084988145E+02 -0.41754059569E+01 -0.40222264644E+02  0.73257357069E+02  0.00000000000E+00 0.  1.
         14    1    5    5    0    0 -0.17828800669E+02  0.35421483337E+02 -0.11187798999E+03  0.11869807184E+03  0.00000000000E+00 0. -1.
         13    1    3    3    0    0  0.66246589057E+01 -0.33692159245E+02 -0.36701272336E+03  0.36861549996E+03  0.00000000000E+00 0. -1.
        -14    1    3    3    0    0  0.18305899852E+02  0.56696065824E+02 -0.14617785454E+04  0.14629921619E+04  0.00000000000E+00 0.  1.
          5    1    4    4  501    0  0.19823399767E+02 -0.39962909729E+02 -0.13270531999E+04  0.13278093497E+04  0.41800000000E+01 0.  1.
         -5    1    4    4    0  501  0.34159830289E+02 -0.14287074230E+02 -0.99278269587E+02  0.10604084924E+03  0.41800000000E+01 0.  1.
</event>
<event>
11    1  0.7577197E-009  0.2429152E+03  0.7561462E-02  0.1027743E+00
         22   -1    0    0    0    0  0.00000000000E+00  0.00000000000E+00  0.12400719347E+04  0.12400719347E+04  0.00000000000E+00 0. -1.
         22   -1    0    0    0    0 -0.00000000000E+00 -0.00000000000E+00 -0.91201141071E+03  0.91201141071E+03  0.00000000000E+00 0.  1.
         24    2    1    2    0    0 -0.21580069836E+02  0.36603712320E+02 -0.86523841740E+03  0.87004466425E+03  0.80837291384E+02 0.  0.
         25    2    1    2    0    0  0.21771962551E+03  0.88069484299E+01  0.65014784063E+03  0.69700651038E+03  0.12508582319E+03 0.  0.
        -24    2    1    2    0    0 -0.19613955567E+03 -0.45410660749E+02  0.54315110073E+03  0.58503217076E+03  0.81955287698E+02 0.  0.
        -11    1    3    3    0    0 -0.56967542654E+01  0.32381815246E+02 -0.83484610554E+03  0.83549330033E+03  0.00000000000E+00 0.  1.
         12    1    3    3    0    0 -0.15883315571E+02  0.42218970736E+01 -0.30392311865E+02  0.34551363922E+02  0.00000000000E+00 0. -1.
         13    1    5    5    0    0 -0.83375253503E+02  0.21417728102E+02  0.22792351393E+03  0.24363760009E+03  0.00000000000E+00 0. -1.
        -14    1    5    5    0    0 -0.11276430217E+03 -0.66828388851E+02  0.31522758680E+03  0.34139457067E+03  0.00000000000E+00 0.  1.
          5    1    4    4  501    0  0.10994128648E+03  0.24670161085E+02  0.49310614282E+03  0.50583282199E+03  0.41800000000E+01 0.  1.
         -5    1    4    4    0  501  0.10777833903E+03 -0.15863212655E+02  0.15704169782E+03  0.19117368839E+03  0.41800000000E+01 0.  1.
</event>
<event>
11    1  0.7577197E-009  0.1566653E+03  0.7561462E-02  0.1090256E+00
         22   -1    0    0    0    0  0.00000000000E+00  0.00000000000E+00  0.55331654717E+03  0.55331654717E+03  0.00000000000E+00 0.  1.
         22   -1    0    0    0    0 -0.00000000000E+00 -0.00000000000E+00 -0.52982544467E+03  0.52982544467E+03  0.00000000000E+00 0. -1.
         24    2    1    2    0    0 -0.95705488394E+02 -0.35759098832E+01 -0.49616367804E+03  0.51151889371E+03  0.79377928717E+02 0.  0.
         25    2    1    2    0    0  0.44350411939E+02 -0.11063533213E+02  0.25051804455E+03  0.28371758079E+03  0.12508802579E+03 0.  0.
        -24    2    1    2    0    0  0.51355076454E+02  0.14639443096E+02  0.26913673600E+03  0.28790551735E+03  0.87197173628E+02 0.  0.
        -11    1    3    3    0    0 -0.19800157286E+01 -0.13835219338E+02 -0.12498862999E+02  0.18749808870E+02  0.00000000000E+00 0.  1.
         12    1    3    3    0    0 -0.93725472665E+02  0.10259309454E+02 -0.48366481505E+03  0.49276908484E+03  0.00000000000E+00 0. -1.
         11    1    5    5    0    0 -0.80067394170E+01  0.37538811439E+02  0.11099779596E+03  0.11744692822E+03  0.00000000000E+00 0. -1.
        -12    1    5    5    0    0  0.59361815871E+02 -0.22899368342E+02  0.15813894004E+03  0.17045858914E+03  0.00000000000E+00 0.  1.
          5    1    4    4  501    0  0.85602162435E+02 -0.71619730031E+00  0.12874938416E+03  0.15466777128E+03  0.41800000000E+01 0. -1.
         -5    1    4    4    0  501 -0.41251750496E+02 -0.10347335913E+02  0.12176866039E+03  0.12904980951E+03  0.41800000000E+01 0. -1.
</event>
<event>
11    1  0.7577197E-009  0.1742510E+03  0.7561462E-02  0.1074390E+00
         22   -1    0    0    0    0  0.00000000000E+00  0.00000000000E+00  0.16986778898E+04  0.16986778898E+04  0.00000000000E+00 0.  1.
         22   -1    0    0    0    0 -0.00000000000E+00 -0.00000000000E+00 -0.10448336775E+04  0.10448336775E+04  0.00000000000E+00 0. -1.
        -24    2    1    2    0    0 -0.11699736081E+02  0.67296461304E+02 -0.10042862574E+04  0.10097471177E+04  0.79577995345E+02 0.  0.
         25    2    1    2    0    0 -0.59980384643E+02  0.37873902053E+02  0.11713786616E+03  0.18547670007E+03  0.12509295577E+03 0.  0.
         24    2    1    2    0    0  0.71680120724E+02 -0.10517036336E+03  0.15409926035E+04  0.15482877496E+04  0.79610968400E+02 0.  0.
        -13    1    5    5    0    0  0.27601210420E+02 -0.95381026726E+02  0.12345248913E+04  0.12385116367E+04  0.00000000000E+00 0.  1.
         14    1    5    5    0    0  0.44078910305E+02 -0.97893366317E+01  0.30646771228E+03  0.30977611289E+03  0.00000000000E+00 0. -1.
         11    1    3    3    0    0  0.33750551328E+00  0.47528467598E+02 -0.94361428032E+03  0.94481055200E+03  0.00000000000E+00 0. -1.
        -12    1    3    3    0    0 -0.12037241595E+02  0.19767993706E+02 -0.60671977060E+02  0.64936565668E+02  0.00000000000E+00 0.  1.
          5    1    4    4  501    0 -0.66294445714E+02  0.24114273345E+02  0.34954051275E+01  0.70754095066E+02  0.41800000000E+01 0.  1.
         -5    1    4    4    0  501  0.63140610715E+01  0.13759628708E+02  0.11364246104E+03  0.11472260501E+03  0.41800000000E+01 0.  1.
</event>
<event>
11    1  0.7577197E-009  0.1669827E+03  0.7561462E-02  0.1080688E+00
         22   -1    0    0    0    0  0.00000000000E+00  0.00000000000E+00  0.24463516746E+03  0.24463516746E+03  0.00000000000E+00 0. -1.
         22   -1    0    0    0    0 -0.00000000000E+00 -0.00000000000E+00 -0.76294746297E+03  0.76294746297E+03  0.00000000000E+00 0. -1.
         24    2    1    2    0    0 -0.53863015806E+02  0.52623901795E+01 -0.62895204067E+03  0.63539489292E+03  0.72229379480E+02 0.  0.
         25    2    1    2    0    0  0.95411998124E+01  0.10163390115E+03 -0.38096878954E+02  0.16589246657E+03  0.12509378051E+03 0.  0.
        -24    2    1    2    0    0  0.44321815994E+02 -0.10689629133E+03  0.14873662411E+03  0.20629527094E+03  0.83928034582E+02 0.  0.
        -13    1    3    3    0    0  0.25757109068E+01 -0.18315175844E+01  0.65152530688E+00  0.32269534491E+01  0.00000000000E+00 0.  1.
         14    1    3    3    0    0 -0.56438726713E+02  0.70939077639E+01 -0.62960356598E+03  0.63216793947E+03  0.00000000000E+00 0. -1.
         11    1    5    5    0    0  0.11063218128E+02 -0.24744063152E+02  0.10310645378E+03  0.10660958807E+03  0.00000000000E+00 0. -1.
        -12    1    5    5    0    0  0.33258597866E+02 -0.82152228174E+02  0.45630170332E+02  0.99685682877E+02  0.00000000000E+00 0.  1.
          5    1    4    4  501    0 -0.34458604240E+02 -0.17795523627E+01 -0.40544893913E+02  0.53403399098E+02  0.41800000000E+01 0. -1.
         -5    1    4    4    0  501  0.43999804052E+02  0.10341345351E+03  0.24480149595E+01  0.11248906747E+03  0.41800000000E+01 0. -1.
</event>
<event>
11    1  0.7577197E-009  0.1534317E+03  0.7561462E-02  0.1093423E+00
         22   -1    0    0    0    0  0.00000000000E+00  0.00000000000E+00  0.15894098763E+04  0.15894098763E+04  0.00000000000E+00 0. -1.
         22   -1    0    0    0    0 -0.00000000000E+00 -0.00000000000E+00 -0.13421261518E+03  0.13421261518E+03  0.00000000000E+00 0. -1.
         24    2    1    2    0    0 -0.80503970596E+01 -0.87697453374E+02 -0.92310917176E+02  0.15075024877E+03  0.80303672731E+02 0.  0.
         25    2    1    2    0    0  0.64372578638E+02  0.10487168132E+03  0.82082510521E+03  0.83937126816E+03  0.12509346125E+03 0.  0.
        -24    2    1    2    0    0 -0.56322181578E+02 -0.17174227949E+02  0.72668307310E+03  0.73350097457E+03  0.80549666130E+02 0.  0.
        -11    1    3    3    0    0  0.25535812325E+02 -0.31145095248E+01 -0.86732765079E+01  0.27147810336E+02  0.00000000000E+00 0.  1.
         12    1    3    3    0    0 -0.33586209384E+02 -0.84582943849E+02 -0.83637640668E+02  0.12360243844E+03  0.00000000000E+00 0. -1.
         13    1    5    5    0    0 -0.51406824556E+02 -0.39052778956E+02  0.33423052054E+03  0.34040831660E+03  0.00000000000E+00 0. -1.
        -14    1    5    5    0    0 -0.49153570226E+01  0.21878551007E+02  0.39245255256E+03  0.39309265796E+03  0.00000000000E+00 0.  1.
          5    1    4    4  501    0  0.42247544301E+02 -0.20465548556E+02  0.26363252170E+03  0.26781200976E+03  0.41800000000E+01 0. -1.
         -5    1    4    4    0  501  0.22125034337E+02  0.12533722988E+03  0.55719258352E+03  0.57155925840E+03  0.41800000000E+01 0. -1.
</event>
<event>
11    1  0.7577197E-009  0.1444378E+03  0.7561462E-02  0.1102702E+00
         22   -1    0    0    0    0  0.00000000000E+00  0.00000000000E+00  0.41297050735E+03  0.41297050735E+03  0.00000000000E+00 0. -1.
         22   -1    0    0    0    0 -0.00000000000E+00 -0.00000000000E+00 -0.58508661043E+03  0.58508661043E+03  0.00000000000E+00 0. -1.
        -24    2    1    2    0    0  0.34501681930E+02 -0.62716915779E+02 -0.53862379667E+03  0.54909179342E+03  0.79135489337E+02 0.  0.
         25    2    1    2    0    0 -0.22192414631E+02  0.10018013872E+03  0.18692541817E+03  0.24721787688E+03  0.12508798195E+03 0.  0.
         24    2    1    2    0    0 -0.12309267299E+02 -0.37463222937E+02  0.17958227542E+03  0.20174744749E+03  0.83049550192E+02 0.  0.
        -13    1    5    5    0    0 -0.84980351732E+01 -0.25779732128E+02  0.60881910322E+01  0.27818649508E+02  0.00000000000E+00 0.  1.
         14    1    5    5    0    0 -0.38112321258E+01 -0.11683490809E+02  0.17349408439E+03  0.17392879798E+03  0.00000000000E+00 0. -1.
         13    1    3    3    0    0  0.43506047646E+02 -0.16576301756E+02 -0.40028509469E+03  0.40298350710E+03  0.00000000000E+00 0. -1.
        -14    1    3    3    0    0 -0.90043657165E+01 -0.46140614023E+02 -0.13833870199E+03  0.14610828632E+03  0.00000000000E+00 0.  1.
          5    1    4    4  501    0  0.15672918954E+02  0.11830856563E+03  0.13283895250E+03  0.17862311382E+03  0.41800000000E+01 0. -1.
         -5    1    4    4    0  501 -0.37865333585E+02 -0.18128426911E+02  0.54086465679E+02  0.68594763061E+02  0.41800000000E+01 0. -1.
</event>
<event>
11    1  0.7577197E-009  0.1500004E+03  0.7561462E-02  0.1096878E+00
         22   -1    0    0    0    0  0.00000000000E+00  0.00000000000E+00  0.31486282070E+03  0.31486282070E+03  0.00000000000E+00 0. -1.
         22   -1    0    0    0    0 -0.00000000000E+00 -0.00000000000E+00 -0.18371536305E+04  0.18371536305E+04  0.00000000000E+00 0.  1.
        -24    2    1    2    0    0  0.78844427706E+02 -0.27785095978E+02 -0.16553990176E+04  0.16594946543E+04  0.81167386703E+02 0.  0.
         25    2    1    2    0    0 -0.42653570172E+02  0.81763377297E+02 -0.13207103917E+03  0.20394287582E+03  0.12508141466E+03 0.  0.
         24    2    1    2    0    0 -0.36190857534E+02 -0.53978281319E+02  0.26517924699E+03  0.28857892112E+03  0.93457624926E+02 0.  0.
        -13    1    5    5    0    0  0.87325093045E+01 -0.29017724803E+02  0.21370031895E+03  0.21583816018E+03  0.00000000000E+00 0.  1.
         14    1    5    5    0    0 -0.44923366839E+02 -0.24960556516E+02  0.51478928045E+02  0.72740760942E+02  0.00000000000E+00 0. -1.
         13    1    3    3    0    0  0.19717047853E+01  0.60623420136E+00  0.57200328187E-02  0.20628069192E+01  0.00000000000E+00 0. -1.
        -14    1    3    3    0    0  0.76872722920E+02 -0.28391330179E+02 -0.16554047377E+04  0.16574318474E+04  0.00000000000E+00 0.  1.
          5    1    4    4  501    0 -0.71958098404E+02  0.24516715529E+02 -0.27191485270E+02  0.80844829998E+02  0.41800000000E+01 0.  1.
         -5    1    4    4    0  501  0.29304528232E+02  0.57246661767E+02 -0.10487955390E+03  0.12309804582E+03  0.41800000000E+01 0.  1.
</event>
<event>
11    1  0.7577197E-009  0.2790465E+03  0.7561462E-02  0.1009471E+00
         22   -1    0    0    0    0  0.00000000000E+00  0.00000000000E+00  0.62131337525E+03  0.62131337525E+03  0.00000000000E+00 0. -1.
         22   -1    0    0    0    0 -0.00000000000E+00 -0.00000000000E+00 -0.52240138575E+03  0.52240138575E+03  0.00000000000E+00 0.  1.
        -24    2    1    2    0    0 -0.60726439555E+02 -0.25685443544E+02 -0.31924183151E+03  0.33579176910E+03  0.80581156217E+02 0.  0.
         25    2    1    2    0    0  0.17172419081E+02  0.26831303186E+03 -0.21338142319E+02  0.29730458706E+03  0.12509167088E+03 0.  0.
         24    2    1    2    0    0  0.43554020473E+02 -0.24262758832E+03  0.43949196333E+03  0.51061840485E+03  0.82540112831E+02 0.  0.
        -13    1    5    5    0    0 -0.16241851590E+02 -0.41299149177E+02  0.42245999023E+02  0.61271052702E+02  0.00000000000E+00 0.  1.
         14    1    5    5    0    0  0.59795872063E+02 -0.20132843914E+03  0.39724596430E+03  0.44934735214E+03  0.00000000000E+00 0. -1.
         13    1    3    3    0    0 -0.55890220493E+02 -0.29466745965E+02 -0.11304508942E+03  0.12950366059E+03  0.00000000000E+00 0. -1.
        -14    1    3    3    0    0 -0.48362190612E+01  0.37813024217E+01 -0.20619674209E+03  0.20628810851E+03  0.00000000000E+00 0.  1.
          5    1    4    4  501    0  0.63333499286E+02  0.89830549904E+02 -0.25282535458E+02  0.11285981936E+03  0.41800000000E+01 0. -1.
         -5    1    4    4    0  501 -0.46161080204E+02  0.17848248196E+03  0.39443931395E+01  0.18444476769E+03  0.41800000000E+01 0. -1.
</event>
<event>
11    1  0.7577197E-009  0.4284984E+03  0.7561462E-02  0.9569223E-01
         22   -1    0    0    0    0  0.00000000000E+00  0.00000000000E+00  0.53963973823E+03  0.53963973823E+03  0.00000000000E+00 0.  1.
         22   -1    0    0    0    0 -0.00000000000E+00 -0.00000000000E+00 -0.95663215933E+03  0.95663215933E+03  0.00000000000E+00 0.  1.
         24    2    1    2    0    0 -0.38020731781E+03 -0.37933098549E+03 -0.51282169894E+03  0.74696030950E+03  0.80709404607E+02 0.  0.
         25    2    1    2    0    0  0.26642983434E+03  0.15166035930E+03 -0.17023546762E+03  0.37230866594E+03  0.12509159480E+03 0.  0.
        -24    2    1    2    0    0  0.11377748347E+03  0.22767062619E+03  0.26606474546E+03  0.37700292213E+03  0.81003239095E+02 0.  0.
        -13    1    3    3    0    0 -0.36646491955E+03 -0.38138493954E+03 -0.49551922589E+03  0.72476914435E+03  0.00000000000E+00 0.  1.
         14    1    3    3    0    0 -0.13742398259E+02  0.20539540498E+01 -0.17302473051E+02  0.22191165152E+02  0.00000000000E+00 0. -1.
         13    1    5    5    0    0  0.68695951287E+02  0.54785853562E+02  0.76389950781E+02  0.11643044299E+03  0.00000000000E+00 0. -1.
        -14    1    5    5    0    0  0.45081532179E+02  0.17288477262E+03  0.18967479468E+03  0.26057247914E+03  0.00000000000E+00 0.  1.
          5    1    4    4  501    0  0.48126537222E+02 -0.20445561191E+02 -0.18808049597E+02  0.55726113152E+02  0.41800000000E+01 0.  1.
         -5    1    4    4    0  501  0.21830329712E+03  0.17210592049E+03 -0.15142741802E+03  0.31658255279E+03  0.41800000000E+01 0.  1.
</event>
<event>
11    1  0.7577197E-009  0.1501624E+03  0.7561462E-02  0.1096713E+00
         22   -1    0    0    0    0  0.00000000000E+00  0.00000000000E+00  0.23084378152E+04  0.23084378152E+04  0.00000000000E+00 0. -1.
         22   -1    0    0    0    0 -0.00000000000E+00 -0.00000000000E+00 -0.46009556423E+02  0.46009556423E+02  0.00000000000E+00 0. -1.
        -24    2    1    2    0    0  0.11113613250E+02 -0.48287541670E+01  0.97493464259E+01  0.81815497087E+02  0.80323698505E+02 0.  0.
         25    2    1    2    0    0  0.73994760831E+02 -0.43066871561E+01  0.67008491140E+03  0.68567849442E+03  0.12508971594E+03 0.  0.
         24    2    1    2    0    0 -0.85108374081E+02  0.91354413231E+01  0.15825940009E+04  0.15869533801E+04  0.80562815251E+02 0.  0.
        -11    1    5    5    0    0 -0.16295025881E+02 -0.16301594106E+02  0.10325518054E+03  0.10579651293E+03  0.00000000000E+00 0.  1.
         12    1    5    5    0    0 -0.68813348200E+02  0.25437035429E+02  0.14793388204E+04  0.14811568672E+04  0.00000000000E+00 0. -1.
         13    1    3    3    0    0  0.12354027269E+02 -0.36663584547E+02 -0.14977255455E+02  0.41486848550E+02  0.00000000000E+00 0. -1.
        -14    1    3    3    0    0 -0.12404140189E+01  0.31834830380E+02  0.24726601881E+02  0.40328648537E+02  0.00000000000E+00 0.  1.
          5    1    4    4  501    0 -0.16724737552E+02 -0.31018520627E+02  0.73368757160E+02  0.81500382792E+02  0.41800000000E+01 0.  1.
         -5    1    4    4    0  501  0.90719498383E+02  0.26711833471E+02  0.59671615424E+03  0.60417811163E+03  0.41800000000E+01 0.  1.
</event>
<event>
11    1  0.7577197E-009  0.2055756E+03  0.7561462E-02  0.1050649E+00
         22   -1    0    0    0    0  0.00000000000E+00  0.00000000000E+00  0.90544923607E+03  0.90544923607E+03  0.00000000000E+00 0. -1.
         22   -1    0    0    0    0 -0.00000000000E+00 -0.00000000000E+00 -0.65752115986E+03  0.65752115986E+03  0.00000000000E+00 0. -1.
        -24    2    1    2    0    0  0.15021922961E+03  0.64913858185E+02 -0.60410629828E+03  0.63088383623E+03  0.79311848248E+02 0.  0.
         25    2    1    2    0    0 -0.13663254071E+03 -0.70191380745E+02  0.22712373538E+03  0.30137267595E+03  0.12508004447E+03 0.  0.
         24    2    1    2    0    0 -0.13586688898E+02  0.52775225593E+01  0.62491063910E+03  0.63071388374E+03  0.84108536508E+02 0.  0.
        -11    1    5    5    0    0 -0.23779612459E+02  0.29432997914E+02  0.13787364707E+03  0.14297172409E+03  0.00000000000E+00 0.  1.
         12    1    5    5    0    0  0.10192923562E+02 -0.24155475355E+02  0.48703699204E+03  0.48774215964E+03  0.00000000000E+00 0. -1.
         13    1    3    3    0    0  0.12760882657E+03  0.44180642744E+02 -0.35364535338E+03  0.37855115609E+03  0.00000000000E+00 0. -1.
        -14    1    3    3    0    0  0.22610403043E+02  0.20733215441E+02 -0.25046094489E+03  0.25233268014E+03  0.00000000000E+00 0.  1.
          5    1    4    4  501    0 -0.11548146967E+03 -0.27695917481E+02  0.71648439751E+02  0.13875880153E+03  0.41800000000E+01 0. -1.
         -5    1    4    4    0  501 -0.21151071044E+02 -0.42495463263E+02  0.15547529563E+03  0.16261387443E+03  0.41800000000E+01 0. -1.
</event>
<event>
11    1  0.7577197E-009  0.1370764E+03  0.7561462E-02  0.1110868E+00
         22   -1    0    0    0    0  0.00000000000E+00  0.00000000000E+00  0.88324217224E+03  0.88324217224E+03  0.00000000000E+00 0.  1.
         22   -1    0    0    0    0 -0.00000000000E+00 -0.00000000000E+00 -0.61022042552E+02  0.61022042552E+02  0.00000000000E+00 0. -1.
         24    2    1    2    0    0  0.11134676935E+02  0.23139315694E+02  0.94507907634E+01  0.95983431535E+02  0.92000503922E+02 0.  0.
         25    2    1    2    0    0 -0.59672621913E+01  0.40313131729E+02  0.34661426848E+03  0.37074206383E+03  0.12508984759E+03 0.  0.
        -24    2    1    2    0    0 -0.51674147439E+01 -0.63452447423E+02  0.46615507044E+03  0.47753871942E+03  0.81790975009E+02 0.  0.
        -13    1    3    3    0    0 -0.39290352702E+02 -0.15211814974E+01  0.56372624293E+01  0.39721839538E+02  0.00000000000E+00 0.  1.
         14    1    3    3    0    0  0.50425029637E+02  0.24660497191E+02  0.38135283342E+01  0.56261591997E+02  0.00000000000E+00 0. -1.
         11    1    5    5    0    0 -0.80399685889E+01  0.18934800930E+02  0.11604375704E+03  0.11785296487E+03  0.00000000000E+00 0. -1.
        -12    1    5    5    0    0  0.28725538449E+01 -0.82387248353E+02  0.35011131340E+03  0.35968575455E+03  0.00000000000E+00 0.  1.
          5    1    4    4  501    0 -0.17994660669E+01 -0.39420864706E+02  0.51649831069E+02  0.65133862942E+02  0.41800000000E+01 0.  1.
         -5    1    4    4    0  501 -0.41677961244E+01  0.79733996435E+02  0.29496443741E+03  0.30560820089E+03  0.41800000000E+01 0.  1.
</event>
<event>
11    1  0.7577197E-009  0.1301662E+03  0.7561462E-02  0.1119065E+00
         22   -1    0    0    0    0  0.00000000000E+00  0.00000000000E+00  0.16255037296E+03  0.16255037296E+03  0.00000000000E+00 0.  1.
         22   -1    0    0    0    0 -0.00000000000E+00 -0.00000000000E+00 -0.27185678473E+04  0.27185678473E+04  0.00000000000E+00 0.  1.
        -24    2    1    2    0    0 -0.10253524048E+02 -0.33165862776E+02 -0.23249721088E+04  0.23267544708E+04  0.84178093016E+02 0.  0.
         25    2    1    2    0    0  0.16083426742E+01  0.55332851928E+02 -0.36880867331E+03  0.39336010277E+03  0.12509205282E+03 0.  0.
         24    2    1    2    0    0  0.86451813735E+01 -0.22166989152E+02  0.13776330781E+03  0.16100364667E+03  0.79858191149E+02 0.  0.
        -11    1    5    5    0    0  0.16399771887E+02 -0.43054393536E+02  0.12914069874E+03  0.13711292204E+03  0.00000000000E+00 0.  1.
         12    1    5    5    0    0 -0.77545905138E+01  0.20887404384E+02  0.86226090679E+01  0.23890724624E+02  0.00000000000E+00 0. -1.
         11    1    3    3    0    0  0.21606578367E+02  0.62551141006E+01 -0.21496469060E+03  0.21613835589E+03  0.00000000000E+00 0. -1.
        -12    1    3    3    0    0 -0.31860102414E+02 -0.39420976877E+02 -0.21100074182E+04  0.21106161149E+04  0.00000000000E+00 0.  1.
          5    1    4    4  501    0 -0.21434173336E+02 -0.95640141938E+01 -0.27945599482E+03  0.28047106730E+03  0.41800000000E+01 0. -1.
         -5    1    4    4    0  501  0.23042516010E+02  0.64896866122E+02 -0.89352678491E+02  0.11288903547E+03  0.41800000000E+01 0. -1.
</event>
<event>
11    1  0.7577197E-009  0.1897250E+03  0.7561462E-02  0.1062037E+00
         22   -1    0    0    0    0  0.00000000000E+00  0.00000000000E+00  0.64804652007E+03  0.64804652007E+03  0.00000000000E+00 0. -1.
         22   -1    0    0    0    0 -0.00000000000E+00 -0.00000000000E+00 -0.20405729430E+04  0.20405729430E+04  0.00000000000E+00 0.  1.
        -24    2    1    2    0    0  0.84720913063E+02  0.12114240986E+03 -0.18454399179E+04  0.18532551718E+04  0.83982883351E+02 0.  0.
         25    2    1    2    0    0 -0.97019551425E+02 -0.46053192493E+02 -0.14970705541E+03  0.22269321519E+03  0.12508547378E+03 0.  0.
         24    2    1    2    0    0  0.12298638362E+02 -0.75089217365E+02  0.60262055035E+03  0.61267107611E+03  0.80154056215E+02 0.  0.
        -11    1    5    5    0    0 -0.57926778860E+01 -0.71915232956E+02  0.26784290670E+03  0.27738993947E+03  0.00000000000E+00 0.  1.
         12    1    5    5    0    0  0.18091316248E+02 -0.31739844094E+01  0.33477764365E+03  0.33528113664E+03  0.00000000000E+00 0. -1.
         11    1    3    3    0    0  0.34376406694E+02  0.23842462794E+02 -0.20863293307E+03  0.21278604544E+03  0.00000000000E+00 0. -1.
        -12    1    3    3    0    0  0.50344506369E+02  0.97299947064E+02 -0.16368069848E+04  0.16404691264E+04  0.00000000000E+00 0.  1.
          5    1    4    4  501    0 -0.41767025379E+02 -0.79984635628E+02 -0.12261827529E+03  0.15229819493E+03  0.41800000000E+01 0. -1.
         -5    1    4    4    0  501 -0.55252526046E+02  0.33931443134E+02 -0.27088780125E+02  0.70395020252E+02  0.41800000000E+01 0. -1.
</event>
<event>
11    1  0.7577197E-009  0.1587661E+03  0.7561462E-02  0.1088244E+00
         22   -1    0    0    0    0  0.00000000000E+00  0.00000000000E+00  0.40862862229E+03  0.40862862229E+03  0.00000000000E+00 0. -1.
         22   -1    0    0    0    0 -0.00000000000E+00 -0.00000000000E+00 -0.11329776210E+04  0.11329776210E+04  0.00000000000E+00 0. -1.
        -24    2    1    2    0    0  0.16849883527E+02  0.87311472774E+01 -0.10525076831E+04  0.10558225518E+04  0.81416744272E+02 0.  0.
         25    2    1    2    0    0 -0.95004277956E+02 -0.62374063015E+02  0.41263039758E+02  0.17397304868E+03  0.12509055381E+03 0.  0.
         24    2    1    2    0    0  0.78154394429E+02  0.53642915737E+02  0.28689564468E+03  0.31181064282E+03  0.77013597900E+02 0.  0.
        -13    1    5    5    0    0  0.20669320319E+02 -0.76902681825E+00  0.84669347493E+01  0.22349523233E+02  0.00000000000E+00 0.  1.
         14    1    5    5    0    0  0.57485074110E+02  0.54411942556E+02  0.27842870994E+03  0.28946111959E+03  0.00000000000E+00 0. -1.
         11    1    3    3    0    0 -0.30033687617E+02  0.43154114439E+00 -0.61471562661E+03  0.61544903137E+03  0.00000000000E+00 0. -1.
        -12    1    3    3    0    0  0.46883571144E+02  0.82996061330E+01 -0.43779205651E+03  0.44037352038E+03  0.00000000000E+00 0.  1.
          5    1    4    4  501    0 -0.18156195637E+02  0.35472030049E+02 -0.65900798322E+01  0.40605589615E+02  0.41800000000E+01 0. -1.
         -5    1    4    4    0  501 -0.76848082319E+02 -0.97846093064E+02  0.47853119590E+02  0.13336745907E+03  0.41800000000E+01 0. -1.
</event>
<event>
11    1  0.7577197E-009  0.1265451E+03  0.7561462E-02  0.1123588E+00
         22   -1    0    0    0    0  0.00000000000E+00  0.00000000000E+00  0.42293720489E+03  0.42293720489E+03  0.00000000000E+00 0.  1.
         22   -1    0    0    0    0 -0.00000000000E+00 -0.00000000000E+00 -0.37246089413E+03  0.37246089413E+03  0.00000000000E+00 0.  1.
        -24    2    1    2    0    0  0.20631911800E+02  0.13614402382E+01 -0.33226294840E+03  0.34247212142E+03  0.80380083153E+02 0.  0.
         25    2    1    2    0    0  0.10237542378E+01 -0.83854888247E+01  0.11033812117E+03  0.16701413412E+03  0.12509138866E+03 0.  0.
         24    2    1    2    0    0 -0.21655666038E+02  0.70240485865E+01  0.27240113799E+03  0.28591184349E+03  0.83814659457E+02 0.  0.
        -11    1    5    5    0    0  0.22118102278E+02  0.29424057937E+02  0.13697853004E+03  0.14183829992E+03  0.00000000000E+00 0.  1.
         12    1    5    5    0    0 -0.43773768316E+02 -0.22400009350E+02  0.13542260795E+03  0.14407354356E+03  0.00000000000E+00 0. -1.
         11    1    3    3    0    0 -0.26866420880E+02  0.18367043565E+02 -0.13129261450E+03  0.13526604704E+03  0.00000000000E+00 0. -1.
        -12    1    3    3    0    0  0.47498332680E+02 -0.17005603326E+02 -0.20097033390E+03  0.20720607438E+03  0.00000000000E+00 0.  1.
          5    1    4    4  501    0  0.55940057148E+02  0.17550003912E+02  0.79225475283E+02  0.98648066200E+02  0.41800000000E+01 0.  1.
         -5    1    4    4    0  501 -0.54916302911E+02 -0.25935492737E+02  0.31112645891E+02  0.68366067923E+02  0.41800000000E+01 0.  1.
</event>
<event>
11    1  0.7577197E-009  0.1328475E+03  0.7561462E-02  0.1115819E+00
         22   -1    0    0    0    0  0.00000000000E+00  0.00000000000E+00  0.73247296596E+03  0.73247296596E+03  0.00000000000E+00 0. -1.
         22   -1    0    0    0    0 -0.00000000000E+00 -0.00000000000E+00 -0.70819634923E+03  0.70819634923E+03  0.00000000000E+00 0.  1.
        -24    2    1    2    0    0  0.30634199052E+02  0.20436402095E+02 -0.67066075001E+03  0.67637977737E+03  0.79672209385E+02 0.  0.
         25    2    1    2    0    0 -0.13705601851E+02 -0.60846925165E+02  0.12648244051E+03  0.18851224173E+03  0.12509542638E+03 0.  0.
         24    2    1    2    0    0 -0.16928597200E+02  0.40410523070E+02  0.56845492624E+03  0.57577729610E+03  0.80367305276E+02 0.  0.
        -13    1    5    5    0    0 -0.16298243128E+02 -0.19052128839E+02  0.83296187975E+02  0.86987765079E+02  0.00000000000E+00 0.  1.
         14    1    5    5    0    0 -0.63035407207E+00  0.59462651909E+02  0.48515873826E+03  0.48878953102E+03  0.00000000000E+00 0. -1.
         13    1    3    3    0    0 -0.64887528773E+00 -0.53809378845E+01 -0.10240675779E+01  0.55158178052E+01  0.00000000000E+00 0. -1.
        -14    1    3    3    0    0  0.31283074339E+02  0.25817339980E+02 -0.66963668243E+03  0.67086395956E+03  0.00000000000E+00 0.  1.
          5    1    4    4  501    0 -0.60190833755E+02 -0.64997662601E+02  0.10357418836E+03  0.13635511543E+03  0.41800000000E+01 0.  1.
         -5    1    4    4    0  501  0.46485231903E+02  0.41507374359E+01  0.22908252150E+02  0.52157126291E+02  0.41800000000E+01 0.  1.
</event>
<event>
11    1  0.7577197E-009  0.1595977E+03  0.7561462E-02  0.1087456E+00
         22   -1    0    0    0    0  0.00000000000E+00  0.00000000000E+00  0.17780140585E+04  0.17780140585E+04  0.00000000000E+00 0.  1.
         22   -1    0    0    0    0 -0.00000000000E+00 -0.00000000000E+00 -0.75165966950E+03  0.75165966950E+03  0.00000000000E+00 0.  1.
        -24    2    1    2    0    0  0.10265595354E+03  0.94228368938E+01 -0.46818105388E+03  0.48578589998E+03  0.78532838702E+02 0.  0.
         25    2    1    2    0    0 -0.86965707241E+02  0.65960660780E+02 -0.24763110245E+03  0.29813280444E+03  0.12509261840E+03 0.  0.
         24    2    1    2    0    0 -0.15690246298E+02 -0.75383497674E+02  0.17421665454E+04  0.17457550236E+04  0.81163262173E+02 0.  0.
        -13    1    5    5    0    0 -0.16117715253E+02 -0.88881125816E+02  0.16624834808E+04  0.16649357222E+04  0.00000000000E+00 0.  1.
         14    1    5    5    0    0  0.42746895434E+00  0.13497628142E+02  0.79683064596E+02  0.80819301399E+02  0.00000000000E+00 0. -1.
         13    1    3    3    0    0  0.62182078787E+02 -0.30540832033E+02 -0.31120531868E+03  0.31882299747E+03  0.00000000000E+00 0. -1.
        -14    1    3    3    0    0  0.40473874753E+02  0.39963668926E+02 -0.15697573520E+03  0.16696290250E+03  0.00000000000E+00 0.  1.
          5    1    4    4  501    0  0.40040259193E+01  0.34652156636E+02 -0.30349342923E+01  0.35263116840E+02  0.41800000000E+01 0. -1.
         -5    1    4    4    0  501 -0.90969733161E+02  0.31308504144E+02 -0.24459616816E+03  0.26286968761E+03  0.41800000000E+01 0. -1.
</event>
<event>
11    1  0.7577197E-009  0.1528310E+03  0.7561462E-02  0.1094021E+00
         22   -1    0    0    0    0  0.00000000000E+00  0.00000000000E+00  0.74407602069E+03  0.74407602069E+03  0.00000000000E+00 0. -1.
         22   -1    0    0    0    0 -0.00000000000E+00 -0.00000000000E+00 -0.38015278635E+03  0.38015278635E+03  0.00000000000E+00 0.  1.
         24    2    1    2    0    0 -0.21380702312E+01 -0.77345887132E+02 -0.22242398569E+03  0.24878213718E+03  0.80207011978E+02 0.  0.
         25    2    1    2    0    0  0.85296689099E+02  0.46599781592E+02 -0.94305843168E+02  0.18435921091E+03  0.12509061427E+03 0.  0.
        -24    2    1    2    0    0 -0.83158618868E+02  0.30746105540E+02  0.68065306320E+03  0.69108745894E+03  0.80328105642E+02 0.  0.
        -13    1    3    3    0    0  0.98235807302E+01 -0.87399744679E+02 -0.21322084640E+03  0.23064766950E+03  0.00000000000E+00 0.  1.
         14    1    3    3    0    0 -0.11961650961E+02  0.10053857547E+02 -0.92031392967E+01  0.18134467685E+02  0.00000000000E+00 0. -1.
         13    1    5    5    0    0 -0.94423387590E+01 -0.66662737178E+01  0.35225179239E+03  0.35244137414E+03  0.00000000000E+00 0. -1.
        -14    1    5    5    0    0 -0.73716280109E+02  0.37412379258E+02  0.32840127081E+03  0.33864608479E+03  0.00000000000E+00 0.  1.
          5    1    4    4  501    0  0.11798067218E+03  0.35663209246E+02 -0.78695470183E+02  0.14629337965E+03  0.41800000000E+01 0.  1.
         -5    1    4    4    0  501 -0.32683983084E+02  0.10936572346E+02 -0.15610372984E+02  0.38065831262E+02  0.41800000000E+01 0.  1.
</event>
<event>
11    1  0.7577197E-009  0.2111604E+03  0.7561462E-02  0.1046901E+00
         22   -1    0    0    0    0  0.00000000000E+00  0.00000000000E+00  0.34117140716E+03  0.34117140716E+03  0.00000000000E+00 0.  1.
         22   -1    0    0    0    0 -0.00000000000E+00 -0.00000000000E+00 -0.11074222671E+04  0.11074222671E+04  0.00000000000E+00 0.  1.
         24    2    1    2    0    0 -0.94534791458E+02  0.95191966006E+02 -0.55745205623E+03  0.57896958156E+03  0.80340800260E+02 0.  0.
         25    2    1    2    0    0  0.20735004870E+03 -0.21257389647E+03 -0.45878974665E+03  0.56063284425E+03  0.12505778771E+03 0.  0.
        -24    2    1    2    0    0 -0.11281525724E+03  0.11738193047E+03  0.24999094294E+03  0.30899124845E+03  0.80463160504E+02 0.  0.
        -11    1    3    3    0    0 -0.81106040485E+02  0.10934368808E+03 -0.46710266001E+03  0.48653789875E+03  0.00000000000E+00 0.  1.
         12    1    3    3    0    0 -0.13428750973E+02 -0.14151722076E+02 -0.90349396215E+02  0.92431682809E+02  0.00000000000E+00 0. -1.
         11    1    5    5    0    0 -0.10986961445E+02 -0.78246216336E+01  0.27919867260E+01  0.13774368057E+02  0.00000000000E+00 0. -1.
        -12    1    5    5    0    0 -0.10182829580E+03  0.12520655210E+03  0.24719895622E+03  0.29521688039E+03  0.00000000000E+00 0.  1.
          5    1    4    4  501    0  0.16318396365E+03 -0.86760340586E+02 -0.22240920499E+03  0.28920527235E+03  0.41800000000E+01 0.  1.
         -5    1    4    4    0  501  0.44166085050E+02 -0.12581355589E+03 -0.23638054166E+03  0.27142757191E+03  0.41800000000E+01 0.  1.
</event>
<event>
11    1  0.7577197E-009  0.1316040E+03  0.7561462E-02  0.1117314E+00
         22   -1    0    0    0    0  0.00000000000E+00  0.00000000000E+00  0.98113734684E+03  0.98113734684E+03  0.00000000000E+00 0.  1.
         22   -1    0    0    0    0 -0.00000000000E+00 -0.00000000000E+00 -0.15974207321E+03  0.15974207321E+03  0.00000000000E+00 0. -1.
        -24    2    1    2    0    0 -0.21471227139E+02  0.30940637199E+02 -0.86051520726E+02  0.14236485661E+03  0.10697921085E+03 0.  0.
         25    2    1    2    0    0  0.55732101892E+02 -0.23584681121E+02  0.68794005912E+02  0.15505596028E+03  0.12508969263E+03 0.  0.
         24    2    1    2    0    0 -0.34260874753E+02 -0.73559560773E+01  0.83865278844E+03  0.84345860317E+03  0.82800954526E+02 0.  0.
        -11    1    5    5    0    0 -0.52978292518E+02  0.90604034513E+01  0.73061542711E+03  0.73258971650E+03  0.00000000000E+00 0.  1.
         12    1    5    5    0    0  0.18717417765E+02 -0.16416359529E+02  0.10803736133E+03  0.11086888667E+03  0.00000000000E+00 0. -1.
         11    1    3    3    0    0  0.37928867861E+02  0.10318940314E+02 -0.65176948663E+02  0.76112510032E+02  0.00000000000E+00 0. -1.
        -12    1    3    3    0    0 -0.59400095000E+02  0.20621696885E+02 -0.20874572063E+02  0.66252346579E+02  0.00000000000E+00 0.  1.
          5    1    4    4  501    0  0.91882459553E+02 -0.34471725234E+02  0.35184042680E+02  0.10433635739E+03  0.41800000000E+01 0.  1.
         -5    1    4    4    0  501 -0.36150357660E+02  0.10887044113E+02  0.33609963231E+02  0.50719602886E+02  0.41800000000E+01 0.  1.
</event>
<event>
11    1  0.7577197E-009  0.1570610E+03  0.7561462E-02  0.1089875E+00
         22   -1    0    0    0    0  0.00000000000E+00  0.00000000000E+00  0.93361423184E+03  0.93361423184E+03  0.00000000000E+00 0.  1.
         22   -1    0    0    0    0 -0.00000000000E+00 -0.00000000000E+00 -0.10709503009E+04  0.10709503009E+04  0.00000000000E+00 0.  1.
         24    2    1    2    0    0  0.89498695556E+01  0.17683050854E+02 -0.10312184013E+04  0.10345229699E+04  0.80209685340E+02 0.  0.
         25    2    1    2    0    0 -0.25436387090E+02  0.78044478077E+02  0.13726861151E+03  0.20304490717E+03  0.12508641923E+03 0.  0.
        -24    2    1    2    0    0  0.16486517534E+02 -0.95727528931E+02  0.75661372066E+03  0.76699665572E+03  0.79899828198E+02 0.  0.
        -13    1    3    3    0    0  0.29230367582E+02 -0.11179227245E+02 -0.80161341610E+03  0.80222406994E+03  0.00000000000E+00 0.  1.
         14    1    3    3    0    0 -0.20280498027E+02  0.28862278099E+02 -0.22960498518E+03  0.23229889995E+03  0.00000000000E+00 0. -1.
         11    1    5    5    0    0 -0.19127665215E+02  0.29256118375E+01  0.16806536290E+03  0.16917562764E+03  0.00000000000E+00 0. -1.
        -12    1    5    5    0    0  0.35614182749E+02 -0.98653140769E+02  0.58854835776E+03  0.59782102808E+03  0.00000000000E+00 0.  1.
          5    1    4    4  501    0 -0.71231959194E+02  0.17805700417E+02  0.61324816873E+02  0.95756151460E+02  0.41800000000E+01 0. -1.
         -5    1    4    4    0  501  0.45795572104E+02  0.60238777660E+02  0.75943794640E+02  0.10728875571E+03  0.41800000000E+01 0. -1.
</event>
<event>
11    1  0.7577197E-009  0.1296603E+03  0.7561462E-02  0.1119687E+00
         22   -1    0    0    0    0  0.00000000000E+00  0.00000000000E+00  0.42499529038E+03  0.42499529038E+03  0.00000000000E+00 0.  1.
         22   -1    0    0    0    0 -0.00000000000E+00 -0.00000000000E+00 -0.47230664225E+03  0.47230664225E+03  0.00000000000E+00 0. -1.
        -24    2    1    2    0    0 -0.22852817153E+02 -0.23384007585E+02 -0.37699654292E+03  0.38747877132E+03  0.83332717400E+02 0.  0.
         25    2    1    2    0    0  0.39425932218E+02  0.28948114719E+02 -0.32951639724E+02  0.13829798214E+03  0.12509246111E+03 0.  0.
         24    2    1    2    0    0 -0.16573115064E+02 -0.55641071345E+01  0.36263683078E+03  0.37152517917E+03  0.78866090897E+02 0.  0.
        -13    1    5    5    0    0 -0.38095760790E+02  0.13350304327E+02  0.29928507869E+03  0.30199515880E+03  0.00000000000E+00 0.  1.
         14    1    5    5    0    0  0.21522645725E+02 -0.18914411462E+02  0.63351752089E+02  0.69530020370E+02  0.00000000000E+00 0. -1.
         13    1    3    3    0    0 -0.39137918069E+02 -0.45544315968E+02 -0.21791177811E+03  0.22603452034E+03  0.00000000000E+00 0. -1.
        -14    1    3    3    0    0  0.16285100915E+02  0.22160308384E+02 -0.15908476481E+03  0.16144425098E+03  0.00000000000E+00 0.  1.
          5    1    4    4  501    0  0.26555537156E+02  0.73604156832E+02 -0.44656244011E+02  0.90191024973E+02  0.41800000000E+01 0.  1.
         -5    1    4    4    0  501  0.12870395062E+02 -0.44656042113E+02  0.11704604286E+02  0.48106957166E+02  0.41800000000E+01 0.  1.
</event>
<event>
11    1  0.7577197E-009  0.1691900E+03  0.7561462E-02  0.1078739E+00
         22   -1    0    0    0    0  0.00000000000E+00  0.00000000000E+00  0.21525736388E+04  0.21525736388E+04  0.00000000000E+00 0. -1.
         22   -1    0    0    0    0 -0.00000000000E+00 -0.00000000000E+00 -0.18624762856E+03  0.18624762856E+03  0.00000000000E+00 0.  1.
         24    2    1    2    0    0 -0.86354798605E+02 -0.73850253947E+02 -0.13820068795E+03  0.19627125124E+03  0.80696732664E+02 0.  0.
         25    2    1    2    0    0  0.10010051681E+03  0.64622417575E+02  0.39626582400E+03  0.43228420631E+03  0.12508741515E+03 0.  0.
        -24    2    1    2    0    0 -0.13745718204E+02  0.92278363720E+01  0.17082608742E+04  0.17102658098E+04  0.81116140390E+02 0.  0.
        -11    1    3    3    0    0 -0.57567140429E+02 -0.19485657294E+02 -0.11584390260E+03  0.13081848595E+03  0.00000000000E+00 0.  1.
         12    1    3    3    0    0 -0.28787658176E+02 -0.54364596653E+02 -0.22356785352E+02  0.65452765287E+02  0.00000000000E+00 0. -1.
         11    1    5    5    0    0 -0.94819546846E+01 -0.29396607481E+02  0.12433994079E+04  0.12437830018E+04  0.00000000000E+00 0. -1.
        -12    1    5    5    0    0 -0.42637635192E+01  0.38624443853E+02  0.46486146625E+03  0.46648280799E+03  0.00000000000E+00 0.  1.
          5    1    4    4  501    0  0.87290797045E+02 -0.34396625456E-01  0.31842623284E+03  0.33020057933E+03  0.41800000000E+01 0.  1.
         -5    1    4    4    0  501  0.12809719764E+02  0.64656814201E+02  0.77839591166E+02  0.10208362697E+03  0.41800000000E+01 0.  1.
</event>
<event>
11    1  0.7577197E-009  0.1324141E+03  0.7561462E-02  0.1116338E+00
         22   -1    0    0    0    0  0.00000000000E+00  0.00000000000E+00  0.28302371886E+03  0.28302371886E+03  0.00000000000E+00 0. -1.
         22   -1    0    0    0    0 -0.00000000000E+00 -0.00000000000E+00 -0.12756236596E+04  0.12756236596E+04  0.00000000000E+00 0. -1.
         24    2    1    2    0    0 -0.26946312363E+02 -0.28815409562E+02 -0.12011423963E+04  0.12045688714E+04  0.81772111638E+02 0.  0.
         25    2    1    2    0    0  0.30584197688E+02 -0.18015956781E+02  0.49912531048E+01  0.13012403502E+03  0.12508950410E+03 0.  0.
        -24    2    1    2    0    0 -0.36378853256E+01  0.46831366344E+02  0.20355120247E+03  0.22395447200E+03  0.80722378660E+02 0.  0.
        -11    1    3    3    0    0 -0.16109749248E+01 -0.23463334674E+02 -0.86919288480E+02  0.90044911151E+02  0.00000000000E+00 0.  1.
         12    1    3    3    0    0 -0.25335337438E+02 -0.53520748884E+01 -0.11142231078E+04  0.11145239603E+04  0.00000000000E+00 0. -1.
         13    1    5    5    0    0  0.16836367736E+02  0.61434450234E+02  0.11030769123E+03  0.12737912583E+03  0.00000000000E+00 0. -1.
        -14    1    5    5    0    0 -0.20474253062E+02 -0.14603083890E+02  0.93243511246E+02  0.96575346166E+02  0.00000000000E+00 0.  1.
          5    1    4    4  501    0  0.20876953927E+02 -0.29201309110E+02  0.61623214803E+02  0.71438481658E+02  0.41800000000E+01 0.  1.
         -5    1    4    4    0  501  0.97072437612E+01  0.11185352329E+02 -0.56631961698E+02  0.58685553366E+02  0.41800000000E+01 0.  1.
</event>
<event>
11    1  0.7577197E-009  0.1382841E+03  0.7561462E-02  0.1109490E+00
         22   -1    0    0    0    0  0.00000000000E+00  0.00000000000E+00  0.12134351187E+03  0.12134351187E+03  0.00000000000E+00 0. -1.
         22   -1    0    0    0    0 -0.00000000000E+00 -0.00000000000E+00 -0.32026156312E+04  0.32026156312E+04  0.00000000000E+00 0. -1.
         24    2    1    2    0    0  0.17471126473E+02  0.31360858443E+02 -0.25835230368E+04  0.25850292023E+04  0.80597463935E+02 0.  0.
         25    2    1    2    0    0  0.36188976826E+02 -0.44915225703E+01 -0.58891828952E+03  0.60316036756E+03  0.12509141236E+03 0.  0.
        -24    2    1    2    0    0 -0.53660103299E+02 -0.26869335873E+02  0.91169207029E+02  0.13576957319E+03  0.80747661258E+02 0.  0.
        -11    1    3    3    0    0  0.40559306887E+02 -0.27999315332E+01 -0.80271079531E+03  0.80373970780E+03  0.00000000000E+00 0.  1.
         12    1    3    3    0    0 -0.23088180415E+02  0.34160789976E+02 -0.17808122415E+04  0.17812894945E+04  0.00000000000E+00 0. -1.
         11    1    5    5    0    0 -0.55962597743E+02 -0.31141746261E+02  0.10395177052E+03  0.12209664737E+03  0.00000000000E+00 0. -1.
        -12    1    5    5    0    0  0.23024944437E+01  0.42724103884E+01 -0.12782563487E+02  0.13672925821E+02  0.00000000000E+00 0.  1.
          5    1    4    4  501    0  0.19909723374E+02 -0.24183888415E+02 -0.57053090672E+03  0.57140550004E+03  0.41800000000E+01 0. -1.
         -5    1    4    4    0  501  0.16279253453E+02  0.19692365845E+02 -0.18387382797E+02  0.31754867527E+02  0.41800000000E+01 0. -1.
</event>
<event>
11    1  0.7577197E-009  0.1439352E+03  0.7561462E-02  0.1103242E+00
         22   -1    0    0    0    0  0.00000000000E+00  0.00000000000E+00  0.75449245774E+03  0.75449245774E+03  0.00000000000E+00 0. -1.
         22   -1    0    0    0    0 -0.00000000000E+00 -0.00000000000E+00 -0.36684960371E+03  0.36684960371E+03  0.00000000000E+00 0. -1.
        -24    2    1    2    0    0 -0.75133490218E+02  0.62305209209E+01 -0.26245431643E+03  0.28490389338E+03  0.81265610869E+02 0.  0.
         25    2    1    2    0    0  0.50627296800E+02  0.50660976316E+02 -0.32389877117E+02  0.14773567935E+03  0.12508824530E+03 0.  0.
         24    2    1    2    0    0  0.24506193417E+02 -0.56891497237E+02  0.68248704757E+03  0.68870248871E+03  0.68449630255E+02 0.  0.
        -13    1    5    5    0    0 -0.13810697144E+01 -0.33239380642E+01 -0.27726523894E-01  0.35995397721E+01  0.00000000000E+00 0.  1.
         14    1    5    5    0    0  0.25887263132E+02 -0.53567559173E+02  0.68251477410E+03  0.68510294894E+03  0.00000000000E+00 0. -1.
         13    1    3    3    0    0 -0.48507445170E+02  0.37789444078E+02 -0.20586476911E+03  0.21485185008E+03  0.00000000000E+00 0. -1.
        -14    1    3    3    0    0 -0.26626045048E+02 -0.31558923157E+02 -0.56589547317E+02  0.70052043306E+02  0.00000000000E+00 0.  1.
          5    1    4    4  501    0 -0.38498791572E+02 -0.48682156832E+01 -0.77062297566E+01  0.39783348948E+02  0.41800000000E+01 0. -1.
         -5    1    4    4    0  501  0.89126088373E+02  0.55529191999E+02 -0.24683647360E+02  0.10795233040E+03  0.41800000000E+01 0. -1.
</event>
<event>
11    1  0.7577197E-009  0.1539839E+03  0.7561462E-02  0.1092876E+00
         22   -1    0    0    0    0  0.00000000000E+00  0.00000000000E+00  0.24701468510E+03  0.24701468510E+03  0.00000000000E+00 0. -1.
         22   -1    0    0    0    0 -0.00000000000E+00 -0.00000000000E+00 -0.22346338724E+04  0.22346338724E+04  0.00000000000E+00 0.  1.
        -24    2    1    2    0    0 -0.22689314726E+02  0.20583983015E+02 -0.17176110180E+04  0.17197615835E+04  0.80335480549E+02 0.  0.
         25    2    1    2    0    0  0.10792560065E+03  0.61401713994E+01 -0.48659306693E+03  0.51391149086E+03  0.12508625294E+03 0.  0.
         24    2    1    2    0    0 -0.85236285924E+02 -0.26724154414E+02  0.21658489767E+03  0.24797548314E+03  0.81261414426E+02 0.  0.
        -11    1    5    5    0    0  0.96883433317E+01  0.68322935929E+01  0.35952191497E+01  0.12388294192E+02  0.00000000000E+00 0.  1.
         12    1    5    5    0    0 -0.94924629255E+02 -0.33556448007E+02  0.21298967852E+03  0.23558718895E+03  0.00000000000E+00 0. -1.
         11    1    3    3    0    0 -0.48124760981E+02  0.22276607465E+02 -0.77821797761E+03  0.78002273079E+03  0.00000000000E+00 0. -1.
        -12    1    3    3    0    0  0.25435446256E+02 -0.16926244503E+01 -0.93939304040E+03  0.93973885269E+03  0.00000000000E+00 0.  1.
          5    1    4    4  501    0 -0.43951144951E+01  0.32965203298E+02 -0.23088963677E+03  0.23330991926E+03  0.41800000000E+01 0. -1.
         -5    1    4    4    0  501  0.11232071514E+03 -0.26825031899E+02 -0.25570343016E+03  0.28060157160E+03  0.41800000000E+01 0. -1.
</event>
<event>
11    1  0.7577197E-009  0.1412990E+03  0.7561462E-02  0.1106116E+00
         22   -1    0    0    0    0  0.00000000000E+00  0.00000000000E+00  0.28658594884E+03  0.28658594884E+03  0.00000000000E+00 0.  1.
         22   -1    0    0    0    0 -0.00000000000E+00 -0.00000000000E+00 -0.39022210289E+03  0.39022210289E+03  0.00000000000E+00 0. -1.
        -24    2    1    2    0    0  0.44080562772E+02 -0.60231877105E+02 -0.22077757427E+03  0.24767591758E+03  0.83842995025E+02 0.  0.
         25    2    1    2    0    0 -0.18930004311E+02  0.42491659966E+02 -0.11759186517E+03  0.17787484917E+03  0.12509088289E+03 0.  0.
         24    2    1    2    0    0 -0.25150558461E+02  0.17740217139E+02  0.23473328538E+03  0.25125728498E+03  0.84161999092E+02 0.  0.
        -13    1    5    5    0    0  0.29065457004E+02  0.20728206394E+01  0.11875041745E+03  0.12227329643E+03  0.00000000000E+00 0.  1.
         14    1    5    5    0    0 -0.54216015465E+02  0.15667396499E+02  0.11598286793E+03  0.12898398854E+03  0.00000000000E+00 0. -1.
         11    1    3    3    0    0  0.57551246890E+02 -0.70293006701E+02 -0.20656717590E+03  0.22566180662E+03  0.00000000000E+00 0. -1.
        -12    1    3    3    0    0 -0.13470684117E+02  0.10061129596E+02 -0.14210398370E+02  0.22014110956E+02  0.00000000000E+00 0.  1.
          5    1    4    4  501    0 -0.46591707972E+02  0.69367960231E+02 -0.43637822336E+02  0.94363303761E+02  0.41800000000E+01 0.  1.
         -5    1    4    4    0  501  0.27661703661E+02 -0.26876300265E+02 -0.73954042831E+02  0.83511545408E+02  0.41800000000E+01 0.  1.
</event>
<event>
11    1  0.7577197E-009  0.1514709E+03  0.7561462E-02  0.1095385E+00
         22   -1    0    0    0    0  0.00000000000E+00  0.00000000000E+00  0.21511309371E+04  0.21511309371E+04  0.00000000000E+00 0.  1.
         22   -1    0    0    0    0 -0.00000000000E+00 -0.00000000000E+00 -0.37481176626E+03  0.37481176626E+03  0.00000000000E+00 0. -1.
        -24    2    1    2    0    0  0.52883530787E+02  0.64355020507E+02 -0.29166625747E+03  0.31444961101E+03  0.82892192768E+02 0.  0.
         25    2    1    2    0    0 -0.55135355703E+02 -0.87566431193E+02  0.21915834923E+02  0.16381186252E+03  0.12508491180E+03 0.  0.
         24    2    1    2    0    0  0.22518249157E+01  0.23211410686E+02  0.20460695934E+04  0.20476812298E+04  0.77806154770E+02 0.  0.
        -13    1    5    5    0    0  0.21534606773E+01  0.51639674673E+02  0.14737593134E+04  0.14746653204E+04  0.00000000000E+00 0.  1.
         14    1    5    5    0    0  0.98364238334E-01 -0.28428263987E+02  0.57231028003E+03  0.57301590946E+03  0.00000000000E+00 0. -1.
         11    1    3    3    0    0  0.58618022463E+02  0.64454179150E+02 -0.29514937319E+03  0.30773944541E+03  0.00000000000E+00 0. -1.
        -12    1    3    3    0    0 -0.57344916760E+01 -0.99158642482E-01  0.34831157184E+01  0.67101655960E+01  0.00000000000E+00 0.  1.
          5    1    4    4  501    0  0.30812921252E+02 -0.23278446683E+02 -0.25430093643E+02  0.46427193095E+02  0.41800000000E+01 0. -1.
         -5    1    4    4    0  501 -0.85948276954E+02 -0.64287984511E+02  0.47345928565E+02  0.11738466942E+03  0.41800000000E+01 0. -1.
</event>
<event>
11    1  0.7577197E-009  0.1527317E+03  0.7561462E-02  0.1094120E+00
         22   -1    0    0    0    0  0.00000000000E+00  0.00000000000E+00  0.56069099039E+03  0.56069099039E+03  0.00000000000E+00 0. -1.
         22   -1    0    0    0    0 -0.00000000000E+00 -0.00000000000E+00 -0.14896615525E+03  0.14896615525E+03  0.00000000000E+00 0.  1.
         24    2    1    2    0    0  0.56364293356E+02  0.69216069392E+02 -0.71136702855E+02  0.13922850498E+03  0.79726709940E+02 0.  0.
         25    2    1    2    0    0 -0.91694606975E+02 -0.24402045266E+02  0.12967711896E+03  0.20362154382E+03  0.12506884969E+03 0.  0.
        -24    2    1    2    0    0  0.35330313619E+02 -0.44814024126E+02  0.35318441904E+03  0.36680709685E+03  0.80942477252E+02 0.  0.
        -11    1    3    3    0    0  0.62624172868E+02  0.16584127404E+02 -0.26725905837E+02  0.70079200566E+02  0.00000000000E+00 0.  1.
         12    1    3    3    0    0 -0.62598795118E+01  0.52631941988E+02 -0.44410797018E+02  0.69149304413E+02  0.00000000000E+00 0. -1.
         13    1    5    5    0    0  0.40011216438E+02  0.83697140267E+01  0.21113785905E+03  0.21505846898E+03  0.00000000000E+00 0. -1.
        -14    1    5    5    0    0 -0.46809028186E+01 -0.53183738153E+02  0.14204655999E+03  0.15174862787E+03  0.00000000000E+00 0.  1.
          5    1    4    4  501    0 -0.22508534508E+02 -0.57209439955E+02  0.11407716587E+02  0.62667077029E+02  0.41800000000E+01 0.  1.
         -5    1    4    4    0  501 -0.69186072468E+02  0.32807394689E+02  0.11826940237E+03  0.14095446679E+03  0.41800000000E+01 0.  1.
</event>
<event>
11    1  0.7577197E-009  0.1373277E+03  0.7561462E-02  0.1110580E+00
         22   -1    0    0    0    0  0.00000000000E+00  0.00000000000E+00  0.68386513862E+02  0.68386513862E+02  0.00000000000E+00 0.  1.
         22   -1    0    0    0    0 -0.00000000000E+00 -0.00000000000E+00 -0.64540963751E+03  0.64540963751E+03  0.00000000000E+00 0.  1.
        -24    2    1    2    0    0  0.62335164095E+02 -0.92891733481E+01 -0.41961249398E+03  0.43183131929E+03  0.80197766740E+02 0.  0.
         25    2    1    2    0    0 -0.25440741282E+02 -0.42915503826E+02 -0.10128527638E+03  0.16850692656E+03  0.12508759052E+03 0.  0.
         24    2    1    2    0    0 -0.36894422813E+02  0.52204677174E+02 -0.56125353292E+02  0.11345790553E+03  0.75074058706E+02 0.  0.
        -11    1    5    5    0    0  0.52964925259E+01  0.53618649236E+02 -0.18670968493E+02  0.57022955408E+02  0.00000000000E+00 0.  1.
         12    1    5    5    0    0 -0.42190915339E+02 -0.14139720620E+01 -0.37454384799E+02  0.56434950118E+02  0.00000000000E+00 0. -1.
         13    1    3    3    0    0 -0.74340009131E+01 -0.44453558060E+01 -0.26699308722E+01  0.90638892690E+01  0.00000000000E+00 0. -1.
        -14    1    3    3    0    0  0.69769165008E+02 -0.48438175420E+01 -0.41694256311E+03  0.42276743002E+03  0.00000000000E+00 0.  1.
          5    1    4    4  501    0 -0.11729542715E+02  0.73798951760E+01 -0.11381257442E+03  0.11472933156E+03  0.41800000000E+01 0.  1.
         -5    1    4    4    0  501 -0.13711198567E+02 -0.50295399002E+02  0.12527298044E+02  0.53777594993E+02  0.41800000000E+01 0.  1.
</event>
<event>
11    1  0.7577197E-009  0.1705941E+03  0.7561462E-02  0.1077516E+00
         22   -1    0    0    0    0  0.00000000000E+00  0.00000000000E+00  0.28384530154E+04  0.28384530154E+04  0.00000000000E+00 0.  1.
         22   -1    0    0    0    0 -0.00000000000E+00 -0.00000000000E+00 -0.17912345392E+03  0.17912345392E+03  0.00000000000E+00 0. -1.
         24    2    1    2    0    0  0.97825986248E+02 -0.74240803132E+02 -0.86653267769E+02  0.17071431942E+03  0.80950414479E+02 0.  0.
         25    2    1    2    0    0 -0.10748107599E+03  0.72922651702E+01  0.89230505770E+02  0.18765698840E+03  0.12509078026E+03 0.  0.
        -24    2    1    2    0    0  0.96550897463E+01  0.66948537962E+02  0.26567523235E+04  0.26592051615E+04  0.91999212958E+02 0.  0.
        -13    1    3    3    0    0  0.39032097584E+01 -0.53038000961E+01  0.14817395347E+02  0.16214824907E+02  0.00000000000E+00 0.  1.
         14    1    3    3    0    0  0.93922776490E+02 -0.68937003036E+02 -0.10147066312E+03  0.15449949451E+03  0.00000000000E+00 0. -1.
         13    1    5    5    0    0 -0.37943968121E+02  0.97751947467E+01  0.10517736946E+04  0.10525033035E+04  0.00000000000E+00 0. -1.
        -14    1    5    5    0    0  0.47599057867E+02  0.57173343215E+02  0.16049786289E+04  0.16067018581E+04  0.00000000000E+00 0.  1.
          5    1    4    4  501    0 -0.60555826565E+02 -0.18454271240E+02  0.11249024857E+03  0.12914757714E+03  0.41800000000E+01 0.  1.
         -5    1    4    4    0  501 -0.46925249429E+02  0.25746536410E+02 -0.23259742798E+02  0.58509411261E+02  0.41800000000E+01 0.  1.
</event>
<event>
11    1  0.7577197E-009  0.1461255E+03  0.7561462E-02  0.1100905E+00
         22   -1    0    0    0    0  0.00000000000E+00  0.00000000000E+00  0.90242421653E+02  0.90242421653E+02  0.00000000000E+00 0.  1.
         22   -1    0    0    0    0 -0.00000000000E+00 -0.00000000000E+00 -0.28071842090E+04  0.28071842090E+04  0.00000000000E+00 0. -1.
         24    2    1    2    0    0 -0.17390878207E+02 -0.73353742797E+02 -0.25591212766E+04  0.25614473121E+04  0.78913941316E+02 0.  0.
         25    2    1    2    0    0  0.26849339385E+02 -0.17414883370E+02 -0.16987148439E+03  0.21337198300E+03  0.12508843564E+03 0.  0.
        -24    2    1    2    0    0 -0.94584611781E+01  0.90768626168E+02  0.12050973683E+02  0.12260733551E+03  0.80987201265E+02 0.  0.
        -11    1    3    3    0    0  0.68698091413E+01  0.19131244487E+01 -0.22705041691E+02  0.23798597458E+02  0.00000000000E+00 0.  1.
         12    1    3    3    0    0 -0.24260687348E+02 -0.75266867246E+02 -0.25364162349E+04  0.25376487147E+04  0.00000000000E+00 0. -1.
         11    1    5    5    0    0 -0.13602112493E+02  0.95086939403E+02 -0.12928386726E+02  0.96921033283E+02  0.00000000000E+00 0. -1.
        -12    1    5    5    0    0  0.41436513147E+01 -0.43183132353E+01  0.24979360409E+02  0.25686302222E+02  0.00000000000E+00 0.  1.
          5    1    4    4  501    0 -0.19357304880E+02 -0.51047409594E+02 -0.13647011431E+03  0.14704457752E+03  0.41800000000E+01 0. -1.
         -5    1    4    4    0  501  0.46206644265E+02  0.33632526224E+02 -0.33401370084E+02  0.66327405481E+02  0.41800000000E+01 0. -1.
</event>
<event>
11    1  0.7577197E-009  0.1944646E+03  0.7561462E-02  0.1058509E+00
         22   -1    0    0    0    0  0.00000000000E+00  0.00000000000E+00  0.17500450926E+03  0.17500450926E+03  0.00000000000E+00 0. -1.
         22   -1    0    0    0    0 -0.00000000000E+00 -0.00000000000E+00 -0.11872486910E+04  0.11872486910E+04  0.00000000000E+00 0.  1.
         24    2    1    2    0    0 -0.30619212795E+02 -0.14863677310E+02 -0.79732709510E+03  0.80210956042E+03  0.80565409755E+02 0.  0.
         25    2    1    2    0    0  0.29836578302E+02 -0.13593361066E+03 -0.31099589366E+03  0.36295181360E+03  0.12508958875E+03 0.  0.
        -24    2    1    2    0    0  0.78263449310E+00  0.15079728797E+03  0.96078807023E+02  0.19719182623E+03  0.83144720799E+02 0.  0.
        -11    1    3    3    0    0 -0.47379936663E+02  0.16084408483E+02 -0.37592130165E+03  0.37923659057E+03  0.00000000000E+00 0.  1.
         12    1    3    3    0    0  0.16760723868E+02 -0.30948085793E+02 -0.42140579345E+03  0.42287296985E+03  0.00000000000E+00 0. -1.
         11    1    5    5    0    0 -0.26568397091E+02  0.13468724514E+03  0.62044495773E+02  0.15065209319E+03  0.00000000000E+00 0. -1.
        -12    1    5    5    0    0  0.27351031584E+02  0.16110042825E+02  0.34034311250E+02  0.46539733033E+02  0.00000000000E+00 0.  1.
          5    1    4    4  501    0  0.42051999646E+02 -0.25772003495E+02 -0.20000992450E+03  0.20604370686E+03  0.41800000000E+01 0.  1.
         -5    1    4    4    0  501 -0.12215421344E+02 -0.11016160716E+03 -0.11098596916E+03  0.15690810675E+03  0.41800000000E+01 0.  1.
</event>
<event>
11    1  0.7577197E-009  0.2461238E+03  0.7561462E-02  0.1025985E+00
         22   -1    0    0    0    0  0.00000000000E+00  0.00000000000E+00  0.76805175222E+03  0.76805175222E+03  0.00000000000E+00 0.  1.
         22   -1    0    0    0    0 -0.00000000000E+00 -0.00000000000E+00 -0.11565156797E+04  0.11565156797E+04  0.00000000000E+00 0.  1.
        -24    2    1    2    0    0  0.21107229558E+03 -0.90332466701E+01 -0.10702262844E+04  0.10940976762E+04  0.83858879447E+02 0.  0.
         25    2    1    2    0    0 -0.22509932955E+03  0.20463460159E+02  0.16460104754E+03  0.30631582212E+03  0.12508963452E+03 0.  0.
         24    2    1    2    0    0  0.14027033972E+02 -0.11430213489E+02  0.51716130936E+03  0.52415393366E+03  0.83391359308E+02 0.  0.
        -13    1    5    5    0    0  0.28118340587E+02 -0.23307431382E+02  0.48983072292E+03  0.49119040560E+03  0.00000000000E+00 0.  1.
         14    1    5    5    0    0 -0.14091306615E+02  0.11877217892E+02  0.27330586439E+02  0.32963528059E+02  0.00000000000E+00 0. -1.
         11    1    3    3    0    0  0.19790001666E+02  0.21809137176E+02 -0.22673690909E+03  0.22864144107E+03  0.00000000000E+00 0. -1.
        -12    1    3    3    0    0  0.19128229391E+03 -0.30842383846E+02 -0.84348937533E+03  0.86545623512E+03  0.00000000000E+00 0.  1.
          5    1    4    4  501    0 -0.21313820064E+03  0.28975257883E+02  0.95209590207E+02  0.23526537486E+03  0.41800000000E+01 0. -1.
         -5    1    4    4    0  501 -0.11961128914E+02 -0.85117977242E+01  0.69391457332E+02  0.71050447262E+02  0.41800000000E+01 0. -1.
</event>
<event>
11    1  0.7577197E-009  0.1360321E+03  0.7561462E-02  0.1112072E+00
         22   -1    0    0    0    0  0.00000000000E+00  0.00000000000E+00  0.71864335269E+03  0.71864335269E+03  0.00000000000E+00 0.  1.
         22   -1    0    0    0    0 -0.00000000000E+00 -0.00000000000E+00 -0.19858696361E+04  0.19858696361E+04  0.00000000000E+00 0.  1.
         24    2    1    2    0    0 -0.68298075206E+01  0.14823815973E+01 -0.18384250888E+04  0.18401619507E+04  0.79626340367E+02 0.  0.
         25    2    1    2    0    0  0.55926699228E+02  0.19323811613E+02 -0.10977689049E+03  0.17663368140E+03  0.12508911359E+03 0.  0.
        -24    2    1    2    0    0 -0.49096891708E+02 -0.20806193210E+02  0.68097569588E+03  0.68771735664E+03  0.79899072556E+02 0.  0.
        -13    1    3    3    0    0  0.26763864792E+01 -0.32925707772E+01 -0.18066190329E+04  0.18066240157E+04  0.00000000000E+00 0.  1.
         14    1    3    3    0    0 -0.95061939998E+01  0.47749523745E+01 -0.31806055895E+02  0.33537935030E+02  0.00000000000E+00 0. -1.
         13    1    5    5    0    0 -0.35707088430E+02 -0.63890986322E+01  0.99451142859E+02  0.10586003288E+03  0.00000000000E+00 0. -1.
        -14    1    5    5    0    0 -0.13389803277E+02 -0.14417094578E+02  0.58152455302E+03  0.58185732376E+03  0.00000000000E+00 0.  1.
          5    1    4    4  501    0  0.54175575462E+02 -0.41713069431E+02 -0.26871409131E+02  0.73583409589E+02  0.41800000000E+01 0. -1.
         -5    1    4    4    0  501  0.17511237660E+01  0.61036881044E+02 -0.82905481357E+02  0.10305027181E+03  0.41800000000E+01 0. -1.
</event>
<event>
11    1  0.7577197E-009  0.1542216E+03  0.7561462E-02  0.1092642E+00
         22   -1    0    0    0    0  0.00000000000E+00  0.00000000000E+00  0.13178897215E+04  0.13178897215E+04  0.00000000000E+00 0. -1.
         22   -1    0    0    0    0 -0.00000000000E+00 -0.00000000000E+00 -0.22704610050E+03  0.22704610050E+03  0.00000000000E+00 0. -1.
        -24    2    1    2    0    0 -0.19359873526E+02 -0.69394775405E+02 -0.18866084599E+03  0.21935482897E+03  0.85634027259E+02 0.  0.
         25    2    1    2    0    0  0.91960601879E+02  0.10661202511E+03  0.44321451213E+03  0.48156769414E+03  0.12508182952E+03 0.  0.
         24    2    1    2    0    0 -0.72600728353E+02 -0.37217249710E+02  0.83628995484E+03  0.84401329888E+03  0.79508305749E+02 0.  0.
        -11    1    5    5    0    0 -0.14301674748E+01 -0.19150412562E+02  0.40276993684E+02  0.44620846031E+02  0.00000000000E+00 0.  1.
         12    1    5    5    0    0 -0.71170560878E+02 -0.18066837148E+02  0.79601296116E+03  0.79939245285E+03  0.00000000000E+00 0. -1.
         13    1    3    3    0    0 -0.80800732828E+01 -0.81699895537E+02 -0.10119142474E+03  0.13030681086E+03  0.00000000000E+00 0. -1.
        -14    1    3    3    0    0 -0.11279800243E+02  0.12305120132E+02 -0.87469421257E+02  0.89048018114E+02  0.00000000000E+00 0.  1.
          5    1    4    4  501    0  0.42608400907E+02  0.36245692671E+02  0.39061568546E+02  0.68355721065E+02  0.41800000000E+01 0. -1.
         -5    1    4    4    0  501  0.49352200972E+02  0.70366332443E+02  0.40415294359E+03  0.41321197307E+03  0.41800000000E+01 0. -1.
</event>
<event>
11    1  0.7577197E-009  0.1309569E+03  0.7561462E-02  0.1118099E+00
         22   -1    0    0    0    0  0.00000000000E+00  0.00000000000E+00  0.17303950254E+03  0.17303950254E+03  0.00000000000E+00 0. -1.
         22   -1    0    0    0    0 -0.00000000000E+00 -0.00000000000E+00 -0.90583311730E+03  0.90583311730E+03  0.00000000000E+00 0. -1.
        -24    2    1    2    0    0  0.27222608419E+01 -0.35312409830E+02 -0.60899568572E+03  0.61528281960E+03  0.80267215502E+02 0.  0.
         25    2    1    2    0    0  0.20117090848E+01  0.72263165579E+02 -0.26239894810E+03  0.29954446151E+03  0.12509062468E+03 0.  0.
         24    2    1    2    0    0 -0.47339699267E+01 -0.36950755748E+02  0.13860101906E+03  0.16404533873E+03  0.79453520093E+02 0.  0.
        -13    1    5    5    0    0  0.13046380036E+02 -0.71404946230E+01 -0.54741154263E+01  0.15848048309E+02  0.00000000000E+00 0.  1.
         14    1    5    5    0    0 -0.17780349962E+02 -0.29810261125E+02  0.14407513448E+03  0.14819729042E+03  0.00000000000E+00 0. -1.
         11    1    3    3    0    0 -0.13400828388E+02 -0.17059860947E+02 -0.56139329935E+03  0.56181229750E+03  0.00000000000E+00 0. -1.
        -12    1    3    3    0    0  0.16123089229E+02 -0.18252548883E+02 -0.47602386362E+02  0.53470522107E+02  0.00000000000E+00 0.  1.
          5    1    4    4  501    0  0.42279304475E+02  0.68887165574E+01 -0.18686246048E+03  0.19175517083E+03  0.41800000000E+01 0. -1.
         -5    1    4    4    0  501 -0.40267595390E+02  0.65374449021E+02 -0.75536487618E+02  0.10778929068E+03  0.41800000000E+01 0. -1.
</event>
<event>
11    1  0.7577197E-009  0.2732734E+03  0.7561462E-02  0.1012183E+00
         22   -1    0    0    0    0  0.00000000000E+00  0.00000000000E+00  0.21453410671E+03  0.21453410671E+03  0.00000000000E+00 0. -1.
         22   -1    0    0    0    0 -0.00000000000E+00 -0.00000000000E+00 -0.82999735036E+03  0.82999735036E+03  0.00000000000E+00 0. -1.
         24    2    1    2    0    0 -0.62029569099E+02  0.85673797012E+02 -0.27869331025E+03  0.30898100263E+03  0.81311941759E+02 0.  0.
         25    2    1    2    0    0  0.21135858925E+03  0.11284035474E+03 -0.38506545160E+03  0.47045341102E+03  0.12508241688E+03 0.  0.
        -24    2    1    2    0    0 -0.14932902015E+03 -0.19851415175E+03  0.48295518197E+02  0.26509704342E+03  0.78974430356E+02 0.  0.
        -11    1    3    3    0    0 -0.74332724620E+02  0.57128961026E+02 -0.24871283105E+03  0.26579530558E+03  0.00000000000E+00 0.  1.
         12    1    3    3    0    0  0.12303155521E+02  0.28544835985E+02 -0.29980479200E+02  0.43185697056E+02  0.00000000000E+00 0. -1.
         13    1    5    5    0    0 -0.13905074084E+03 -0.14009596838E+03  0.17228928617E+02  0.19813839826E+03  0.00000000000E+00 0. -1.
        -14    1    5    5    0    0 -0.10278279310E+02 -0.58418183366E+02  0.31066589579E+02  0.66958645158E+02  0.00000000000E+00 0.  1.
          5    1    4    4  501    0  0.16448785924E+03  0.11557763053E+03 -0.36975539536E+03  0.42089306161E+03  0.41800000000E+01 0.  1.
         -5    1    4    4    0  501  0.46870730015E+02 -0.27372757950E+01 -0.15310056240E+02  0.49560349404E+02  0.41800000000E+01 0.  1.
</event>
<event>
11    1  0.7577197E-009  0.1351738E+03  0.7561462E-02  0.1113071E+00
         22   -1    0    0    0    0  0.00000000000E+00  0.00000000000E+00  0.14337938391E+03  0.14337938391E+03  0.00000000000E+00 0. -1.
         22   -1    0    0    0    0 -0.00000000000E+00 -0.00000000000E+00 -0.35938317674E+03  0.35938317674E+03  0.00000000000E+00 0. -1.
         24    2    1    2    0    0  0.59469925827E+02  0.50147958352E+01 -0.17751823493E+03  0.20345390347E+03  0.79491803652E+02 0.  0.
         25    2    1    2    0    0 -0.33552042903E+02  0.95144715235E+01 -0.12417790984E+03  0.17968073022E+03  0.12509495102E+03 0.  0.
        -24    2    1    2    0    0 -0.25917882924E+02 -0.14529267359E+02  0.85692351940E+02  0.11962792696E+03  0.78005291244E+02 0.  0.
        -13    1    3    3    0    0  0.44899833009E+02 -0.17277075362E+02 -0.37697230397E+02  0.61119338322E+02  0.00000000000E+00 0.  1.
         14    1    3    3    0    0  0.14570092818E+02  0.22291871197E+02 -0.13982100453E+03  0.14233456515E+03  0.00000000000E+00 0. -1.
         13    1    5    5    0    0 -0.10794829812E+02 -0.46304630117E+02  0.56968589791E+02  0.74202879619E+02  0.00000000000E+00 0. -1.
        -14    1    5    5    0    0 -0.15123053112E+02  0.31775362758E+02  0.28723762148E+02  0.45425047339E+02  0.00000000000E+00 0.  1.
          5    1    4    4  501    0  0.17153445421E+02 -0.43940983478E+02 -0.18619964247E+02  0.50884439541E+02  0.41800000000E+01 0.  1.
         -5    1    4    4    0  501 -0.50705488324E+02  0.53455455001E+02 -0.10555794559E+03  0.12879629068E+03  0.41800000000E+01 0.  1.
</event>
<event>
11    1  0.7577197E-009  0.1501656E+03  0.7561462E-02  0.1096710E+00
         22   -1    0    0    0    0  0.00000000000E+00  0.00000000000E+00  0.66394984712E+03  0.66394984712E+03  0.00000000000E+00 0.  1.
         22   -1    0    0    0    0 -0.00000000000E+00 -0.00000000000E+00 -0.35367569126E+03  0.35367569126E+03  0.00000000000E+00 0.  1.
        -24    2    1    2    0    0 -0.40555406258E+02 -0.84626893929E+02 -0.24576883144E+03  0.27506774871E+03  0.80333652489E+02 0.  0.
         25    2    1    2    0    0 -0.45110714251E+01  0.51234175873E+02 -0.37005459432E+02  0.14022117597E+03  0.12508910273E+03 0.  0.
         24    2    1    2    0    0  0.45066477683E+02  0.33392718056E+02  0.59304844673E+03  0.60233661369E+03  0.89201317229E+02 0.  0.
        -11    1    5    5    0    0  0.55598429106E+02  0.36583780173E+01  0.51716465597E+03  0.52015752464E+03  0.00000000000E+00 0.  1.
         12    1    5    5    0    0 -0.10531951422E+02  0.29734340039E+02  0.75883790756E+02  0.82179089055E+02  0.00000000000E+00 0. -1.
         11    1    3    3    0    0 -0.21227750892E+02 -0.67336222581E+01 -0.72681720611E+01  0.23426169165E+02  0.00000000000E+00 0. -1.
        -12    1    3    3    0    0 -0.19327655366E+02 -0.77893271671E+02 -0.23850065938E+03  0.25164157955E+03  0.00000000000E+00 0.  1.
          5    1    4    4  501    0 -0.48124986333E+02  0.60548594509E+01 -0.56266481407E+02  0.74404737500E+02  0.41800000000E+01 0.  1.
         -5    1    4    4    0  501  0.43613914907E+02  0.45179316422E+02  0.19261021976E+02  0.65816438475E+02  0.41800000000E+01 0.  1.
</event>
<event>
11    1  0.7577197E-009  0.1744118E+03  0.7561462E-02  0.1074255E+00
         22   -1    0    0    0    0  0.00000000000E+00  0.00000000000E+00  0.26678643489E+04  0.26678643489E+04  0.00000000000E+00 0.  1.
         22   -1    0    0    0    0 -0.00000000000E+00 -0.00000000000E+00 -0.15320509790E+03  0.15320509790E+03  0.00000000000E+00 0. -1.
        -24    2    1    2    0    0 -0.13758559349E+02  0.48548678560E+02 -0.10559285249E+03  0.14350381653E+03  0.83049519677E+02 0.  0.
         25    2    1    2    0    0 -0.10885043024E+03 -0.43473596999E+02  0.25203247636E+03  0.30481064126E+03  0.12510310982E+03 0.  0.
         24    2    1    2    0    0  0.12260898959E+03 -0.50750815605E+01  0.23682196271E+04  0.23727549890E+04  0.80270260960E+02 0.  0.
        -13    1    5    5    0    0  0.11600998725E+03 -0.30787494565E+02  0.19115958664E+04  0.19153602646E+04  0.00000000000E+00 0.  1.
         14    1    5    5    0    0  0.65990023423E+01  0.25712413004E+02  0.45662376074E+03  0.45739472438E+03  0.00000000000E+00 0. -1.
         11    1    3    3    0    0  0.31954378437E+02  0.25814015813E+02 -0.70355503599E+02  0.81469887691E+02  0.00000000000E+00 0. -1.
        -12    1    3    3    0    0 -0.45712937786E+02  0.22734662747E+02 -0.35237348887E+02  0.62033928843E+02  0.00000000000E+00 0.  1.
          5    1    4    4  501    0 -0.46418625711E+02 -0.81946795185E+02  0.17227506029E+03  0.19638262360E+03  0.41800000000E+01 0.  1.
         -5    1    4    4    0  501 -0.62431804529E+02  0.38473198186E+02  0.79757416063E+02  0.10842801765E+03  0.41800000000E+01 0.  1.
</event>
<event>
11    1  0.7577197E-009  0.1850634E+03  0.7561462E-02  0.1065619E+00
         22   -1    0    0    0    0  0.00000000000E+00  0.00000000000E+00  0.13999912568E+04  0.13999912568E+04  0.00000000000E+00 0.  1.
         22   -1    0    0    0    0 -0.00000000000E+00 -0.00000000000E+00 -0.36431360349E+03  0.36431360349E+03  0.00000000000E+00 0. -1.
        -24    2    1    2    0    0  0.79025727760E+02  0.85570527762E+01 -0.22250451194E+03  0.24930648379E+03  0.79543549243E+02 0.  0.
         25    2    1    2    0    0  0.52446171231E+02  0.37434030422E+02 -0.83567796605E+02  0.16364951439E+03  0.12508269034E+03 0.  0.
         24    2    1    2    0    0 -0.13147189899E+03 -0.45991083198E+02  0.13417499618E+04  0.13513488621E+04  0.80316542686E+02 0.  0.
        -11    1    5    5    0    0 -0.85570019817E+02 -0.17940686548E+02  0.11099764136E+04  0.11134144490E+04  0.00000000000E+00 0.  1.
         12    1    5    5    0    0 -0.45901879173E+02 -0.28050396650E+02  0.23177354821E+03  0.23793441305E+03  0.00000000000E+00 0. -1.
         11    1    3    3    0    0  0.28781058338E+02 -0.28276197004E+02 -0.41498963193E+02  0.57879673307E+02  0.00000000000E+00 0. -1.
        -12    1    3    3    0    0  0.50244669422E+02  0.36833249780E+02 -0.18100554874E+03  0.19142681048E+03  0.00000000000E+00 0.  1.
          5    1    4    4  501    0  0.13742776728E+02  0.80751196096E+02 -0.42407975582E+02  0.92333787835E+02  0.41800000000E+01 0.  1.
         -5    1    4    4    0  501  0.38703394503E+02 -0.43317165674E+02 -0.41159821024E+02  0.71315726560E+02  0.41800000000E+01 0.  1.
</event>
<event>
11    1  0.7577197E-009  0.1385012E+03  0.7561462E-02  0.1109244E+00
         22   -1    0    0    0    0  0.00000000000E+00  0.00000000000E+00  0.35917653569E+03  0.35917653569E+03  0.00000000000E+00 0.  1.
         22   -1    0    0    0    0 -0.00000000000E+00 -0.00000000000E+00 -0.13276610600E+04  0.13276610600E+04  0.00000000000E+00 0.  1.
        -24    2    1    2    0    0 -0.32639869976E+01 -0.14914315427E+02 -0.10241115315E+04  0.10273970849E+04  0.80667531346E+02 0.  0.
         25    2    1    2    0    0  0.62566391975E+02  0.17663731095E+02 -0.27809035377E+03  0.31178211367E+03  0.12508909122E+03 0.  0.
         24    2    1    2    0    0 -0.59302404978E+02 -0.27494156675E+01  0.33371736102E+03  0.34765839711E+03  0.77296503884E+02 0.  0.
        -11    1    5    5    0    0 -0.64606910655E+02  0.24851625342E+02  0.22884966443E+03  0.23908957546E+03  0.00000000000E+00 0.  1.
         12    1    5    5    0    0  0.53045056779E+01 -0.27601041009E+02  0.10486769659E+03  0.10856882164E+03  0.00000000000E+00 0. -1.
         11    1    3    3    0    0  0.62145450547E+01 -0.33234277600E+02 -0.18703021922E+03  0.19006167599E+03  0.00000000000E+00 0. -1.
        -12    1    3    3    0    0 -0.94785320522E+01  0.18319962173E+02 -0.83708131232E+03  0.83733540892E+03  0.00000000000E+00 0.  1.
          5    1    4    4  501    0  0.34090668620E+02  0.18707316569E+02 -0.76983540035E+01  0.39860687833E+02  0.41800000000E+01 0.  1.
         -5    1    4    4    0  501  0.28475723355E+02 -0.10435854742E+01 -0.27039199976E+03  0.27192142583E+03  0.41800000000E+01 0.  1.
</event>
<event>
11    1  0.7577197E-009  0.1841139E+03  0.7561462E-02  0.1066363E+00
         22   -1    0    0    0    0  0.00000000000E+00  0.00000000000E+00  0.30675984342E+03  0.30675984342E+03  0.00000000000E+00 0.  1.
         22   -1    0    0    0    0 -0.00000000000E+00 -0.00000000000E+00 -0.62498086902E+03  0.62498086902E+03  0.00000000000E+00 0. -1.
        -24    2    1    2    0    0 -0.13617695203E+03 -0.26570645135E+01 -0.46815474850E+03  0.49405761838E+03  0.79830066240E+02 0.  0.
         25    2    1    2    0    0  0.12950000026E+03  0.17520491772E+02 -0.76721977048E+02  0.19649706784E+03  0.12509044013E+03 0.  0.
         24    2    1    2    0    0  0.66769517725E+01 -0.14863427258E+02  0.22665569996E+03  0.24118602622E+03  0.80823200666E+02 0.  0.
        -11    1    5    5    0    0 -0.11830570197E+02 -0.65761657924E+01  0.21914338243E+03  0.21956099473E+03  0.00000000000E+00 0.  1.
         12    1    5    5    0    0  0.18507521969E+02 -0.82872614656E+01  0.75123175300E+01  0.21625031485E+02  0.00000000000E+00 0. -1.
         13    1    3    3    0    0 -0.11394163413E+03  0.23581530027E+02 -0.41282753095E+03  0.42891182643E+03  0.00000000000E+00 0. -1.
        -14    1    3    3    0    0 -0.22235317903E+02 -0.26238594540E+02 -0.55327217552E+02  0.65145791942E+02  0.00000000000E+00 0.  1.
          5    1    4    4  501    0  0.12183323800E+03  0.60367042040E+02 -0.67281496608E+02  0.15176228066E+03  0.41800000000E+01 0.  1.
         -5    1    4    4    0  501  0.76667622584E+01 -0.42846550268E+02 -0.94404804402E+01  0.44734787183E+02  0.41800000000E+01 0.  1.
</event>
<event>
11    1  0.7577197E-009  0.1472484E+03  0.7561462E-02  0.1099724E+00
         22   -1    0    0    0    0  0.00000000000E+00  0.00000000000E+00  0.32062058362E+03  0.32062058362E+03  0.00000000000E+00 0.  1.
         22   -1    0    0    0    0 -0.00000000000E+00 -0.00000000000E+00 -0.24703591678E+03  0.24703591678E+03  0.00000000000E+00 0.  1.
        -24    2    1    2    0    0 -0.50420457170E+01 -0.52986876564E+02 -0.15018436977E+03  0.17874688500E+03  0.81006621102E+02 0.  0.
         25    2    1    2    0    0  0.71449541033E+02  0.51966817474E+01  0.70413008950E+01  0.14432790252E+03  0.12509564786E+03 0.  0.
         24    2    1    2    0    0 -0.66407495316E+02  0.47790194816E+02  0.21672773571E+03  0.24458171287E+03  0.78456642117E+02 0.  0.
        -11    1    5    5    0    0 -0.64333688894E+01  0.34656458632E+02  0.14923873319E+03  0.15334489833E+03  0.00000000000E+00 0.  1.
         12    1    5    5    0    0 -0.59974126426E+02  0.13133736184E+02  0.67489002516E+02  0.91236814540E+02  0.00000000000E+00 0. -1.
         11    1    3    3    0    0 -0.16727998493E+02  0.12167839648E+02 -0.85026684239E+01  0.22364651252E+02  0.00000000000E+00 0. -1.
        -12    1    3    3    0    0  0.11685952776E+02 -0.65154716212E+02 -0.14168170134E+03  0.15638223375E+03  0.00000000000E+00 0.  1.
          5    1    4    4  501    0  0.61154319036E+02  0.17437691707E+02 -0.52478159362E+02  0.82555153921E+02  0.41800000000E+01 0. -1.
         -5    1    4    4    0  501  0.10295221997E+02 -0.12241009960E+02  0.59519460257E+02  0.61772748604E+02  0.41800000000E+01 0. -1.
</event>
<event>
11    1  0.7577197E-009  0.1444624E+03  0.7561462E-02  0.1102675E+00
         22   -1    0    0    0    0  0.00000000000E+00  0.00000000000E+00  0.64161121593E+02  0.64161121593E+02  0.00000000000E+00 0.  1.
         22   -1    0    0    0    0 -0.00000000000E+00 -0.00000000000E+00 -0.79025097334E+03  0.79025097334E+03  0.00000000000E+00 0.  1.
         24    2    1    2    0    0 -0.38728373004E+02 -0.61557648051E+02 -0.40327723625E+03  0.41801742095E+03  0.82563939049E+02 0.  0.
         25    2    1    2    0    0  0.69612048649E+01  0.76650866036E+02 -0.31830602219E+03  0.35055658726E+03  0.12508950184E+03 0.  0.
        -24    2    1    2    0    0  0.31767168139E+02 -0.15093217985E+02 -0.45065933159E+01  0.85838086734E+02  0.78172306798E+02 0.  0.
        -11    1    3    3    0    0 -0.48751576371E+02 -0.84410126761E+01 -0.26443984261E+03  0.26902861790E+03  0.00000000000E+00 0.  1.
         12    1    3    3    0    0  0.10023203368E+02 -0.53116635375E+02 -0.13883739364E+03  0.14898880304E+03  0.00000000000E+00 0. -1.
         13    1    5    5    0    0  0.23241286815E+02  0.24239196006E+02 -0.23846244926E+02  0.41186641437E+02  0.00000000000E+00 0. -1.
        -14    1    5    5    0    0  0.85258813236E+01 -0.39332413990E+02  0.19339651610E+02  0.44651445296E+02  0.00000000000E+00 0.  1.
          5    1    4    4  501    0  0.23537976799E+02 -0.13489694351E+02 -0.19467851189E+03  0.19660418001E+03  0.41800000000E+01 0.  1.
         -5    1    4    4    0  501 -0.16576771934E+02  0.90140560387E+02 -0.12362751030E+03  0.15395240725E+03  0.41800000000E+01 0.  1.
</event>
<event>
11    1  0.7577197E-009  0.1422136E+03  0.7561462E-02  0.1105111E+00
         22   -1    0    0    0    0  0.00000000000E+00  0.00000000000E+00  0.90988319675E+03  0.90988319675E+03  0.00000000000E+00 0. -1.
         22   -1    0    0    0    0 -0.00000000000E+00 -0.00000000000E+00 -0.31034150581E+03  0.31034150581E+03  0.00000000000E+00 0. -1.
        -24    2    1    2    0    0 -0.53259173292E+02 -0.40073880698E+02 -0.26926897836E+03  0.28880946155E+03  0.80390714151E+02 0.  0.
         25    2    1    2    0    0  0.80985438623E+02  0.40738599309E+02  0.18221320917E+03  0.23888769968E+03  0.12508958678E+03 0.  0.
         24    2    1    2    0    0 -0.27726265331E+02 -0.66471861099E+00  0.68659746013E+03  0.69252754132E+03  0.86076335880E+02 0.  0.
        -13    1    5    5    0    0  0.43376804731E+01  0.10313436392E+02  0.97750343818E+01  0.14857110731E+02  0.00000000000E+00 0.  1.
         14    1    5    5    0    0 -0.32063945804E+02 -0.10978155003E+02  0.67682242575E+03  0.67767043059E+03  0.00000000000E+00 0. -1.
         11    1    3    3    0    0 -0.59514315537E+02 -0.40861121540E+02 -0.27237628584E+03  0.28178081215E+03  0.00000000000E+00 0. -1.
        -12    1    3    3    0    0  0.62551422450E+01  0.78724084187E+00  0.31073074813E+01  0.70286494031E+01  0.00000000000E+00 0.  1.
          5    1    4    4  501    0  0.92676056150E+02  0.70989784270E+02  0.16432477623E+03  0.20161474484E+03  0.41800000000E+01 0. -1.
         -5    1    4    4    0  501 -0.11690617527E+02 -0.30251184961E+02  0.17888432942E+02  0.37272954844E+02  0.41800000000E+01 0. -1.
</event>
<event>
11    1  0.7577197E-009  0.1492994E+03  0.7561462E-02  0.1097597E+00
         22   -1    0    0    0    0  0.00000000000E+00  0.00000000000E+00  0.98314816055E+03  0.98314816055E+03  0.00000000000E+00 0. -1.
         22   -1    0    0    0    0 -0.00000000000E+00 -0.00000000000E+00 -0.63031094117E+03  0.63031094117E+03  0.00000000000E+00 0.  1.
         24    2    1    2    0    0  0.30321587214E+02 -0.65025610745E+02 -0.54272678493E+03  0.55332398395E+03  0.80419770165E+02 0.  0.
         25    2    1    2    0    0 -0.95760417146E+02  0.10878091576E+03  0.38027474540E+02  0.19518569994E+03  0.12509206016E+03 0.  0.
        -24    2    1    2    0    0  0.65438829933E+02 -0.43755305014E+02  0.85753652977E+03  0.86494941783E+03  0.81066814060E+02 0.  0.
        -11    1    3    3    0    0  0.13850099822E+01 -0.41541148542E+02 -0.46777984052E+03  0.46962278956E+03  0.00000000000E+00 0.  1.
         12    1    3    3    0    0  0.28936577232E+02 -0.23484462203E+02 -0.74946944408E+02  0.83701194394E+02  0.00000000000E+00 0. -1.
         13    1    5    5    0    0  0.58596517080E+02 -0.56071896492E+02  0.83060340118E+03  0.83455354498E+03  0.00000000000E+00 0. -1.
        -14    1    5    5    0    0  0.68423128526E+01  0.12316591477E+02  0.26933128588E+02  0.30395872850E+02  0.00000000000E+00 0.  1.
          5    1    4    4  501    0 -0.11551598206E+03  0.83601488099E+02 -0.33667309346E+01  0.14269533350E+03  0.41800000000E+01 0.  1.
         -5    1    4    4    0  501  0.19755564918E+02  0.25179427660E+02  0.41394205474E+02  0.52490366443E+02  0.41800000000E+01 0.  1.
</event>
<event>
11    1  0.7577197E-009  0.1990719E+03  0.7561462E-02  0.1055182E+00
         22   -1    0    0    0    0  0.00000000000E+00  0.00000000000E+00  0.23521083221E+03  0.23521083221E+03  0.00000000000E+00 0. -1.
         22   -1    0    0    0    0 -0.00000000000E+00 -0.00000000000E+00 -0.18349963662E+04  0.18349963662E+04  0.00000000000E+00 0. -1.
         24    2    1    2    0    0 -0.94077029610E+01 -0.20840914162E+02 -0.13054879214E+04  0.13081177140E+04  0.79689349489E+02 0.  0.
         25    2    1    2    0    0 -0.80198498172E+01  0.17339844779E+03 -0.46975875098E+03  0.51619015074E+03  0.12509055885E+03 0.  0.
        -24    2    1    2    0    0  0.17427552778E+02 -0.15255753363E+03  0.17546113829E+03  0.24589933367E+03  0.78117543381E+02 0.  0.
        -11    1    3    3    0    0 -0.16885805566E+01  0.30146228619E+02 -0.59136582333E+03  0.59213611899E+03  0.00000000000E+00 0.  1.
         12    1    3    3    0    0 -0.77191224044E+01 -0.50987142780E+02 -0.71412209802E+03  0.71598159506E+03  0.00000000000E+00 0. -1.
         11    1    5    5    0    0  0.22115425514E+02 -0.15137946600E+03  0.13168113163E+03  0.20185330119E+03  0.00000000000E+00 0. -1.
        -12    1    5    5    0    0 -0.46878727356E+01 -0.11780676317E+01  0.43780006660E+02  0.44046032481E+02  0.00000000000E+00 0.  1.
          5    1    4    4  501    0  0.33799972324E+02  0.51357679257E+02 -0.27994937950E+03  0.28665166462E+03  0.41800000000E+01 0. -1.
         -5    1    4    4    0  501 -0.41819822141E+02  0.12204076854E+03 -0.18980937148E+03  0.22953848612E+03  0.41800000000E+01 0. -1.
</event>
<event>
11    1  0.7577197E-009  0.1456031E+03  0.7561462E-02  0.1101458E+00
         22   -1    0    0    0    0  0.00000000000E+00  0.00000000000E+00  0.19952880902E+04  0.19952880902E+04  0.00000000000E+00 0.  1.
         22   -1    0    0    0    0 -0.00000000000E+00 -0.00000000000E+00 -0.18390856736E+03  0.18390856736E+03  0.00000000000E+00 0.  1.
        -24    2    1    2    0    0 -0.27104726060E+01 -0.10552013083E+02 -0.12255750548E+03  0.14710098918E+03  0.80620513690E+02 0.  0.
         25    2    1    2    0    0  0.75878881371E+02 -0.34493039059E+01  0.65293200660E+02  0.16024942552E+03  0.12508866452E+03 0.  0.
         24    2    1    2    0    0 -0.73168408765E+02  0.14001316989E+02  0.18686438277E+04  0.18718462429E+04  0.80180729203E+02 0.  0.
        -11    1    5    5    0    0 -0.82148691932E+01  0.38029016985E+02  0.81568965302E+03  0.81661698504E+03  0.00000000000E+00 0.  1.
         12    1    5    5    0    0 -0.64953539572E+02 -0.24027699996E+02  0.10529541747E+04  0.10552292579E+04  0.00000000000E+00 0. -1.
         13    1    3    3    0    0 -0.58822956494E+01  0.26837800108E+01  0.11049689458E+02  0.12802332380E+02  0.00000000000E+00 0. -1.
        -14    1    3    3    0    0  0.31718230433E+01 -0.13235793094E+02 -0.13360719494E+03  0.13429865680E+03  0.00000000000E+00 0.  1.
          5    1    4    4  501    0  0.22888864843E+01  0.50505949676E+02  0.42304808196E+02  0.66054970672E+02  0.41800000000E+01 0.  1.
         -5    1    4    4    0  501  0.73589994887E+02 -0.53955253581E+02  0.22988392464E+02  0.94194454850E+02  0.41800000000E+01 0.  1.
</event>
<event>
11    1  0.7577197E-009  0.3930158E+03  0.7561462E-02  0.9670593E-01
         22   -1    0    0    0    0  0.00000000000E+00  0.00000000000E+00  0.21287213842E+04  0.21287213842E+04  0.00000000000E+00 0.  1.
         22   -1    0    0    0    0 -0.00000000000E+00 -0.00000000000E+00 -0.10575639020E+04  0.10575639020E+04  0.00000000000E+00 0. -1.
        -24    2    1    2    0    0  0.28230229414E+03 -0.20648814332E+03 -0.42118794218E+03  0.55356139235E+03  0.81847381473E+02 0.  0.
         25    2    1    2    0    0 -0.19893541160E+03  0.37547973075E+03 -0.47798225827E+03  0.65168156169E+03  0.12514588460E+03 0.  0.
         24    2    1    2    0    0 -0.83366882536E+02 -0.16899158743E+03  0.19703276826E+04  0.19810423322E+04  0.82639888421E+02 0.  0.
        -11    1    5    5    0    0 -0.98194814660E+02 -0.12300328003E+03  0.14887685028E+04  0.14970650231E+04  0.00000000000E+00 0.  1.
         12    1    5    5    0    0  0.14827932124E+02 -0.45988307405E+02  0.48155917981E+03  0.48397730902E+03  0.00000000000E+00 0. -1.
         13    1    3    3    0    0  0.15061659993E+03 -0.13809101512E+03 -0.29450352802E+03  0.35845057769E+03  0.00000000000E+00 0. -1.
        -14    1    3    3    0    0  0.13168569421E+03 -0.68397128197E+02 -0.12668441417E+03  0.19511081466E+03  0.00000000000E+00 0.  1.
          5    1    4    4  501    0 -0.94850238277E+02  0.29531624404E+03 -0.31212150330E+03  0.44005176618E+03  0.41800000000E+01 0. -1.
         -5    1    4    4    0  501 -0.10408517333E+03  0.80163486706E+02 -0.16586075498E+03  0.21162979551E+03  0.41800000000E+01 0. -1.
</event>
<event>
11    1  0.7577197E-009  0.2936937E+03  0.7561462E-02  0.1002896E+00
         22   -1    0    0    0    0  0.00000000000E+00  0.00000000000E+00  0.17226444294E+04  0.17226444294E+04  0.00000000000E+00 0.  1.
         22   -1    0    0    0    0 -0.00000000000E+00 -0.00000000000E+00 -0.18236845838E+03  0.18236845838E+03  0.00000000000E+00 0. -1.
         24    2    1    2    0    0  0.41496295319E+02 -0.23043364903E+03  0.13172073722E+02  0.24776014400E+03  0.79937327332E+02 0.  0.
         25    2    1    2    0    0  0.22838036012E+03  0.22449860799E+03  0.64120789034E+03  0.72755861012E+03  0.12504702576E+03 0.  0.
        -24    2    1    2    0    0 -0.26987665543E+03  0.59350410360E+01  0.88589600694E+03  0.92969413364E+03  0.81552517733E+02 0.  0.
        -11    1    3    3    0    0  0.44821759952E+02 -0.79221009080E+02 -0.19345587815E+02  0.93054877426E+02  0.00000000000E+00 0.  1.
         12    1    3    3    0    0 -0.33254646330E+01 -0.15121263995E+03  0.32517661537E+02  0.15470526658E+03  0.00000000000E+00 0. -1.
         11    1    5    5    0    0 -0.45352669110E+02  0.32174484430E+02  0.15752461838E+03  0.16705109230E+03  0.00000000000E+00 0. -1.
        -12    1    5    5    0    0 -0.22452398632E+03 -0.26239443394E+02  0.72837138856E+03  0.76264304134E+03  0.00000000000E+00 0.  1.
          5    1    4    4  501    0  0.44419192484E+02  0.11516354150E+03  0.30431700140E+03  0.32842353097E+03  0.41800000000E+01 0.  1.
         -5    1    4    4    0  501  0.18396116763E+03  0.10933506649E+03  0.33689088894E+03  0.39913507915E+03  0.41800000000E+01 0.  1.
</event>
<event>
11    1  0.7577197E-009  0.4660915E+03  0.7561462E-02  0.9472655E-01
         22   -1    0    0    0    0  0.00000000000E+00  0.00000000000E+00  0.55763592878E+03  0.55763592878E+03  0.00000000000E+00 0.  1.
         22   -1    0    0    0    0 -0.00000000000E+00 -0.00000000000E+00 -0.91835018739E+03  0.91835018739E+03  0.00000000000E+00 0. -1.
         24    2    1    2    0    0  0.35446822655E+03  0.27697435518E+03 -0.65848288603E+03  0.80144998958E+03  0.79748714961E+02 0.  0.
         25    2    1    2    0    0 -0.40489543779E+03 -0.20065636375E+03  0.29310574803E+03  0.55295719978E+03  0.12508954153E+03 0.  0.
        -24    2    1    2    0    0  0.50427211243E+02 -0.76317991435E+02  0.46628793940E+01  0.12157892681E+03  0.79952195398E+02 0.  0.
        -11    1    3    3    0    0  0.12051374950E+03  0.50095267120E+02 -0.17243742191E+03  0.21625855840E+03  0.00000000000E+00 0.  1.
         12    1    3    3    0    0  0.23395447705E+03  0.22687908806E+03 -0.48604546413E+03  0.58519143118E+03  0.00000000000E+00 0. -1.
         13    1    5    5    0    0 -0.14666974340E+02  0.53605387048E+01  0.69892078119E+01  0.17108610035E+02  0.00000000000E+00 0. -1.
        -14    1    5    5    0    0  0.65094185584E+02 -0.81678530139E+02 -0.23263284179E+01  0.10447031677E+03  0.00000000000E+00 0.  1.
          5    1    4    4  501    0 -0.30144605983E+03 -0.84969765832E+02  0.20679037545E+03  0.37532561846E+03  0.41800000000E+01 0.  1.
         -5    1    4    4    0  501 -0.10344937796E+03 -0.11568659792E+03  0.86315372583E+02  0.17763158132E+03  0.41800000000E+01 0.  1.
</event>
<event>
11    1  0.7577197E-009  0.2342207E+03  0.7561462E-02  0.1032658E+00
         22   -1    0    0    0    0  0.00000000000E+00  0.00000000000E+00  0.66081515495E+03  0.66081515495E+03  0.00000000000E+00 0. -1.
         22   -1    0    0    0    0 -0.00000000000E+00 -0.00000000000E+00 -0.16189347809E+04  0.16189347809E+04  0.00000000000E+00 0. -1.
         24    2    1    2    0    0 -0.13397397412E+03  0.13611323676E+03 -0.13455035282E+04  0.13605486072E+04  0.65091699193E+02 0.  0.
         25    2    1    2    0    0  0.24094405982E+03 -0.17172114023E+03 -0.15661155167E+03  0.35737534912E+03  0.12509105515E+03 0.  0.
        -24    2    1    2    0    0 -0.10697008570E+03  0.35607903470E+02  0.54399545391E+03  0.56182597950E+03  0.83706961132E+02 0.  0.
        -11    1    3    3    0    0 -0.43756361464E+02  0.32890224362E+02 -0.21915650490E+03  0.22588926417E+03  0.00000000000E+00 0.  1.
         12    1    3    3    0    0 -0.90217612655E+02  0.10322301239E+03 -0.11263470233E+04  0.11346593431E+04  0.00000000000E+00 0. -1.
         11    1    5    5    0    0 -0.44736882440E+02  0.58876184904E+02  0.29263001419E+03  0.30182796259E+03  0.00000000000E+00 0. -1.
        -12    1    5    5    0    0 -0.62233203262E+02 -0.23268281434E+02  0.25136543972E+03  0.25999801691E+03  0.00000000000E+00 0.  1.
          5    1    4    4  501    0  0.16199419210E+03 -0.13416952084E+03 -0.16784277320E+03  0.26913239774E+03  0.41800000000E+01 0.  1.
         -5    1    4    4    0  501  0.78949867721E+02 -0.37551619386E+02  0.11231221533E+02  0.88242951383E+02  0.41800000000E+01 0.  1.
</event>
<event>
11    1  0.7577197E-009  0.1449772E+03  0.7561462E-02  0.1102124E+00
         22   -1    0    0    0    0  0.00000000000E+00  0.00000000000E+00  0.73444053983E+03  0.73444053983E+03  0.00000000000E+00 0.  1.
         22   -1    0    0    0    0 -0.00000000000E+00 -0.00000000000E+00 -0.69409989795E+03  0.69409989795E+03  0.00000000000E+00 0.  1.
         24    2    1    2    0    0 -0.73886834338E+02 -0.17805224457E+02 -0.62950800669E+03  0.63904276149E+03  0.79492328056E+02 0.  0.
         25    2    1    2    0    0  0.33652250396E+02 -0.93592715088E+01  0.18211117559E+02  0.13114932766E+03  0.12509369058E+03 0.  0.
        -24    2    1    2    0    0  0.40234583942E+02  0.27164495965E+02  0.65163753101E+03  0.65834834863E+03  0.80214367359E+02 0.  0.
        -11    1    3    3    0    0 -0.83087690264E+02 -0.18743720999E+02 -0.61983461290E+03  0.62565952298E+03  0.00000000000E+00 0.  1.
         12    1    3    3    0    0  0.92008559259E+01  0.93849654217E+00 -0.96733937904E+01  0.13383238508E+02  0.00000000000E+00 0. -1.
         11    1    5    5    0    0 -0.21992122975E+02  0.62389674611E+01  0.88813809834E+02  0.91708620124E+02  0.00000000000E+00 0. -1.
        -12    1    5    5    0    0  0.62226706917E+02  0.20925528504E+02  0.56282372118E+03  0.56663972850E+03  0.00000000000E+00 0.  1.
          5    1    4    4  501    0 -0.39779050835E+02 -0.16881463831E+02  0.34486860596E+02  0.55445222158E+02  0.41800000000E+01 0.  1.
         -5    1    4    4    0  501  0.73431301231E+02  0.75221923225E+01 -0.16275743038E+02  0.75704105498E+02  0.41800000000E+01 0.  1.
</event>
<event>
11    1  0.7577197E-009  0.1847882E+03  0.7561462E-02  0.1065834E+00
         22   -1    0    0    0    0  0.00000000000E+00  0.00000000000E+00  0.22243402347E+03  0.22243402347E+03  0.00000000000E+00 0.  1.
         22   -1    0    0    0    0 -0.00000000000E+00 -0.00000000000E+00 -0.77883498350E+03  0.77883498350E+03  0.00000000000E+00 0. -1.
        -24    2    1    2    0    0 -0.12524160630E+03  0.72730985664E+02 -0.62759310832E+03  0.64904651732E+03  0.80081307466E+02 0.  0.
         25    2    1    2    0    0  0.67679771016E+02 -0.70529008490E+02 -0.73913008431E+02  0.17511649036E+03  0.12509100662E+03 0.  0.
         24    2    1    2    0    0  0.57561835287E+02 -0.22019771742E+01  0.14510515673E+03  0.17710599929E+03  0.83623052397E+02 0.  0.
        -11    1    5    5    0    0  0.38520488301E+01 -0.65939057178E+01  0.11524371069E+03  0.11549645330E+03  0.00000000000E+00 0.  1.
         12    1    5    5    0    0  0.53709786457E+02  0.43919285437E+01  0.29861446040E+02  0.61609545991E+02  0.00000000000E+00 0. -1.
         13    1    3    3    0    0 -0.46570685385E+02  0.71462558659E+02 -0.28245200042E+03  0.29505060340E+03  0.00000000000E+00 0. -1.
        -14    1    3    3    0    0 -0.78670920919E+02  0.12684270054E+01 -0.34514110791E+03  0.35399591392E+03  0.00000000000E+00 0.  1.
          5    1    4    4  501    0  0.10065267622E+03 -0.35134177480E+02 -0.33154975483E+02  0.11172330311E+03  0.41800000000E+01 0.  1.
         -5    1    4    4    0  501 -0.32972905209E+02 -0.35394831010E+02 -0.40758032948E+02  0.63393187252E+02  0.41800000000E+01 0.  1.
</event>
<event>
11    1  0.7577197E-009  0.1925241E+03  0.7561462E-02  0.1059940E+00
         22   -1    0    0    0    0  0.00000000000E+00  0.00000000000E+00  0.17674645130E+04  0.17674645130E+04  0.00000000000E+00 0. -1.
         22   -1    0    0    0    0 -0.00000000000E+00 -0.00000000000E+00 -0.54198848294E+03  0.54198848294E+03  0.00000000000E+00 0. -1.
        -24    2    1    2    0    0  0.14195192891E+03 -0.41587816542E+02 -0.47705725781E+03  0.50549971472E+03  0.77887340059E+02 0.  0.
         25    2    1    2    0    0 -0.13962732564E+03 -0.33179808962E+02  0.13693320084E+03  0.23450799862E+03  0.12508641068E+03 0.  0.
         24    2    1    2    0    0 -0.23246032718E+01  0.74767625504E+02  0.15656000871E+04  0.15694452826E+04  0.80369527594E+02 0.  0.
        -11    1    5    5    0    0  0.30539223142E+02  0.58122139188E+02  0.70313052105E+03  0.70618932082E+03  0.00000000000E+00 0.  1.
         12    1    5    5    0    0 -0.32863826414E+02  0.16645486316E+02  0.86246956600E+03  0.86325596180E+03  0.00000000000E+00 0. -1.
         13    1    3    3    0    0  0.15074581417E+03 -0.44492714316E+02 -0.45968634068E+03  0.48581419691E+03  0.00000000000E+00 0. -1.
        -14    1    3    3    0    0 -0.87938852619E+01  0.29048977742E+01 -0.17370917138E+02  0.19685517806E+02  0.00000000000E+00 0.  1.
          5    1    4    4  501    0 -0.34172611856E+01 -0.16047809395E+02  0.86582988908E+02  0.88222991497E+02  0.41800000000E+01 0. -1.
         -5    1    4    4    0  501 -0.13621006445E+03 -0.17131999567E+02  0.50350211927E+02  0.14628500712E+03  0.41800000000E+01 0. -1.
</event>
<event>
11    1  0.7577197E-009  0.3575886E+03  0.7561462E-02  0.9783912E-01
         22   -1    0    0    0    0  0.00000000000E+00  0.00000000000E+00  0.42562957764E+03  0.42562957764E+03  0.00000000000E+00 0.  1.
         22   -1    0    0    0    0 -0.00000000000E+00 -0.00000000000E+00 -0.64811457217E+03  0.64811457217E+03  0.00000000000E+00 0. -1.
        -24    2    1    2    0    0 -0.25442969435E+02 -0.30563394856E+02 -0.32651154516E+03  0.33847416045E+03  0.79834218042E+02 0.  0.
         25    2    1    2    0    0 -0.19429265591E+03  0.27979480686E+03 -0.21381928004E+02  0.36350905580E+03  0.12508747626E+03 0.  0.
         24    2    1    2    0    0  0.21973562534E+03 -0.24923141201E+03  0.12540847864E+03  0.37176093356E+03  0.10990388269E+03 0.  0.
        -13    1    5    5    0    0  0.19004029063E+03 -0.25460284391E+03  0.10236326909E+03  0.33379059161E+03  0.00000000000E+00 0.  1.
         14    1    5    5    0    0  0.29695334715E+02  0.53714319030E+01  0.23045209551E+02  0.37970341950E+02  0.00000000000E+00 0. -1.
         11    1    3    3    0    0  0.16086993493E+02 -0.45846336043E+01 -0.22643250060E+03  0.22704952665E+03  0.00000000000E+00 0. -1.
        -12    1    3    3    0    0 -0.41529962928E+02 -0.25978761252E+02 -0.10007904457E+03  0.11142463380E+03  0.00000000000E+00 0.  1.
          5    1    4    4  501    0 -0.19694938714E+03  0.25728566946E+03  0.10450143821E+02  0.32420927611E+03  0.41800000000E+01 0.  1.
         -5    1    4    4    0  501  0.26567312379E+01  0.22509137401E+02 -0.31832071825E+02  0.39299779695E+02  0.41800000000E+01 0.  1.
</event>
<event>
11    1  0.7577197E-009  0.2291527E+03  0.7561462E-02  0.1035631E+00
         22   -1    0    0    0    0  0.00000000000E+00  0.00000000000E+00  0.64686610566E+03  0.64686610566E+03  0.00000000000E+00 0. -1.
         22   -1    0    0    0    0 -0.00000000000E+00 -0.00000000000E+00 -0.23292772526E+04  0.23292772526E+04  0.00000000000E+00 0. -1.
        -24    2    1    2    0    0  0.14294171859E+03  0.12873729504E+03 -0.18907054420E+04  0.19021160669E+04  0.79201244948E+02 0.  0.
         25    2    1    2    0    0 -0.96225859392E+02 -0.17452231309E+03 -0.39613722389E+03  0.46074532674E+03  0.12507638540E+03 0.  0.
         24    2    1    2    0    0 -0.46715859193E+02  0.45785018046E+02  0.60443151898E+03  0.61328196467E+03  0.80614314336E+02 0.  0.
        -13    1    5    5    0    0 -0.46511968446E+02  0.86017610093E+01  0.14883227315E+03  0.15616785531E+03  0.00000000000E+00 0.  1.
         14    1    5    5    0    0 -0.20389074669E+00  0.37183257037E+02  0.45559924583E+03  0.45711410936E+03  0.00000000000E+00 0. -1.
         13    1    3    3    0    0  0.10790782528E+03  0.93898796481E+02 -0.16614956414E+04  0.16676417029E+04  0.00000000000E+00 0. -1.
        -14    1    3    3    0    0  0.35033893307E+02  0.34838498560E+02 -0.22920980061E+03  0.23447436397E+03  0.00000000000E+00 0.  1.
          5    1    4    4  501    0 -0.79769604638E+02 -0.14395096961E+03 -0.18886769298E+03  0.25054650133E+03  0.41800000000E+01 0.  1.
         -5    1    4    4    0  501 -0.16456254754E+02 -0.30571343474E+02 -0.20726953090E+03  0.21019882541E+03  0.41800000000E+01 0.  1.
</event>
<event>
11    1  0.7577197E-009  0.2491969E+03  0.7561462E-02  0.1024328E+00
         22   -1    0    0    0    0  0.00000000000E+00  0.00000000000E+00  0.33672338910E+04  0.33672338910E+04  0.00000000000E+00 0.  1.
         22   -1    0    0    0    0 -0.00000000000E+00 -0.00000000000E+00 -0.59185048984E+02  0.59185048984E+02  0.00000000000E+00 0. -1.
         24    2    1    2    0    0 -0.21565769083E+03 -0.26411671208E+02  0.21870576010E+03  0.31846407103E+03  0.79883283896E+02 0.  0.
         25    2    1    2    0    0  0.19653854067E+03  0.61727307073E+02  0.19230839897E+04  0.19381274941E+04  0.12509393890E+03 0.  0.
        -24    2    1    2    0    0  0.19119150160E+02 -0.35315635865E+02  0.11662590922E+04  0.11698273748E+04  0.81994394584E+02 0.  0.
        -11    1    3    3    0    0 -0.15576622173E+03 -0.10987409326E+02  0.20022311950E+03  0.25391560917E+03  0.00000000000E+00 0.  1.
         12    1    3    3    0    0 -0.59891469095E+02 -0.15424261882E+02  0.18482640599E+02  0.64548461860E+02  0.00000000000E+00 0. -1.
         13    1    5    5    0    0 -0.21520738925E+02 -0.64595065256E+01  0.78532224272E+03  0.78564361662E+03  0.00000000000E+00 0. -1.
        -14    1    5    5    0    0  0.40639889086E+02 -0.28856129339E+02  0.38093684944E+03  0.38418375817E+03  0.00000000000E+00 0.  1.
          5    1    4    4  501    0  0.19138649249E+03  0.81218777550E+02  0.14768038981E+04  0.14913726916E+04  0.41800000000E+01 0. -1.
         -5    1    4    4    0  501  0.51520481760E+01 -0.19491470478E+02  0.44628009165E+03  0.44675480257E+03  0.41800000000E+01 0. -1.
</event>
<event>
11    1  0.7577197E-009  0.1251181E+03  0.7561462E-02  0.1125417E+00
         22   -1    0    0    0    0  0.00000000000E+00  0.00000000000E+00  0.12628032123E+04  0.12628032123E+04  0.00000000000E+00 0.  1.
         22   -1    0    0    0    0 -0.00000000000E+00 -0.00000000000E+00 -0.34074750170E+03  0.34074750170E+03  0.00000000000E+00 0. -1.
         24    2    1    2    0    0  0.37937017264E+01  0.10296231368E+02 -0.30730904031E+03  0.31679254949E+03  0.76146363034E+02 0.  0.
         25    2    1    2    0    0 -0.11279525845E+01 -0.94838448905E+01  0.11702601928E+03  0.17156516847E+03  0.12509317429E+03 0.  0.
        -24    2    1    2    0    0 -0.26657491419E+01 -0.81238647702E+00  0.11123387316E+04  0.11151929960E+04  0.79688131766E+02 0.  0.
        -11    1    3    3    0    0  0.23972217719E+02 -0.49180261404E+01 -0.31795434230E+02  0.40122360865E+02  0.00000000000E+00 0.  1.
         12    1    3    3    0    0 -0.20178515992E+02  0.15214257508E+02 -0.27551360608E+03  0.27667018862E+03  0.00000000000E+00 0. -1.
         13    1    5    5    0    0 -0.61272999984E+01  0.15647994024E+02  0.50531973054E+02  0.53253017032E+02  0.00000000000E+00 0. -1.
        -14    1    5    5    0    0  0.34615508566E+01 -0.16460380501E+02  0.10618067586E+04  0.10619399790E+04  0.00000000000E+00 0.  1.
          5    1    4    4  501    0  0.45847808864E+02 -0.21094458950E+02  0.11177631706E+03  0.12271273460E+03  0.41800000000E+01 0. -1.
         -5    1    4    4    0  501 -0.46975761449E+02  0.11610614060E+02  0.52497022205E+01  0.48852433879E+02  0.41800000000E+01 0. -1.
</event>
<event>
11    1  0.7577197E-009  0.1411292E+03  0.7561462E-02  0.1106304E+00
         22   -1    0    0    0    0  0.00000000000E+00  0.00000000000E+00  0.24789271709E+04  0.24789271709E+04  0.00000000000E+00 0. -1.
         22   -1    0    0    0    0 -0.00000000000E+00 -0.00000000000E+00 -0.10797227176E+03  0.10797227176E+03  0.00000000000E+00 0. -1.
         24    2    1    2    0    0 -0.60929247983E+02 -0.25453020561E+02 -0.71862140085E+02  0.12669495205E+03  0.80791176383E+02 0.  0.
         25    2    1    2    0    0  0.53282278428E+02  0.29213262179E+01  0.59187345720E+03  0.60729627279E+03  0.12508812200E+03 0.  0.
        -24    2    1    2    0    0  0.76469695548E+01  0.22531694343E+02  0.18509435820E+04  0.18529082178E+04  0.81918047005E+02 0.  0.
        -11    1    3    3    0    0 -0.52254987829E+02 -0.42595521363E+02 -0.18395065992E+02  0.69880903301E+02  0.00000000000E+00 0.  1.
         12    1    3    3    0    0 -0.86742601536E+01  0.17142500802E+02 -0.53467074093E+02  0.56814048747E+02  0.00000000000E+00 0. -1.
         11    1    5    5    0    0 -0.26686218706E+02  0.18490284801E+02  0.33477642053E+03  0.33634698846E+03  0.00000000000E+00 0. -1.
        -12    1    5    5    0    0  0.34333188260E+02  0.40414095422E+01  0.15161671615E+04  0.15165612294E+04  0.00000000000E+00 0.  1.
          5    1    4    4  501    0  0.46496199082E+02 -0.49971602811E+02  0.19106668023E+03  0.20293596603E+03  0.41800000000E+01 0.  1.
         -5    1    4    4    0  501  0.67860793461E+01  0.52892929029E+02  0.40080677697E+03  0.40436030675E+03  0.41800000000E+01 0.  1.
</event>
<event>
11    1  0.7577197E-009  0.3254093E+03  0.7561462E-02  0.9899762E-01
         22   -1    0    0    0    0  0.00000000000E+00  0.00000000000E+00  0.60096595470E+03  0.60096595470E+03  0.00000000000E+00 0.  1.
         22   -1    0    0    0    0 -0.00000000000E+00 -0.00000000000E+00 -0.10539730117E+04  0.10539730117E+04  0.00000000000E+00 0.  1.
         24    2    1    2    0    0 -0.10846231172E+03 -0.17261392486E+02 -0.71654874672E+03  0.72935724590E+03  0.80360792627E+02 0.  0.
         25    2    1    2    0    0  0.38151768035E+03  0.94554254901E+02 -0.12899847028E+03  0.43218598903E+03  0.12509147149E+03 0.  0.
        -24    2    1    2    0    0 -0.27305536863E+03 -0.77292862415E+02  0.39254015997E+03  0.49339573150E+03  0.93905003933E+02 0.  0.
        -13    1    3    3    0    0 -0.68313211688E+02 -0.49136763712E+02 -0.47961039598E+03  0.48693659584E+03  0.00000000000E+00 0.  1.
         14    1    3    3    0    0 -0.40149100035E+02  0.31875371226E+02 -0.23693835074E+03  0.24242065006E+03  0.00000000000E+00 0. -1.
         11    1    5    5    0    0 -0.13884651719E+03  0.74249854863E+01  0.20508792240E+03  0.24777921959E+03  0.00000000000E+00 0. -1.
        -12    1    5    5    0    0 -0.13420885143E+03 -0.84717847901E+02  0.18745223756E+03  0.24561651191E+03  0.00000000000E+00 0.  1.
          5    1    4    4  501    0  0.16825942815E+03  0.23890874009E+02  0.59040516400E+01  0.17010096781E+03  0.41800000000E+01 0.  1.
         -5    1    4    4    0  501  0.21325825220E+03  0.70663380892E+02 -0.13490252192E+03  0.26208502122E+03  0.41800000000E+01 0.  1.
</event>
<event>
11    1  0.7577197E-009  0.1543503E+03  0.7561462E-02  0.1092515E+00
         22   -1    0    0    0    0  0.00000000000E+00  0.00000000000E+00  0.17559167901E+04  0.17559167901E+04  0.00000000000E+00 0. -1.
         22   -1    0    0    0    0 -0.00000000000E+00 -0.00000000000E+00 -0.99144837215E+03  0.99144837215E+03  0.00000000000E+00 0. -1.
         24    2    1    2    0    0  0.61572457242E+02 -0.65993657355E+02 -0.97378879705E+03  0.98125526481E+03  0.80317763613E+02 0.  0.
         25    2    1    2    0    0 -0.14139486297E+03  0.55568078495E+02  0.10032064638E+04  0.10223258232E+04  0.12508621488E+03 0.  0.
        -24    2    1    2    0    0  0.79822405731E+02  0.10425578860E+02  0.73505075124E+03  0.74378407427E+03  0.80217411344E+02 0.  0.
        -13    1    3    3    0    0  0.26387706703E+02 -0.15628541470E+02 -0.69941209480E+03  0.70008416689E+03  0.00000000000E+00 0.  1.
         14    1    3    3    0    0  0.35184750539E+02 -0.50365115885E+02 -0.27437670225E+03  0.28117109793E+03  0.00000000000E+00 0. -1.
         11    1    5    5    0    0  0.93231208398E+02  0.15965180050E+02  0.69004508160E+03  0.69649778164E+03  0.00000000000E+00 0. -1.
        -12    1    5    5    0    0 -0.13408802668E+02 -0.55396011901E+01  0.45005669642E+02  0.47286292625E+02  0.00000000000E+00 0.  1.
          5    1    4    4  501    0 -0.11241833215E+03  0.94852158790E+02  0.78696580776E+03  0.80060443942E+03  0.41800000000E+01 0. -1.
         -5    1    4    4    0  501 -0.28976530819E+02 -0.39284080294E+02  0.21624065600E+03  0.22172138375E+03  0.41800000000E+01 0. -1.
</event>
<event>
11    1  0.7577197E-009  0.1608948E+03  0.7561462E-02  0.1086239E+00
         22   -1    0    0    0    0  0.00000000000E+00  0.00000000000E+00  0.24119038709E+04  0.24119038709E+04  0.00000000000E+00 0.  1.
         22   -1    0    0    0    0 -0.00000000000E+00 -0.00000000000E+00 -0.48982886132E+03  0.48982886132E+03  0.00000000000E+00 0. -1.
         24    2    1    2    0    0 -0.32373377705E+02  0.15186847231E+02 -0.40791317967E+03  0.41729056006E+03  0.80371471633E+02 0.  0.
         25    2    1    2    0    0  0.74009870014E+02  0.77050961085E+02  0.14292906525E+02  0.16512448995E+03  0.12508996180E+03 0.  0.
        -24    2    1    2    0    0 -0.41636492309E+02 -0.92237808316E+02  0.23156952827E+04  0.23193176822E+04  0.80922541961E+02 0.  0.
        -13    1    3    3    0    0  0.27108136111E+02  0.40322065040E+01 -0.12121102260E+03  0.12427075976E+03  0.00000000000E+00 0.  1.
         14    1    3    3    0    0 -0.59481513816E+02  0.11154640727E+02 -0.28670215707E+03  0.29301980030E+03  0.00000000000E+00 0. -1.
         11    1    5    5    0    0  0.14760772681E+02 -0.10007430218E+02  0.11592631195E+03  0.11728997771E+03  0.00000000000E+00 0. -1.
        -12    1    5    5    0    0 -0.56397264991E+02 -0.82230378097E+02  0.21997689708E+04  0.22020277045E+04  0.00000000000E+00 0.  1.
          5    1    4    4  501    0  0.57829683677E+02  0.74979834676E+02 -0.43964275374E+02  0.10448242834E+03  0.41800000000E+01 0.  1.
         -5    1    4    4    0  501  0.16180186337E+02  0.20711264093E+01  0.58257181898E+02  0.60642061618E+02  0.41800000000E+01 0.  1.
</event>
<event>
11    1  0.7577197E-009  0.1307095E+03  0.7561462E-02  0.1118400E+00
         22   -1    0    0    0    0  0.00000000000E+00  0.00000000000E+00  0.94424547097E+03  0.94424547097E+03  0.00000000000E+00 0. -1.
         22   -1    0    0    0    0 -0.00000000000E+00 -0.00000000000E+00 -0.69647312824E+02  0.69647312824E+02  0.00000000000E+00 0. -1.
         24    2    1    2    0    0 -0.34607859979E+02  0.21222226751E+01 -0.84389036175E+01  0.88008167910E+02  0.80448832951E+02 0.  0.
         25    2    1    2    0    0  0.59522378000E+02  0.15154400427E+02  0.24163860304E+03  0.27894350006E+03  0.12509073671E+03 0.  0.
        -24    2    1    2    0    0 -0.24914518021E+02 -0.17276623102E+02  0.64139845872E+03  0.64694111582E+03  0.78877180350E+02 0.  0.
        -11    1    3    3    0    0  0.91862930961E+01 -0.25540830612E+02  0.15156799993E+02  0.31087788522E+02  0.00000000000E+00 0.  1.
         12    1    3    3    0    0 -0.43794153075E+02  0.27663053287E+02 -0.23595703611E+02  0.56920379387E+02  0.00000000000E+00 0. -1.
         13    1    5    5    0    0 -0.80667737016E+01  0.30179462335E+02  0.33256130334E+03  0.33402528836E+03  0.00000000000E+00 0. -1.
        -14    1    5    5    0    0 -0.16847744319E+02 -0.47456085437E+02  0.30883715538E+03  0.31291582746E+03  0.00000000000E+00 0.  1.
          5    1    4    4  501    0  0.97889993052E+01 -0.48956063072E+00  0.22324685605E+03  0.22350099622E+03  0.41800000000E+01 0.  1.
         -5    1    4    4    0  501  0.49733378694E+02  0.15643961058E+02  0.18391746991E+02  0.55442503833E+02  0.41800000000E+01 0.  1.
</event>
<event>
11    1  0.7577197E-009  0.1401787E+03  0.7561462E-02  0.1107359E+00
         22   -1    0    0    0    0  0.00000000000E+00  0.00000000000E+00  0.77217780459E+02  0.77217780459E+02  0.00000000000E+00 0. -1.
         22   -1    0    0    0    0 -0.00000000000E+00 -0.00000000000E+00 -0.17435478238E+04  0.17435478238E+04  0.00000000000E+00 0. -1.
         24    2    1    2    0    0 -0.78241731642E+01  0.56497497206E+02 -0.11394713598E+04  0.11437790876E+04  0.81132216702E+02 0.  0.
         25    2    1    2    0    0  0.19888079792E+01 -0.94915230109E+02 -0.56096979339E+03  0.58253536627E+03  0.12508991806E+03 0.  0.
        -24    2    1    2    0    0  0.58353651849E+01  0.38417732903E+02  0.34111109881E+02  0.94451150336E+02  0.79040991227E+02 0.  0.
        -13    1    3    3    0    0 -0.14520505837E+02 -0.67298922398E+01 -0.50996880973E+02  0.53449213355E+02  0.00000000000E+00 0.  1.
         14    1    3    3    0    0  0.66963326731E+01  0.63227389446E+02 -0.10884744789E+04  0.10903298743E+04  0.00000000000E+00 0. -1.
         11    1    5    5    0    0 -0.32080271571E+02  0.11375413913E+02 -0.40026227486E+01  0.34271925167E+02  0.00000000000E+00 0. -1.
        -12    1    5    5    0    0  0.37915636756E+02  0.27042318990E+02  0.38113732630E+02  0.60179225169E+02  0.00000000000E+00 0.  1.
          5    1    4    4  501    0  0.24240974840E+02 -0.29306880597E+02 -0.34527784967E+02  0.51537932111E+02  0.41800000000E+01 0. -1.
         -5    1    4    4    0  501 -0.22252166861E+02 -0.65608349512E+02 -0.52644200842E+03  0.53099743416E+03  0.41800000000E+01 0. -1.
</event>
<event>
11    1  0.7577197E-009  0.1355635E+03  0.7561462E-02  0.1112616E+00
         22   -1    0    0    0    0  0.00000000000E+00  0.00000000000E+00  0.20355556428E+03  0.20355556428E+03  0.00000000000E+00 0. -1.
         22   -1    0    0    0    0 -0.00000000000E+00 -0.00000000000E+00 -0.93533071127E+03  0.93533071127E+03  0.00000000000E+00 0. -1.
        -24    2    1    2    0    0  0.52481990520E+02  0.35930961613E+01 -0.73114474144E+03  0.73762276591E+03  0.82142815786E+02 0.  0.
         25    2    1    2    0    0 -0.48866822864E+02 -0.11469206310E+02 -0.16787489996E+03  0.21528915797E+03  0.12509168811E+03 0.  0.
         24    2    1    2    0    0 -0.36151676560E+01  0.78761101487E+01  0.16724449441E+03  0.18597435167E+03  0.80874198735E+02 0.  0.
        -13    1    5    5    0    0  0.46146546013E+01  0.42116953765E+01 -0.81943241495E+01  0.10304385634E+02  0.00000000000E+00 0.  1.
         14    1    5    5    0    0 -0.82298222574E+01  0.36644147721E+01  0.17543881856E+03  0.17566996604E+03  0.00000000000E+00 0. -1.
         11    1    3    3    0    0  0.68700087026E+02  0.43279220228E+01 -0.68946557136E+03  0.69289335901E+03  0.00000000000E+00 0. -1.
        -12    1    3    3    0    0 -0.16218096506E+02 -0.73482586148E+00 -0.41679170081E+02  0.44729406903E+02  0.00000000000E+00 0.  1.
          5    1    4    4  501    0  0.16886918482E+02  0.25754783067E+02 -0.12395677624E+03  0.12779370737E+03  0.41800000000E+01 0. -1.
         -5    1    4    4    0  501 -0.65753741346E+02 -0.37223989377E+02 -0.43918123717E+02  0.87495450607E+02  0.41800000000E+01 0. -1.
</event>
<event>
11    1  0.7577197E-009  0.1382765E+03  0.7561462E-02  0.1109498E+00
         22   -1    0    0    0    0  0.00000000000E+00  0.00000000000E+00  0.12048654250E+03  0.12048654250E+03  0.00000000000E+00 0. -1.
         22   -1    0    0    0    0 -0.00000000000E+00 -0.00000000000E+00 -0.80078043772E+03  0.80078043772E+03  0.00000000000E+00 0. -1.
         24    2    1    2    0    0  0.39725022914E+01 -0.58573315226E+02 -0.68050204984E+03  0.68766064623E+03  0.79671265266E+02 0.  0.
         25    2    1    2    0    0  0.60034702553E+01  0.62807639925E+02 -0.36977305110E+02  0.14489841577E+03  0.12508952199E+03 0.  0.
        -24    2    1    2    0    0 -0.99759725468E+01 -0.42343246989E+01  0.37185459735E+02  0.88707918219E+02  0.79805305621E+02 0.  0.
        -11    1    3    3    0    0  0.61717922549E+01 -0.56939357988E+02 -0.22579717983E+03  0.23294752183E+03  0.00000000000E+00 0.  1.
         12    1    3    3    0    0 -0.21992899635E+01 -0.16339572379E+01 -0.45470487001E+03  0.45471312440E+03  0.00000000000E+00 0. -1.
         11    1    5    5    0    0  0.12276983636E+02  0.12653188005E+02  0.53518890887E+02  0.56348018383E+02  0.00000000000E+00 0. -1.
        -12    1    5    5    0    0 -0.22252956183E+02 -0.16887512704E+02 -0.16333431153E+02  0.32359899836E+02  0.00000000000E+00 0.  1.
          5    1    4    4  501    0  0.10439430367E+01  0.78107197965E+02 -0.71883759465E+02  0.10623827684E+03  0.41800000000E+01 0.  1.
         -5    1    4    4    0  501  0.49595272186E+01 -0.15299558041E+02  0.34906454355E+02  0.38660138930E+02  0.41800000000E+01 0.  1.
</event>
<event>
11    1  0.7577197E-009  0.1447514E+03  0.7561462E-02  0.1102366E+00
         22   -1    0    0    0    0  0.00000000000E+00  0.00000000000E+00  0.13683282577E+04  0.13683282577E+04  0.00000000000E+00 0.  1.
         22   -1    0    0    0    0 -0.00000000000E+00 -0.00000000000E+00 -0.84329884276E+03  0.84329884276E+03  0.00000000000E+00 0.  1.
         24    2    1    2    0    0  0.72764541929E+02  0.18845969005E+01 -0.82200052771E+03  0.82908495979E+03  0.79992329117E+02 0.  0.
         25    2    1    2    0    0 -0.77014924111E+02  0.15503125575E+00  0.31639071446E+03  0.34883048059E+03  0.12509315497E+03 0.  0.
        -24    2    1    2    0    0  0.42503821820E+01 -0.20396281562E+01  0.10306392282E+04  0.10337116601E+04  0.79500639510E+02 0.  0.
        -13    1    3    3    0    0  0.79711829496E+02 -0.14718168820E+02 -0.49530458303E+03  0.50189364434E+03  0.00000000000E+00 0.  1.
         14    1    3    3    0    0 -0.69472875670E+01  0.16602765720E+02 -0.32669594468E+03  0.32719131545E+03  0.00000000000E+00 0. -1.
         11    1    5    5    0    0 -0.34713894840E+02  0.84777208484E+01  0.63901111095E+03  0.64000947350E+03  0.00000000000E+00 0. -1.
        -12    1    5    5    0    0  0.38964277022E+02 -0.10517349005E+02  0.39162811728E+03  0.39370218663E+03  0.00000000000E+00 0.  1.
          5    1    4    4  501    0 -0.10032245093E+03 -0.11862075174E+02  0.30231904169E+03  0.31877825891E+03  0.41800000000E+01 0.  1.
         -5    1    4    4    0  501  0.23307526815E+02  0.12017106430E+02  0.14071672773E+02  0.30052221678E+02  0.41800000000E+01 0.  1.
</event>
<event>
11    1  0.7577197E-009  0.3523391E+03  0.7561462E-02  0.9801898E-01
         22   -1    0    0    0    0  0.00000000000E+00  0.00000000000E+00  0.11198559328E+03  0.11198559328E+03  0.00000000000E+00 0. -1.
         22   -1    0    0    0    0 -0.00000000000E+00 -0.00000000000E+00 -0.24143773202E+04  0.24143773202E+04  0.00000000000E+00 0. -1.
         24    2    1    2    0    0 -0.28810938533E+03  0.16052445771E+03 -0.11331383516E+04  0.11829568440E+04  0.81297302874E+02 0.  0.
         25    2    1    2    0    0  0.37372041654E+03  0.56987218445E+02 -0.85532037450E+03  0.94346890712E+03  0.12508454281E+03 0.  0.
        -24    2    1    2    0    0 -0.85611031205E+02 -0.21751167616E+03 -0.31393300089E+03  0.39993716243E+03  0.82190187461E+02 0.  0.
        -11    1    3    3    0    0 -0.12754270987E+03  0.55038705481E+02 -0.34906110277E+03  0.37568611288E+03  0.00000000000E+00 0.  1.
         12    1    3    3    0    0 -0.16056667547E+03  0.10548575223E+03 -0.78407724880E+03  0.80727073109E+03  0.00000000000E+00 0. -1.
         11    1    5    5    0    0 -0.49383160878E+01 -0.11981927064E+03 -0.17205351775E+03  0.20972233441E+03  0.00000000000E+00 0. -1.
        -12    1    5    5    0    0 -0.80672715118E+02 -0.97692405520E+02 -0.14187948314E+03  0.19021482802E+03  0.00000000000E+00 0.  1.
          5    1    4    4  501    0  0.13674063638E+03  0.37556676067E+02 -0.46740615079E+03  0.48846134725E+03  0.41800000000E+01 0. -1.
         -5    1    4    4    0  501  0.23697978016E+03  0.19430542378E+02 -0.38791422371E+03  0.45500755987E+03  0.41800000000E+01 0. -1.
</event>
<event>
11    1  0.7577197E-009  0.2400403E+03  0.7561462E-02  0.1029343E+00
         22   -1    0    0    0    0  0.00000000000E+00  0.00000000000E+00  0.96914743171E+03  0.96914743171E+03  0.00000000000E+00 0.  1.
         22   -1    0    0    0    0 -0.00000000000E+00 -0.00000000000E+00 -0.39491306871E+03  0.39491306871E+03  0.00000000000E+00 0. -1.
         24    2    1    2    0    0 -0.16883688355E+03  0.59187956715E+02 -0.13988309355E+03  0.24048930937E+03  0.79112076159E+02 0.  0.
         25    2    1    2    0    0  0.24354715585E+03 -0.83732421055E+02 -0.98754296313E+02  0.30286346935E+03  0.12509010581E+03 0.  0.
        -24    2    1    2    0    0 -0.74710272295E+02  0.24544464340E+02  0.81287175287E+03  0.82070772169E+03  0.81342622974E+02 0.  0.
        -13    1    3    3    0    0 -0.28369039380E+02  0.20396017255E+02  0.46445941851E+01  0.35247300186E+02  0.00000000000E+00 0.  1.
         14    1    3    3    0    0 -0.14046784417E+03  0.38791939460E+02 -0.14452768774E+03  0.20524200919E+03  0.00000000000E+00 0. -1.
         11    1    5    5    0    0 -0.78070393673E+02  0.68978727858E+01  0.40928962529E+03  0.41672600638E+03  0.00000000000E+00 0. -1.
        -12    1    5    5    0    0  0.33601213783E+01  0.17646591555E+02  0.40358212758E+03  0.40398171532E+03  0.00000000000E+00 0.  1.
          5    1    4    4  501    0  0.18865780583E+02 -0.27963442352E+02  0.23218649645E+02  0.41163696099E+02  0.41800000000E+01 0. -1.
         -5    1    4    4    0  501  0.22468137526E+03 -0.55768978703E+02 -0.12197294596E+03  0.26169977325E+03  0.41800000000E+01 0. -1.
</event>
<event>
11    1  0.7577197E-009  0.1714778E+03  0.7561462E-02  0.1076753E+00
         22   -1    0    0    0    0  0.00000000000E+00  0.00000000000E+00  0.82293080219E+03  0.82293080219E+03  0.00000000000E+00 0.  1.
         22   -1    0    0    0    0 -0.00000000000E+00 -0.00000000000E+00 -0.16013779971E+04  0.16013779971E+04  0.00000000000E+00 0.  1.
        -24    2    1    2    0    0  0.42910939529E+02 -0.10769957126E+02 -0.14917165628E+04  0.14945893649E+04  0.81373983238E+02 0.  0.
         25    2    1    2    0    0 -0.14629175109E+03 -0.39950296681E+02 -0.61635553278E+01  0.19667992814E+03  0.12509077535E+03 0.  0.
         24    2    1    2    0    0  0.10338081156E+03  0.50720253807E+02  0.71943292322E+03  0.73303950628E+03  0.80641493078E+02 0.  0.
        -13    1    5    5    0    0  0.80661655784E+02  0.39115360470E+02  0.68122042097E+03  0.68709357157E+03  0.00000000000E+00 0.  1.
         14    1    5    5    0    0  0.22719155773E+02  0.11604893337E+02  0.38212502248E+02  0.45945934710E+02  0.00000000000E+00 0. -1.
         11    1    3    3    0    0  0.30932925339E+01  0.13733230281E+02 -0.45742358403E+02  0.47859517600E+02  0.00000000000E+00 0. -1.
        -12    1    3    3    0    0  0.39817646995E+02 -0.24503187406E+02 -0.14459742044E+04  0.14467298473E+04  0.00000000000E+00 0.  1.
          5    1    4    4  501    0 -0.15564060588E+03 -0.28097070703E+02  0.26536468498E+02  0.16042163239E+03  0.41800000000E+01 0.  1.
         -5    1    4    4    0  501  0.93488547912E+01 -0.11853225977E+02 -0.32700023825E+02  0.36258295743E+02  0.41800000000E+01 0.  1.
</event>
<event>
11    1  0.7577197E-009  0.1924335E+03  0.7561462E-02  0.1060007E+00
         22   -1    0    0    0    0  0.00000000000E+00  0.00000000000E+00  0.56922899621E+03  0.56922899621E+03  0.00000000000E+00 0. -1.
         22   -1    0    0    0    0 -0.00000000000E+00 -0.00000000000E+00 -0.23015661314E+04  0.23015661314E+04  0.00000000000E+00 0.  1.
        -24    2    1    2    0    0  0.67748260356E+02  0.76793268518E+02 -0.21865252246E+04  0.21903154304E+04  0.78115898551E+02 0.  0.
         25    2    1    2    0    0 -0.17740243189E+03  0.18745807026E+02  0.24652044088E+02  0.21926782652E+03  0.12509048064E+03 0.  0.
         24    2    1    2    0    0  0.10965417154E+03 -0.95539075544E+02  0.42953604535E+03  0.46121187075E+03  0.84044173969E+02 0.  0.
        -11    1    5    5    0    0  0.27738942552E+02 -0.75565154416E+02  0.16544756934E+03  0.18399032501E+03  0.00000000000E+00 0.  1.
         12    1    5    5    0    0  0.81915228985E+02 -0.19973921128E+02  0.26408847601E+03  0.27722154574E+03  0.00000000000E+00 0. -1.
         11    1    3    3    0    0  0.32753444926E+02  0.11778002639E+01 -0.27032466001E+03  0.27230423643E+03  0.00000000000E+00 0. -1.
        -12    1    3    3    0    0  0.34994815430E+02  0.75615468254E+02 -0.19162005646E+04  0.19180111939E+04  0.00000000000E+00 0.  1.
          5    1    4    4  501    0 -0.14522609960E+03  0.62905164733E+02 -0.19991951834E+01  0.15833240014E+03  0.41800000000E+01 0. -1.
         -5    1    4    4    0  501 -0.32176332297E+02 -0.44159357707E+02  0.26651239272E+02  0.60935426378E+02  0.41800000000E+01 0. -1.
</event>
<event>
11    1  0.7577197E-009  0.7959240E+03  0.7561462E-02  0.8901778E-01
         22   -1    0    0    0    0  0.00000000000E+00  0.00000000000E+00  0.24263659963E+04  0.24263659963E+04  0.00000000000E+00 0. -1.
         22   -1    0    0    0    0 -0.00000000000E+00 -0.00000000000E+00 -0.31908615992E+03  0.31908615992E+03  0.00000000000E+00 0. -1.
         24    2    1    2    0    0 -0.81365298497E+01  0.19467586474E+02  0.47842762255E+02  0.99226280087E+02  0.84331101728E+02 0.  0.
         25    2    1    2    0    0  0.48408482881E+02  0.77218210958E+03  0.61340752941E+03  0.99525049103E+03  0.12508457612E+03 0.  0.
        -24    2    1    2    0    0 -0.40271953031E+02 -0.79164969605E+03  0.14460295447E+04  0.16509753851E+04  0.79920001322E+02 0.  0.
        -13    1    3    3    0    0 -0.22404699334E+02 -0.85788320411E+01 -0.15455137338E+02  0.28538188127E+02  0.00000000000E+00 0.  1.
         14    1    3    3    0    0  0.14268169485E+02  0.28046418515E+02  0.63297899594E+02  0.70688091960E+02  0.00000000000E+00 0. -1.
         11    1    5    5    0    0 -0.39568991341E+02 -0.39173928505E+03  0.64528683330E+03  0.75592358725E+03  0.00000000000E+00 0. -1.
        -12    1    5    5    0    0 -0.70296169010E+00 -0.39991041100E+03  0.80074271143E+03  0.89505179788E+03  0.00000000000E+00 0.  1.
          5    1    4    4  501    0  0.42223761524E+02  0.14349619720E+03  0.74457351864E+02  0.16713878752E+03  0.41800000000E+01 0. -1.
         -5    1    4    4    0  501  0.61847213568E+01  0.62868591238E+03  0.53895017755E+03  0.82811170350E+03  0.41800000000E+01 0. -1.
</event>
<event>
11    1  0.7577197E-009  0.1389027E+03  0.7561462E-02  0.1108790E+00
         22   -1    0    0    0    0  0.00000000000E+00  0.00000000000E+00  0.11177838583E+03  0.11177838583E+03  0.00000000000E+00 0. -1.
         22   -1    0    0    0    0 -0.00000000000E+00 -0.00000000000E+00 -0.13144235459E+04  0.13144235459E+04  0.00000000000E+00 0. -1.
        -24    2    1    2    0    0 -0.27607527723E+01 -0.36607230691E+02 -0.86197612139E+03  0.86642178707E+03  0.79600051255E+02 0.  0.
         25    2    1    2    0    0  0.56429915960E+02  0.69301996592E+01 -0.41024627241E+03  0.43264495007E+03  0.12508911107E+03 0.  0.
         24    2    1    2    0    0 -0.53669163188E+02  0.29677031032E+02  0.69577233772E+02  0.12713519456E+03  0.86955511548E+02 0.  0.
        -13    1    5    5    0    0 -0.25288656350E+01 -0.24539866740E+02  0.39905645246E+02  0.46915463800E+02  0.00000000000E+00 0.  1.
         14    1    5    5    0    0 -0.51140297553E+02  0.54216897772E+02  0.29671588526E+02  0.80219730762E+02  0.00000000000E+00 0. -1.
         13    1    3    3    0    0  0.16508185564E+02  0.29927381561E+00 -0.65964223209E+03  0.65984883429E+03  0.00000000000E+00 0. -1.
        -14    1    3    3    0    0 -0.19268938336E+02 -0.36906504507E+02 -0.20233388930E+03  0.20657295278E+03  0.00000000000E+00 0.  1.
          5    1    4    4  501    0  0.96557747708E+02  0.79342674289E+01 -0.28319681565E+03  0.29933970675E+03  0.41800000000E+01 0. -1.
         -5    1    4    4    0  501 -0.40127831747E+02 -0.10040677697E+01 -0.12704945676E+03  0.13330524332E+03  0.41800000000E+01 0. -1.
</event>
<event>
11    1  0.7577197E-009  0.4361977E+03  0.7561462E-02  0.9548606E-01
         22   -1    0    0    0    0  0.00000000000E+00  0.00000000000E+00  0.49897292233E+03  0.49897292233E+03  0.00000000000E+00 0. -1.
         22   -1    0    0    0    0 -0.00000000000E+00 -0.00000000000E+00 -0.69795544514E+03  0.69795544514E+03  0.00000000000E+00 0. -1.
        -24    2    1    2    0    0 -0.18077758451E+03  0.35314434803E+03 -0.53245728947E+02  0.40811165169E+03  0.79552165197E+02 0.  0.
         25    2    1    2    0    0  0.41006744574E+03 -0.23704942840E+03 -0.16883691756E+03  0.51817123257E+03  0.12509108669E+03 0.  0.
         24    2    1    2    0    0 -0.22928986123E+03 -0.11609491963E+03  0.23100123700E+02  0.27064548321E+03  0.81630209124E+02 0.  0.
        -13    1    5    5    0    0 -0.81280759307E+02  0.58772889100E-01  0.12135241525E+02  0.82181685153E+02  0.00000000000E+00 0.  1.
         14    1    5    5    0    0 -0.14800910192E+03 -0.11615369252E+03  0.10964882175E+02  0.18846379806E+03  0.00000000000E+00 0. -1.
         11    1    3    3    0    0 -0.15408107439E+03  0.33239301608E+03 -0.31088136230E+02  0.36768541831E+03  0.00000000000E+00 0. -1.
        -12    1    3    3    0    0 -0.26696510120E+02  0.20751331950E+02 -0.22157592717E+02  0.40426233381E+02  0.00000000000E+00 0.  1.
          5    1    4    4  501    0  0.23368928820E+03 -0.63703325565E+02 -0.74419308288E+02  0.25342553729E+03  0.41800000000E+01 0. -1.
         -5    1    4    4    0  501  0.17637815755E+03 -0.17334610283E+03 -0.94417609271E+02  0.26474569528E+03  0.41800000000E+01 0. -1.
</event>
<event>
11    1  0.7577197E-009  0.1304217E+03  0.7561462E-02  0.1118752E+00
         22   -1    0    0    0    0  0.00000000000E+00  0.00000000000E+00  0.13224352862E+04  0.13224352862E+04  0.00000000000E+00 0. -1.
         22   -1    0    0    0    0 -0.00000000000E+00 -0.00000000000E+00 -0.39697145713E+03  0.39697145713E+03  0.00000000000E+00 0.  1.
        -24    2    1    2    0    0  0.29939347064E+02 -0.21611056440E+02 -0.38280179807E+03  0.39306714584E+03  0.81247537002E+02 0.  0.
         25    2    1    2    0    0 -0.42877339498E+02  0.57565119996E+01  0.68592696486E+03  0.69857937730E+03  0.12508293889E+03 0.  0.
         24    2    1    2    0    0  0.12937992434E+02  0.15854544440E+02  0.62233866228E+03  0.62776022018E+03  0.79741615517E+02 0.  0.
        -13    1    5    5    0    0  0.97554424987E+01  0.27902235283E+02  0.80123093726E+02  0.85401484415E+02  0.00000000000E+00 0.  1.
         14    1    5    5    0    0  0.31825499348E+01 -0.12047690842E+02  0.54221556855E+03  0.54235873577E+03  0.00000000000E+00 0. -1.
         13    1    3    3    0    0  0.18244407136E+02 -0.31911165534E+01 -0.13014417607E+02  0.22636622589E+02  0.00000000000E+00 0. -1.
        -14    1    3    3    0    0  0.11694939928E+02 -0.18419939886E+02 -0.36978738046E+03  0.37043052325E+03  0.00000000000E+00 0.  1.
          5    1    4    4  501    0  0.15391862790E+02 -0.16121577062E+02  0.21562397127E+02  0.31292555936E+02  0.41800000000E+01 0.  1.
         -5    1    4    4    0  501 -0.58269202287E+02  0.21878089062E+02  0.66436456773E+03  0.66728682137E+03  0.41800000000E+01 0.  1.
</event>
<event>
11    1  0.7577197E-009  0.1796071E+03  0.7561462E-02  0.1069961E+00
         22   -1    0    0    0    0  0.00000000000E+00  0.00000000000E+00  0.11617200937E+04  0.11617200937E+04  0.00000000000E+00 0. -1.
         22   -1    0    0    0    0 -0.00000000000E+00 -0.00000000000E+00 -0.33979833138E+03  0.33979833138E+03  0.00000000000E+00 0.  1.
         24    2    1    2    0    0 -0.28635377377E+02 -0.35845404077E+02 -0.15729096574E+03  0.18261336030E+03  0.80636924697E+02 0.  0.
         25    2    1    2    0    0 -0.41147828171E+02 -0.74148054954E+02 -0.13004589685E+03  0.19937599864E+03  0.12509106974E+03 0.  0.
        -24    2    1    2    0    0  0.69783205548E+02  0.10999345903E+03  0.11092586250E+04  0.11195290662E+04  0.76956976112E+02 0.  0.
        -13    1    3    3    0    0 -0.99756046104E+01 -0.19427909319E+02 -0.15621697160E+03  0.15773616759E+03  0.00000000000E+00 0.  1.
         14    1    3    3    0    0 -0.18659772767E+02 -0.16417494758E+02 -0.10739941382E+01  0.24877192712E+02  0.00000000000E+00 0. -1.
         11    1    5    5    0    0  0.56272496649E+02  0.78819252739E+02  0.49814467256E+03  0.50747136203E+03  0.00000000000E+00 0. -1.
        -12    1    5    5    0    0  0.13510708899E+02  0.31174206291E+02  0.61111395241E+03  0.61205770416E+03  0.00000000000E+00 0.  1.
          5    1    4    4  501    0 -0.57031957274E+02 -0.73406545072E+02 -0.29677454570E+02  0.97669794305E+02  0.41800000000E+01 0. -1.
         -5    1    4    4    0  501  0.15884129103E+02 -0.74150988217E+00 -0.10036844228E+03  0.10170620433E+03  0.41800000000E+01 0. -1.
</event>
<event>
11    1  0.7577197E-009  0.1660855E+03  0.7561462E-02  0.1081489E+00
         22   -1    0    0    0    0  0.00000000000E+00  0.00000000000E+00  0.97701617578E+03  0.97701617578E+03  0.00000000000E+00 0. -1.
         22   -1    0    0    0    0 -0.00000000000E+00 -0.00000000000E+00 -0.85429705791E+03  0.85429705791E+03  0.00000000000E+00 0. -1.
         24    2    1    2    0    0 -0.49839917184E+02  0.17422049564E+02 -0.79053288375E+03  0.79634175016E+03  0.80189759928E+02 0.  0.
         25    2    1    2    0    0  0.45398088692E+02 -0.12513903232E+03  0.94852926615E+02  0.20582915231E+03  0.12509116031E+03 0.  0.
        -24    2    1    2    0    0  0.44418284914E+01  0.10771698276E+03  0.81839907501E+03  0.82914233121E+03  0.77956918961E+02 0.  0.
        -13    1    3    3    0    0 -0.13098869004E+02  0.15420807390E+01 -0.15825594402E+02  0.20601160656E+02  0.00000000000E+00 0.  1.
         14    1    3    3    0    0 -0.36741048180E+02  0.15879968825E+02 -0.77470728935E+03  0.77574058950E+03  0.00000000000E+00 0. -1.
         11    1    5    5    0    0 -0.38858030066E+00  0.12896168269E+02  0.39575726094E+03  0.39596751349E+03  0.00000000000E+00 0. -1.
        -12    1    5    5    0    0  0.48304087921E+01  0.94820814489E+02  0.42264181407E+03  0.43317481772E+03  0.00000000000E+00 0.  1.
          5    1    4    4  501    0  0.24382227044E+02 -0.14255597320E+03  0.10233630788E+03  0.17721989392E+03  0.41800000000E+01 0. -1.
         -5    1    4    4    0  501  0.21015861648E+02  0.17416940883E+02 -0.74833812610E+01  0.28609258390E+02  0.41800000000E+01 0. -1.
</event>
<event>
11    1  0.7577197E-009  0.6990287E+03  0.7561462E-02  0.9033737E-01
         22   -1    0    0    0    0  0.00000000000E+00  0.00000000000E+00  0.99580966136E+02  0.99580966136E+02  0.00000000000E+00 0. -1.
         22   -1    0    0    0    0 -0.00000000000E+00 -0.00000000000E+00 -0.12267433480E+04  0.12267433480E+04  0.00000000000E+00 0. -1.
        -24    2    1    2    0    0 -0.31229074351E+02  0.24359847491E+02 -0.14130669797E+03  0.17110015816E+03  0.87971722589E+02 0.  0.
         25    2    1    2    0    0  0.21799852601E+03 -0.19988387896E+03 -0.41595395948E+03  0.52549252162E+03  0.12509105266E+03 0.  0.
         24    2    1    2    0    0 -0.18676945166E+03  0.17552403147E+03 -0.56990172436E+03  0.62973163431E+03  0.77990012996E+02 0.  0.
        -11    1    5    5    0    0 -0.20800329682E+02 -0.62600616868E+01 -0.43617457061E+02  0.48727042262E+02  0.00000000000E+00 0.  1.
         12    1    5    5    0    0 -0.16596912197E+03  0.18178409316E+03 -0.52628426730E+03  0.58100459205E+03  0.00000000000E+00 0. -1.
         13    1    3    3    0    0 -0.17917769978E+02 -0.26120716498E+02 -0.16285780698E+02  0.35616919635E+02  0.00000000000E+00 0. -1.
        -14    1    3    3    0    0 -0.13311304373E+02  0.50480563989E+02 -0.12502091727E+03  0.13548323852E+03  0.00000000000E+00 0.  1.
          5    1    4    4  501    0  0.10871256618E+02  0.75938365672E+01 -0.72900060329E+02  0.74214161521E+02  0.41800000000E+01 0.  1.
         -5    1    4    4    0  501  0.20712726939E+03 -0.20747771553E+03 -0.34305389915E+03  0.45127836010E+03  0.41800000000E+01 0.  1.
</event>
<event>
11    1  0.7577197E-009  0.1341202E+03  0.7561462E-02  0.1114308E+00
         22   -1    0    0    0    0  0.00000000000E+00  0.00000000000E+00  0.68147092639E+02  0.68147092639E+02  0.00000000000E+00 0.  1.
         22   -1    0    0    0    0 -0.00000000000E+00 -0.00000000000E+00 -0.10811181243E+04  0.10811181243E+04  0.00000000000E+00 0.  1.
         24    2    1    2    0    0 -0.33101745710E+02 -0.37431837482E+02 -0.54011507868E+03  0.54824836749E+03  0.79718920027E+02 0.  0.
         25    2    1    2    0    0  0.10731576446E+02 -0.95378641832E+01 -0.48796198824E+03  0.50394600474E+03  0.12509410910E+03 0.  0.
        -24    2    1    2    0    0  0.22370169264E+02  0.46969701665E+02  0.15106035280E+02  0.97070844698E+02  0.80547993402E+02 0.  0.
        -13    1    3    3    0    0  0.73381907903E+01  0.20853203225E+02 -0.16614068755E+03  0.16760499153E+03  0.00000000000E+00 0.  1.
         14    1    3    3    0    0 -0.40439936500E+02 -0.58285040707E+02 -0.37397439113E+03  0.38064337595E+03  0.00000000000E+00 0. -1.
         13    1    5    5    0    0 -0.23308241935E+02  0.43737975725E+02  0.27334772520E+01  0.49636242409E+02  0.00000000000E+00 0. -1.
        -14    1    5    5    0    0  0.45678411199E+02  0.32317259405E+01  0.12372558028E+02  0.47434602289E+02  0.00000000000E+00 0.  1.
          5    1    4    4  501    0  0.44743120837E+02 -0.53659193046E+02 -0.27900063682E+03  0.28764576063E+03  0.41800000000E+01 0. -1.
         -5    1    4    4    0  501 -0.34011544391E+02  0.44121328863E+02 -0.20896135142E+03  0.21630024410E+03  0.41800000000E+01 0. -1.
</event>
<event>
11    1  0.7577197E-009  0.1584280E+03  0.7561462E-02  0.1088565E+00
         22   -1    0    0    0    0  0.00000000000E+00  0.00000000000E+00  0.38008225747E+03  0.38008225747E+03  0.00000000000E+00 0.  1.
         22   -1    0    0    0    0 -0.00000000000E+00 -0.00000000000E+00 -0.72554840748E+03  0.72554840748E+03  0.00000000000E+00 0. -1.
        -24    2    1    2    0    0  0.59600078683E+02  0.74166152536E+02 -0.62578905005E+03  0.63807229095E+03  0.80445793880E+02 0.  0.
         25    2    1    2    0    0 -0.97084419935E+02 -0.87459349057E+02  0.73153287320E+01  0.18103725261E+03  0.12508577244E+03 0.  0.
         24    2    1    2    0    0  0.37484341252E+02  0.13293196520E+02  0.27300757130E+03  0.28652112139E+03  0.77326800700E+02 0.  0.
        -13    1    5    5    0    0  0.16960418673E+02 -0.15038299007E+02  0.22985009172E+03  0.23096508590E+03  0.00000000000E+00 0.  1.
         14    1    5    5    0    0  0.20523922579E+02  0.28331495528E+02  0.43157479573E+02  0.55556035495E+02  0.00000000000E+00 0. -1.
         13    1    3    3    0    0  0.47216551022E+02  0.77332795379E+02 -0.61410954076E+03  0.62075783683E+03  0.00000000000E+00 0. -1.
        -14    1    3    3    0    0  0.12383527661E+02 -0.31666428429E+01 -0.11679509290E+02  0.17314454120E+02  0.00000000000E+00 0.  1.
          5    1    4    4  501    0 -0.64800309280E+01  0.17051368187E+02 -0.32096700924E+02  0.37153876892E+02  0.41800000000E+01 0. -1.
         -5    1    4    4    0  501 -0.90604389007E+02 -0.10451071724E+03  0.39412029656E+02  0.14388337572E+03  0.41800000000E+01 0. -1.
</event>
<event>
11    1  0.7577197E-009  0.1432464E+03  0.7561462E-02  0.1103987E+00
         22   -1    0    0    0    0  0.00000000000E+00  0.00000000000E+00  0.87868133336E+03  0.87868133336E+03  0.00000000000E+00 0.  1.
         22   -1    0    0    0    0 -0.00000000000E+00 -0.00000000000E+00 -0.74232909092E+03  0.74232909092E+03  0.00000000000E+00 0. -1.
         24    2    1    2    0    0 -0.35637469523E+00  0.70738394302E+02 -0.69197722629E+03  0.70039032685E+03  0.81915082970E+02 0.  0.
         25    2    1    2    0    0 -0.22771762248E+02 -0.46312440441E+02  0.60952575637E+02  0.14841338562E+03  0.12509165143E+03 0.  0.
        -24    2    1    2    0    0  0.23128136943E+02 -0.24425953862E+02  0.76737689309E+03  0.77220671182E+03  0.79400074252E+02 0.  0.
        -13    1    3    3    0    0  0.20608225459E+01  0.51238973953E+02 -0.15929160682E+03  0.16734244962E+03  0.00000000000E+00 0.  1.
         14    1    3    3    0    0 -0.24171972411E+01  0.19499420350E+02 -0.53268561946E+03  0.53304787723E+03  0.00000000000E+00 0. -1.
         11    1    5    5    0    0 -0.19369643568E+02  0.17343712259E+02  0.19198364038E+03  0.19373617531E+03  0.00000000000E+00 0. -1.
        -12    1    5    5    0    0  0.42497780512E+02 -0.41769666120E+02  0.57539325270E+03  0.57847053651E+03  0.00000000000E+00 0.  1.
          5    1    4    4  501    0 -0.52302899107E+02 -0.57071116316E+02  0.80019770255E+02  0.11141517672E+03  0.41800000000E+01 0.  1.
         -5    1    4    4    0  501  0.29531136859E+02  0.10758675875E+02 -0.19067194617E+02  0.36998208894E+02  0.41800000000E+01 0.  1.
</event>
<event>
11    1  0.7577197E-009  0.1450195E+03  0.7561462E-02  0.1102079E+00
         22   -1    0    0    0    0  0.00000000000E+00  0.00000000000E+00  0.58568968675E+02  0.58568968675E+02  0.00000000000E+00 0. -1.
         22   -1    0    0    0    0 -0.00000000000E+00 -0.00000000000E+00 -0.24795999082E+04  0.24795999082E+04  0.00000000000E+00 0. -1.
         24    2    1    2    0    0 -0.14278556771E+02 -0.43162739073E+02 -0.17890740017E+04  0.17914528967E+04  0.80316860340E+02 0.  0.
         25    2    1    2    0    0 -0.18970934479E+02  0.10531340306E+03 -0.61644154001E+03  0.63804300847E+03  0.12509156323E+03 0.  0.
        -24    2    1    2    0    0  0.33249491250E+02 -0.62150663984E+02 -0.15515397723E+02  0.10867297168E+03  0.81245636842E+02 0.  0.
        -11    1    3    3    0    0 -0.29568084181E+01 -0.48549774053E+02 -0.50927143266E+03  0.51158891251E+03  0.00000000000E+00 0.  1.
         12    1    3    3    0    0 -0.11321748353E+02  0.53870349797E+01 -0.12798025691E+04  0.12798639842E+04  0.00000000000E+00 0. -1.
         13    1    5    5    0    0 -0.72246562440E+00  0.19042479290E+02 -0.67817297620E+01  0.20226958067E+02  0.00000000000E+00 0. -1.
        -14    1    5    5    0    0  0.33971956874E+02 -0.81193143274E+02 -0.87336679609E+01  0.88446013616E+02  0.00000000000E+00 0.  1.
          5    1    4    4  501    0 -0.28398617939E+01  0.12734154452E+03 -0.39910867923E+03  0.41896198397E+03  0.41800000000E+01 0.  1.
         -5    1    4    4    0  501 -0.16131072685E+02 -0.22028141458E+02 -0.21733286078E+03  0.21908102451E+03  0.41800000000E+01 0.  1.
</event>
<event>
11    1  0.7577197E-009  0.1373013E+03  0.7561462E-02  0.1110610E+00
         22   -1    0    0    0    0  0.00000000000E+00  0.00000000000E+00  0.12272586067E+03  0.12272586067E+03  0.00000000000E+00 0. -1.
         22   -1    0    0    0    0 -0.00000000000E+00 -0.00000000000E+00 -0.10905671489E+04  0.10905671489E+04  0.00000000000E+00 0.  1.
        -24    2    1    2    0    0 -0.58826513509E+01 -0.55003241658E+02 -0.89305035921E+03  0.89833672474E+03  0.80062255481E+02 0.  0.
         25    2    1    2    0    0 -0.55771079279E+01  0.72236278941E+02 -0.14537605004E+03  0.20500933855E+03  0.12508176861E+03 0.  0.
         24    2    1    2    0    0  0.11459759279E+02 -0.17233037283E+02  0.70585121003E+02  0.10994694630E+03  0.81717611541E+02 0.  0.
        -11    1    5    5    0    0  0.20424403345E+02  0.15024763138E+02 -0.62671679152E+01  0.26118521264E+02  0.00000000000E+00 0.  1.
         12    1    5    5    0    0 -0.89646440662E+01 -0.32257800421E+02  0.76852288919E+02  0.83828425032E+02  0.00000000000E+00 0. -1.
         13    1    3    3    0    0 -0.15498067806E+02  0.12269775125E+02 -0.78277159397E+02  0.80734448475E+02  0.00000000000E+00 0. -1.
        -14    1    3    3    0    0  0.96154164554E+01 -0.67273016783E+02 -0.81477319981E+03  0.81760227626E+03  0.00000000000E+00 0.  1.
          5    1    4    4  501    0  0.30796870778E+02 -0.25307445944E+02 -0.46240257269E+02  0.61192710859E+02  0.41800000000E+01 0.  1.
         -5    1    4    4    0  501 -0.36373978706E+02  0.97543724885E+02 -0.99135792769E+02  0.14381662769E+03  0.41800000000E+01 0.  1.
</event>
<event>
11    1  0.7577197E-009  0.1341315E+03  0.7561462E-02  0.1114294E+00
         22   -1    0    0    0    0  0.00000000000E+00  0.00000000000E+00  0.22175375869E+03  0.22175375869E+03  0.00000000000E+00 0. -1.
         22   -1    0    0    0    0 -0.00000000000E+00 -0.00000000000E+00 -0.26656227765E+03  0.26656227765E+03  0.00000000000E+00 0. -1.
         24    2    1    2    0    0  0.24871963790E+02  0.44940957768E+02 -0.19731642725E+03  0.21950684304E+03  0.81309147147E+02 0.  0.
         25    2    1    2    0    0 -0.32001498124E+02 -0.84560174198E+00  0.82791923086E+02  0.15338670552E+03  0.12509263759E+03 0.  0.
        -24    2    1    2    0    0  0.71295343344E+01 -0.44095356026E+02  0.69715985205E+02  0.11542248778E+03  0.80416425000E+02 0.  0.
        -11    1    3    3    0    0  0.41469120104E+02  0.53655248085E+02 -0.10281784397E+03  0.12316688925E+03  0.00000000000E+00 0.  1.
         12    1    3    3    0    0 -0.16597156314E+02 -0.87142903168E+01 -0.94498583286E+02  0.96339953791E+02  0.00000000000E+00 0. -1.
         11    1    5    5    0    0 -0.35252852592E+02 -0.32515426190E+02  0.33761960916E+02  0.58650546128E+02  0.00000000000E+00 0. -1.
        -12    1    5    5    0    0  0.42382386926E+02 -0.11579929836E+02  0.35954024288E+02  0.56771941654E+02  0.00000000000E+00 0.  1.
          5    1    4    4  501    0  0.24495896797E+02 -0.16395506531E+02  0.89439827099E+02  0.94264609827E+02  0.41800000000E+01 0. -1.
         -5    1    4    4    0  501 -0.56497394921E+02  0.15549904789E+02 -0.66479040137E+01  0.59122095697E+02  0.41800000000E+01 0. -1.
</event>
<event>
11    1  0.7577197E-009  0.1690594E+03  0.7561462E-02  0.1078853E+00
         22   -1    0    0    0    0  0.00000000000E+00  0.00000000000E+00  0.68531519307E+03  0.68531519307E+03  0.00000000000E+00 0.  1.
         22   -1    0    0    0    0 -0.00000000000E+00 -0.00000000000E+00 -0.63064224084E+03  0.63064224084E+03  0.00000000000E+00 0.  1.
         24    2    1    2    0    0  0.92496283321E+02 -0.77187274479E+02 -0.57199132385E+03  0.58991749825E+03  0.79467870357E+02 0.  0.
         25    2    1    2    0    0 -0.49183029301E+02 -0.49139146127E+01  0.61190319514E+02  0.14776908204E+03  0.12509328310E+03 0.  0.
        -24    2    1    2    0    0 -0.43313254021E+02  0.82101189092E+02  0.56547395656E+03  0.57827085362E+03  0.77586992244E+02 0.  0.
        -13    1    3    3    0    0  0.87880952883E+02 -0.53434510231E+02 -0.30588669089E+03  0.32271500806E+03  0.00000000000E+00 0.  1.
         14    1    3    3    0    0  0.46153304384E+01 -0.23752764248E+02 -0.26610463295E+03  0.26720249019E+03  0.00000000000E+00 0. -1.
         11    1    5    5    0    0 -0.17833805142E+02  0.56129074455E+02  0.14909695638E+03  0.16030726748E+03  0.00000000000E+00 0. -1.
        -12    1    5    5    0    0 -0.25479448878E+02  0.25972114637E+02  0.41637700018E+03  0.41796358613E+03  0.00000000000E+00 0.  1.
          5    1    4    4  501    0 -0.80750686003E+02  0.21698888525E+02  0.13924037681E+02  0.84869701770E+02  0.41800000000E+01 0. -1.
         -5    1    4    4    0  501  0.31567656702E+02 -0.26612803137E+02  0.47266281833E+02  0.62899380274E+02  0.41800000000E+01 0. -1.
</event>
<event>
11    1  0.7577197E-009  0.1610400E+03  0.7561462E-02  0.1086103E+00
         22   -1    0    0    0    0  0.00000000000E+00  0.00000000000E+00  0.14150580104E+03  0.14150580104E+03  0.00000000000E+00 0. -1.
         22   -1    0    0    0    0 -0.00000000000E+00 -0.00000000000E+00 -0.10509055238E+04  0.10509055238E+04  0.00000000000E+00 0. -1.
         24    2    1    2    0    0 -0.87111793868E+02 -0.66460750842E+02 -0.86993642332E+03  0.88049780779E+03  0.80507843488E+02 0.  0.
         25    2    1    2    0    0  0.29582287233E+02  0.48991522497E+02 -0.12067006793E+03  0.18297102202E+03  0.12506737628E+03 0.  0.
        -24    2    1    2    0    0  0.57529506635E+02  0.17469228345E+02  0.81206768479E+02  0.12894249504E+03  0.80104991771E+02 0.  0.
        -13    1    3    3    0    0  0.20780319283E+01  0.57096801196E+01 -0.46842111903E+01  0.76720595826E+01  0.00000000000E+00 0.  1.
         14    1    3    3    0    0 -0.89189825796E+02 -0.72170430962E+02 -0.86525221213E+03  0.87282574820E+03  0.00000000000E+00 0. -1.
         11    1    5    5    0    0  0.36119600218E+02  0.23389693161E+02  0.93948228583E+02  0.10333427757E+03  0.00000000000E+00 0. -1.
        -12    1    5    5    0    0  0.21409906417E+02 -0.59204648160E+01 -0.12741460104E+02  0.25608217470E+02  0.00000000000E+00 0.  1.
          5    1    4    4  501    0 -0.12068606491E+02 -0.20795449802E+02 -0.94329951821E+02  0.97435692667E+02  0.41800000000E+01 0.  1.
         -5    1    4    4    0  501  0.41650893724E+02  0.69786972300E+02 -0.26340116108E+02  0.85535329352E+02  0.41800000000E+01 0.  1.
</event>
<event>
11    1  0.7577197E-009  0.2884283E+03  0.7561462E-02  0.1005211E+00
         22   -1    0    0    0    0  0.00000000000E+00  0.00000000000E+00  0.16701251572E+04  0.16701251572E+04  0.00000000000E+00 0.  1.
         22   -1    0    0    0    0 -0.00000000000E+00 -0.00000000000E+00 -0.71598805366E+03  0.71598805366E+03  0.00000000000E+00 0. -1.
        -24    2    1    2    0    0 -0.25963840823E+02  0.43824167641E+02 -0.59571826801E+03  0.60271594097E+03  0.76102378211E+02 0.  0.
         25    2    1    2    0    0  0.27355380684E+03 -0.10868452178E+03  0.14141373557E+03  0.34969917707E+03  0.12509060447E+03 0.  0.
         24    2    1    2    0    0 -0.24758996602E+03  0.64860354138E+02  0.14084416360E+04  0.14336980928E+04  0.79213146436E+02 0.  0.
        -13    1    5    5    0    0 -0.21035366882E+03  0.23060842685E+02  0.10839077354E+04  0.11043715169E+04  0.00000000000E+00 0.  1.
         14    1    5    5    0    0 -0.37236297193E+02  0.41799511453E+02  0.32453390056E+03  0.32932657591E+03  0.00000000000E+00 0. -1.
         11    1    3    3    0    0 -0.39368125932E+02  0.56389354023E+02 -0.37652968437E+03  0.38275868612E+03  0.00000000000E+00 0. -1.
        -12    1    3    3    0    0  0.13404285108E+02 -0.12565186382E+02 -0.21918858363E+03  0.21995725485E+03  0.00000000000E+00 0.  1.
          5    1    4    4  501    0  0.20695620391E+03 -0.12688998755E+03  0.14051804079E+03  0.28052581248E+03  0.41800000000E+01 0. -1.
         -5    1    4    4    0  501  0.66597602924E+02  0.18205465775E+02  0.89569477194E+00  0.69173364588E+02  0.41800000000E+01 0. -1.
</event>
<event>
11    1  0.7577197E-009  0.1658964E+03  0.7561462E-02  0.1081659E+00
         22   -1    0    0    0    0  0.00000000000E+00  0.00000000000E+00  0.30949482129E+03  0.30949482129E+03  0.00000000000E+00 0.  1.
         22   -1    0    0    0    0 -0.00000000000E+00 -0.00000000000E+00 -0.36519236841E+03  0.36519236841E+03  0.00000000000E+00 0. -1.
        -24    2    1    2    0    0  0.45150945190E+02 -0.10487224584E+03 -0.26011531258E+03  0.29496701263E+03  0.79427746415E+02 0.  0.
         25    2    1    2    0    0  0.18094853040E+02  0.96807976408E+02  0.61650415609E+01  0.15933224933E+03  0.12509816120E+03 0.  0.
         24    2    1    2    0    0 -0.63245798230E+02  0.80642694292E+01  0.19825272390E+03  0.22038792775E+03  0.72122345554E+02 0.  0.
        -13    1    5    5    0    0 -0.54550794890E+02 -0.20852805126E+02  0.16706068053E+03  0.17697429103E+03  0.00000000000E+00 0.  1.
         14    1    5    5    0    0 -0.86950033395E+01  0.28917074555E+02  0.31192043371E+02  0.43413636724E+02  0.00000000000E+00 0. -1.
         11    1    3    3    0    0  0.19748724679E+02 -0.10316642286E+03 -0.24172325074E+03  0.26355920185E+03  0.00000000000E+00 0. -1.
        -12    1    3    3    0    0  0.25402220511E+02 -0.17058229745E+01 -0.18392061840E+02  0.31407810774E+02  0.00000000000E+00 0.  1.
          5    1    4    4  501    0 -0.28075209724E+02  0.10420585215E+03  0.21148489785E+02  0.11005365984E+03  0.41800000000E+01 0. -1.
         -5    1    4    4    0  501  0.46170062764E+02 -0.73978757446E+01 -0.14983448224E+02  0.49278589487E+02  0.41800000000E+01 0. -1.
</event>
<event>
11    1  0.7577197E-009  0.1620458E+03  0.7561462E-02  0.1085169E+00
         22   -1    0    0    0    0  0.00000000000E+00  0.00000000000E+00  0.28875243261E+03  0.28875243261E+03  0.00000000000E+00 0.  1.
         22   -1    0    0    0    0 -0.00000000000E+00 -0.00000000000E+00 -0.49829027763E+03  0.49829027763E+03  0.00000000000E+00 0.  1.
        -24    2    1    2    0    0  0.94850631891E+02  0.32137699934E+01 -0.30884799455E+03  0.33271537637E+03  0.79406972309E+02 0.  0.
         25    2    1    2    0    0 -0.14021845733E+03 -0.78423948762E+02 -0.95759397507E+02  0.22500874502E+03  0.12509013395E+03 0.  0.
         24    2    1    2    0    0  0.45367825434E+02  0.75210178768E+02  0.19506954704E+03  0.22931858884E+03  0.82583754045E+02 0.  0.
        -13    1    5    5    0    0  0.23818532014E+02  0.34770986626E+02  0.17373280099E+03  0.17877200597E+03  0.00000000000E+00 0.  1.
         14    1    5    5    0    0  0.21549293420E+02  0.40439192142E+02  0.21336746042E+02  0.50546582868E+02  0.00000000000E+00 0. -1.
         11    1    3    3    0    0 -0.74359938491E+01  0.21718895297E+01 -0.41005362925E+00  0.77575287709E+01  0.00000000000E+00 0. -1.
        -12    1    3    3    0    0  0.10228662574E+03  0.10418804637E+01 -0.30843794092E+03  0.32495784760E+03  0.00000000000E+00 0.  1.
          5    1    4    4  501    0 -0.11621020986E+03 -0.52810846298E+01 -0.22305650808E+02  0.11852306606E+03  0.41800000000E+01 0.  1.
         -5    1    4    4    0  501 -0.24008247467E+02 -0.73142864132E+02 -0.73453746699E+02  0.10648567896E+03  0.41800000000E+01 0.  1.
</event>
<event>
11    1  0.7577197E-009  0.1860741E+03  0.7561462E-02  0.1064833E+00
         22   -1    0    0    0    0  0.00000000000E+00  0.00000000000E+00  0.26605019238E+03  0.26605019238E+03  0.00000000000E+00 0.  1.
         22   -1    0    0    0    0 -0.00000000000E+00 -0.00000000000E+00 -0.82434378884E+03  0.82434378884E+03  0.00000000000E+00 0.  1.
         24    2    1    2    0    0  0.12150514124E+02  0.70692956449E+01 -0.58899444913E+03  0.59497792744E+03  0.82985921089E+02 0.  0.
         25    2    1    2    0    0 -0.72197773721E+02  0.11704683260E+03 -0.16076448497E+03  0.24577369872E+03  0.12508801624E+03 0.  0.
        -24    2    1    2    0    0  0.60047259597E+02 -0.12411612824E+03  0.19146533763E+03  0.24964235506E+03  0.81558833044E+02 0.  0.
        -11    1    3    3    0    0  0.13026159797E+02 -0.36002465769E+02 -0.20229856222E+03  0.20588969537E+03  0.00000000000E+00 0.  1.
         12    1    3    3    0    0 -0.87564567270E+00  0.43071761414E+02 -0.38669588691E+03  0.38908823207E+03  0.00000000000E+00 0. -1.
         11    1    5    5    0    0  0.29633573045E+02 -0.57245235600E+02  0.27710526220E+02  0.70164370685E+02  0.00000000000E+00 0. -1.
        -12    1    5    5    0    0  0.30413686552E+02 -0.66870892644E+02  0.16375481141E+03  0.17947798437E+03  0.00000000000E+00 0.  1.
          5    1    4    4  501    0  0.42412626335E+01 -0.20291177190E+02 -0.47494922202E+02  0.51990001110E+02  0.41800000000E+01 0. -1.
         -5    1    4    4    0  501 -0.76439036354E+02  0.13733800979E+03 -0.11326956276E+03  0.19378369761E+03  0.41800000000E+01 0. -1.
</event>
<event>
11    1  0.7577197E-009  0.1435164E+03  0.7561462E-02  0.1103694E+00
         22   -1    0    0    0    0  0.00000000000E+00  0.00000000000E+00  0.76034351181E+03  0.76034351181E+03  0.00000000000E+00 0. -1.
         22   -1    0    0    0    0 -0.00000000000E+00 -0.00000000000E+00 -0.89794068817E+03  0.89794068817E+03  0.00000000000E+00 0. -1.
         24    2    1    2    0    0 -0.31512937134E+02  0.23706210251E+02 -0.46121659505E+03  0.46989593861E+03  0.80786112444E+02 0.  0.
         25    2    1    2    0    0  0.42527174905E+02 -0.92917622286E+02 -0.41315782694E+03  0.44361036024E+03  0.12509403109E+03 0.  0.
        -24    2    1    2    0    0 -0.11014237772E+02  0.69211412035E+02  0.73677724562E+03  0.74477790113E+03  0.83317941404E+02 0.  0.
        -11    1    3    3    0    0 -0.72094106764E+01  0.13065465847E+02 -0.10144300148E+02  0.18044080071E+02  0.00000000000E+00 0.  1.
         12    1    3    3    0    0 -0.24303526457E+02  0.10640744404E+02 -0.45107229490E+03  0.45185185854E+03  0.00000000000E+00 0. -1.
         13    1    5    5    0    0 -0.38431467132E+02  0.66337441582E+02  0.43143940979E+03  0.43819812659E+03  0.00000000000E+00 0. -1.
        -14    1    5    5    0    0  0.27417229360E+02  0.28739704529E+01  0.30533783583E+03  0.30657977455E+03  0.00000000000E+00 0.  1.
          5    1    4    4  501    0 -0.26019838800E+02 -0.50536496753E+02 -0.66032292609E+02  0.87227894520E+02  0.41800000000E+01 0. -1.
         -5    1    4    4    0  501  0.68547013705E+02 -0.42381125533E+02 -0.34712553433E+03  0.35638246572E+03  0.41800000000E+01 0. -1.
</event>
<event>
11    1  0.7577197E-009  0.1551699E+03  0.7561462E-02  0.1091710E+00
         22   -1    0    0    0    0  0.00000000000E+00  0.00000000000E+00  0.10727894779E+03  0.10727894779E+03  0.00000000000E+00 0.  1.
         22   -1    0    0    0    0 -0.00000000000E+00 -0.00000000000E+00 -0.17550168993E+04  0.17550168993E+04  0.00000000000E+00 0. -1.
        -24    2    1    2    0    0 -0.55567416349E+02  0.39185683933E+02 -0.12960471096E+04  0.13002776772E+04  0.79753819897E+02 0.  0.
         25    2    1    2    0    0  0.10952676511E+03 -0.10597015596E+03 -0.39194672398E+03  0.43874292416E+03  0.12508929944E+03 0.  0.
         24    2    1    2    0    0 -0.53959348757E+02  0.66784472032E+02  0.40255882059E+02  0.12327524579E+03  0.78768478229E+02 0.  0.
        -11    1    5    5    0    0 -0.70307732038E+02  0.61772851862E+02  0.47201555237E+02  0.10481912625E+03  0.00000000000E+00 0.  1.
         12    1    5    5    0    0  0.16348383281E+02  0.50116201699E+01 -0.69456731789E+01  0.18456119542E+02  0.00000000000E+00 0. -1.
         11    1    3    3    0    0 -0.57722516942E+02  0.56083986182E+02 -0.12026350976E+04  0.12053250518E+04  0.00000000000E+00 0. -1.
        -12    1    3    3    0    0  0.21551005932E+01 -0.16898302249E+02 -0.93412012005E+02  0.94952625368E+02  0.00000000000E+00 0.  1.
          5    1    4    4  501    0  0.13699992365E+03 -0.97157954820E+02 -0.33488629821E+03  0.37466645485E+03  0.41800000000E+01 0.  1.
         -5    1    4    4    0  501 -0.27473158548E+02 -0.88122011446E+01 -0.57060425770E+02  0.64076469305E+02  0.41800000000E+01 0.  1.
</event>
<event>
11    1  0.7577197E-009  0.1840227E+03  0.7561462E-02  0.1066435E+00
         22   -1    0    0    0    0  0.00000000000E+00  0.00000000000E+00  0.49399467415E+03  0.49399467415E+03  0.00000000000E+00 0. -1.
         22   -1    0    0    0    0 -0.00000000000E+00 -0.00000000000E+00 -0.14707535138E+04  0.14707535138E+04  0.00000000000E+00 0. -1.
        -24    2    1    2    0    0  0.68719930281E+02  0.11392657963E+03 -0.13487985582E+04  0.13579560005E+04  0.84173953182E+02 0.  0.
         25    2    1    2    0    0 -0.41008576664E+02 -0.19564220771E+03  0.22417036559E+02  0.23687312495E+03  0.12509507184E+03 0.  0.
         24    2    1    2    0    0 -0.27711353617E+02  0.81715628079E+02  0.34962268200E+03  0.36991906247E+03  0.84609278585E+02 0.  0.
        -11    1    5    5    0    0 -0.41520388084E+02  0.10964524306E+02  0.79662080838E+02  0.90499782007E+02  0.00000000000E+00 0.  1.
         12    1    5    5    0    0  0.13809034467E+02  0.70751103773E+02  0.26996060116E+03  0.27941928047E+03  0.00000000000E+00 0. -1.
         13    1    3    3    0    0  0.42869711286E+02  0.53931463028E+01 -0.27452697013E+03  0.27790637902E+03  0.00000000000E+00 0. -1.
        -14    1    3    3    0    0  0.25850218995E+02  0.10853343333E+03 -0.10742715880E+04  0.10800496215E+04  0.00000000000E+00 0.  1.
          5    1    4    4  501    0 -0.51449689164E+02 -0.12536097423E+03 -0.40902875728E+02  0.14160848144E+03  0.41800000000E+01 0.  1.
         -5    1    4    4    0  501  0.10441112500E+02 -0.70281233483E+02  0.63319912287E+02  0.95264643505E+02  0.41800000000E+01 0.  1.
</event>
<event>
11    1  0.7577197E-009  0.2067795E+03  0.7561462E-02  0.1049830E+00
         22   -1    0    0    0    0  0.00000000000E+00  0.00000000000E+00  0.15531378371E+04  0.15531378371E+04  0.00000000000E+00 0. -1.
         22   -1    0    0    0    0 -0.00000000000E+00 -0.00000000000E+00 -0.22192187057E+04  0.22192187057E+04  0.00000000000E+00 0. -1.
        -24    2    1    2    0    0 -0.78891635677E+02  0.32487936794E+01 -0.20412048997E+04  0.20442256801E+04  0.78145658877E+02 0.  0.
         25    2    1    2    0    0  0.23146970719E+03 -0.58387602927E+02 -0.64555332098E+02  0.27713228936E+03  0.12509027692E+03 0.  0.
         24    2    1    2    0    0 -0.15257807151E+03  0.55138809247E+02  0.14396793633E+04  0.14509985733E+04  0.79998966041E+02 0.  0.
        -11    1    5    5    0    0 -0.13956094808E+02 -0.86454910483E+01  0.43321040716E+02  0.46327418085E+02  0.00000000000E+00 0.  1.
         12    1    5    5    0    0 -0.13862197670E+03  0.63784300296E+02  0.13963583225E+04  0.14046711552E+04  0.00000000000E+00 0. -1.
         13    1    3    3    0    0 -0.30928073682E+02  0.30601516362E+02 -0.13911025053E+04  0.13917827340E+04  0.00000000000E+00 0. -1.
        -14    1    3    3    0    0 -0.47963561995E+02 -0.27352722682E+02 -0.65010239442E+03  0.65244294613E+03  0.00000000000E+00 0.  1.
          5    1    4    4  501    0  0.16356421567E+03 -0.97818402877E+02 -0.40298772364E+02  0.19484136122E+03  0.41800000000E+01 0.  1.
         -5    1    4    4    0  501  0.67905491518E+02  0.39430799950E+02 -0.24256559734E+02  0.82290928134E+02  0.41800000000E+01 0.  1.
</event>
<event>
11    1  0.7577197E-009  0.1896763E+03  0.7561462E-02  0.1062074E+00
         22   -1    0    0    0    0  0.00000000000E+00  0.00000000000E+00  0.75674393490E+03  0.75674393490E+03  0.00000000000E+00 0. -1.
         22   -1    0    0    0    0 -0.00000000000E+00 -0.00000000000E+00 -0.20455419262E+04  0.20455419262E+04  0.00000000000E+00 0.  1.
        -24    2    1    2    0    0 -0.16142280132E+03  0.27820565315E+02 -0.18795242650E+04  0.18884613085E+04  0.82724520793E+02 0.  0.
         25    2    1    2    0    0  0.50897254631E+01  0.40880190269E+02 -0.12017539817E+03  0.17828817876E+03  0.12508978015E+03 0.  0.
         24    2    1    2    0    0  0.15633307586E+03 -0.68700755584E+02  0.71090167183E+03  0.73553637389E+03  0.80453377075E+02 0.  0.
        -13    1    5    5    0    0  0.80436504843E+01  0.14555901759E+02  0.38048239690E+02  0.41524006703E+02  0.00000000000E+00 0.  1.
         14    1    5    5    0    0  0.14828942538E+03 -0.83256657343E+02  0.67285343214E+03  0.69401236719E+03  0.00000000000E+00 0. -1.
         13    1    3    3    0    0 -0.90432389826E+02  0.13621296447E+02 -0.60401000202E+03  0.61089413108E+03  0.00000000000E+00 0. -1.
        -14    1    3    3    0    0 -0.70990411497E+02  0.14199268868E+02 -0.12755142630E+04  0.12775671774E+04  0.00000000000E+00 0.  1.
          5    1    4    4  501    0  0.43551006067E+01  0.27993538462E+02  0.21597084551E+02  0.35867973989E+02  0.41800000000E+01 0.  1.
         -5    1    4    4    0  501  0.73462485647E+00  0.12886651807E+02 -0.14177248272E+03  0.14242020477E+03  0.41800000000E+01 0.  1.
</event>
<event>
11    1  0.7577197E-009  0.2217826E+03  0.7561462E-02  0.1040107E+00
         22   -1    0    0    0    0  0.00000000000E+00  0.00000000000E+00  0.12170200182E+04  0.12170200182E+04  0.00000000000E+00 0.  1.
         22   -1    0    0    0    0 -0.00000000000E+00 -0.00000000000E+00 -0.20779157618E+03  0.20779157618E+03  0.00000000000E+00 0. -1.
        -24    2    1    2    0    0  0.43673610405E+02  0.30082143057E+02 -0.14379941571E+03  0.17301384932E+03  0.80269549158E+02 0.  0.
         25    2    1    2    0    0  0.12170169676E+03  0.74264896920E+02  0.19994728248E+03  0.27559535040E+03  0.12508918211E+03 0.  0.
         24    2    1    2    0    0 -0.16537530717E+03 -0.10434703998E+03  0.95308057521E+03  0.97620239462E+03  0.79820019014E+02 0.  0.
        -13    1    5    5    0    0 -0.12761806653E+03 -0.42544188793E+02  0.70706099419E+03  0.71974414093E+03  0.00000000000E+00 0.  1.
         14    1    5    5    0    0 -0.37757240632E+02 -0.61802851185E+02  0.24601958103E+03  0.25645825368E+03  0.00000000000E+00 0. -1.
         11    1    3    3    0    0  0.38926867205E+01 -0.24877649162E+02 -0.60834084304E+02  0.65839473349E+02  0.00000000000E+00 0. -1.
        -12    1    3    3    0    0  0.39780923685E+02  0.54959792219E+02 -0.82965331409E+02  0.10717437598E+03  0.00000000000E+00 0.  1.
          5    1    4    4  501    0  0.13695102473E+03  0.62500383654E+02  0.20581893316E+03  0.25503095259E+03  0.41800000000E+01 0. -1.
         -5    1    4    4    0  501 -0.15249327966E+02  0.11764513266E+02 -0.58716506752E+01  0.20564397814E+02  0.41800000000E+01 0. -1.
</event>
<event>
11    1  0.7577197E-009  0.1865811E+03  0.7561462E-02  0.1064440E+00
         22   -1    0    0    0    0  0.00000000000E+00  0.00000000000E+00  0.39211866602E+04  0.39211866602E+04  0.00000000000E+00 0. -1.
         22   -1    0    0    0    0 -0.00000000000E+00 -0.00000000000E+00 -0.64093988261E+03  0.64093988261E+03  0.00000000000E+00 0. -1.
         24    2    1    2    0    0 -0.13841797180E+03 -0.73703594060E+01 -0.62288199404E+03  0.64278187715E+03  0.77283283938E+02 0.  0.
         25    2    1    2    0    0  0.10849897260E+03  0.88737131828E+02  0.13695711146E+04  0.13823966327E+04  0.12509638940E+03 0.  0.
        -24    2    1    2    0    0  0.29918999198E+02 -0.81366772422E+02  0.25335576570E+04  0.25369480329E+04  0.98362706768E+02 0.  0.
        -11    1    3    3    0    0 -0.25098839461E+02  0.26744480501E+02 -0.95877023403E+02  0.10265292298E+03  0.00000000000E+00 0.  1.
         12    1    3    3    0    0 -0.11331913234E+03 -0.34114839907E+02 -0.52700497064E+03  0.54012895417E+03  0.00000000000E+00 0. -1.
         11    1    5    5    0    0  0.38663911172E+02 -0.37899984218E+02  0.21730169547E+04  0.21736913287E+04  0.00000000000E+00 0. -1.
        -12    1    5    5    0    0 -0.87449119734E+01 -0.43466788205E+02  0.36054070230E+03  0.36325670425E+03  0.00000000000E+00 0.  1.
          5    1    4    4  501    0  0.11103436560E+03  0.20308384457E+02  0.10136748369E+04  0.10199486302E+04  0.41800000000E+01 0.  1.
         -5    1    4    4    0  501 -0.25353929990E+01  0.68428747372E+02  0.35589627770E+03  0.36244800256E+03  0.41800000000E+01 0.  1.
</event>
<event>
11    1  0.7577197E-009  0.1733575E+03  0.7561462E-02  0.1075146E+00
         22   -1    0    0    0    0  0.00000000000E+00  0.00000000000E+00  0.12070941248E+04  0.12070941248E+04  0.00000000000E+00 0. -1.
         22   -1    0    0    0    0 -0.00000000000E+00 -0.00000000000E+00 -0.11764930921E+03  0.11764930921E+03  0.00000000000E+00 0.  1.
        -24    2    1    2    0    0 -0.39998079276E+02 -0.62790144228E+02 -0.42001006097E+02  0.11700827617E+03  0.79902463178E+02 0.  0.
         25    2    1    2    0    0  0.63046368564E+02  0.16974230971E+03  0.34159329335E+03  0.40635003426E+03  0.12508827277E+03 0.  0.
         24    2    1    2    0    0 -0.23048289288E+02 -0.10695216549E+03  0.78985252831E+03  0.80138512355E+03  0.79881852924E+02 0.  0.
        -13    1    5    5    0    0  0.37701366964E+01 -0.29893272082E+02  0.61576975065E+02  0.68553231176E+02  0.00000000000E+00 0.  1.
         14    1    5    5    0    0 -0.26818425984E+02 -0.77058893405E+02  0.72827555325E+03  0.73283189237E+03  0.00000000000E+00 0. -1.
         11    1    3    3    0    0  0.23940930742E+02 -0.19880617001E+02 -0.19740997839E+02  0.36852599540E+02  0.00000000000E+00 0. -1.
        -12    1    3    3    0    0 -0.63939010018E+02 -0.42909527227E+02 -0.22260008258E+02  0.80155676633E+02  0.00000000000E+00 0.  1.
          5    1    4    4  501    0  0.37933918305E+02  0.18548846237E+03  0.30580747513E+03  0.35969519885E+03  0.41800000000E+01 0. -1.
         -5    1    4    4    0  501  0.25112450259E+02 -0.15746152654E+02  0.35785818218E+02  0.46654835408E+02  0.41800000000E+01 0. -1.
</event>
<event>
11    1  0.7577197E-009  0.1943789E+03  0.7561462E-02  0.1058571E+00
         22   -1    0    0    0    0  0.00000000000E+00  0.00000000000E+00  0.21610424547E+03  0.21610424547E+03  0.00000000000E+00 0.  1.
         22   -1    0    0    0    0 -0.00000000000E+00 -0.00000000000E+00 -0.15066308330E+04  0.15066308330E+04  0.00000000000E+00 0. -1.
        -24    2    1    2    0    0  0.71629191722E+02 -0.12954629938E+03 -0.13969649439E+04  0.14071659264E+04  0.81804065256E+02 0.  0.
         25    2    1    2    0    0 -0.10016731642E+03  0.14291783278E+03  0.10126250334E+03  0.23740593412E+03  0.12509390380E+03 0.  0.
         24    2    1    2    0    0  0.28538124699E+02 -0.13371533393E+02  0.51758530187E+01  0.78163217977E+02  0.71340568567E+02 0.  0.
        -11    1    5    5    0    0  0.13605925541E+02 -0.41208246782E+02 -0.76580665405E+01  0.44066844632E+02  0.00000000000E+00 0.  1.
         12    1    5    5    0    0  0.14932199158E+02  0.27836713389E+02  0.12833919559E+02  0.34096373345E+02  0.00000000000E+00 0. -1.
         13    1    3    3    0    0  0.85974988113E+02 -0.11007690319E+03 -0.12879133856E+04  0.12954649790E+04  0.00000000000E+00 0. -1.
        -14    1    3    3    0    0 -0.14345796391E+02 -0.19469396192E+02 -0.10905155837E+03  0.11170094738E+03  0.00000000000E+00 0.  1.
          5    1    4    4  501    0 -0.27405882394E+01  0.86864705758E+02  0.88663168093E+02  0.12422406251E+03  0.41800000000E+01 0. -1.
         -5    1    4    4    0  501 -0.97426728182E+02  0.56053127018E+02  0.12599335249E+02  0.11318187161E+03  0.41800000000E+01 0. -1.
</event>
<event>
11    1  0.7577197E-009  0.1525616E+03  0.7561462E-02  0.1094290E+00
         22   -1    0    0    0    0  0.00000000000E+00  0.00000000000E+00  0.41883139011E+03  0.41883139011E+03  0.00000000000E+00 0.  1.
         22   -1    0    0    0    0 -0.00000000000E+00 -0.00000000000E+00 -0.91289575678E+03  0.91289575678E+03  0.00000000000E+00 0. -1.
        -24    2    1    2    0    0 -0.23733936308E+02 -0.85024673359E+02 -0.83445475976E+03  0.84309188336E+03  0.81833262676E+02 0.  0.
         25    2    1    2    0    0  0.19422092203E+02  0.68140020850E+02  0.74564316173E+01  0.14395671565E+03  0.12509059717E+03 0.  0.
         24    2    1    2    0    0  0.43118441053E+01  0.16884652509E+02  0.33293396147E+03  0.34467854789E+03  0.87490543389E+02 0.  0.
        -11    1    5    5    0    0  0.33990052263E+02 -0.21851642880E+02  0.15209824827E+03  0.15737437871E+03  0.00000000000E+00 0.  1.
         12    1    5    5    0    0 -0.29678208158E+02  0.38736295388E+02  0.18083571321E+03  0.18730416918E+03  0.00000000000E+00 0. -1.
         13    1    3    3    0    0 -0.49489828928E+02 -0.30288799543E+02 -0.48250937628E+03  0.48598554788E+03  0.00000000000E+00 0. -1.
        -14    1    3    3    0    0  0.25755892620E+02 -0.54735873816E+02 -0.35194538348E+03  0.35710633548E+03  0.00000000000E+00 0.  1.
          5    1    4    4  501    0 -0.52938216364E+02  0.30954853014E+02  0.10879086167E+02  0.62421827855E+02  0.41800000000E+01 0. -1.
         -5    1    4    4    0  501  0.72360308567E+02  0.37185167836E+02 -0.34226545494E+01  0.81534887791E+02  0.41800000000E+01 0. -1.
</event>
<event>
11    1  0.7577197E-009  0.2252050E+03  0.7561462E-02  0.1038005E+00
         22   -1    0    0    0    0  0.00000000000E+00  0.00000000000E+00  0.27613628885E+03  0.27613628885E+03  0.00000000000E+00 0.  1.
         22   -1    0    0    0    0 -0.00000000000E+00 -0.00000000000E+00 -0.69734119865E+03  0.69734119865E+03  0.00000000000E+00 0.  1.
        -24    2    1    2    0    0 -0.31753154894E+02  0.32087220410E+02 -0.42174675108E+03  0.43153305153E+03  0.79451871908E+02 0.  0.
         25    2    1    2    0    0 -0.91012104549E+02  0.11988662959E+03 -0.17863118964E+03  0.26498715203E+03  0.12511227638E+03 0.  0.
         24    2    1    2    0    0  0.12276525944E+03 -0.15197385000E+03  0.17917303092E+03  0.27695728394E+03  0.80218464884E+02 0.  0.
        -13    1    5    5    0    0  0.12598469050E+03 -0.15551407489E+03  0.18271724039E+03  0.27100250860E+03  0.00000000000E+00 0.  1.
         14    1    5    5    0    0 -0.32194310573E+01  0.35402248921E+01 -0.35442094699E+01  0.59547753430E+01  0.00000000000E+00 0. -1.
         11    1    3    3    0    0 -0.71265611705E+01  0.77377286724E+01 -0.24403109470E+01  0.10798862748E+02  0.00000000000E+00 0. -1.
        -12    1    3    3    0    0 -0.24626593723E+02  0.24349491738E+02 -0.41930644014E+03  0.42073418878E+03  0.00000000000E+00 0.  1.
          5    1    4    4  501    0  0.25245676467E+02  0.36746644212E+01 -0.59268586710E+01  0.26522582691E+02  0.41800000000E+01 0. -1.
         -5    1    4    4    0  501 -0.11625778102E+03  0.11621196517E+03 -0.17270433097E+03  0.23846456934E+03  0.41800000000E+01 0. -1.
</event>
<event>
11    1  0.7577197E-009  0.1362486E+03  0.7561462E-02  0.1111821E+00
         22   -1    0    0    0    0  0.00000000000E+00  0.00000000000E+00  0.84245397220E+02  0.84245397220E+02  0.00000000000E+00 0.  1.
         22   -1    0    0    0    0 -0.00000000000E+00 -0.00000000000E+00 -0.70974761288E+03  0.70974761288E+03  0.00000000000E+00 0.  1.
         24    2    1    2    0    0 -0.10639959296E+02 -0.59330178151E+02 -0.51820295156E+03  0.52799439259E+03  0.81304986454E+02 0.  0.
         25    2    1    2    0    0 -0.86990623839E+01  0.21658667561E+02 -0.12627785370E+03  0.17927337161E+03  0.12509226142E+03 0.  0.
        -24    2    1    2    0    0  0.19339021680E+02  0.37671510589E+02  0.18978589601E+02  0.86725245902E+02  0.73266233313E+02 0.  0.
        -13    1    3    3    0    0 -0.82550328634E+01 -0.78877524774E+02 -0.45273279453E+03  0.45962679723E+03  0.00000000000E+00 0.  1.
         14    1    3    3    0    0 -0.23849264324E+01  0.19547346623E+02 -0.65470157028E+02  0.68367595361E+02  0.00000000000E+00 0. -1.
         11    1    5    5    0    0  0.13493732267E+02  0.33220360940E+01 -0.26208312026E+02  0.29664665068E+02  0.00000000000E+00 0. -1.
        -12    1    5    5    0    0  0.58452894124E+01  0.34349474495E+02  0.45186901627E+02  0.57060580834E+02  0.00000000000E+00 0.  1.
          5    1    4    4  501    0 -0.52460927574E+02 -0.50066747071E+01 -0.12361002554E+02  0.54290722022E+02  0.41800000000E+01 0. -1.
         -5    1    4    4    0  501  0.43761865190E+02  0.26665342268E+02 -0.11391685114E+03  0.12498264959E+03  0.41800000000E+01 0. -1.
</event>
<event>
11    1  0.7577197E-009  0.1285684E+03  0.7561462E-02  0.1121041E+00
         22   -1    0    0    0    0  0.00000000000E+00  0.00000000000E+00  0.33569279827E+03  0.33569279827E+03  0.00000000000E+00 0.  1.
         22   -1    0    0    0    0 -0.00000000000E+00 -0.00000000000E+00 -0.42524121996E+03  0.42524121996E+03  0.00000000000E+00 0. -1.
         24    2    1    2    0    0 -0.10535712427E+02 -0.54163705898E+00 -0.33696779857E+03  0.34634753639E+03  0.79360091265E+02 0.  0.
         25    2    1    2    0    0  0.31708351779E+02  0.20454951761E+02 -0.21552658520E+02  0.13242262981E+03  0.12508961257E+03 0.  0.
        -24    2    1    2    0    0 -0.21172639352E+02 -0.19913314702E+02  0.26897203540E+03  0.28216385203E+03  0.80160232085E+02 0.  0.
        -13    1    3    3    0    0  0.21368467662E+02 -0.17303101583E+02 -0.49452316096E+02  0.56582155331E+02  0.00000000000E+00 0.  1.
         14    1    3    3    0    0 -0.31904180089E+02  0.16761464524E+02 -0.28751548247E+03  0.28976538106E+03  0.00000000000E+00 0. -1.
         11    1    5    5    0    0 -0.38506927168E+01  0.30355107500E+02  0.12491560942E+03  0.12860859171E+03  0.00000000000E+00 0. -1.
        -12    1    5    5    0    0 -0.17321946635E+02 -0.50268422203E+02  0.14405642598E+03  0.15355526032E+03  0.00000000000E+00 0.  1.
          5    1    4    4  501    0 -0.12638001946E+02 -0.31498293620E+02  0.30986502156E+02  0.46146476681E+02  0.41800000000E+01 0.  1.
         -5    1    4    4    0  501  0.44346353725E+02  0.51953245382E+02 -0.52539160676E+02  0.86276153130E+02  0.41800000000E+01 0.  1.
</event>
<event>
11    1  0.7577197E-009  0.1554910E+03  0.7561462E-02  0.1091397E+00
         22   -1    0    0    0    0  0.00000000000E+00  0.00000000000E+00  0.70189192461E+03  0.70189192461E+03  0.00000000000E+00 0.  1.
         22   -1    0    0    0    0 -0.00000000000E+00 -0.00000000000E+00 -0.41895369321E+03  0.41895369321E+03  0.00000000000E+00 0.  1.
        -24    2    1    2    0    0  0.68868937501E+02  0.41276715888E+01 -0.35262896015E+03  0.36805975110E+03  0.79754803086E+02 0.  0.
         25    2    1    2    0    0 -0.94474032731E+02 -0.89688748125E+02  0.10551739322E+03  0.20916653342E+03  0.12508918430E+03 0.  0.
         24    2    1    2    0    0  0.25605095230E+02  0.85561076536E+02  0.53004979834E+03  0.54361933330E+03  0.81196503001E+02 0.  0.
        -11    1    5    5    0    0  0.49856219743E+02  0.82183147586E+02  0.43083900590E+03  0.44143171771E+03  0.00000000000E+00 0.  1.
         12    1    5    5    0    0 -0.24251124512E+02  0.33779289503E+01  0.99210792435E+02  0.10218761559E+03  0.00000000000E+00 0. -1.
         11    1    3    3    0    0 -0.87689876195E+00 -0.19718822484E+02 -0.23085039289E+02  0.30373013524E+02  0.00000000000E+00 0. -1.
        -12    1    3    3    0    0  0.69745836263E+02  0.23846494072E+02 -0.32954392086E+03  0.33768673757E+03  0.00000000000E+00 0.  1.
          5    1    4    4  501    0 -0.10954232216E+02 -0.95371053243E+02  0.47186308607E+02  0.10704976936E+03  0.41800000000E+01 0. -1.
         -5    1    4    4    0  501 -0.83519800516E+02  0.56823051175E+01  0.58331084608E+02  0.10211676406E+03  0.41800000000E+01 0. -1.
</event>
<event>
11    1  0.7577197E-009  0.1263603E+03  0.7561462E-02  0.1123824E+00
         22   -1    0    0    0    0  0.00000000000E+00  0.00000000000E+00  0.16095974073E+03  0.16095974073E+03  0.00000000000E+00 0. -1.
         22   -1    0    0    0    0 -0.00000000000E+00 -0.00000000000E+00 -0.93390126153E+03  0.93390126153E+03  0.00000000000E+00 0. -1.
        -24    2    1    2    0    0  0.17173972379E+02  0.13008901376E+02 -0.84380997029E+03  0.84760803330E+03  0.77200617276E+02 0.  0.
         25    2    1    2    0    0 -0.30948540044E+02 -0.56467005113E+01 -0.12149752406E+02  0.12956474508E+03  0.12509879826E+03 0.  0.
         24    2    1    2    0    0  0.13774567665E+02 -0.73622008642E+01  0.83018201901E+02  0.11768822388E+03  0.81942391212E+02 0.  0.
        -13    1    5    5    0    0 -0.95986876389E+00 -0.38010691905E+02  0.72880693608E+02  0.82202977731E+02  0.00000000000E+00 0.  1.
         14    1    5    5    0    0  0.14734436428E+02  0.30648491040E+02  0.10137508293E+02  0.35485246150E+02  0.00000000000E+00 0. -1.
         11    1    3    3    0    0  0.15745681766E+02 -0.29798908021E+02 -0.50105839528E+03  0.50219061809E+03  0.00000000000E+00 0. -1.
        -12    1    3    3    0    0  0.14282906134E+01  0.42807809397E+02 -0.34275157501E+03  0.34541741522E+03  0.00000000000E+00 0.  1.
          5    1    4    4  501    0 -0.48196884812E+02 -0.24626174370E+02  0.42571830676E+02  0.68987109932E+02  0.41800000000E+01 0. -1.
         -5    1    4    4    0  501  0.17248344768E+02  0.18979473859E+02 -0.54721583082E+02  0.60577635149E+02  0.41800000000E+01 0. -1.
</event>
<event>
11    1  0.7577197E-009  0.1515888E+03  0.7561462E-02  0.1095266E+00
         22   -1    0    0    0    0  0.00000000000E+00  0.00000000000E+00  0.38765385329E+03  0.38765385329E+03  0.00000000000E+00 0.  1.
         22   -1    0    0    0    0 -0.00000000000E+00 -0.00000000000E+00 -0.58082979027E+03  0.58082979027E+03  0.00000000000E+00 0.  1.
         24    2    1    2    0    0  0.54079662884E+02 -0.70250484120E+02 -0.51818973129E+03  0.53245228721E+03  0.84410307915E+02 0.  0.
         25    2    1    2    0    0 -0.76227494979E+02 -0.29259589960E+02  0.11706547111E+03  0.18978623922E+03  0.12509091683E+03 0.  0.
        -24    2    1    2    0    0  0.22147832095E+02  0.99510074079E+02  0.20794832320E+03  0.24624511713E+03  0.83674197220E+02 0.  0.
        -11    1    3    3    0    0  0.32579498612E+02 -0.84874913027E+02 -0.45719324265E+03  0.46614465107E+03  0.00000000000E+00 0.  1.
         12    1    3    3    0    0  0.21500164272E+02  0.14624428907E+02 -0.60996488639E+02  0.66307636143E+02  0.00000000000E+00 0. -1.
         13    1    5    5    0    0 -0.29623626147E+02  0.59424819482E+02  0.10633100790E+03  0.12536008790E+03  0.00000000000E+00 0. -1.
        -14    1    5    5    0    0  0.51771458242E+02  0.40085254597E+02  0.10161731530E+03  0.12088502924E+03  0.00000000000E+00 0.  1.
          5    1    4    4  501    0 -0.85525548630E+02 -0.22823946820E+02  0.18552724513E+02  0.90538544299E+02  0.41800000000E+01 0.  1.
         -5    1    4    4    0  501  0.92980536505E+01 -0.64356431391E+01  0.98512746600E+02  0.99247694920E+02  0.41800000000E+01 0.  1.
</event>
<event>
11    1  0.7577197E-009  0.1636757E+03  0.7561462E-02  0.1083670E+00
         22   -1    0    0    0    0  0.00000000000E+00  0.00000000000E+00  0.58714354402E+03  0.58714354402E+03  0.00000000000E+00 0. -1.
         22   -1    0    0    0    0 -0.00000000000E+00 -0.00000000000E+00 -0.33731912658E+04  0.33731912658E+04  0.00000000000E+00 0.  1.
         24    2    1    2    0    0  0.27895462116E+02 -0.88045484940E+02 -0.30695649635E+04  0.30719892008E+04  0.79739703911E+02 0.  0.
         25    2    1    2    0    0  0.68982715641E+02  0.12931611987E+03 -0.26298590332E+03  0.32602053716E+03  0.12508609591E+03 0.  0.
        -24    2    1    2    0    0 -0.96878177757E+02 -0.41270634930E+02  0.54650314509E+03  0.56232507182E+03  0.80343961578E+02 0.  0.
        -13    1    3    3    0    0  0.31253924733E+02 -0.10180744322E+03 -0.28325374399E+04  0.28345387476E+04  0.00000000000E+00 0.  1.
         14    1    3    3    0    0 -0.33584626175E+01  0.13761958277E+02 -0.23702752362E+03  0.23745045319E+03  0.00000000000E+00 0. -1.
         13    1    5    5    0    0 -0.86684651044E+02 -0.52678039796E+02  0.53078734553E+03  0.54039283005E+03  0.00000000000E+00 0. -1.
        -14    1    5    5    0    0 -0.10193526713E+02  0.11407404866E+02  0.15715799568E+02  0.21932241761E+02  0.00000000000E+00 0.  1.
          5    1    4    4  501    0  0.74681428056E+02  0.65368892053E+02 -0.23637056646E+03  0.25639603124E+03  0.41800000000E+01 0. -1.
         -5    1    4    4    0  501 -0.56987124152E+01  0.63947227817E+02 -0.26615336854E+02  0.69624505920E+02  0.41800000000E+01 0. -1.
</event>
<event>
11    1  0.7577197E-009  0.1463707E+03  0.7561462E-02  0.1100646E+00
         22   -1    0    0    0    0  0.00000000000E+00  0.00000000000E+00  0.16753545960E+04  0.16753545960E+04  0.00000000000E+00 0. -1.
         22   -1    0    0    0    0 -0.00000000000E+00 -0.00000000000E+00 -0.85183977047E+02  0.85183977047E+02  0.00000000000E+00 0. -1.
         24    2    1    2    0    0  0.16799544611E+02  0.71472430063E+02 -0.62258456345E+01  0.10914162502E+03  0.80514596185E+02 0.  0.
         25    2    1    2    0    0 -0.81842511381E+02 -0.28714445622E+02  0.20385660313E+03  0.25441636608E+03  0.12508979428E+03 0.  0.
        -24    2    1    2    0    0  0.65042966770E+02 -0.42757984441E+02  0.13925398615E+04  0.13969805820E+04  0.79552799109E+02 0.  0.
        -11    1    3    3    0    0 -0.76768097720E+00  0.11731545670E+02  0.33348477059E+02  0.35360138858E+02  0.00000000000E+00 0.  1.
         12    1    3    3    0    0  0.17567225588E+02  0.59740884393E+02 -0.39574322694E+02  0.73781486157E+02  0.00000000000E+00 0. -1.
         11    1    5    5    0    0  0.12475330265E+02 -0.23917043266E+01  0.88980273082E+03  0.88989339467E+03  0.00000000000E+00 0. -1.
        -12    1    5    5    0    0  0.52567636506E+02 -0.40366280114E+02  0.50273713065E+03  0.50708718728E+03  0.00000000000E+00 0.  1.
          5    1    4    4  501    0 -0.87366230223E+02 -0.22445196148E+02  0.55978946703E+02  0.10624386988E+03  0.41800000000E+01 0.  1.
         -5    1    4    4    0  501  0.55237188423E+01 -0.62692494746E+01  0.14787765643E+03  0.14817249620E+03  0.41800000000E+01 0.  1.
</event>
<event>
11    1  0.7577197E-009  0.1301471E+03  0.7561462E-02  0.1119088E+00
         22   -1    0    0    0    0  0.00000000000E+00  0.00000000000E+00  0.14857993595E+03  0.14857993595E+03  0.00000000000E+00 0.  1.
         22   -1    0    0    0    0 -0.00000000000E+00 -0.00000000000E+00 -0.11763519879E+04  0.11763519879E+04  0.00000000000E+00 0.  1.
        -24    2    1    2    0    0  0.10520181648E+02 -0.33016637666E+02 -0.10509551119E+04  0.10545224897E+04  0.79437153784E+02 0.  0.
         25    2    1    2    0    0 -0.27408072185E+02 -0.28502508973E+01 -0.65456450044E+02  0.14384391614E+03  0.12508876452E+03 0.  0.
         24    2    1    2    0    0  0.16887890537E+02  0.35866888563E+02  0.88639510024E+02  0.12656551801E+03  0.81180250486E+02 0.  0.
        -13    1    5    5    0    0  0.30578001436E+02  0.56263732001E+02  0.52186119188E+02  0.82607582863E+02  0.00000000000E+00 0.  1.
         14    1    5    5    0    0 -0.13690110899E+02 -0.20396843438E+02  0.36453390837E+02  0.43957935144E+02  0.00000000000E+00 0. -1.
         11    1    3    3    0    0 -0.62419535402E+00  0.12909692626E+02 -0.32560529189E+02  0.35031954622E+02  0.00000000000E+00 0. -1.
        -12    1    3    3    0    0  0.11144377002E+02 -0.45926330292E+02 -0.10183945827E+04  0.10194905351E+04  0.00000000000E+00 0.  1.
          5    1    4    4  501    0 -0.50425648938E+02  0.48499490841E+02 -0.25007755879E+02  0.74416442650E+02  0.41800000000E+01 0.  1.
         -5    1    4    4    0  501  0.23017576753E+02 -0.51349741738E+02 -0.40448694164E+02  0.69427473494E+02  0.41800000000E+01 0.  1.
</event>
<event>
11    1  0.7577197E-009  0.1458179E+03  0.7561462E-02  0.1101230E+00
         22   -1    0    0    0    0  0.00000000000E+00  0.00000000000E+00  0.19428442944E+03  0.19428442944E+03  0.00000000000E+00 0.  1.
         22   -1    0    0    0    0 -0.00000000000E+00 -0.00000000000E+00 -0.10394578368E+04  0.10394578368E+04  0.00000000000E+00 0. -1.
        -24    2    1    2    0    0  0.12776473692E+02  0.40651983293E+01 -0.51227216214E+03  0.51932763138E+03  0.84253525074E+02 0.  0.
         25    2    1    2    0    0 -0.74990507354E+02  0.37221240634E+02 -0.49578731236E+03  0.51813279319E+03  0.12509010886E+03 0.  0.
         24    2    1    2    0    0  0.62214033662E+02 -0.41286438963E+02  0.16288606713E+03  0.19628184170E+03  0.80121997534E+02 0.  0.
        -13    1    5    5    0    0  0.48267465987E+02 -0.45830391469E+02  0.16803424043E+03  0.18073649054E+03  0.00000000000E+00 0.  1.
         14    1    5    5    0    0  0.13946567676E+02  0.45439525054E+01 -0.51481733029E+01  0.15545351159E+02  0.00000000000E+00 0. -1.
         11    1    3    3    0    0 -0.25346903666E+02 -0.26334289451E+02 -0.21731223791E+03  0.22036462754E+03  0.00000000000E+00 0. -1.
        -12    1    3    3    0    0  0.38123377358E+02  0.30399487780E+02 -0.29495992424E+03  0.29896300384E+03  0.00000000000E+00 0.  1.
          5    1    4    4  501    0 -0.13671952842E+02 -0.39051481851E+02 -0.71766968926E+02  0.82945227458E+02  0.41800000000E+01 0.  1.
         -5    1    4    4    0  501 -0.61318554512E+02  0.76272722485E+02 -0.42402034343E+03  0.43518756573E+03  0.41800000000E+01 0.  1.
</event>
<event>
11    1  0.7577197E-009  0.1511560E+03  0.7561462E-02  0.1095703E+00
         22   -1    0    0    0    0  0.00000000000E+00  0.00000000000E+00  0.61344716885E+03  0.61344716885E+03  0.00000000000E+00 0.  1.
         22   -1    0    0    0    0 -0.00000000000E+00 -0.00000000000E+00 -0.17229613689E+04  0.17229613689E+04  0.00000000000E+00 0.  1.
        -24    2    1    2    0    0 -0.19814381381E+02  0.82042910890E+02 -0.16657539879E+04  0.16695978487E+04  0.75478337311E+02 0.  0.
         25    2    1    2    0    0  0.42752948146E+02 -0.11357833163E+03  0.99983292846E+02  0.20092788159E+03  0.12508997866E+03 0.  0.
         24    2    1    2    0    0 -0.22938566764E+02  0.31535420744E+02  0.45625649502E+03  0.46588280740E+03  0.85767944939E+02 0.  0.
        -11    1    5    5    0    0  0.19898287282E+02  0.26729598649E+02  0.34439462501E+03  0.34600299278E+03  0.00000000000E+00 0.  1.
         12    1    5    5    0    0 -0.42836854046E+02  0.48058220945E+01  0.11186187001E+03  0.11987981462E+03  0.00000000000E+00 0. -1.
         13    1    3    3    0    0 -0.14531752416E+02  0.30605012903E+02 -0.19402427261E+03  0.19696003910E+03  0.00000000000E+00 0. -1.
        -14    1    3    3    0    0 -0.52826289651E+01  0.51437897987E+02 -0.14717297153E+04  0.14726378096E+04  0.00000000000E+00 0.  1.
          5    1    4    4  501    0  0.58218382270E+02 -0.48555476225E+02 -0.53463137352E+01  0.76112218310E+02  0.41800000000E+01 0.  1.
         -5    1    4    4    0  501 -0.15465434124E+02 -0.65022855409E+02  0.10532960658E+03  0.12481566328E+03  0.41800000000E+01 0.  1.
</event>
<event>
11    1  0.7577197E-009  0.1523620E+03  0.7561462E-02  0.1094489E+00
         22   -1    0    0    0    0  0.00000000000E+00  0.00000000000E+00  0.23812689593E+03  0.23812689593E+03  0.00000000000E+00 0. -1.
         22   -1    0    0    0    0 -0.00000000000E+00 -0.00000000000E+00 -0.20237588827E+04  0.20237588827E+04  0.00000000000E+00 0.  1.
         24    2    1    2    0    0 -0.13806793371E+02  0.83421683923E+02 -0.18020079530E+04  0.18064306719E+04  0.93857898270E+02 0.  0.
         25    2    1    2    0    0  0.52632360565E+02 -0.12423055283E+03 -0.16854238700E+03  0.24951480055E+03  0.12509078240E+03 0.  0.
        -24    2    1    2    0    0 -0.38825567194E+02  0.40808868911E+02  0.18491835319E+03  0.20594030616E+03  0.71019883874E+02 0.  0.
        -13    1    3    3    0    0 -0.14498014280E+02  0.10167612279E+03 -0.12841163434E+04  0.12882169886E+04  0.00000000000E+00 0.  1.
         14    1    3    3    0    0  0.69122090982E+00 -0.18254438867E+02 -0.51789160960E+03  0.51821368336E+03  0.00000000000E+00 0. -1.
         11    1    5    5    0    0 -0.59182449952E+02  0.31433993071E+02  0.12267334802E+03  0.13978343470E+03  0.00000000000E+00 0. -1.
        -12    1    5    5    0    0  0.20356882758E+02  0.93748758400E+01  0.62245005166E+02  0.66156871455E+02  0.00000000000E+00 0.  1.
          5    1    4    4  501    0  0.54382466148E+02 -0.11998568884E+03 -0.18771306097E+03  0.22936364971E+03  0.41800000000E+01 0.  1.
         -5    1    4    4    0  501 -0.17501055835E+01 -0.42448639990E+01  0.19170673967E+02  0.20151150843E+02  0.41800000000E+01 0.  1.
</event>
<event>
11    1  0.7577197E-009  0.1330542E+03  0.7561462E-02  0.1115572E+00
         22   -1    0    0    0    0  0.00000000000E+00  0.00000000000E+00  0.86073650868E+03  0.86073650868E+03  0.00000000000E+00 0.  1.
         22   -1    0    0    0    0 -0.00000000000E+00 -0.00000000000E+00 -0.15534509777E+04  0.15534509777E+04  0.00000000000E+00 0.  1.
         24    2    1    2    0    0 -0.16974518821E+02  0.39483035397E+02 -0.12400960548E+04  0.12437550630E+04  0.85096340490E+02 0.  0.
         25    2    1    2    0    0  0.54631040592E+02 -0.48481722044E+02 -0.29225293366E+03  0.32618301273E+03  0.12509417487E+03 0.  0.
        -24    2    1    2    0    0 -0.37656521771E+02  0.89986866469E+01  0.83963451945E+03  0.84424941067E+03  0.79195651155E+02 0.  0.
        -13    1    3    3    0    0 -0.27127157828E+01 -0.82927308041E+01 -0.89822511915E+03  0.89826749517E+03  0.00000000000E+00 0.  1.
         14    1    3    3    0    0 -0.14261803038E+02  0.47775766201E+02 -0.34187093564E+03  0.34548756779E+03  0.00000000000E+00 0. -1.
         13    1    5    5    0    0 -0.85718425306E+01 -0.13581432115E+02  0.32269013612E+02  0.36044708657E+02  0.00000000000E+00 0. -1.
        -14    1    5    5    0    0 -0.29084679240E+02  0.22580118762E+02  0.80736550584E+03  0.80820470201E+03  0.00000000000E+00 0.  1.
          5    1    4    4  501    0  0.23158270122E+02  0.29359624851E+02 -0.19056766948E+03  0.19424675569E+03  0.41800000000E+01 0.  1.
         -5    1    4    4    0  501  0.31472770469E+02 -0.77841346894E+02 -0.10168526418E+03  0.13193625703E+03  0.41800000000E+01 0.  1.
</event>
<event>
11    1  0.7577197E-009  0.1307176E+03  0.7561462E-02  0.1118390E+00
         22   -1    0    0    0    0  0.00000000000E+00  0.00000000000E+00  0.70448191999E+03  0.70448191999E+03  0.00000000000E+00 0.  1.
         22   -1    0    0    0    0 -0.00000000000E+00 -0.00000000000E+00 -0.45495069440E+03  0.45495069440E+03  0.00000000000E+00 0. -1.
        -24    2    1    2    0    0  0.72021202352E+01  0.41193570248E+02 -0.25264079733E+03  0.26737203578E+03  0.76887269937E+02 0.  0.
         25    2    1    2    0    0 -0.31226047295E+02 -0.18703529423E+02 -0.17003990692E+03  0.21420992729E+03  0.12508970765E+03 0.  0.
         24    2    1    2    0    0  0.24023927060E+02 -0.22490040826E+02  0.67221192985E+03  0.67785065132E+03  0.80806409747E+02 0.  0.
        -11    1    5    5    0    0  0.30342440983E+02  0.12058765564E+02  0.54208017368E+03  0.54306260435E+03  0.00000000000E+00 0.  1.
         12    1    5    5    0    0 -0.63185139233E+01 -0.34548806389E+02  0.13013175617E+03  0.13478804697E+03  0.00000000000E+00 0. -1.
         13    1    3    3    0    0 -0.19411135116E+02  0.39890541093E+02 -0.22360560325E+03  0.22796384196E+03  0.00000000000E+00 0. -1.
        -14    1    3    3    0    0  0.26613255352E+02  0.13030291558E+01 -0.29035194077E+02  0.39408193824E+02  0.00000000000E+00 0.  1.
          5    1    4    4  501    0  0.99675275606E+01  0.45612289964E+02 -0.10023808893E+03  0.11065703536E+03  0.41800000000E+01 0.  1.
         -5    1    4    4    0  501 -0.41193574856E+02 -0.64315819387E+02 -0.69801817992E+02  0.10355289193E+03  0.41800000000E+01 0.  1.
</event>
<event>
11    1  0.7577197E-009  0.1680156E+03  0.7561462E-02  0.1079772E+00
         22   -1    0    0    0    0  0.00000000000E+00  0.00000000000E+00  0.60168852833E+02  0.60168852833E+02  0.00000000000E+00 0. -1.
         22   -1    0    0    0    0 -0.00000000000E+00 -0.00000000000E+00 -0.36632865719E+04  0.36632865719E+04  0.00000000000E+00 0.  1.
         24    2    1    2    0    0 -0.25718447823E+02  0.11117761101E+02 -0.15520566230E+04  0.15547400753E+04  0.86901654615E+02 0.  0.
         25    2    1    2    0    0  0.33445548969E+02 -0.12247307876E+03 -0.20190510745E+04  0.20269028877E+04  0.12509922050E+03 0.  0.
        -24    2    1    2    0    0 -0.77271011463E+01  0.11135531766E+03 -0.32010021559E+02  0.14181246172E+03  0.81402812957E+02 0.  0.
        -11    1    3    3    0    0 -0.10183050600E+02  0.49146220343E+02 -0.87557083721E+03  0.87700817354E+03  0.00000000000E+00 0.  1.
         12    1    3    3    0    0 -0.15535397223E+02 -0.38028459242E+02 -0.67648578582E+03  0.67773190178E+03  0.00000000000E+00 0. -1.
         11    1    5    5    0    0  0.22911811008E+02  0.24818262367E+02  0.16928372968E+02  0.37781834814E+02  0.00000000000E+00 0. -1.
        -12    1    5    5    0    0 -0.30638912154E+02  0.86537055289E+02 -0.48938394528E+02  0.10403062691E+03  0.00000000000E+00 0.  1.
          5    1    4    4  501    0  0.16188420442E+02 -0.10101472280E+03 -0.68956469744E+03  0.69712479768E+03  0.41800000000E+01 0.  1.
         -5    1    4    4    0  501  0.17257128527E+02 -0.21458355953E+02 -0.13294863771E+04  0.13297780900E+04  0.41800000000E+01 0.  1.
</event>
<event>
11    1  0.7577197E-009  0.1302014E+03  0.7561462E-02  0.1119022E+00
         22   -1    0    0    0    0  0.00000000000E+00  0.00000000000E+00  0.21638848857E+03  0.21638848857E+03  0.00000000000E+00 0. -1.
         22   -1    0    0    0    0 -0.00000000000E+00 -0.00000000000E+00 -0.62246064012E+03  0.62246064012E+03  0.00000000000E+00 0.  1.
        -24    2    1    2    0    0 -0.19967790409E+02  0.37419657299E+02 -0.52366838475E+03  0.53026560411E+03  0.71791993388E+02 0.  0.
         25    2    1    2    0    0 -0.74675803290E+01 -0.58859763094E+02 -0.25805577176E+02  0.14082626848E+03  0.12508346658E+03 0.  0.
         24    2    1    2    0    0  0.27435370739E+02  0.21440105795E+02  0.14340181037E+03  0.16775725610E+03  0.79787468015E+02 0.  0.
        -13    1    5    5    0    0 -0.19886227276E+02  0.86783553693E+00  0.57001664924E+01  0.20705242617E+02  0.00000000000E+00 0.  1.
         14    1    5    5    0    0  0.47321598015E+02  0.20572270258E+02  0.13770164388E+03  0.14705201348E+03  0.00000000000E+00 0. -1.
         11    1    3    3    0    0  0.21538419809E+02 -0.34137326248E+01 -0.21903127256E+03  0.22011418731E+03  0.00000000000E+00 0. -1.
        -12    1    3    3    0    0 -0.41506210218E+02  0.40833389924E+02 -0.30463711219E+03  0.31015141680E+03  0.00000000000E+00 0.  1.
          5    1    4    4  501    0 -0.65387080659E+02 -0.20436682888E+02 -0.16368526617E+02  0.70558694632E+02  0.41800000000E+01 0.  1.
         -5    1    4    4    0  501  0.57919500330E+02 -0.38423080206E+02 -0.94370505590E+01  0.70267573846E+02  0.41800000000E+01 0.  1.
</event>
<event>
11    1  0.7577197E-009  0.1789991E+03  0.7561462E-02  0.1070455E+00
         22   -1    0    0    0    0  0.00000000000E+00  0.00000000000E+00  0.35605594670E+03  0.35605594670E+03  0.00000000000E+00 0. -1.
         22   -1    0    0    0    0 -0.00000000000E+00 -0.00000000000E+00 -0.22199719422E+04  0.22199719422E+04  0.00000000000E+00 0. -1.
         24    2    1    2    0    0  0.39275900384E+02 -0.11641069332E+03 -0.17711727941E+04  0.17772650446E+04  0.80770825725E+02 0.  0.
         25    2    1    2    0    0 -0.23227605960E+02  0.17456105259E+03 -0.41134480652E+03  0.46461144232E+03  0.12509260462E+03 0.  0.
        -24    2    1    2    0    0 -0.16048294425E+02 -0.58150359269E+02  0.31860160508E+03  0.33415140201E+03  0.80691788135E+02 0.  0.
        -13    1    3    3    0    0  0.40487020718E+02 -0.16705965755E+02 -0.73563618651E+03  0.73693886249E+03  0.00000000000E+00 0.  1.
         14    1    3    3    0    0 -0.12111203335E+01 -0.99704727567E+02 -0.10355366076E+04  0.10403261821E+04  0.00000000000E+00 0. -1.
         13    1    5    5    0    0  0.19371424392E+02 -0.35724367236E+02  0.25338247654E+03  0.25662065762E+03  0.00000000000E+00 0. -1.
        -14    1    5    5    0    0 -0.35419718817E+02 -0.22425992033E+02  0.65219128538E+02  0.77530744398E+02  0.00000000000E+00 0.  1.
          5    1    4    4  501    0 -0.24803441851E+02  0.12457458119E+02 -0.69546008306E+01  0.28917777632E+02  0.41800000000E+01 0.  1.
         -5    1    4    4    0  501  0.15758358915E+01  0.16210359447E+03 -0.40439020569E+03  0.43569366469E+03  0.41800000000E+01 0.  1.
</event>
<event>
11    1  0.7577197E-009  0.1393533E+03  0.7561462E-02  0.1108283E+00
         22   -1    0    0    0    0  0.00000000000E+00  0.00000000000E+00  0.35602666442E+03  0.35602666442E+03  0.00000000000E+00 0.  1.
         22   -1    0    0    0    0 -0.00000000000E+00 -0.00000000000E+00 -0.21059489651E+04  0.21059489651E+04  0.00000000000E+00 0.  1.
         24    2    1    2    0    0  0.57207291438E+02  0.35750139780E+02 -0.18023574833E+04  0.18054078609E+04  0.80338658601E+02 0.  0.
         25    2    1    2    0    0 -0.14358953801E+02  0.82242532718E+01 -0.28116106769E+03  0.30817460919E+03  0.12508487466E+03 0.  0.
        -24    2    1    2    0    0 -0.42848337638E+02 -0.43974393052E+02  0.33359625024E+03  0.34839315946E+03  0.79508541069E+02 0.  0.
        -13    1    3    3    0    0  0.19396494239E+02  0.24242947214E+02 -0.15179329363E+04  0.15182504219E+04  0.00000000000E+00 0.  1.
         14    1    3    3    0    0  0.37810797199E+02  0.11507192566E+02 -0.28442454695E+03  0.28715743900E+03  0.00000000000E+00 0. -1.
         13    1    5    5    0    0 -0.55000035602E+02 -0.27997479834E+00  0.17498202924E+03  0.18342244372E+03  0.00000000000E+00 0. -1.
        -14    1    5    5    0    0  0.12151697964E+02 -0.43694418254E+02  0.15861422099E+03  0.16497071574E+03  0.00000000000E+00 0.  1.
          5    1    4    4  501    0 -0.44018215726E+02  0.43465360719E+02 -0.23417651488E+03  0.24224564685E+03  0.41800000000E+01 0. -1.
         -5    1    4    4    0  501  0.29659261925E+02 -0.35241107447E+02 -0.46984552810E+02  0.65928962337E+02  0.41800000000E+01 0. -1.
</event>
<event>
11    1  0.7577197E-009  0.1289932E+03  0.7561462E-02  0.1120512E+00
         22   -1    0    0    0    0  0.00000000000E+00  0.00000000000E+00  0.79593806622E+03  0.79593806622E+03  0.00000000000E+00 0. -1.
         22   -1    0    0    0    0 -0.00000000000E+00 -0.00000000000E+00 -0.16657949952E+04  0.16657949952E+04  0.00000000000E+00 0.  1.
         24    2    1    2    0    0  0.23286548141E+02  0.82605830137E+01 -0.15995719943E+04  0.16017655871E+04  0.80074529717E+02 0.  0.
         25    2    1    2    0    0 -0.28547130819E+02  0.22941243180E+02  0.54923662724E+01  0.13045843734E+03  0.12509196005E+03 0.  0.
        -24    2    1    2    0    0  0.52605826779E+01 -0.31201826194E+02  0.72422269906E+03  0.72950903703E+03  0.81753835240E+02 0.  0.
        -11    1    3    3    0    0  0.31785745462E+02 -0.65485547569E+01 -0.15215944742E+04  0.15219405248E+04  0.00000000000E+00 0.  1.
         12    1    3    3    0    0 -0.84991973204E+01  0.14809137771E+02 -0.77977520164E+02  0.79825062277E+02  0.00000000000E+00 0. -1.
         11    1    5    5    0    0 -0.12860338870E+02 -0.28701484127E+02  0.68989568795E+03  0.69061220939E+03  0.00000000000E+00 0. -1.
        -12    1    5    5    0    0  0.18120921548E+02 -0.25003420666E+01  0.34327011117E+02  0.38896827640E+02  0.00000000000E+00 0.  1.
          5    1    4    4  501    0 -0.25044327376E+02  0.72398055891E+02 -0.12127926062E+02  0.77674035694E+02  0.41800000000E+01 0.  1.
         -5    1    4    4    0  501 -0.35028034431E+01 -0.49456812710E+02  0.17620292334E+02  0.52784401648E+02  0.41800000000E+01 0.  1.
</event>
<event>
11    1  0.7577197E-009  0.4090715E+03  0.7561462E-02  0.9623365E-01
         22   -1    0    0    0    0  0.00000000000E+00  0.00000000000E+00  0.89108830633E+03  0.89108830633E+03  0.00000000000E+00 0. -1.
         22   -1    0    0    0    0 -0.00000000000E+00 -0.00000000000E+00 -0.13571318189E+04  0.13571318189E+04  0.00000000000E+00 0. -1.
         24    2    1    2    0    0 -0.17179925464E+02  0.16391984668E+02 -0.87975198937E+03  0.88359827147E+03  0.78857438145E+02 0.  0.
         25    2    1    2    0    0 -0.27052416948E+03 -0.27915869356E+03 -0.32742522256E+03  0.52341874586E+03  0.12508798779E+03 0.  0.
        -24    2    1    2    0    0  0.28770409495E+03  0.26276670889E+03  0.74113369935E+03  0.84120310791E+03  0.80768303767E+02 0.  0.
        -13    1    3    3    0    0 -0.47791172856E+02  0.13020615019E+01 -0.55639182287E+03  0.55844207589E+03  0.00000000000E+00 0.  1.
         14    1    3    3    0    0  0.30611247392E+02  0.15089923166E+02 -0.32336016650E+03  0.32515619558E+03  0.00000000000E+00 0. -1.
         11    1    5    5    0    0  0.23035802313E+03  0.22787205269E+03  0.66474027219E+03  0.73950667386E+03  0.00000000000E+00 0. -1.
        -12    1    5    5    0    0  0.57346071821E+02  0.34894656195E+02  0.76393427159E+02  0.10169643404E+03  0.00000000000E+00 0.  1.
          5    1    4    4  501    0 -0.33866358215E+02 -0.11547376913E+03 -0.89701010032E+02  0.15014947611E+03  0.41800000000E+01 0.  1.
         -5    1    4    4    0  501 -0.23665781127E+03 -0.16368492443E+03 -0.23772421253E+03  0.37326926975E+03  0.41800000000E+01 0.  1.
</event>
<event>
11    1  0.7577197E-009  0.3136726E+03  0.7561462E-02  0.9945652E-01
         22   -1    0    0    0    0  0.00000000000E+00  0.00000000000E+00  0.77185979524E+03  0.77185979524E+03  0.00000000000E+00 0.  1.
         22   -1    0    0    0    0 -0.00000000000E+00 -0.00000000000E+00 -0.34337704549E+03  0.34337704549E+03  0.00000000000E+00 0.  1.
         24    2    1    2    0    0 -0.99513659364E+02 -0.10116432689E+03 -0.17639191076E+03  0.24148289123E+03  0.84039818775E+02 0.  0.
         25    2    1    2    0    0  0.12899687786E+03  0.32356035506E+03  0.47519119055E+03  0.60231759281E+03  0.12509323394E+03 0.  0.
        -24    2    1    2    0    0 -0.29483218499E+02 -0.22239602816E+03  0.12968346996E+03  0.27143635668E+03  0.80812374237E+02 0.  0.
        -11    1    3    3    0    0 -0.10319488932E+02 -0.60555262979E+02 -0.99418023652E+02  0.11686477294E+03  0.00000000000E+00 0.  1.
         12    1    3    3    0    0 -0.89194170432E+02 -0.40609063913E+02 -0.76973887112E+02  0.12461811830E+03  0.00000000000E+00 0. -1.
         11    1    5    5    0    0 -0.11763213567E+01 -0.33916492721E+02 -0.97213765155E+01  0.35301804087E+02  0.00000000000E+00 0. -1.
        -12    1    5    5    0    0 -0.28306897143E+02 -0.18847953544E+03  0.13940484648E+03  0.23613455259E+03  0.00000000000E+00 0.  1.
          5    1    4    4  501    0  0.10186329442E+03  0.17842224379E+03  0.18413091559E+03  0.27592081166E+03  0.41800000000E+01 0.  1.
         -5    1    4    4    0  501  0.27133583440E+02  0.14513811127E+03  0.29106027495E+03  0.32639678115E+03  0.41800000000E+01 0.  1.
</event>
<event>
11    1  0.7577197E-009  0.2058422E+03  0.7561462E-02  0.1050468E+00
         22   -1    0    0    0    0  0.00000000000E+00  0.00000000000E+00  0.21221782771E+03  0.21221782771E+03  0.00000000000E+00 0. -1.
         22   -1    0    0    0    0 -0.00000000000E+00 -0.00000000000E+00 -0.74880404233E+03  0.74880404233E+03  0.00000000000E+00 0. -1.
        -24    2    1    2    0    0  0.19452172267E+02 -0.40140344304E+01 -0.40274980062E+03  0.41038909055E+03  0.76271254560E+02 0.  0.
         25    2    1    2    0    0 -0.16185723118E+03  0.78889374564E+02 -0.25548908952E+03  0.33666901388E+03  0.12510017320E+03 0.  0.
         24    2    1    2    0    0  0.14240505891E+03 -0.74875340134E+02  0.12165267552E+03  0.21396376561E+03  0.71383486667E+02 0.  0.
        -13    1    5    5    0    0  0.38582439738E+02 -0.52019632356E+02  0.22416738090E+02  0.68535807818E+02  0.00000000000E+00 0.  1.
         14    1    5    5    0    0  0.10382261917E+03 -0.22855707778E+02  0.99235937425E+02  0.14542795779E+03  0.00000000000E+00 0. -1.
         13    1    3    3    0    0  0.40399946480E+02 -0.11343571373E+02 -0.35787102578E+03  0.36032277666E+03  0.00000000000E+00 0. -1.
        -14    1    3    3    0    0 -0.20947774213E+02  0.73295369429E+01 -0.44878774834E+02  0.50066313893E+02  0.00000000000E+00 0.  1.
          5    1    4    4  501    0 -0.12978187238E+03  0.37343981403E+02 -0.24942360900E+03  0.28366796871E+03  0.41800000000E+01 0. -1.
         -5    1    4    4    0  501 -0.32075358799E+02  0.41545393161E+02 -0.60654805255E+01  0.53001045169E+02  0.41800000000E+01 0. -1.
</event>
<event>
11    1  0.7577197E-009  0.1654206E+03  0.7561462E-02  0.1082087E+00
         22   -1    0    0    0    0  0.00000000000E+00  0.00000000000E+00  0.87642286607E+03  0.87642286607E+03  0.00000000000E+00 0.  1.
         22   -1    0    0    0    0 -0.00000000000E+00 -0.00000000000E+00 -0.11718488503E+04  0.11718488503E+04  0.00000000000E+00 0.  1.
         24    2    1    2    0    0  0.17417037562E+02 -0.45777678489E+02 -0.10129482736E+04  0.10174005192E+04  0.81490259698E+02 0.  0.
         25    2    1    2    0    0 -0.16319005405E+02  0.15241525903E+03 -0.86458710473E+02  0.21591541507E+03  0.12509051413E+03 0.  0.
        -24    2    1    2    0    0 -0.10980321560E+01 -0.10663758054E+03  0.80398099986E+03  0.81495578209E+03  0.79966864162E+02 0.  0.
        -13    1    3    3    0    0 -0.15767285216E+02 -0.57539100401E+02 -0.60382824467E+03  0.60676841086E+03  0.00000000000E+00 0.  1.
         14    1    3    3    0    0  0.33184322777E+02  0.11761421912E+02 -0.40912002891E+03  0.41063210831E+03  0.00000000000E+00 0. -1.
         11    1    5    5    0    0 -0.14652970474E+02  0.87658525274E+01  0.10818321253E+03  0.10952240496E+03  0.00000000000E+00 0. -1.
        -12    1    5    5    0    0  0.13554938318E+02 -0.11540343307E+03  0.69579778733E+03  0.70543337713E+03  0.00000000000E+00 0.  1.
          5    1    4    4  501    0  0.47078339682E+02  0.30106005286E+02 -0.45348350564E+02  0.72088049775E+02  0.41800000000E+01 0.  1.
         -5    1    4    4    0  501 -0.63397345088E+02  0.12230925374E+03 -0.41110359910E+02  0.14382736529E+03  0.41800000000E+01 0.  1.
</event>
<event>
11    1  0.7577197E-009  0.1919096E+03  0.7561462E-02  0.1060397E+00
         22   -1    0    0    0    0  0.00000000000E+00  0.00000000000E+00  0.15308407746E+04  0.15308407746E+04  0.00000000000E+00 0.  1.
         22   -1    0    0    0    0 -0.00000000000E+00 -0.00000000000E+00 -0.58371310817E+02  0.58371310817E+02  0.00000000000E+00 0. -1.
        -24    2    1    2    0    0  0.12928158568E+02  0.17366861746E+02  0.49050025538E+02  0.97160714212E+02  0.81028107531E+02 0.  0.
         25    2    1    2    0    0 -0.15253359935E+03 -0.45938866749E+02  0.33955794899E+03  0.39537876691E+03  0.12509152723E+03 0.  0.
         24    2    1    2    0    0  0.13960544078E+03  0.28572005003E+02  0.10838614893E+04  0.10966726043E+04  0.87344344848E+02 0.  0.
        -13    1    5    5    0    0  0.12186819868E+03  0.49402718547E+02  0.72957895209E+03  0.74133523711E+03  0.00000000000E+00 0.  1.
         14    1    5    5    0    0  0.17737242101E+02 -0.20830713544E+02  0.35428253719E+03  0.35533736722E+03  0.00000000000E+00 0. -1.
         11    1    3    3    0    0  0.38778315409E+02 -0.12123572292E+02  0.39785481416E+02  0.56864956542E+02  0.00000000000E+00 0. -1.
        -12    1    3    3    0    0 -0.25850156840E+02  0.29490434038E+02  0.92645441219E+01  0.40295757670E+02  0.00000000000E+00 0.  1.
          5    1    4    4  501    0 -0.11688959195E+03 -0.59806701670E+01  0.11372724261E+03  0.16324920592E+03  0.41800000000E+01 0. -1.
         -5    1    4    4    0  501 -0.35644007398E+02 -0.39958196582E+02  0.22583070638E+03  0.23212956098E+03  0.41800000000E+01 0. -1.
</event>
<event>
11    1  0.7577197E-009  0.2578245E+03  0.7561462E-02  0.1019812E+00
         22   -1    0    0    0    0  0.00000000000E+00  0.00000000000E+00  0.12501388939E+04  0.12501388939E+04  0.00000000000E+00 0. -1.
         22   -1    0    0    0    0 -0.00000000000E+00 -0.00000000000E+00 -0.39075866572E+03  0.39075866572E+03  0.00000000000E+00 0.  1.
         24    2    1    2    0    0 -0.13829474116E+03  0.17476154160E+03 -0.31491640068E+03  0.39397057969E+03  0.79833867455E+02 0.  0.
         25    2    1    2    0    0  0.14094610947E+03 -0.24224951395E+03  0.76819401161E+03  0.82723678926E+03  0.12509209904E+03 0.  0.
        -24    2    1    2    0    0 -0.26513683082E+01  0.67487972356E+02  0.40610261724E+03  0.41969019067E+03  0.81601864257E+02 0.  0.
        -11    1    3    3    0    0 -0.10792552231E+03  0.12861823458E+03 -0.28594301644E+03  0.33159308992E+03  0.00000000000E+00 0.  1.
         12    1    3    3    0    0 -0.30369218849E+02  0.46143307015E+02 -0.28973384238E+02  0.62377489770E+02  0.00000000000E+00 0. -1.
         11    1    5    5    0    0 -0.42050279138E+02  0.34946710513E+02  0.19871490268E+03  0.20609976006E+03  0.00000000000E+00 0. -1.
        -12    1    5    5    0    0  0.39398910829E+02  0.32541261843E+02  0.20738771456E+03  0.21359043061E+03  0.00000000000E+00 0.  1.
          5    1    4    4  501    0  0.14533827712E+02 -0.10137086906E+03  0.40367595250E+03  0.41648413207E+03  0.41800000000E+01 0. -1.
         -5    1    4    4    0  501  0.12641228176E+03 -0.14087864490E+03  0.36451805911E+03  0.41075265719E+03  0.41800000000E+01 0. -1.
</event>
<event>
11    1  0.7577197E-009  0.1429859E+03  0.7561462E-02  0.1104269E+00
         22   -1    0    0    0    0  0.00000000000E+00  0.00000000000E+00  0.53916514587E+03  0.53916514587E+03  0.00000000000E+00 0. -1.
         22   -1    0    0    0    0 -0.00000000000E+00 -0.00000000000E+00 -0.13058343103E+03  0.13058343103E+03  0.00000000000E+00 0. -1.
         24    2    1    2    0    0 -0.40584227341E+02  0.56255635468E+02 -0.75724356411E+02  0.13014025788E+03  0.79940806454E+02 0.  0.
         25    2    1    2    0    0  0.28990246340E+02 -0.63251482570E+02  0.21481689771E+03  0.25813681304E+03  0.12508848977E+03 0.  0.
        -24    2    1    2    0    0  0.11593981001E+02  0.69958471023E+01  0.26948917353E+03  0.28147150598E+03  0.80115115654E+02 0.  0.
        -13    1    3    3    0    0 -0.25245073174E+02 -0.15348990517E+02 -0.36852157402E+02  0.47233322291E+02  0.00000000000E+00 0.  1.
         14    1    3    3    0    0 -0.15339154168E+02  0.71604625985E+02 -0.38872199008E+02  0.82906935589E+02  0.00000000000E+00 0. -1.
         11    1    5    5    0    0  0.44002121960E+02  0.15397191453E+02  0.17954617187E+03  0.18549956354E+03  0.00000000000E+00 0. -1.
        -12    1    5    5    0    0 -0.32408140959E+02 -0.84013443512E+01  0.89943001666E+02  0.95971942442E+02  0.00000000000E+00 0.  1.
          5    1    4    4  501    0  0.77867452843E+02 -0.47863024061E+02  0.13045052290E+03  0.15933932537E+03  0.41800000000E+01 0.  1.
         -5    1    4    4    0  501 -0.48877206503E+02 -0.15388458510E+02  0.84366374805E+02  0.98797487663E+02  0.41800000000E+01 0.  1.
</event>
<event>
11    1  0.7577197E-009  0.1294319E+03  0.7561462E-02  0.1119969E+00
         22   -1    0    0    0    0  0.00000000000E+00  0.00000000000E+00  0.16890500818E+03  0.16890500818E+03  0.00000000000E+00 0. -1.
         22   -1    0    0    0    0 -0.00000000000E+00 -0.00000000000E+00 -0.64064541302E+03  0.64064541302E+03  0.00000000000E+00 0. -1.
         24    2    1    2    0    0  0.27581253389E+02  0.17064376434E+02 -0.56018623807E+03  0.56688126164E+03  0.80584272611E+02 0.  0.
         25    2    1    2    0    0 -0.57134875676E+02 -0.11180676075E+02  0.36701689124E+02  0.14277445812E+03  0.12509248727E+03 0.  0.
        -24    2    1    2    0    0  0.29553622287E+02 -0.58837003589E+01  0.51744144108E+02  0.99894701439E+02  0.79959117091E+02 0.  0.
        -11    1    3    3    0    0 -0.16517075665E+02  0.34705377764E+02 -0.20994577651E+03  0.21343501612E+03  0.00000000000E+00 0.  1.
         12    1    3    3    0    0  0.44098329054E+02 -0.17641001330E+02 -0.35024046156E+03  0.35344624551E+03  0.00000000000E+00 0. -1.
         11    1    5    5    0    0 -0.16374620390E+02 -0.25496914806E+02  0.36995947267E+02  0.47821762532E+02  0.00000000000E+00 0. -1.
        -12    1    5    5    0    0  0.45928242677E+02  0.19613214447E+02  0.14748196842E+02  0.52072938907E+02  0.00000000000E+00 0.  1.
          5    1    4    4  501    0 -0.72515657621E+02  0.12480506933E+02  0.68103389949E+02  0.10034853151E+03  0.41800000000E+01 0.  1.
         -5    1    4    4    0  501  0.15380781945E+02 -0.23661183008E+02 -0.31401700824E+02  0.42425926616E+02  0.41800000000E+01 0.  1.
</event>
<event>
11    1  0.7577197E-009  0.1445975E+03  0.7561462E-02  0.1102530E+00
         22   -1    0    0    0    0  0.00000000000E+00  0.00000000000E+00  0.52325391682E+03  0.52325391682E+03  0.00000000000E+00 0.  1.
         22   -1    0    0    0    0 -0.00000000000E+00 -0.00000000000E+00 -0.38577156627E+03  0.38577156627E+03  0.00000000000E+00 0.  1.
         24    2    1    2    0    0 -0.63882589758E+01  0.71997564458E+02 -0.34607252509E+03  0.36266807955E+03  0.80854710209E+02 0.  0.
         25    2    1    2    0    0  0.56981684298E+02 -0.78227911899E+02  0.33432501828E+03  0.36984698575E+03  0.12508819478E+03 0.  0.
        -24    2    1    2    0    0 -0.50593425322E+02  0.62303474414E+01  0.14922985735E+03  0.17651041779E+03  0.79296061376E+02 0.  0.
        -11    1    3    3    0    0 -0.36868543361E+02  0.25324173011E+02 -0.88835495617E+02  0.99460286093E+02  0.00000000000E+00 0.  1.
         12    1    3    3    0    0  0.30480284385E+02  0.46673391447E+02 -0.25723702947E+03  0.26320779346E+03  0.00000000000E+00 0. -1.
         13    1    5    5    0    0  0.21548912384E+02 -0.58287967771E+00  0.39805439609E+02  0.45267741230E+02  0.00000000000E+00 0. -1.
        -14    1    5    5    0    0 -0.72142337705E+02  0.68132271191E+01  0.10942441774E+03  0.13124267656E+03  0.00000000000E+00 0.  1.
          5    1    4    4  501    0 -0.31048875563E+02 -0.59605262064E+02  0.16096972379E+03  0.17448651614E+03  0.41800000000E+01 0.  1.
         -5    1    4    4    0  501  0.88030559861E+02 -0.18622649835E+02  0.17335529450E+03  0.19536046961E+03  0.41800000000E+01 0.  1.
</event>
<event>
11    1  0.7577197E-009  0.1355490E+03  0.7561462E-02  0.1112633E+00
         22   -1    0    0    0    0  0.00000000000E+00  0.00000000000E+00  0.29443317394E+04  0.29443317394E+04  0.00000000000E+00 0.  1.
         22   -1    0    0    0    0 -0.00000000000E+00 -0.00000000000E+00 -0.10676449941E+03  0.10676449941E+03  0.00000000000E+00 0.  1.
         24    2    1    2    0    0  0.52652351618E+02 -0.11072679575E+02 -0.63533115084E+02  0.10691495777E+03  0.67078141885E+02 0.  0.
         25    2    1    2    0    0 -0.34839299015E+02  0.15092618805E+02  0.18325218563E+03  0.22510017750E+03  0.12508861849E+03 0.  0.
        -24    2    1    2    0    0 -0.17813052603E+02 -0.40199392298E+01  0.27178481695E+04  0.27190811036E+04  0.79811720554E+02 0.  0.
        -13    1    3    3    0    0  0.38071463839E+02 -0.73811963803E+01 -0.77327038603E+02  0.86506585403E+02  0.00000000000E+00 0.  1.
         14    1    3    3    0    0  0.14580887779E+02 -0.36914831948E+01  0.13793923520E+02  0.20408372367E+02  0.00000000000E+00 0. -1.
         13    1    5    5    0    0  0.96491348214E+01 -0.13744743622E+02  0.13139236218E+03  0.13246122685E+03  0.00000000000E+00 0. -1.
        -14    1    5    5    0    0 -0.27462187424E+02  0.97248043919E+01  0.25864558073E+04  0.25866198767E+04  0.00000000000E+00 0.  1.
          5    1    4    4  501    0 -0.78520341951E+02  0.18685199886E+02  0.14827035605E+03  0.16886726052E+03  0.41800000000E+01 0.  1.
         -5    1    4    4    0  501  0.43681042936E+02 -0.35925810809E+01  0.34981829589E+02  0.56232916981E+02  0.41800000000E+01 0.  1.
</event>
<event>
11    1  0.7577197E-009  0.1623964E+03  0.7561462E-02  0.1084845E+00
         22   -1    0    0    0    0  0.00000000000E+00  0.00000000000E+00  0.26745390086E+04  0.26745390086E+04  0.00000000000E+00 0. -1.
         22   -1    0    0    0    0 -0.00000000000E+00 -0.00000000000E+00 -0.48441511646E+02  0.48441511646E+02  0.00000000000E+00 0.  1.
        -24    2    1    2    0    0  0.10268335592E+03  0.97247272211E+01  0.69643639387E+02  0.14893387391E+03  0.81808437144E+02 0.  0.
         25    2    1    2    0    0 -0.99126728469E+02 -0.83749306367E+02  0.12835299196E+04  0.12961228074E+04  0.12508086449E+03 0.  0.
         24    2    1    2    0    0 -0.35566274468E+01  0.74024579146E+02  0.12729239379E+04  0.12779238389E+04  0.85215599764E+02 0.  0.
        -11    1    5    5    0    0  0.18513676294E+02 -0.12969676993E+02  0.20804244862E+03  0.20926688500E+03  0.00000000000E+00 0.  1.
         12    1    5    5    0    0 -0.22070303740E+02  0.86994256139E+02  0.10648814893E+04  0.10686569539E+04  0.00000000000E+00 0. -1.
         13    1    3    3    0    0 -0.59174175588E+01 -0.40463394097E+01  0.32579939870E+02  0.33359274200E+02  0.00000000000E+00 0. -1.
        -14    1    3    3    0    0  0.10860077347E+03  0.13771066631E+02  0.37063699517E+02  0.11557459971E+03  0.00000000000E+00 0.  1.
          5    1    4    4  501    0 -0.69299772628E+02 -0.38897141249E+02  0.11397943505E+04  0.11425690701E+04  0.41800000000E+01 0. -1.
         -5    1    4    4    0  501 -0.29826955841E+02 -0.44852165118E+02  0.14373556915E+03  0.15355373734E+03  0.41800000000E+01 0. -1.
</event>
<event>
11    1  0.7577197E-009  0.1421954E+03  0.7561462E-02  0.1105131E+00
         22   -1    0    0    0    0  0.00000000000E+00  0.00000000000E+00  0.23954133133E+04  0.23954133133E+04  0.00000000000E+00 0. -1.
         22   -1    0    0    0    0 -0.00000000000E+00 -0.00000000000E+00 -0.12697773616E+04  0.12697773616E+04  0.00000000000E+00 0.  1.
         24    2    1    2    0    0  0.14082718179E+02  0.42102975073E+02 -0.50568676017E+03  0.51378314414E+03  0.79265606183E+02 0.  0.
         25    2    1    2    0    0  0.53483566815E+02 -0.45040855102E+02 -0.75211703117E+03  0.76564836007E+03  0.12509281413E+03 0.  0.
        -24    2    1    2    0    0 -0.67566284994E+02  0.29378800291E+01  0.23834397431E+04  0.23857591706E+04  0.80547982043E+02 0.  0.
        -13    1    3    3    0    0  0.30063332154E+02  0.38948764085E+02 -0.48482597653E+03  0.48731615783E+03  0.00000000000E+00 0.  1.
         14    1    3    3    0    0 -0.15980613975E+02  0.31542109879E+01 -0.20860783644E+02  0.26466986307E+02  0.00000000000E+00 0. -1.
         11    1    5    5    0    0 -0.76347221798E+02  0.84648959591E+01  0.23329548366E+04  0.23342191034E+04  0.00000000000E+00 0. -1.
        -12    1    5    5    0    0  0.87809368039E+01 -0.55270159301E+01  0.50484906441E+02  0.51540067274E+02  0.00000000000E+00 0.  1.
          5    1    4    4  501    0  0.93756907922E+02 -0.34178804789E+02 -0.47590221829E+03  0.48627044147E+03  0.41800000000E+01 0.  1.
         -5    1    4    4    0  501 -0.40273341107E+02 -0.10862050313E+02 -0.27621481288E+03  0.27937791859E+03  0.41800000000E+01 0.  1.
</event>
<event>
11    1  0.7577197E-009  0.7775066E+03  0.7561462E-02  0.8925286E-01
         22   -1    0    0    0    0  0.00000000000E+00  0.00000000000E+00  0.10737288341E+04  0.10737288341E+04  0.00000000000E+00 0. -1.
         22   -1    0    0    0    0 -0.00000000000E+00 -0.00000000000E+00 -0.10639696341E+04  0.10639696341E+04  0.00000000000E+00 0. -1.
        -24    2    1    2    0    0  0.65916306631E+03 -0.29897707162E+03 -0.37160542873E+03  0.81767044839E+03  0.81308856622E+02 0.  0.
         25    2    1    2    0    0 -0.84532864447E+03  0.18296133774E+03  0.89354146101E-01  0.87390099964E+03  0.12509029106E+03 0.  0.
         24    2    1    2    0    0  0.18616557817E+03  0.11601573388E+03  0.38127527466E+03  0.44612702018E+03  0.74439304585E+02 0.  0.
        -13    1    5    5    0    0  0.62171664347E+02  0.17737560584E+02  0.60927290385E+02  0.88837332338E+02  0.00000000000E+00 0.  1.
         14    1    5    5    0    0  0.12399391382E+03  0.98278173296E+02  0.32034798427E+03  0.35728968784E+03  0.00000000000E+00 0. -1.
         11    1    3    3    0    0  0.57239195519E+03 -0.27336428571E+03 -0.29700864543E+03  0.70041039293E+03  0.00000000000E+00 0. -1.
        -12    1    3    3    0    0  0.86771111115E+02 -0.25612785911E+02 -0.74596783295E+02  0.11726005545E+03  0.00000000000E+00 0.  1.
          5    1    4    4  501    0 -0.50886993899E+03  0.15481930499E+03 -0.42277777639E+02  0.53359396069E+03  0.41800000000E+01 0. -1.
         -5    1    4    4    0  501 -0.33645870549E+03  0.28142032746E+02  0.42367131785E+02  0.34030703895E+03  0.41800000000E+01 0. -1.
</event>
<event>
11    1  0.7577197E-009  0.1333970E+03  0.7561462E-02  0.1115164E+00
         22   -1    0    0    0    0  0.00000000000E+00  0.00000000000E+00  0.51897712789E+03  0.51897712789E+03  0.00000000000E+00 0. -1.
         22   -1    0    0    0    0 -0.00000000000E+00 -0.00000000000E+00 -0.14187366394E+03  0.14187366394E+03  0.00000000000E+00 0. -1.
         24    2    1    2    0    0  0.11295519937E+02 -0.23054266840E+01 -0.79911198378E+02  0.11353678017E+03  0.79824163394E+02 0.  0.
         25    2    1    2    0    0  0.36147327697E+02  0.24692301373E+01  0.63230636654E+02  0.14476687489E+03  0.12508640317E+03 0.  0.
        -24    2    1    2    0    0 -0.47442847635E+02 -0.16380345330E+00  0.39378402568E+03  0.40254713677E+03  0.68756729268E+02 0.  0.
        -11    1    3    3    0    0  0.47420029914E+01  0.30672915203E+02 -0.50154465174E+01  0.31439927214E+02  0.00000000000E+00 0.  1.
         12    1    3    3    0    0  0.65535169459E+01 -0.32978341887E+02 -0.74895751861E+02  0.82096852953E+02  0.00000000000E+00 0. -1.
         11    1    5    5    0    0 -0.49310087705E+02 -0.22281842239E+02  0.34129294079E+03  0.34555583728E+03  0.00000000000E+00 0. -1.
        -12    1    5    5    0    0  0.18672400698E+01  0.22118038786E+02  0.52491084884E+02  0.56991299489E+02  0.00000000000E+00 0.  1.
          5    1    4    4  501    0  0.50186698940E+02 -0.86039846744E+01 -0.23412525290E+02  0.56199217461E+02  0.41800000000E+01 0.  1.
         -5    1    4    4    0  501 -0.14039371243E+02  0.11073214812E+02  0.86643161943E+02  0.88567657430E+02  0.41800000000E+01 0.  1.
</event>
<event>
11    1  0.7577197E-009  0.2123821E+03  0.7561462E-02  0.1046097E+00
         22   -1    0    0    0    0  0.00000000000E+00  0.00000000000E+00  0.37270566755E+03  0.37270566755E+03  0.00000000000E+00 0. -1.
         22   -1    0    0    0    0 -0.00000000000E+00 -0.00000000000E+00 -0.19854699563E+04  0.19854699563E+04  0.00000000000E+00 0.  1.
         24    2    1    2    0    0 -0.75942932096E+02  0.13978657140E+02 -0.81318556714E+03  0.82072248158E+03  0.79698766504E+02 0.  0.
         25    2    1    2    0    0  0.97791101460E+02  0.15636604304E+03 -0.11325485090E+04  0.11542613745E+04  0.12505901145E+03 0.  0.
        -24    2    1    2    0    0 -0.21848169364E+02 -0.17034470018E+03  0.33296978739E+03  0.38319176783E+03  0.80451179220E+02 0.  0.
        -13    1    3    3    0    0 -0.65661209419E+02 -0.23700621819E+02 -0.44065937068E+03  0.44615445180E+03  0.00000000000E+00 0.  1.
         14    1    3    3    0    0 -0.10281722677E+02  0.37679278959E+02 -0.37252619646E+03  0.37456802978E+03  0.00000000000E+00 0. -1.
         13    1    5    5    0    0  0.18529953153E+02 -0.98404696037E+02  0.23281215880E+03  0.25343311672E+03  0.00000000000E+00 0. -1.
        -14    1    5    5    0    0 -0.40378122517E+02 -0.71940004141E+02  0.10015762859E+03  0.12975865111E+03  0.00000000000E+00 0.  1.
          5    1    4    4  501    0  0.11039215964E+03  0.16157567284E+03 -0.88883364217E+03  0.91012957474E+03  0.41800000000E+01 0. -1.
         -5    1    4    4    0  501 -0.12601058181E+02 -0.52096298065E+01 -0.24371486686E+03  0.24413179973E+03  0.41800000000E+01 0. -1.
</event>
<event>
11    1  0.7577197E-009  0.1380983E+03  0.7561462E-02  0.1109701E+00
         22   -1    0    0    0    0  0.00000000000E+00  0.00000000000E+00  0.45147281562E+03  0.45147281562E+03  0.00000000000E+00 0.  1.
         22   -1    0    0    0    0 -0.00000000000E+00 -0.00000000000E+00 -0.99767873251E+03  0.99767873251E+03  0.00000000000E+00 0. -1.
         24    2    1    2    0    0  0.32842061090E+02 -0.43820026078E+02 -0.94510429169E+03  0.94995720402E+03  0.78725927379E+02 0.  0.
         25    2    1    2    0    0  0.23118647650E+02  0.79631452783E+01  0.53810489226E+02  0.13836101875E+03  0.12510123583E+03 0.  0.
        -24    2    1    2    0    0 -0.55960708741E+02  0.35856880800E+02  0.34508788558E+03  0.36083332536E+03  0.81839618118E+02 0.  0.
        -11    1    3    3    0    0  0.52145090535E+01  0.17663202266E+02 -0.74317022676E+02  0.76565002961E+02  0.00000000000E+00 0.  1.
         12    1    3    3    0    0  0.27627552037E+02 -0.61483228344E+02 -0.87078726901E+03  0.87339220106E+03  0.00000000000E+00 0. -1.
         11    1    5    5    0    0 -0.11025453642E+02 -0.25872019997E+01  0.63690398438E+00  0.11342834253E+02  0.00000000000E+00 0. -1.
        -12    1    5    5    0    0 -0.44935255099E+02  0.38444082800E+02  0.34445098159E+03  0.34949049110E+03  0.00000000000E+00 0.  1.
          5    1    4    4  501    0  0.50760837092E+02 -0.22767661909E+02 -0.15188469817E+02  0.57820334023E+02  0.41800000000E+01 0.  1.
         -5    1    4    4    0  501 -0.27642189442E+02  0.30730807187E+02  0.68998959043E+02  0.80540684729E+02  0.41800000000E+01 0.  1.
</event>
<event>
11    1  0.7577197E-009  0.1293994E+03  0.7561462E-02  0.1120009E+00
         22   -1    0    0    0    0  0.00000000000E+00  0.00000000000E+00  0.41867341084E+03  0.41867341084E+03  0.00000000000E+00 0.  1.
         22   -1    0    0    0    0 -0.00000000000E+00 -0.00000000000E+00 -0.18552737591E+03  0.18552737591E+03  0.00000000000E+00 0. -1.
        -24    2    1    2    0    0  0.34637629713E+02 -0.15932268079E+02 -0.10789650848E+03  0.14382279789E+03  0.87119102912E+02 0.  0.
         25    2    1    2    0    0 -0.18525592197E+02 -0.14676929479E+02  0.21882965852E+02  0.12917340235E+03  0.12509314072E+03 0.  0.
         24    2    1    2    0    0 -0.16112037516E+02  0.30609197558E+02  0.31915957756E+03  0.33120458651E+03  0.81468530447E+02 0.  0.
        -11    1    5    5    0    0  0.31752380938E+02  0.21238141839E+02  0.11036625532E+03  0.11679033640E+03  0.00000000000E+00 0.  1.
         12    1    5    5    0    0 -0.47864418455E+02  0.93710557193E+01  0.20879332224E+03  0.21441425011E+03  0.00000000000E+00 0. -1.
         13    1    3    3    0    0  0.45785677988E+02 -0.11529197096E+02 -0.11866298574E+03  0.12771121673E+03  0.00000000000E+00 0. -1.
        -14    1    3    3    0    0 -0.11148048275E+02 -0.44030709831E+01  0.10766477268E+02  0.16111581151E+02  0.00000000000E+00 0.  1.
          5    1    4    4  501    0 -0.46257619068E+02 -0.56931877830E+02 -0.11258701324E+01  0.73482964139E+02  0.41800000000E+01 0. -1.
         -5    1    4    4    0  501  0.27732026871E+02  0.42254948351E+02  0.23008835984E+02  0.55690438209E+02  0.41800000000E+01 0. -1.
</event>
<event>
11    1  0.7577197E-009  0.1454543E+03  0.7561462E-02  0.1101616E+00
         22   -1    0    0    0    0  0.00000000000E+00  0.00000000000E+00  0.83159896714E+03  0.83159896714E+03  0.00000000000E+00 0. -1.
         22   -1    0    0    0    0 -0.00000000000E+00 -0.00000000000E+00 -0.22320205077E+03  0.22320205077E+03  0.00000000000E+00 0. -1.
         24    2    1    2    0    0  0.40320939127E+02  0.59477125564E+02 -0.17164167813E+03  0.20233876005E+03  0.79478308669E+02 0.  0.
         25    2    1    2    0    0 -0.78924702270E+02 -0.74960336433E+02  0.17671814919E+03  0.24233213458E+03  0.12508956204E+03 0.  0.
        -24    2    1    2    0    0  0.38603763143E+02  0.15483210869E+02  0.60332044531E+03  0.61013012328E+03  0.80828381494E+02 0.  0.
        -11    1    3    3    0    0  0.53902734663E+01 -0.19796328907E+02 -0.32768105818E+02  0.38661330100E+02  0.00000000000E+00 0.  1.
         12    1    3    3    0    0  0.34930665660E+02  0.79273454472E+02 -0.13887357231E+03  0.16367742995E+03  0.00000000000E+00 0. -1.
         11    1    5    5    0    0  0.14150340176E+02  0.10406664412E+02  0.55885473659E+03  0.55913070691E+03  0.00000000000E+00 0. -1.
        -12    1    5    5    0    0  0.24453422968E+02  0.50765464572E+01  0.44465708719E+02  0.50999416375E+02  0.00000000000E+00 0.  1.
          5    1    4    4  501    0 -0.68072799417E+02 -0.37368714805E+02  0.19377129758E+02  0.80145320664E+02  0.41800000000E+01 0. -1.
         -5    1    4    4    0  501 -0.10851902853E+02 -0.37591621628E+02  0.15734101943E+03  0.16218681392E+03  0.41800000000E+01 0. -1.
</event>
<event>
11    1  0.7577197E-009  0.1621838E+03  0.7561462E-02  0.1085041E+00
         22   -1    0    0    0    0  0.00000000000E+00  0.00000000000E+00  0.11133392582E+04  0.11133392582E+04  0.00000000000E+00 0. -1.
         22   -1    0    0    0    0 -0.00000000000E+00 -0.00000000000E+00 -0.29365397978E+04  0.29365397978E+04  0.00000000000E+00 0. -1.
        -24    2    1    2    0    0 -0.39738617444E+02 -0.12090385353E+02 -0.10557287495E+04  0.10596139231E+04  0.80580012976E+02 0.  0.
         25    2    1    2    0    0  0.48811011131E+02 -0.90754299237E+02 -0.18715158397E+04  0.18785202282E+04  0.12509137348E+03 0.  0.
         24    2    1    2    0    0 -0.90723936866E+01  0.10284468459E+03  0.11040440496E+04  0.11117449047E+04  0.80025821854E+02 0.  0.
        -13    1    5    5    0    0  0.34619687225E+01  0.46784480104E+02  0.18320934740E+03  0.18912016757E+03  0.00000000000E+00 0.  1.
         14    1    5    5    0    0 -0.12534362409E+02  0.56060204485E+02  0.92083470218E+03  0.92262473710E+03  0.00000000000E+00 0. -1.
         11    1    3    3    0    0 -0.38915161768E+02 -0.36818556588E+02 -0.92590522845E+03  0.92745376596E+03  0.00000000000E+00 0. -1.
        -12    1    3    3    0    0 -0.82345567641E+00  0.24728171235E+02 -0.12982352103E+03  0.13216015717E+03  0.00000000000E+00 0.  1.
          5    1    4    4  501    0  0.81892614576E+02 -0.81021275029E+02 -0.16746934215E+04  0.16786561219E+04  0.41800000000E+01 0. -1.
         -5    1    4    4    0  501 -0.33081603446E+02 -0.97330242080E+01 -0.19682241824E+03  0.19986410625E+03  0.41800000000E+01 0. -1.
</event>
<event>
11    1  0.7577197E-009  0.1770595E+03  0.7561462E-02  0.1072046E+00
         22   -1    0    0    0    0  0.00000000000E+00  0.00000000000E+00  0.84745537409E+03  0.84745537409E+03  0.00000000000E+00 0. -1.
         22   -1    0    0    0    0 -0.00000000000E+00 -0.00000000000E+00 -0.91316169492E+03  0.91316169492E+03  0.00000000000E+00 0. -1.
         24    2    1    2    0    0 -0.36926297071E+02 -0.11951525344E+03 -0.82356539908E+03  0.83695797278E+03  0.81186417695E+02 0.  0.
         25    2    1    2    0    0  0.34426103524E+02  0.12342255361E+03  0.18697724145E+02  0.18006424848E+03  0.12512092292E+03 0.  0.
        -24    2    1    2    0    0  0.25001935463E+01 -0.39073001691E+01  0.73916135411E+03  0.74359484774E+03  0.80946106860E+02 0.  0.
        -13    1    3    3    0    0 -0.93030798467E+01  0.11620122898E+02 -0.69427450378E+02  0.71005249220E+02  0.00000000000E+00 0.  1.
         14    1    3    3    0    0 -0.27623217224E+02 -0.13113537633E+03 -0.75413794871E+03  0.76595272356E+03  0.00000000000E+00 0. -1.
         13    1    5    5    0    0 -0.25811488409E+02  0.11428324195E+02  0.60369202904E+03  0.60435164056E+03  0.00000000000E+00 0. -1.
        -14    1    5    5    0    0  0.28311681955E+02 -0.15335624364E+02  0.13546932507E+03  0.13924320718E+03  0.00000000000E+00 0.  1.
          5    1    4    4  501    0  0.47020155328E+02  0.12042694189E+03 -0.27213417360E+02  0.13218012643E+03  0.41800000000E+01 0. -1.
         -5    1    4    4    0  501 -0.12594051803E+02  0.29956117182E+01  0.45911141505E+02  0.47884122052E+02  0.41800000000E+01 0. -1.
</event>
<event>
11    1  0.7577197E-009  0.1804948E+03  0.7561462E-02  0.1069243E+00
         22   -1    0    0    0    0  0.00000000000E+00  0.00000000000E+00  0.74160023169E+03  0.74160023169E+03  0.00000000000E+00 0.  1.
         22   -1    0    0    0    0 -0.00000000000E+00 -0.00000000000E+00 -0.81895574949E+03  0.81895574949E+03  0.00000000000E+00 0. -1.
        -24    2    1    2    0    0  0.90214963681E+02  0.89425160418E+02 -0.73085501474E+03  0.74609127232E+03  0.79796836220E+02 0.  0.
         25    2    1    2    0    0 -0.15661883899E+03 -0.14966707707E+03  0.13930629015E+03  0.28632620077E+03  0.12508699407E+03 0.  0.
         24    2    1    2    0    0  0.66403875312E+02  0.60241916649E+02  0.51419320679E+03  0.52813850809E+03  0.80604383542E+02 0.  0.
        -11    1    5    5    0    0  0.76657644130E+02  0.58933577237E+02  0.33574815632E+03  0.34939431221E+03  0.00000000000E+00 0.  1.
         12    1    5    5    0    0 -0.10253768818E+02  0.13083394123E+01  0.17844505047E+03  0.17874419589E+03  0.00000000000E+00 0. -1.
         13    1    3    3    0    0  0.98039496185E+02  0.94366535665E+02 -0.71410876115E+03  0.72695812026E+03  0.00000000000E+00 0. -1.
        -14    1    3    3    0    0 -0.78245325043E+01 -0.49413752473E+01 -0.16746253591E+02  0.19133152055E+02  0.00000000000E+00 0.  1.
          5    1    4    4  501    0 -0.17735402758E+03 -0.14020781999E+03  0.13291030689E+03  0.26228859290E+03  0.41800000000E+01 0. -1.
         -5    1    4    4    0  501  0.20735188591E+02 -0.94592570772E+01  0.63959832680E+01  0.24037607874E+02  0.41800000000E+01 0. -1.
</event>
<event>
11    1  0.7577197E-009  0.1449922E+03  0.7561462E-02  0.1102108E+00
         22   -1    0    0    0    0  0.00000000000E+00  0.00000000000E+00  0.10856243375E+03  0.10856243375E+03  0.00000000000E+00 0.  1.
         22   -1    0    0    0    0 -0.00000000000E+00 -0.00000000000E+00 -0.65801222285E+03  0.65801222285E+03  0.00000000000E+00 0.  1.
         24    2    1    2    0    0  0.53956372817E+02  0.59923116825E+02 -0.44479852545E+03  0.45911645916E+03  0.80250387727E+02 0.  0.
         25    2    1    2    0    0 -0.66182558243E+02  0.83734897448E+01 -0.13293454096E+03  0.19434133920E+03  0.12508684022E+03 0.  0.
        -24    2    1    2    0    0  0.12226185427E+02 -0.68296606570E+02  0.28283277312E+02  0.11311685824E+03  0.84744166548E+02 0.  0.
        -13    1    3    3    0    0  0.68321454205E+02  0.20002589744E+02 -0.26723173984E+03  0.27655149155E+03  0.00000000000E+00 0.  1.
         14    1    3    3    0    0 -0.14365081388E+02  0.39920527082E+02 -0.17756678561E+03  0.18256496761E+03  0.00000000000E+00 0. -1.
         13    1    5    5    0    0 -0.15570455477E+02 -0.65074395489E+02 -0.78995212614E+01  0.67375948737E+02  0.00000000000E+00 0. -1.
        -14    1    5    5    0    0  0.27796640903E+02 -0.32222110811E+01  0.36182798573E+02  0.45740909505E+02  0.00000000000E+00 0.  1.
          5    1    4    4  501    0 -0.10232400989E+03 -0.31566859590E+01 -0.10732997905E+03  0.14838249381E+03  0.41800000000E+01 0. -1.
         -5    1    4    4    0  501  0.36141451649E+02  0.11530175704E+02 -0.25604561909E+02  0.45958845390E+02  0.41800000000E+01 0. -1.
</event>
<event>
11    1  0.7577197E-009  0.1618624E+03  0.7561462E-02  0.1085339E+00
         22   -1    0    0    0    0  0.00000000000E+00  0.00000000000E+00  0.77521061681E+03  0.77521061681E+03  0.00000000000E+00 0.  1.
         22   -1    0    0    0    0 -0.00000000000E+00 -0.00000000000E+00 -0.24616645703E+03  0.24616645703E+03  0.00000000000E+00 0. -1.
         24    2    1    2    0    0  0.47231173916E+01  0.82921897033E+01 -0.19205707273E+03  0.20878334072E+03  0.81323403315E+02 0.  0.
         25    2    1    2    0    0 -0.89265815976E+01  0.95546062296E+02  0.12086560571E+03  0.19866162461E+03  0.12509681280E+03 0.  0.
        -24    2    1    2    0    0  0.42034642060E+01 -0.10383825200E+03  0.60023562680E+03  0.61393210851E+03  0.76352959933E+02 0.  0.
        -11    1    3    3    0    0 -0.31359141120E+02  0.13295254838E+02 -0.40543138163E+02  0.52951917671E+02  0.00000000000E+00 0.  1.
         12    1    3    3    0    0  0.36082258511E+02 -0.50030651342E+01 -0.15151393457E+03  0.15583142305E+03  0.00000000000E+00 0. -1.
         11    1    5    5    0    0  0.47504011037E+01 -0.42261631773E+01  0.24258386459E+03  0.24266717562E+03  0.00000000000E+00 0. -1.
        -12    1    5    5    0    0 -0.54693689769E+00 -0.99612088822E+02  0.35765176221E+03  0.37126493289E+03  0.00000000000E+00 0.  1.
          5    1    4    4  501    0 -0.65873748591E+02  0.37032468132E+02  0.52849521396E+02  0.92310881055E+02  0.41800000000E+01 0.  1.
         -5    1    4    4    0  501  0.56947166994E+02  0.58513594164E+02  0.68016084311E+02  0.10635074356E+03  0.41800000000E+01 0.  1.
</event>
<event>
11    1  0.7577197E-009  0.1283443E+03  0.7561462E-02  0.1121320E+00
         22   -1    0    0    0    0  0.00000000000E+00  0.00000000000E+00  0.41735977705E+04  0.41735977705E+04  0.00000000000E+00 0. -1.
         22   -1    0    0    0    0 -0.00000000000E+00 -0.00000000000E+00 -0.12093538234E+04  0.12093538234E+04  0.00000000000E+00 0.  1.
        -24    2    1    2    0    0  0.42338195176E+01  0.17637807367E+02 -0.11269321101E+04  0.11299112081E+04  0.79964616966E+02 0.  0.
         25    2    1    2    0    0  0.10463720730E+02  0.71578917878E+01 -0.31405428767E+02  0.12959087463E+03  0.12508704555E+03 0.  0.
         24    2    1    2    0    0 -0.14697540247E+02 -0.24795699155E+02  0.41225814860E+04  0.41234495112E+04  0.79541928941E+02 0.  0.
        -11    1    5    5    0    0  0.49729058320E+01 -0.57756207260E+01  0.37020089648E+02  0.37796489582E+02  0.00000000000E+00 0.  1.
         12    1    5    5    0    0 -0.19670446079E+02 -0.19020078429E+02  0.40855613963E+04  0.40856530216E+04  0.00000000000E+00 0. -1.
         13    1    3    3    0    0 -0.10452473732E+01 -0.18379466459E+02 -0.89075651976E+03  0.89094672951E+03  0.00000000000E+00 0. -1.
        -14    1    3    3    0    0  0.52790668908E+01  0.36017273825E+02 -0.23617559030E+03  0.23896447857E+03  0.00000000000E+00 0.  1.
          5    1    4    4  501    0  0.43215409655E+02  0.13951895164E+02 -0.66690533361E+02  0.80791872427E+02  0.41800000000E+01 0. -1.
         -5    1    4    4    0  501 -0.32751688925E+02 -0.67940033759E+01  0.35285104595E+02  0.48799002199E+02  0.41800000000E+01 0. -1.
</event>
<event>
11    1  0.7577197E-009  0.1510065E+03  0.7561462E-02  0.1095855E+00
         22   -1    0    0    0    0  0.00000000000E+00  0.00000000000E+00  0.95697675321E+02  0.95697675321E+02  0.00000000000E+00 0. -1.
         22   -1    0    0    0    0 -0.00000000000E+00 -0.00000000000E+00 -0.10816109427E+04  0.10816109427E+04  0.00000000000E+00 0. -1.
         24    2    1    2    0    0  0.47615373800E+02 -0.63027484768E+02 -0.79863371521E+03  0.80650277496E+03  0.79945151802E+02 0.  0.
         25    2    1    2    0    0 -0.97808400563E+02  0.99698915610E+02 -0.19302449380E+03  0.26909605617E+03  0.12509146751E+03 0.  0.
        -24    2    1    2    0    0  0.50193026764E+02 -0.36671430842E+02  0.57449416214E+01  0.10170978690E+03  0.80297836962E+02 0.  0.
        -11    1    3    3    0    0 -0.27472033094E+00 -0.58734172810E+02 -0.31047561877E+03  0.31598241783E+03  0.00000000000E+00 0.  1.
         12    1    3    3    0    0  0.47890094130E+02 -0.42933119580E+01 -0.48815809644E+03  0.49052035713E+03  0.00000000000E+00 0. -1.
         13    1    5    5    0    0 -0.12246863626E+01 -0.46944886513E+02 -0.76793180528E+01  0.47584599948E+02  0.00000000000E+00 0. -1.
        -14    1    5    5    0    0  0.51417713126E+02  0.10273455671E+02  0.13424259674E+02  0.54125186950E+02  0.00000000000E+00 0.  1.
          5    1    4    4  501    0 -0.99609105742E+02  0.52922815622E+02 -0.59611201965E+02  0.12764703741E+03  0.41800000000E+01 0. -1.
         -5    1    4    4    0  501  0.18007051786E+01  0.46776099988E+02 -0.13341329184E+03  0.14144901876E+03  0.41800000000E+01 0. -1.
</event>
<event>
11    1  0.7577197E-009  0.1977122E+03  0.7561462E-02  0.1056153E+00
         22   -1    0    0    0    0  0.00000000000E+00  0.00000000000E+00  0.95161147592E+03  0.95161147592E+03  0.00000000000E+00 0.  1.
         22   -1    0    0    0    0 -0.00000000000E+00 -0.00000000000E+00 -0.29928751240E+03  0.29928751240E+03  0.00000000000E+00 0.  1.
        -24    2    1    2    0    0 -0.33690998537E+02  0.27774374593E+02 -0.24395822241E+03  0.26108632962E+03  0.82121604758E+02 0.  0.
         25    2    1    2    0    0  0.22335303544E+00 -0.17205285263E+03  0.28380720536E+03  0.35467613569E+03  0.12508556044E+03 0.  0.
         24    2    1    2    0    0  0.33467645501E+02  0.14427847804E+03  0.61247498057E+03  0.63513652302E+03  0.79601749500E+02 0.  0.
        -13    1    5    5    0    0 -0.11163289563E+02  0.10160626294E+03  0.44640638711E+03  0.45795972984E+03  0.00000000000E+00 0.  1.
         14    1    5    5    0    0  0.44630935065E+02  0.42672215095E+02  0.16606859346E+03  0.17717679317E+03  0.00000000000E+00 0. -1.
         11    1    3    3    0    0 -0.54005158030E+02  0.24623326666E+02 -0.10498967888E+03  0.12060554706E+03  0.00000000000E+00 0. -1.
        -12    1    3    3    0    0  0.20314159494E+02  0.31510479261E+01 -0.13896854353E+03  0.14048078256E+03  0.00000000000E+00 0.  1.
          5    1    4    4  501    0 -0.29305916966E+02 -0.38035143474E+02  0.16889370061E+03  0.17563616773E+03  0.41800000000E+01 0.  1.
         -5    1    4    4    0  501  0.29529270001E+02 -0.13401770915E+03  0.11491350475E+03  0.17903996796E+03  0.41800000000E+01 0.  1.
</event>
<event>
11    1  0.7577197E-009  0.1797743E+03  0.7561462E-02  0.1069826E+00
         22   -1    0    0    0    0  0.00000000000E+00  0.00000000000E+00  0.20802453025E+04  0.20802453025E+04  0.00000000000E+00 0.  1.
         22   -1    0    0    0    0 -0.00000000000E+00 -0.00000000000E+00 -0.27905306379E+04  0.27905306379E+04  0.00000000000E+00 0. -1.
        -24    2    1    2    0    0  0.10897675411E+03  0.69176583546E+02 -0.27102208315E+04  0.27144691117E+04  0.79901625507E+02 0.  0.
         25    2    1    2    0    0 -0.91478184193E+02 -0.98368886710E+02  0.31887261126E+02  0.18631759591E+03  0.12511096301E+03 0.  0.
         24    2    1    2    0    0 -0.17498569917E+02  0.29192303164E+02  0.19680482350E+04  0.19699892329E+04  0.80531559211E+02 0.  0.
        -11    1    5    5    0    0  0.22997066166E+01  0.15126608522E+01  0.16703338156E+04  0.16703360837E+04  0.00000000000E+00 0.  1.
         12    1    5    5    0    0 -0.19798276533E+02  0.27679642312E+02  0.29771441938E+03  0.29965314926E+03  0.00000000000E+00 0. -1.
         13    1    3    3    0    0  0.84181579027E+02  0.79328827118E+02 -0.24797151002E+04  0.24824114444E+04  0.00000000000E+00 0. -1.
        -14    1    3    3    0    0  0.24795175083E+02 -0.10152243572E+02 -0.23050573137E+03  0.23205766730E+03  0.00000000000E+00 0.  1.
          5    1    4    4  501    0 -0.34348657997E+02 -0.21938533447E+02  0.71906003242E+02  0.82759140028E+02  0.41800000000E+01 0. -1.
         -5    1    4    4    0  501 -0.57129526197E+02 -0.76430353263E+02 -0.40018742116E+02  0.10355845588E+03  0.41800000000E+01 0. -1.
</event>
<event>
11    1  0.7577197E-009  0.1551238E+03  0.7561462E-02  0.1091755E+00
         22   -1    0    0    0    0  0.00000000000E+00  0.00000000000E+00  0.47697506107E+03  0.47697506107E+03  0.00000000000E+00 0.  1.
         22   -1    0    0    0    0 -0.00000000000E+00 -0.00000000000E+00 -0.62762103952E+03  0.62762103952E+03  0.00000000000E+00 0. -1.
        -24    2    1    2    0    0  0.54526882719E+02  0.67707214961E+02 -0.47466233503E+03  0.48920662742E+03  0.80382486392E+02 0.  0.
         25    2    1    2    0    0 -0.69049584580E+02 -0.11135309942E+03 -0.82333603535E+02  0.19898580022E+03  0.12509663679E+03 0.  0.
         24    2    1    2    0    0  0.14522701861E+02  0.43645884459E+02  0.40634996011E+03  0.41640367295E+03  0.78459267574E+02 0.  0.
        -13    1    5    5    0    0 -0.19205520962E+02  0.45602232075E+02  0.15278471000E+03  0.16059758160E+03  0.00000000000E+00 0.  1.
         14    1    5    5    0    0  0.33728222823E+02 -0.19563476160E+01  0.25356525011E+03  0.25580609135E+03  0.00000000000E+00 0. -1.
         13    1    3    3    0    0 -0.15538292540E+02  0.39553539422E+02 -0.19054496689E+03  0.19522629286E+03  0.00000000000E+00 0. -1.
        -14    1    3    3    0    0  0.70065175259E+02  0.28153675540E+02 -0.28411736814E+03  0.29398033456E+03  0.00000000000E+00 0.  1.
          5    1    4    4  501    0 -0.20865927592E+02 -0.12676457895E+03 -0.71484167452E+02  0.14707856406E+03  0.41800000000E+01 0.  1.
         -5    1    4    4    0  501 -0.48183656989E+02  0.15411479526E+02 -0.10849436084E+02  0.51907236156E+02  0.41800000000E+01 0.  1.
</event>
<event>
11    1  0.7577197E-009  0.1440425E+03  0.7561462E-02  0.1103126E+00
         22   -1    0    0    0    0  0.00000000000E+00  0.00000000000E+00  0.36578497268E+03  0.36578497268E+03  0.00000000000E+00 0.  1.
         22   -1    0    0    0    0 -0.00000000000E+00 -0.00000000000E+00 -0.38671168822E+03  0.38671168822E+03  0.00000000000E+00 0.  1.
        -24    2    1    2    0    0 -0.13418116790E+02  0.61873997198E+01 -0.26847400557E+03  0.28055699780E+03  0.80097487930E+02 0.  0.
         25    2    1    2    0    0  0.33185088152E+02  0.62635538242E+02 -0.52542046568E+02  0.15307310175E+03  0.12508495951E+03 0.  0.
         24    2    1    2    0    0 -0.19766971362E+02 -0.68822937962E+02  0.30008933660E+03  0.31886656134E+03  0.80591215740E+02 0.  0.
        -13    1    5    5    0    0  0.11264966923E+02 -0.13579463253E+02  0.19750420452E+03  0.19829072622E+03  0.00000000000E+00 0.  1.
         14    1    5    5    0    0 -0.31031938284E+02 -0.55243474709E+02  0.10258513209E+03  0.12057583513E+03  0.00000000000E+00 0. -1.
         11    1    3    3    0    0 -0.43366542213E+02 -0.42425061220E+01 -0.99349124505E+02  0.10848458131E+03  0.00000000000E+00 0. -1.
        -12    1    3    3    0    0  0.29948425423E+02  0.10429905842E+02 -0.16912488107E+03  0.17207241649E+03  0.00000000000E+00 0.  1.
          5    1    4    4  501    0  0.72754524774E+02  0.68785123758E+02 -0.51794683025E+02  0.11280414760E+03  0.41800000000E+01 0.  1.
         -5    1    4    4    0  501 -0.39569436622E+02 -0.61495855155E+01 -0.74736354261E+00  0.40268954156E+02  0.41800000000E+01 0.  1.
</event>
<event>
11    1  0.7577197E-009  0.1531806E+03  0.7561462E-02  0.1093672E+00
         22   -1    0    0    0    0  0.00000000000E+00  0.00000000000E+00  0.12367072880E+04  0.12367072880E+04  0.00000000000E+00 0. -1.
         22   -1    0    0    0    0 -0.00000000000E+00 -0.00000000000E+00 -0.52587349881E+03  0.52587349881E+03  0.00000000000E+00 0. -1.
        -24    2    1    2    0    0  0.73325432239E+02  0.43294451679E+02 -0.40901799915E+03  0.42397251299E+03  0.72152197322E+02 0.  0.
         25    2    1    2    0    0 -0.93428296466E+02 -0.75072888777E+02 -0.37999107246E+02  0.17735938961E+03  0.12509051012E+03 0.  0.
         24    2    1    2    0    0  0.20102864226E+02  0.31778437098E+02  0.11578508956E+04  0.11612488842E+04  0.80413185871E+02 0.  0.
        -11    1    5    5    0    0  0.22494244648E+02  0.53445634716E+01  0.85538901708E+02  0.88608459564E+02  0.00000000000E+00 0.  1.
         12    1    5    5    0    0 -0.23913804214E+01  0.26433873626E+02  0.10723119939E+04  0.10726404247E+04  0.00000000000E+00 0. -1.
         13    1    3    3    0    0  0.60990779598E+02 -0.52989676782E+01 -0.23904875191E+03  0.24676357114E+03  0.00000000000E+00 0. -1.
        -14    1    3    3    0    0  0.12334652642E+02  0.48593419358E+02 -0.16996924725E+03  0.17720894185E+03  0.00000000000E+00 0.  1.
          5    1    4    4  501    0 -0.11905146064E+03 -0.78497309178E+02 -0.46137118598E+02  0.14993726668E+03  0.41800000000E+01 0. -1.
         -5    1    4    4    0  501  0.25623164170E+02  0.34244204006E+01  0.81380113513E+01  0.27422122929E+02  0.41800000000E+01 0. -1.
</event>
<event>
11    1  0.7577197E-009  0.1646989E+03  0.7561462E-02  0.1082739E+00
         22   -1    0    0    0    0  0.00000000000E+00  0.00000000000E+00  0.42329349358E+03  0.42329349358E+03  0.00000000000E+00 0.  1.
         22   -1    0    0    0    0 -0.00000000000E+00 -0.00000000000E+00 -0.51193332732E+03  0.51193332732E+03  0.00000000000E+00 0. -1.
        -24    2    1    2    0    0 -0.32036525267E+02  0.67981667137E+01 -0.42107263202E+03  0.42978510191E+03  0.79627371919E+02 0.  0.
         25    2    1    2    0    0  0.11146061152E+03 -0.71599810605E+02  0.41168243059E+02  0.18679203217E+03  0.12508572359E+03 0.  0.
         24    2    1    2    0    0 -0.79424086253E+02  0.64801643892E+02  0.29126455522E+03  0.31864968683E+03  0.78709232363E+02 0.  0.
        -11    1    5    5    0    0 -0.78094475797E+02  0.52084515839E+02  0.29110160217E+03  0.30586220218E+03  0.00000000000E+00 0.  1.
         12    1    5    5    0    0 -0.13296104568E+01  0.12717128053E+02  0.16295305577E+00  0.12787484646E+02  0.00000000000E+00 0. -1.
         13    1    3    3    0    0 -0.81364764700E+01  0.77647031571E+01 -0.39189369733E+03  0.39205505082E+03  0.00000000000E+00 0. -1.
        -14    1    3    3    0    0 -0.23900048797E+02 -0.96653644337E+00 -0.29178934691E+02  0.37730051085E+02  0.00000000000E+00 0.  1.
          5    1    4    4  501    0  0.54696035937E+02  0.89145563295E+01  0.64830753929E+02  0.85391010749E+02  0.41800000000E+01 0.  1.
         -5    1    4    4    0  501  0.56764575584E+02 -0.80514366935E+02 -0.23662510870E+02  0.10140102142E+03  0.41800000000E+01 0.  1.
</event>
<event>
11    1  0.7577197E-009  0.1377455E+03  0.7561462E-02  0.1110102E+00
         22   -1    0    0    0    0  0.00000000000E+00  0.00000000000E+00  0.72562011115E+03  0.72562011115E+03  0.00000000000E+00 0. -1.
         22   -1    0    0    0    0 -0.00000000000E+00 -0.00000000000E+00 -0.10703321124E+03  0.10703321124E+03  0.00000000000E+00 0. -1.
        -24    2    1    2    0    0 -0.41738247317E+02  0.40970519376E+02 -0.84832719058E+01  0.88339137981E+02  0.65659520634E+02 0.  0.
         25    2    1    2    0    0  0.58715327726E+02 -0.16621768777E+02  0.31569796444E+02  0.14271719193E+03  0.12509105451E+03 0.  0.
         24    2    1    2    0    0 -0.16977080408E+02 -0.24348750599E+02  0.59550037536E+03  0.60159699248E+03  0.80107186842E+02 0.  0.
        -13    1    5    5    0    0 -0.49072148141E+02 -0.18514434970E+02  0.33972952676E+03  0.34375428925E+03  0.00000000000E+00 0.  1.
         14    1    5    5    0    0  0.32095067733E+02 -0.58343156286E+01  0.25577084860E+03  0.25784270323E+03  0.00000000000E+00 0. -1.
         13    1    3    3    0    0 -0.57027507336E+02  0.43721575314E+02 -0.10685223246E+02  0.72649065629E+02  0.00000000000E+00 0. -1.
        -14    1    3    3    0    0  0.15289260019E+02 -0.27510559382E+01  0.22019513401E+01  0.15690072352E+02  0.00000000000E+00 0.  1.
          5    1    4    4  501    0  0.64434331723E+02 -0.63181001647E+02  0.31343256755E+02  0.95621620033E+02  0.41800000000E+01 0. -1.
         -5    1    4    4    0  501 -0.57190039975E+01  0.46559232870E+02  0.22653968918E+00  0.47095571898E+02  0.41800000000E+01 0. -1.
</event>
<event>
11    1  0.7577197E-009  0.1683080E+03  0.7561462E-02  0.1079514E+00
         22   -1    0    0    0    0  0.00000000000E+00  0.00000000000E+00  0.21147657348E+03  0.21147657348E+03  0.00000000000E+00 0. -1.
         22   -1    0    0    0    0 -0.00000000000E+00 -0.00000000000E+00 -0.41000367117E+03  0.41000367117E+03  0.00000000000E+00 0.  1.
        -24    2    1    2    0    0  0.11850584768E+02 -0.31173374250E+02 -0.28093668617E+03  0.29386317087E+03  0.79485381889E+02 0.  0.
         25    2    1    2    0    0 -0.49278584121E+02 -0.83915951926E+02 -0.51795507710E+01  0.15857026831E+03  0.12508971342E+03 0.  0.
         24    2    1    2    0    0  0.37427999353E+02  0.11508932618E+03  0.87589139254E+02  0.16904680548E+03  0.79111042165E+02 0.  0.
        -13    1    5    5    0    0 -0.90272086258E+01  0.29108826847E+02 -0.88617867571E+01  0.31738707606E+02  0.00000000000E+00 0.  1.
         14    1    5    5    0    0  0.46455207979E+02  0.85980499328E+02  0.96450926011E+02  0.13730809787E+03  0.00000000000E+00 0. -1.
         11    1    3    3    0    0 -0.25923279591E+02  0.12195807913E+02 -0.89427362925E+02  0.93904245885E+02  0.00000000000E+00 0. -1.
        -12    1    3    3    0    0  0.37773864359E+02 -0.43369182163E+02 -0.19150932325E+03  0.19995892498E+03  0.00000000000E+00 0.  1.
          5    1    4    4  501    0 -0.60354341164E+02 -0.24733301887E+02 -0.50909759801E+02  0.82847201296E+02  0.41800000000E+01 0. -1.
         -5    1    4    4    0  501  0.11075757043E+02 -0.59182650039E+02  0.45730209030E+02  0.75723067012E+02  0.41800000000E+01 0. -1.
</event>
<event>
11    1  0.7577197E-009  0.3424546E+03  0.7561462E-02  0.9836694E-01
         22   -1    0    0    0    0  0.00000000000E+00  0.00000000000E+00  0.10099259957E+04  0.10099259957E+04  0.00000000000E+00 0. -1.
         22   -1    0    0    0    0 -0.00000000000E+00 -0.00000000000E+00 -0.60201933265E+03  0.60201933265E+03  0.00000000000E+00 0.  1.
        -24    2    1    2    0    0  0.12830917748E+03 -0.29241207726E+03 -0.36223152530E+03  0.48950789638E+03  0.80238611348E+02 0.  0.
         25    2    1    2    0    0 -0.64090621406E+01  0.33637238606E+03  0.22812954905E+02  0.35966587914E+03  0.12510657667E+03 0.  0.
         24    2    1    2    0    0 -0.12190011534E+03 -0.43960308799E+02  0.74732523341E+03  0.76277155279E+03  0.80828772003E+02 0.  0.
        -11    1    5    5    0    0 -0.50061472918E+02 -0.17975471587E+02  0.12599558175E+03  0.13676313564E+03  0.00000000000E+00 0.  1.
         12    1    5    5    0    0 -0.71838642423E+02 -0.25984837213E+02  0.62132965166E+03  0.62600841715E+03  0.00000000000E+00 0. -1.
         11    1    3    3    0    0  0.14199823453E+02 -0.92916975875E+00 -0.64422547786E+01  0.15620531014E+02  0.00000000000E+00 0. -1.
        -12    1    3    3    0    0  0.11410935403E+03 -0.29148290750E+03 -0.35578927052E+03  0.47388736537E+03  0.00000000000E+00 0.  1.
          5    1    4    4  501    0  0.16229992489E+02  0.29772934185E+03  0.56452739169E+02  0.30349721220E+03  0.41800000000E+01 0.  1.
         -5    1    4    4    0  501 -0.22639054630E+02  0.38643044207E+02 -0.33639784264E+02  0.56168666937E+02  0.41800000000E+01 0.  1.
</event>
<event>
11    1  0.7577197E-009  0.2782826E+03  0.7561462E-02  0.1009826E+00
         22   -1    0    0    0    0  0.00000000000E+00  0.00000000000E+00  0.72009723983E+03  0.72009723983E+03  0.00000000000E+00 0.  1.
         22   -1    0    0    0    0 -0.00000000000E+00 -0.00000000000E+00 -0.29268795854E+03  0.29268795854E+03  0.00000000000E+00 0.  1.
        -24    2    1    2    0    0  0.62333100838E+02  0.23376126992E+03 -0.13348989605E+02  0.25520456739E+03  0.80133818825E+02 0.  0.
         25    2    1    2    0    0  0.13405966714E+03 -0.27413291032E+03  0.83765165338E+02  0.34026890196E+03  0.12508187656E+03 0.  0.
         24    2    1    2    0    0 -0.19639276797E+03  0.40371640397E+02  0.35699310555E+03  0.41731172902E+03  0.80653661455E+02 0.  0.
        -13    1    5    5    0    0 -0.18057187958E+03  0.54661101405E+02  0.34401784019E+03  0.39235483184E+03  0.00000000000E+00 0.  1.
         14    1    5    5    0    0 -0.15820888397E+02 -0.14289461008E+02  0.12975265360E+02  0.24956897177E+02  0.00000000000E+00 0. -1.
         13    1    3    3    0    0  0.59749552264E+01  0.12162111546E+03 -0.37469114856E+02  0.12740223854E+03  0.00000000000E+00 0. -1.
        -14    1    3    3    0    0  0.56358145611E+02  0.11214015446E+03  0.24120125251E+02  0.12780232886E+03  0.00000000000E+00 0.  1.
          5    1    4    4  501    0 -0.17669874772E+02 -0.26571027107E+02 -0.12223536139E+02  0.34425734440E+02  0.41800000000E+01 0.  1.
         -5    1    4    4    0  501  0.15172954191E+03 -0.24756188321E+03  0.95988701477E+02  0.30584316752E+03  0.41800000000E+01 0.  1.
</event>
<event>
11    1  0.7577197E-009  0.1432014E+03  0.7561462E-02  0.1104035E+00
         22   -1    0    0    0    0  0.00000000000E+00  0.00000000000E+00  0.24938249169E+04  0.24938249169E+04  0.00000000000E+00 0. -1.
         22   -1    0    0    0    0 -0.00000000000E+00 -0.00000000000E+00 -0.57712936232E+03  0.57712936232E+03  0.00000000000E+00 0. -1.
         24    2    1    2    0    0  0.68940256532E+02 -0.17199970273E+01 -0.55060024118E+03  0.56084733807E+03  0.81445648553E+02 0.  0.
         25    2    1    2    0    0 -0.13134947706E+03 -0.29103685211E+02  0.39959704260E+03  0.43980135761E+03  0.12509087929E+03 0.  0.
        -24    2    1    2    0    0  0.62409220533E+02  0.30823682238E+02  0.20676987532E+04  0.20703055835E+04  0.77084792506E+02 0.  0.
        -13    1    3    3    0    0  0.29701948564E+02 -0.34034728066E+02 -0.13987126763E+03  0.14698482906E+03  0.00000000000E+00 0.  1.
         14    1    3    3    0    0  0.39238307969E+02  0.32314731039E+02 -0.41072897355E+03  0.41386250902E+03  0.00000000000E+00 0. -1.
         13    1    5    5    0    0  0.26454104829E+01  0.47832023798E+01  0.12501108148E+04  0.12501227646E+04  0.00000000000E+00 0. -1.
        -14    1    5    5    0    0  0.59763810050E+02  0.26040479858E+02  0.81758793831E+03  0.82018281892E+03  0.00000000000E+00 0.  1.
          5    1    4    4  501    0 -0.14777112503E+03 -0.28101269837E+02  0.39427059786E+03  0.42201038316E+03  0.41800000000E+01 0. -1.
         -5    1    4    4    0  501  0.16421647960E+02 -0.10024153744E+01  0.53264447408E+01  0.17790974450E+02  0.41800000000E+01 0. -1.
</event>
<event>
11    1  0.7577197E-009  0.1817236E+03  0.7561462E-02  0.1068257E+00
         22   -1    0    0    0    0  0.00000000000E+00  0.00000000000E+00  0.50278827293E+03  0.50278827293E+03  0.00000000000E+00 0. -1.
         22   -1    0    0    0    0 -0.00000000000E+00 -0.00000000000E+00 -0.46606946516E+03  0.46606946516E+03  0.00000000000E+00 0.  1.
         24    2    1    2    0    0 -0.18459588661E+02  0.13165147927E+03 -0.39310417098E+03  0.42259930493E+03  0.79915047850E+02 0.  0.
         25    2    1    2    0    0 -0.26180903704E+01 -0.12176306249E+03  0.10044788419E+03  0.20142045648E+03  0.12508926838E+03 0.  0.
        -24    2    1    2    0    0  0.21077679031E+02 -0.98884167848E+01  0.32937509456E+03  0.34483797669E+03  0.99414425055E+02 0.  0.
        -13    1    3    3    0    0  0.20562035104E+02  0.36503938709E+02 -0.54622257514E+02  0.68839856514E+02  0.00000000000E+00 0.  1.
         14    1    3    3    0    0 -0.39021623765E+02  0.95147540564E+02 -0.33848191347E+03  0.35375944841E+03  0.00000000000E+00 0. -1.
         13    1    5    5    0    0  0.57232098652E+02 -0.23331629936E+02  0.23226921948E+03  0.24035155167E+03  0.00000000000E+00 0. -1.
        -14    1    5    5    0    0 -0.36154419621E+02  0.13443213151E+02  0.97105875078E+02  0.10448642502E+03  0.00000000000E+00 0.  1.
          5    1    4    4  501    0 -0.17183049512E+02 -0.34715779670E+01  0.78016771264E+02  0.80071206077E+02  0.41800000000E+01 0. -1.
         -5    1    4    4    0  501  0.14564959141E+02 -0.11829148452E+03  0.22431112929E+02  0.12134925040E+03  0.41800000000E+01 0. -1.
</event>
<event>
11    1  0.7577197E-009  0.1429913E+03  0.7561462E-02  0.1104263E+00
         22   -1    0    0    0    0  0.00000000000E+00  0.00000000000E+00  0.36422304555E+03  0.36422304555E+03  0.00000000000E+00 0.  1.
         22   -1    0    0    0    0 -0.00000000000E+00 -0.00000000000E+00 -0.14465641457E+03  0.14465641457E+03  0.00000000000E+00 0. -1.
        -24    2    1    2    0    0  0.50553377402E+02 -0.52072980106E+02 -0.59385743345E+02  0.12552669073E+03  0.83444858142E+02 0.  0.
         25    2    1    2    0    0 -0.21760527553E+02  0.57908464971E+02  0.74912509316E+02  0.15838168405E+03  0.12508382356E+03 0.  0.
         24    2    1    2    0    0 -0.28792849849E+02 -0.58354848649E+01  0.20403986501E+03  0.22497108533E+03  0.90092406093E+02 0.  0.
        -13    1    5    5    0    0 -0.51316293717E+02 -0.19417641204E+02  0.18370972627E+03  0.19172811561E+03  0.00000000000E+00 0.  1.
         14    1    5    5    0    0  0.22523443869E+02  0.13582156339E+02  0.20330138745E+02  0.33242969722E+02  0.00000000000E+00 0. -1.
         11    1    3    3    0    0  0.60742250163E+02 -0.36068760878E+02 -0.73450575825E+02  0.10190958520E+03  0.00000000000E+00 0. -1.
        -12    1    3    3    0    0 -0.10188872761E+02 -0.16004219229E+02  0.14064832480E+02  0.23617105537E+02  0.00000000000E+00 0.  1.
          5    1    4    4  501    0 -0.37800288050E+02  0.85197516886E+02  0.20860649146E+02  0.95603963009E+02  0.41800000000E+01 0. -1.
         -5    1    4    4    0  501  0.16039760497E+02 -0.27289051915E+02  0.54051860169E+02  0.62777721040E+02  0.41800000000E+01 0. -1.
</event>
<event>
11    1  0.7577197E-009  0.2154139E+03  0.7561462E-02  0.1044129E+00
         22   -1    0    0    0    0  0.00000000000E+00  0.00000000000E+00  0.30370146607E+03  0.30370146607E+03  0.00000000000E+00 0.  1.
         22   -1    0    0    0    0 -0.00000000000E+00 -0.00000000000E+00 -0.12899821751E+04  0.12899821751E+04  0.00000000000E+00 0. -1.
        -24    2    1    2    0    0 -0.68626103147E+02  0.16495974433E+03 -0.89919049540E+03  0.92006989119E+03  0.77870394752E+02 0.  0.
         25    2    1    2    0    0  0.75249137146E+02 -0.14860893149E+03 -0.34528620500E+03  0.40325848491E+03  0.12509114728E+03 0.  0.
         24    2    1    2    0    0 -0.66230339990E+01 -0.16350812838E+02  0.25819599138E+03  0.27035526506E+03  0.78202210473E+02 0.  0.
        -11    1    5    5    0    0 -0.37687475999E+02  0.10022678805E+02  0.11247636419E+03  0.11904508574E+03  0.00000000000E+00 0.  1.
         12    1    5    5    0    0  0.31064442000E+02 -0.26373491643E+02  0.14571962719E+03  0.15131017932E+03  0.00000000000E+00 0. -1.
         13    1    3    3    0    0 -0.69433524524E+02  0.12019280160E+03 -0.78922479246E+03  0.80133831614E+03  0.00000000000E+00 0. -1.
        -14    1    3    3    0    0  0.80742137655E+00  0.44766942732E+02 -0.10996570294E+03  0.11873157505E+03  0.00000000000E+00 0.  1.
          5    1    4    4  501    0 -0.12685955626E+02 -0.33776492445E+02 -0.93798406988E+01  0.37513180665E+02  0.41800000000E+01 0. -1.
         -5    1    4    4    0  501  0.87935092772E+02 -0.11483243904E+03 -0.33590636430E+03  0.36574530424E+03  0.41800000000E+01 0. -1.
</event>
<event>
11    1  0.7577197E-009  0.1351277E+03  0.7561462E-02  0.1113124E+00
         22   -1    0    0    0    0  0.00000000000E+00  0.00000000000E+00  0.11161770563E+04  0.11161770563E+04  0.00000000000E+00 0.  1.
         22   -1    0    0    0    0 -0.00000000000E+00 -0.00000000000E+00 -0.29756117062E+03  0.29756117062E+03  0.00000000000E+00 0. -1.
         24    2    1    2    0    0 -0.25595402293E+02 -0.44167901462E+02 -0.27426322289E+03  0.29059414068E+03  0.81355460945E+02 0.  0.
         25    2    1    2    0    0  0.57425366231E+02  0.28724923452E+02  0.38333563128E+03  0.40830956862E+03  0.12509078185E+03 0.  0.
        -24    2    1    2    0    0 -0.31829963938E+02  0.15442978009E+02  0.70954347734E+03  0.71483451767E+03  0.79276788791E+02 0.  0.
        -11    1    3    3    0    0  0.19427423036E+02  0.12874346463E+02 -0.61968539203E+02  0.66206294365E+02  0.00000000000E+00 0.  1.
         12    1    3    3    0    0 -0.45022825329E+02 -0.57042247924E+02 -0.21229468369E+03  0.22438784631E+03  0.00000000000E+00 0. -1.
         13    1    5    5    0    0 -0.16652146906E+01 -0.29108873338E+02  0.15755294566E+03  0.16022805664E+03  0.00000000000E+00 0. -1.
        -14    1    5    5    0    0 -0.30164749247E+02  0.44551851348E+02  0.55199053168E+03  0.55460646103E+03  0.00000000000E+00 0.  1.
          5    1    4    4  501    0  0.92347841460E+02  0.60765362580E+01  0.20230034224E+03  0.22250381791E+03  0.41800000000E+01 0.  1.
         -5    1    4    4    0  501 -0.34922475229E+02  0.22648387194E+02  0.18103528904E+03  0.18580575071E+03  0.41800000000E+01 0.  1.
</event>
<event>
11    1  0.7577197E-009  0.1377693E+03  0.7561462E-02  0.1110075E+00
         22   -1    0    0    0    0  0.00000000000E+00  0.00000000000E+00  0.94812964076E+03  0.94812964076E+03  0.00000000000E+00 0.  1.
         22   -1    0    0    0    0 -0.00000000000E+00 -0.00000000000E+00 -0.65783740788E+03  0.65783740788E+03  0.00000000000E+00 0.  1.
         24    2    1    2    0    0  0.36586251340E+01  0.58059495344E+02 -0.61684741432E+03  0.62492062538E+03  0.81490888646E+02 0.  0.
         25    2    1    2    0    0  0.35459261433E+02 -0.44533605134E+02  0.10265881500E+03  0.17154367994E+03  0.12509116924E+03 0.  0.
        -24    2    1    2    0    0 -0.39117886567E+02 -0.13525890210E+02  0.80448083221E+03  0.80950274332E+03  0.79950755410E+02 0.  0.
        -13    1    3    3    0    0  0.66058411796E+01  0.72149694482E+02 -0.59022870245E+03  0.59465884063E+03  0.00000000000E+00 0.  1.
         14    1    3    3    0    0 -0.29472160455E+01 -0.14090199138E+02 -0.26618711877E+02  0.30261784748E+02  0.00000000000E+00 0. -1.
         13    1    5    5    0    0 -0.18214922159E+01 -0.14825795654E+02  0.24953568343E+02  0.29082685979E+02  0.00000000000E+00 0. -1.
        -14    1    5    5    0    0 -0.37296394351E+02  0.12999054446E+01  0.77952726387E+03  0.78042005734E+03  0.00000000000E+00 0.  1.
          5    1    4    4  501    0 -0.39741771257E+01 -0.81957789106E+02  0.70354270924E+02  0.10816685775E+03  0.41800000000E+01 0. -1.
         -5    1    4    4    0  501  0.39433438558E+02  0.37424183972E+02  0.32304544077E+02  0.63376822187E+02  0.41800000000E+01 0. -1.
</event>
<event>
11    1  0.7577197E-009  0.3090735E+03  0.7561462E-02  0.9964226E-01
         22   -1    0    0    0    0  0.00000000000E+00  0.00000000000E+00  0.47768924698E+03  0.47768924698E+03  0.00000000000E+00 0.  1.
         22   -1    0    0    0    0 -0.00000000000E+00 -0.00000000000E+00 -0.72763426895E+03  0.72763426895E+03  0.00000000000E+00 0. -1.
         24    2    1    2    0    0  0.22194991783E+03  0.14642643006E+03 -0.45720483761E+03  0.53490143804E+03  0.79880031506E+02 0.  0.
         25    2    1    2    0    0 -0.30058880106E+03 -0.18663136619E+03 -0.48257616865E+02  0.37836553110E+03  0.12508710314E+03 0.  0.
        -24    2    1    2    0    0  0.78638883227E+02  0.40204936132E+02  0.25551743250E+03  0.29205654680E+03  0.11048691041E+03 0.  0.
        -11    1    3    3    0    0  0.94802084270E+02  0.46978802586E+02 -0.11343118888E+03  0.15511633597E+03  0.00000000000E+00 0.  1.
         12    1    3    3    0    0  0.12714783356E+03  0.99447627473E+02 -0.34377364873E+03  0.37978510206E+03  0.00000000000E+00 0. -1.
         13    1    5    5    0    0  0.43820166884E+02 -0.19150780977E+02  0.19382319806E+03  0.19963564697E+03  0.00000000000E+00 0. -1.
        -14    1    5    5    0    0  0.34818716343E+02  0.59355717109E+02  0.61694234448E+02  0.92420899830E+02  0.00000000000E+00 0.  1.
          5    1    4    4  501    0 -0.19992113638E+03 -0.65520448732E+02 -0.64246748329E+02  0.22001478824E+03  0.41800000000E+01 0. -1.
         -5    1    4    4    0  501 -0.10066766467E+03 -0.12111091746E+03  0.15989131464E+02  0.15835074286E+03  0.41800000000E+01 0. -1.
</event>
<event>
11    1  0.7577197E-009  0.1564172E+03  0.7561462E-02  0.1090496E+00
         22   -1    0    0    0    0  0.00000000000E+00  0.00000000000E+00  0.18434377615E+03  0.18434377615E+03  0.00000000000E+00 0. -1.
         22   -1    0    0    0    0 -0.00000000000E+00 -0.00000000000E+00 -0.23498311185E+03  0.23498311185E+03  0.00000000000E+00 0.  1.
        -24    2    1    2    0    0  0.23807254863E+02 -0.30903246042E+01 -0.79365813213E+02  0.11511882127E+03  0.79856591539E+02 0.  0.
         25    2    1    2    0    0  0.57365322231E+02  0.58729106037E+02 -0.47646928975E+02  0.15703090968E+03  0.12509431907E+03 0.  0.
         24    2    1    2    0    0 -0.81172577094E+02 -0.55638781433E+02  0.76373406483E+02  0.14717715706E+03  0.78380846322E+02 0.  0.
        -11    1    5    5    0    0  0.10584534974E+02 -0.18525698839E+02 -0.12770093426E+01  0.21374392411E+02  0.00000000000E+00 0.  1.
         12    1    5    5    0    0 -0.91757112068E+02 -0.37113082594E+02  0.77650415825E+02  0.12580276465E+03  0.00000000000E+00 0. -1.
         13    1    3    3    0    0  0.46532824606E+02 -0.89097706482E+01 -0.20260696354E+02  0.51528473639E+02  0.00000000000E+00 0. -1.
        -14    1    3    3    0    0 -0.22725569743E+02  0.58194460440E+01 -0.59105116859E+02  0.63590347627E+02  0.00000000000E+00 0.  1.
          5    1    4    4  501    0  0.92064661533E+02  0.19266066657E+02 -0.44726259897E+02  0.10423528170E+03  0.41800000000E+01 0. -1.
         -5    1    4    4    0  501 -0.34699339302E+02  0.39463039381E+02 -0.29206690784E+01  0.52795627973E+02  0.41800000000E+01 0. -1.
</event>
<event>
11    1  0.7577197E-009  0.1267255E+03  0.7561462E-02  0.1123359E+00
         22   -1    0    0    0    0  0.00000000000E+00  0.00000000000E+00  0.37214822883E+03  0.37214822883E+03  0.00000000000E+00 0.  1.
         22   -1    0    0    0    0 -0.00000000000E+00 -0.00000000000E+00 -0.34406683038E+03  0.34406683038E+03  0.00000000000E+00 0.  1.
        -24    2    1    2    0    0 -0.28305226852E+01 -0.19100595869E+02 -0.26722136605E+03  0.28013024270E+03  0.81809839141E+02 0.  0.
         25    2    1    2    0    0 -0.19363160108E+02  0.32482960278E+02  0.24364078138E+00  0.13067752262E+03  0.12508589401E+03 0.  0.
         24    2    1    2    0    0  0.22193682793E+02 -0.13382364409E+02  0.29505912371E+03  0.30540729389E+03  0.74445157273E+02 0.  0.
        -11    1    5    5    0    0  0.31629740091E+02 -0.39665545728E+02  0.19968653429E+03  0.20603035687E+03  0.00000000000E+00 0.  1.
         12    1    5    5    0    0 -0.94360572984E+01  0.26283181320E+02  0.95372589419E+02  0.99376937013E+02  0.00000000000E+00 0. -1.
         11    1    3    3    0    0 -0.24659787592E+02  0.24765837258E+02 -0.11839307721E+03  0.12344380321E+03  0.00000000000E+00 0. -1.
        -12    1    3    3    0    0  0.21829264907E+02 -0.43866433127E+02 -0.14882828884E+03  0.15668643949E+03  0.00000000000E+00 0.  1.
          5    1    4    4  501    0  0.39323203521E+02  0.15689615149E+02 -0.39225386610E+02  0.57866931087E+02  0.41800000000E+01 0. -1.
         -5    1    4    4    0  501 -0.58686363628E+02  0.16793345129E+02  0.39469027392E+02  0.72810591536E+02  0.41800000000E+01 0. -1.
</event>
<event>
11    1  0.7577197E-009  0.2096121E+03  0.7561462E-02  0.1047927E+00
         22   -1    0    0    0    0  0.00000000000E+00  0.00000000000E+00  0.54686607866E+03  0.54686607866E+03  0.00000000000E+00 0.  1.
         22   -1    0    0    0    0 -0.00000000000E+00 -0.00000000000E+00 -0.28151695416E+03  0.28151695416E+03  0.00000000000E+00 0. -1.
         24    2    1    2    0    0 -0.14062753789E+03 -0.94953130880E+02 -0.15516043780E+03  0.24427274787E+03  0.82475526169E+02 0.  0.
         25    2    1    2    0    0  0.14752583345E+03  0.73179504052E+02  0.60644216457E+02  0.21551389900E+03  0.12509759520E+03 0.  0.
        -24    2    1    2    0    0 -0.68982955566E+01  0.21773626827E+02  0.35986534584E+03  0.36859638595E+03  0.76410413517E+02 0.  0.
        -11    1    3    3    0    0 -0.69321091382E+02 -0.44583653922E+02 -0.22453112617E+02  0.85423990622E+02  0.00000000000E+00 0.  1.
         12    1    3    3    0    0 -0.71306446507E+02 -0.50369476957E+02 -0.13270732518E+03  0.15884875724E+03  0.00000000000E+00 0. -1.
         13    1    5    5    0    0 -0.12361756782E+02  0.33896517158E+01  0.58980741574E+01  0.14109927294E+02  0.00000000000E+00 0. -1.
        -14    1    5    5    0    0  0.54634612251E+01  0.18383975112E+02  0.35396727168E+03  0.35448645866E+03  0.00000000000E+00 0.  1.
          5    1    4    4  501    0  0.59561913872E+02  0.88847496492E+02 -0.70756534164E+00  0.10704892464E+03  0.41800000000E+01 0. -1.
         -5    1    4    4    0  501  0.87963919574E+02 -0.15667992439E+02  0.61351781798E+02  0.10846497436E+03  0.41800000000E+01 0. -1.
</event>
<event>
11    1  0.7577197E-009  0.1456381E+03  0.7561462E-02  0.1101421E+00
         22   -1    0    0    0    0  0.00000000000E+00  0.00000000000E+00  0.20056308655E+03  0.20056308655E+03  0.00000000000E+00 0.  1.
         22   -1    0    0    0    0 -0.00000000000E+00 -0.00000000000E+00 -0.15875653180E+04  0.15875653180E+04  0.00000000000E+00 0. -1.
         24    2    1    2    0    0 -0.32716803880E+02  0.35975197215E+01 -0.10639910214E+04  0.10674851223E+04  0.79776321330E+02 0.  0.
         25    2    1    2    0    0  0.54602129370E+02  0.67500289827E+02 -0.49445122791E+03  0.51736562484E+03  0.12508993296E+03 0.  0.
        -24    2    1    2    0    0 -0.21885325490E+02 -0.71097809549E+02  0.17144001784E+03  0.20327765736E+03  0.79976623277E+02 0.  0.
        -13    1    3    3    0    0  0.10105797090E+02 -0.17678213698E+02 -0.88071813501E+02  0.90395191839E+02  0.00000000000E+00 0.  1.
         14    1    3    3    0    0 -0.42822600970E+02  0.21275733420E+02 -0.97591920788E+03  0.97708993051E+03  0.00000000000E+00 0. -1.
         13    1    5    5    0    0 -0.23640703216E+02 -0.45160169227E+02  0.29330634509E+02  0.58809946896E+02  0.00000000000E+00 0. -1.
        -14    1    5    5    0    0  0.17553777262E+01 -0.25937640322E+02  0.14210938333E+03  0.14446771047E+03  0.00000000000E+00 0.  1.
          5    1    4    4  501    0  0.82714165433E+02  0.14868480809E+02 -0.36776652114E+03  0.37726965337E+03  0.41800000000E+01 0. -1.
         -5    1    4    4    0  501 -0.28112036063E+02  0.52631809018E+02 -0.12668470677E+03  0.14009597147E+03  0.41800000000E+01 0. -1.
</event>
<event>
11    1  0.7577197E-009  0.2068883E+03  0.7561462E-02  0.1049757E+00
         22   -1    0    0    0    0  0.00000000000E+00  0.00000000000E+00  0.20670199243E+04  0.20670199243E+04  0.00000000000E+00 0.  1.
         22   -1    0    0    0    0 -0.00000000000E+00 -0.00000000000E+00 -0.12178873553E+03  0.12178873553E+03  0.00000000000E+00 0.  1.
         24    2    1    2    0    0  0.13209408250E+03 -0.10390884413E+03  0.65473579809E+02  0.19704481234E+03  0.79334569370E+02 0.  0.
         25    2    1    2    0    0 -0.14733837187E+03  0.68752135803E+02  0.13681240945E+03  0.24657657174E+03  0.12508764266E+03 0.  0.
        -24    2    1    2    0    0  0.15244289370E+02  0.35156708323E+02  0.17429451995E+04  0.17451872758E+04  0.79701169702E+02 0.  0.
        -11    1    3    3    0    0  0.95515284996E+02 -0.25480365298E+02  0.28031605264E+02  0.10275305143E+03  0.00000000000E+00 0.  1.
         12    1    3    3    0    0  0.36578797505E+02 -0.78428478829E+02  0.37441974545E+02  0.94291760913E+02  0.00000000000E+00 0. -1.
         11    1    5    5    0    0 -0.19307098435E+02  0.38174064277E+02  0.52213559338E+03  0.52388510297E+03  0.00000000000E+00 0. -1.
        -12    1    5    5    0    0  0.34551387805E+02 -0.30173559540E+01  0.12208096061E+04  0.12213021728E+04  0.00000000000E+00 0.  1.
          5    1    4    4  501    0 -0.12287461396E+02  0.68462765842E+02  0.39880312183E+02  0.80287257483E+02  0.41800000000E+01 0. -1.
         -5    1    4    4    0  501 -0.13505091047E+03  0.28936996172E+00  0.96932097264E+02  0.16628931425E+03  0.41800000000E+01 0. -1.
</event>
<event>
11    1  0.7577197E-009  0.1345161E+03  0.7561462E-02  0.1113841E+00
         22   -1    0    0    0    0  0.00000000000E+00  0.00000000000E+00  0.40906549118E+03  0.40906549118E+03  0.00000000000E+00 0.  1.
         22   -1    0    0    0    0 -0.00000000000E+00 -0.00000000000E+00 -0.28381452790E+03  0.28381452790E+03  0.00000000000E+00 0.  1.
         24    2    1    2    0    0  0.88402455532E+01  0.52950366767E+01 -0.13717374317E+03  0.15938653787E+03  0.80506181652E+02 0.  0.
         25    2    1    2    0    0 -0.30085731795E+02  0.39438409956E+02 -0.93435126748E+02  0.16382160430E+03  0.12508739220E+03 0.  0.
        -24    2    1    2    0    0  0.21245486242E+02 -0.44733446632E+02  0.35585983319E+03  0.36967187691E+03  0.86997837695E+02 0.  0.
        -13    1    3    3    0    0  0.26935214038E+02 -0.21743379069E+02 -0.11478920639E+03  0.11989512998E+03  0.00000000000E+00 0.  1.
         14    1    3    3    0    0 -0.18094968484E+02  0.27038415746E+02 -0.22384536780E+02  0.39491407893E+02  0.00000000000E+00 0. -1.
         11    1    5    5    0    0  0.30462288352E+02  0.18839854877E+02  0.12184427389E+03  0.12699967804E+03  0.00000000000E+00 0. -1.
        -12    1    5    5    0    0 -0.92168021104E+01 -0.63573301509E+02  0.23401555930E+03  0.24267219887E+03  0.00000000000E+00 0.  1.
          5    1    4    4  501    0 -0.51376350040E+01 -0.45478302621E+02 -0.32256333018E+02  0.56148149769E+02  0.41800000000E+01 0. -1.
         -5    1    4    4    0  501 -0.24948096791E+02  0.84916712576E+02 -0.61178793730E+02  0.10767345453E+03  0.41800000000E+01 0. -1.
</event>
<event>
11    1  0.7577197E-009  0.1720113E+03  0.7561462E-02  0.1076294E+00
         22   -1    0    0    0    0  0.00000000000E+00  0.00000000000E+00  0.16835610780E+04  0.16835610780E+04  0.00000000000E+00 0.  1.
         22   -1    0    0    0    0 -0.00000000000E+00 -0.00000000000E+00 -0.23801923454E+03  0.23801923454E+03  0.00000000000E+00 0. -1.
        -24    2    1    2    0    0  0.94257296438E+02  0.72964048380E+02 -0.20280212786E+03  0.24826330550E+03  0.79358525084E+02 0.  0.
         25    2    1    2    0    0 -0.41030548194E+02 -0.88915965235E+02  0.61037899643E+03  0.63071405785E+03  0.12509256067E+03 0.  0.
         24    2    1    2    0    0 -0.53226748244E+02  0.15951916855E+02  0.10379649749E+04  0.10426029492E+04  0.81006605685E+02 0.  0.
        -13    1    5    5    0    0 -0.67051601738E+02  0.33440743880E+02  0.85719671098E+03  0.86046522415E+03  0.00000000000E+00 0.  1.
         14    1    5    5    0    0  0.13824853495E+02 -0.17488827026E+02  0.18076826396E+03  0.18213772509E+03  0.00000000000E+00 0. -1.
         13    1    3    3    0    0  0.25274025951E+02  0.38210110867E+02 -0.14420993668E+03  0.15131191228E+03  0.00000000000E+00 0. -1.
        -14    1    3    3    0    0  0.68983270487E+02  0.34753937513E+02 -0.58592191185E+02  0.96951393222E+02  0.00000000000E+00 0.  1.
          5    1    4    4  501    0 -0.77237368509E+02 -0.91857140408E+02  0.50800883542E+03  0.52200938172E+03  0.41800000000E+01 0.  1.
         -5    1    4    4    0  501  0.36206820315E+02  0.29411751733E+01  0.10237016100E+03  0.10870467613E+03  0.41800000000E+01 0.  1.
</event>
<event>
11    1  0.7577197E-009  0.1795467E+03  0.7561462E-02  0.1070010E+00
         22   -1    0    0    0    0  0.00000000000E+00  0.00000000000E+00  0.22287461364E+04  0.22287461364E+04  0.00000000000E+00 0. -1.
         22   -1    0    0    0    0 -0.00000000000E+00 -0.00000000000E+00 -0.46980274431E+03  0.46980274431E+03  0.00000000000E+00 0.  1.
         24    2    1    2    0    0  0.37130603567E+02 -0.95445620939E+02 -0.13181630620E+03  0.18547833934E+03  0.80858688488E+02 0.  0.
         25    2    1    2    0    0 -0.51665171063E+02  0.15367894450E+03 -0.27623676926E+03  0.34386153233E+03  0.12508993902E+03 0.  0.
        -24    2    1    2    0    0  0.14534567495E+02 -0.58233323563E+02  0.21669964676E+04  0.21692090090E+04  0.77405819453E+02 0.  0.
        -13    1    3    3    0    0  0.49705942974E+02 -0.72141892999E+02 -0.13266840274E+03  0.15898439728E+03  0.00000000000E+00 0.  1.
         14    1    3    3    0    0 -0.12575339407E+02 -0.23303727940E+02  0.85209653940E+00  0.26493942055E+02  0.00000000000E+00 0. -1.
         13    1    5    5    0    0  0.44519688924E+02 -0.44039289839E+02  0.16177481717E+04  0.16189597305E+04  0.00000000000E+00 0. -1.
        -14    1    5    5    0    0 -0.29985121429E+02 -0.14194033724E+02  0.54924829582E+03  0.55024927857E+03  0.00000000000E+00 0.  1.
          5    1    4    4  501    0 -0.12341000965E+02  0.16077529415E+03 -0.24327924674E+03  0.29189597429E+03  0.41800000000E+01 0.  1.
         -5    1    4    4    0  501 -0.39324170097E+02 -0.70963496457E+01 -0.32957522521E+02  0.51965558044E+02  0.41800000000E+01 0.  1.
</event>
<event>
11    1  0.7577197E-009  0.1596168E+03  0.7561462E-02  0.1087438E+00
         22   -1    0    0    0    0  0.00000000000E+00  0.00000000000E+00  0.54162011170E+03  0.54162011170E+03  0.00000000000E+00 0. -1.
         22   -1    0    0    0    0 -0.00000000000E+00 -0.00000000000E+00 -0.92195797237E+03  0.92195797237E+03  0.00000000000E+00 0. -1.
        -24    2    1    2    0    0  0.80374752885E+01 -0.15220073073E+02 -0.77217852155E+03  0.77641777182E+03  0.79174715797E+02 0.  0.
         25    2    1    2    0    0 -0.18814330118E+02 -0.84159243678E+02 -0.97742454776E+02  0.18065959484E+03  0.12509014521E+03 0.  0.
         24    2    1    2    0    0  0.10776854830E+02  0.99379316751E+02  0.48958311566E+03  0.50650071740E+03  0.82818840766E+02 0.  0.
        -13    1    5    5    0    0 -0.97222326071E+01  0.18894605425E+01  0.20029604401E+03  0.20054076173E+03  0.00000000000E+00 0.  1.
         14    1    5    5    0    0  0.20499087437E+02  0.97489856208E+02  0.28928707165E+03  0.30595995567E+03  0.00000000000E+00 0. -1.
         13    1    3    3    0    0  0.23757653951E+02 -0.36475816307E+02 -0.64778313317E+03  0.64924409810E+03  0.00000000000E+00 0. -1.
        -14    1    3    3    0    0 -0.15720178662E+02  0.21255743234E+02 -0.12439538838E+03  0.12717367373E+03  0.00000000000E+00 0.  1.
          5    1    4    4  501    0  0.46658029008E+02 -0.64809686949E+01 -0.15129500825E+02  0.49652279116E+02  0.41800000000E+01 0. -1.
         -5    1    4    4    0  501 -0.65472359126E+02 -0.77678274983E+02 -0.82612953951E+02  0.13100731573E+03  0.41800000000E+01 0. -1.
</event>
<event>
11    1  0.7577197E-009  0.1291991E+03  0.7561462E-02  0.1120257E+00
         22   -1    0    0    0    0  0.00000000000E+00  0.00000000000E+00  0.17563088746E+03  0.17563088746E+03  0.00000000000E+00 0.  1.
         22   -1    0    0    0    0 -0.00000000000E+00 -0.00000000000E+00 -0.13655364298E+04  0.13655364298E+04  0.00000000000E+00 0. -1.
        -24    2    1    2    0    0  0.29608558421E+02 -0.67055630137E+01 -0.12804236690E+04  0.12832551441E+04  0.79607547132E+02 0.  0.
         25    2    1    2    0    0 -0.30235921158E+02 -0.26485974020E+02  0.44596554069E+00  0.13134456934E+03  0.12504191002E+03 0.  0.
         24    2    1    2    0    0  0.62736273766E+00  0.33191537034E+02  0.90072161072E+02  0.12656760382E+03  0.82488135030E+02 0.  0.
        -13    1    5    5    0    0  0.75249614100E+01  0.59129903518E+01  0.97096470868E+02  0.97566967536E+02  0.00000000000E+00 0.  1.
         14    1    5    5    0    0 -0.68975986723E+01  0.27278546682E+02 -0.70243097956E+01  0.29000636280E+02  0.00000000000E+00 0. -1.
         11    1    3    3    0    0  0.28594961506E+01 -0.22678969402E+01 -0.11517435936E+04  0.11517493762E+04  0.00000000000E+00 0. -1.
        -12    1    3    3    0    0  0.26749062270E+02 -0.44376660735E+01 -0.12868007539E+03  0.13150576799E+03  0.00000000000E+00 0.  1.
          5    1    4    4  501    0 -0.56773477800E+01  0.19953142756E+02 -0.52522891246E+02  0.56625848237E+02  0.41800000000E+01 0.  1.
         -5    1    4    4    0  501 -0.24558573378E+02 -0.46439116776E+02  0.52968856787E+02  0.74718721099E+02  0.41800000000E+01 0.  1.
</event>
<event>
11    1  0.7577197E-009  0.1289744E+03  0.7561462E-02  0.1120536E+00
         22   -1    0    0    0    0  0.00000000000E+00  0.00000000000E+00  0.15636199320E+04  0.15636199320E+04  0.00000000000E+00 0.  1.
         22   -1    0    0    0    0 -0.00000000000E+00 -0.00000000000E+00 -0.43120467322E+02  0.43120467322E+02  0.00000000000E+00 0. -1.
         24    2    1    2    0    0  0.85261831894E+00  0.36524570209E+02  0.68106312788E+02  0.12649148067E+03  0.10013417825E+03 0.  0.
         25    2    1    2    0    0  0.56393247209E+01 -0.14589579683E+02  0.30680415548E+03  0.33169472280E+03  0.12509173232E+03 0.  0.
        -24    2    1    2    0    0 -0.64919430398E+01 -0.21934990526E+02  0.11455889964E+04  0.11485541958E+04  0.79242053123E+02 0.  0.
        -11    1    3    3    0    0  0.46944992503E+02  0.82315922496E+01  0.50914532402E+02  0.69741530251E+02  0.00000000000E+00 0.  1.
         12    1    3    3    0    0 -0.46092374184E+02  0.28292977960E+02  0.17191780386E+02  0.56749950419E+02  0.00000000000E+00 0. -1.
         11    1    5    5    0    0  0.12737488400E+02 -0.29144254563E+02  0.18281443964E+03  0.18556063840E+03  0.00000000000E+00 0. -1.
        -12    1    5    5    0    0 -0.19229431439E+02  0.72092640370E+01  0.96277455676E+03  0.96299355744E+03  0.00000000000E+00 0.  1.
          5    1    4    4  501    0  0.21258008001E+02 -0.19912127849E+02  0.55308291627E+01  0.29940911991E+02  0.41800000000E+01 0.  1.
         -5    1    4    4    0  501 -0.15618683280E+02  0.53225481654E+01  0.30127332632E+03  0.30175381081E+03  0.41800000000E+01 0.  1.
</event>
<event>
11    1  0.7577197E-009  0.1477889E+03  0.7561462E-02  0.1099160E+00
         22   -1    0    0    0    0  0.00000000000E+00  0.00000000000E+00  0.70812046125E+03  0.70812046125E+03  0.00000000000E+00 0.  1.
         22   -1    0    0    0    0 -0.00000000000E+00 -0.00000000000E+00 -0.17631616627E+04  0.17631616627E+04  0.00000000000E+00 0.  1.
        -24    2    1    2    0    0  0.36380461543E+02  0.15204543142E+02 -0.16504495693E+04  0.16528339487E+04  0.79508271597E+02 0.  0.
         25    2    1    2    0    0  0.36281098909E+02 -0.48321579159E+02 -0.61448790236E+02  0.15190556441E+03  0.12509218012E+03 0.  0.
         24    2    1    2    0    0 -0.72661560452E+02  0.33117036017E+02  0.65685715805E+03  0.66654261081E+03  0.80257619577E+02 0.  0.
        -13    1    5    5    0    0 -0.76086128963E+02  0.40941180427E+02  0.38604381595E+03  0.39559462472E+03  0.00000000000E+00 0.  1.
         14    1    5    5    0    0  0.34245685113E+01 -0.78241444103E+01  0.27081334210E+03  0.27094798609E+03  0.00000000000E+00 0. -1.
         11    1    3    3    0    0 -0.22984743298E+02 -0.82249638453E+01 -0.54055771496E+03  0.54110866899E+03  0.00000000000E+00 0. -1.
        -12    1    3    3    0    0  0.59365204841E+02  0.23429506987E+02 -0.11098918543E+04  0.11117252798E+04  0.00000000000E+00 0.  1.
          5    1    4    4  501    0  0.46764976837E+02 -0.40421533780E+02  0.23190531699E+02  0.66152374199E+02  0.41800000000E+01 0. -1.
         -5    1    4    4    0  501 -0.10483877928E+02 -0.79000453789E+01 -0.84639321935E+02  0.85753190209E+02  0.41800000000E+01 0. -1.
</event>
<event>
11    1  0.7577197E-009  0.1423950E+04  0.7561462E-02  0.8355586E-01
         22   -1    0    0    0    0  0.00000000000E+00  0.00000000000E+00  0.12685110721E+04  0.12685110721E+04  0.00000000000E+00 0. -1.
         22   -1    0    0    0    0 -0.00000000000E+00 -0.00000000000E+00 -0.26444709792E+04  0.26444709792E+04  0.00000000000E+00 0. -1.
        -24    2    1    2    0    0 -0.38196405014E+03 -0.13665044639E+04 -0.18278829702E+04  0.23153283211E+04  0.79737672381E+02 0.  0.
         25    2    1    2    0    0  0.39484246200E+03  0.13607454283E+04  0.34457160615E+03  0.14635250477E+04  0.12508910102E+03 0.  0.
         24    2    1    2    0    0 -0.12878411859E+02  0.57590356281E+01  0.10735145702E+03  0.13412868238E+03  0.79165321518E+02 0.  0.
        -13    1    5    5    0    0  0.22284589281E+02 -0.24936496853E+02  0.39228299074E+02  0.51548920871E+02  0.00000000000E+00 0.  1.
         14    1    5    5    0    0 -0.35163001140E+02  0.30695532481E+02  0.68123157944E+02  0.82579761514E+02  0.00000000000E+00 0. -1.
         11    1    3    3    0    0 -0.16264053370E+03 -0.70554313902E+03 -0.96741852740E+03  0.12083632200E+04  0.00000000000E+00 0. -1.
        -12    1    3    3    0    0 -0.21932351644E+03 -0.66096132489E+03 -0.86046444281E+03  0.11069651012E+04  0.00000000000E+00 0.  1.
          5    1    4    4  501    0  0.35477639417E+03  0.10964725140E+04  0.31398888203E+03  0.11944558402E+04  0.41800000000E+01 0. -1.
         -5    1    4    4    0  501  0.40066067834E+02  0.26427291426E+03  0.30582724116E+02  0.26906920748E+03  0.41800000000E+01 0. -1.
</event>
<event>
11    1  0.7577197E-009  0.1364626E+03  0.7561462E-02  0.1111574E+00
         22   -1    0    0    0    0  0.00000000000E+00  0.00000000000E+00  0.98539574479E+03  0.98539574479E+03  0.00000000000E+00 0.  1.
         22   -1    0    0    0    0 -0.00000000000E+00 -0.00000000000E+00 -0.14831369032E+04  0.14831369032E+04  0.00000000000E+00 0. -1.
        -24    2    1    2    0    0  0.50222509968E+02  0.10306417116E+02 -0.10483132629E+04  0.10525349408E+04  0.78997353215E+02 0.  0.
         25    2    1    2    0    0 -0.67899097594E+02 -0.33077867812E+02 -0.41914604413E+03  0.44388792455E+03  0.12509456604E+03 0.  0.
         24    2    1    2    0    0  0.17676587626E+02  0.22771450696E+02  0.96971814860E+03  0.97210978260E+03  0.61750635462E+02 0.  0.
        -13    1    5    5    0    0  0.12929884537E+02  0.32793206875E+02  0.93498845138E+03  0.93565270295E+03  0.00000000000E+00 0.  1.
         14    1    5    5    0    0  0.47467030891E+01 -0.10021756179E+02  0.34729697227E+02  0.36457079650E+02  0.00000000000E+00 0. -1.
         11    1    3    3    0    0  0.62883765998E+02 -0.57318416102E+01 -0.51895879256E+03  0.52278623778E+03  0.00000000000E+00 0. -1.
        -12    1    3    3    0    0 -0.12661256030E+02  0.16038258726E+02 -0.52935447031E+03  0.52974870305E+03  0.00000000000E+00 0.  1.
          5    1    4    4  501    0 -0.28067852522E+02 -0.66111211413E+02 -0.11726665201E+03  0.13757702095E+03  0.41800000000E+01 0. -1.
         -5    1    4    4    0  501 -0.39831245073E+02  0.33033343601E+02 -0.30187939212E+03  0.30631090360E+03  0.41800000000E+01 0. -1.
</event>
<event>
11    1  0.7577197E-009  0.1410568E+03  0.7561462E-02  0.1106384E+00
         22   -1    0    0    0    0  0.00000000000E+00  0.00000000000E+00  0.17178451049E+04  0.17178451049E+04  0.00000000000E+00 0. -1.
         22   -1    0    0    0    0 -0.00000000000E+00 -0.00000000000E+00 -0.31456070897E+03  0.31456070897E+03  0.00000000000E+00 0.  1.
         24    2    1    2    0    0 -0.35032463180E+02  0.58697879224E+02 -0.23817407143E+03  0.26064526092E+03  0.80847691585E+02 0.  0.
         25    2    1    2    0    0  0.26252242084E+02 -0.37537911892E+02  0.51509681999E+01  0.13331027208E+03  0.12508725405E+03 0.  0.
        -24    2    1    2    0    0  0.87802210958E+01 -0.21159967332E+02  0.16363074991E+04  0.16384502809E+04  0.80574528254E+02 0.  0.
        -11    1    3    3    0    0 -0.26367635810E+02  0.79140252709E+02 -0.18043466779E+03  0.19878405660E+03  0.00000000000E+00 0.  1.
         12    1    3    3    0    0 -0.86648273696E+01 -0.20442373484E+02 -0.57739403636E+02  0.61861204314E+02  0.00000000000E+00 0. -1.
         13    1    5    5    0    0  0.44365345487E+02 -0.12101361382E+02  0.10367392878E+04  0.10377586799E+04  0.00000000000E+00 0. -1.
        -14    1    5    5    0    0 -0.35585124391E+02 -0.90586059502E+01  0.59956821136E+03  0.60069160098E+03  0.00000000000E+00 0.  1.
          5    1    4    4  501    0  0.73398251674E+02 -0.43592228480E+02  0.20795028722E+01  0.85494926544E+02  0.41800000000E+01 0. -1.
         -5    1    4    4    0  501 -0.47146009590E+02  0.60543165880E+01  0.30714653276E+01  0.47815345537E+02  0.41800000000E+01 0. -1.
</event>
<event>
11    1  0.7577197E-009  0.1366487E+03  0.7561462E-02  0.1111359E+00
         22   -1    0    0    0    0  0.00000000000E+00  0.00000000000E+00  0.25610098212E+04  0.25610098212E+04  0.00000000000E+00 0. -1.
         22   -1    0    0    0    0 -0.00000000000E+00 -0.00000000000E+00 -0.14490756515E+03  0.14490756515E+03  0.00000000000E+00 0. -1.
         24    2    1    2    0    0  0.15510153273E+02 -0.52389381960E+02 -0.12164864833E+03  0.15613024350E+03  0.81197580609E+02 0.  0.
         25    2    1    2    0    0  0.74764728718E+00  0.85840303224E+02  0.12996520320E+04  0.13084772785E+04  0.12509303514E+03 0.  0.
        -24    2    1    2    0    0 -0.16257800560E+02 -0.33450921264E+02  0.12380988724E+04  0.12413098643E+04  0.81105371666E+02 0.  0.
        -11    1    3    3    0    0  0.27953956585E+02 -0.39952722728E+01 -0.42708815702E+01  0.28559172234E+02  0.00000000000E+00 0.  1.
         12    1    3    3    0    0 -0.12443803312E+02 -0.48394109687E+02 -0.11737776676E+03  0.12757107126E+03  0.00000000000E+00 0. -1.
         13    1    5    5    0    0 -0.37722553230E+02 -0.45465285551E+02  0.10421389761E+04  0.10438121137E+04  0.00000000000E+00 0. -1.
        -14    1    5    5    0    0  0.21464752670E+02  0.12014364287E+02  0.19595989626E+03  0.19749775061E+03  0.00000000000E+00 0.  1.
          5    1    4    4  501    0  0.16366500075E+02 -0.28217124772E+02  0.42521326444E+03  0.42648313109E+03  0.41800000000E+01 0. -1.
         -5    1    4    4    0  501 -0.15618852788E+02  0.11405742800E+03  0.87443876761E+03  0.88199414745E+03  0.41800000000E+01 0. -1.
</event>
<event>
11    1  0.7577197E-009  0.1350113E+03  0.7561462E-02  0.1113261E+00
         22   -1    0    0    0    0  0.00000000000E+00  0.00000000000E+00  0.62617334297E+03  0.62617334297E+03  0.00000000000E+00 0. -1.
         22   -1    0    0    0    0 -0.00000000000E+00 -0.00000000000E+00 -0.10436582185E+03  0.10436582185E+03  0.00000000000E+00 0. -1.
         24    2    1    2    0    0  0.23168763978E+02  0.40436227008E+02 -0.29463552873E+02  0.96356927452E+02  0.79023265190E+02 0.  0.
         25    2    1    2    0    0 -0.98156384343E+01 -0.71655749577E+02  0.10367680620E+03  0.17784116594E+03  0.12509079483E+03 0.  0.
        -24    2    1    2    0    0 -0.13353125544E+02  0.31219522570E+02  0.44759426779E+03  0.45634107142E+03  0.82180170125E+02 0.  0.
        -13    1    3    3    0    0  0.92521459832E+01  0.21612038229E+02  0.26661132501E+02  0.35545722499E+02  0.00000000000E+00 0.  1.
         14    1    3    3    0    0  0.13916617995E+02  0.18824188778E+02 -0.56124685374E+02  0.60811204954E+02  0.00000000000E+00 0. -1.
         13    1    5    5    0    0 -0.38128907958E+02  0.32043667117E+02  0.39578634618E+03  0.39890781146E+03  0.00000000000E+00 0. -1.
        -14    1    5    5    0    0  0.24775782414E+02 -0.82414454706E+00  0.51807921609E+02  0.57433259962E+02  0.00000000000E+00 0.  1.
          5    1    4    4  501    0  0.31855526354E+02  0.22496212431E+02  0.15343205335E+02  0.42115798496E+02  0.41800000000E+01 0.  1.
         -5    1    4    4    0  501 -0.41671164788E+02 -0.94151962008E+02  0.88333600870E+02  0.13572536744E+03  0.41800000000E+01 0.  1.
</event>
<event>
11    1  0.7577197E-009  0.2221096E+03  0.7561462E-02  0.1039904E+00
         22   -1    0    0    0    0  0.00000000000E+00  0.00000000000E+00  0.54048499529E+03  0.54048499529E+03  0.00000000000E+00 0. -1.
         22   -1    0    0    0    0 -0.00000000000E+00 -0.00000000000E+00 -0.56715331827E+03  0.56715331827E+03  0.00000000000E+00 0. -1.
         24    2    1    2    0    0  0.17965554098E+02 -0.17928457068E+03 -0.47557205977E+03  0.51489032362E+03  0.80483184010E+02 0.  0.
         25    2    1    2    0    0 -0.25519338474E+02  0.24916662849E+03  0.34242302592E+03  0.44230752307E+03  0.12508865215E+03 0.  0.
        -24    2    1    2    0    0  0.75537843762E+01 -0.69882057813E+02  0.10648071088E+03  0.15044046687E+03  0.79709664539E+02 0.  0.
        -11    1    3    3    0    0  0.22677852800E+02 -0.39523773481E+02 -0.20851427177E+03  0.21343527171E+03  0.00000000000E+00 0.  1.
         12    1    3    3    0    0 -0.47122987020E+01 -0.13976079720E+03 -0.26705778800E+03  0.30145505191E+03  0.00000000000E+00 0. -1.
         11    1    5    5    0    0 -0.40405303798E+00 -0.86032621701E+02  0.74812117622E+02  0.11401152660E+03  0.00000000000E+00 0. -1.
        -12    1    5    5    0    0  0.79578374141E+01  0.16150563888E+02  0.31668593253E+02  0.36428940265E+02  0.00000000000E+00 0.  1.
          5    1    4    4  501    0 -0.39317221539E+02  0.21098762570E+03  0.19731076607E+03  0.29156582947E+03  0.41800000000E+01 0. -1.
         -5    1    4    4    0  501  0.13797883065E+02  0.38179002792E+02  0.14511225984E+03  0.15074169360E+03  0.41800000000E+01 0. -1.
</event>
<event>
11    1  0.7577197E-009  0.1639639E+03  0.7561462E-02  0.1083407E+00
         22   -1    0    0    0    0  0.00000000000E+00  0.00000000000E+00  0.10916576712E+04  0.10916576712E+04  0.00000000000E+00 0.  1.
         22   -1    0    0    0    0 -0.00000000000E+00 -0.00000000000E+00 -0.22665526425E+04  0.22665526425E+04  0.00000000000E+00 0.  1.
         24    2    1    2    0    0 -0.50257695135E+02 -0.37434808118E+02 -0.21345463801E+04  0.21369823087E+04  0.80485638849E+02 0.  0.
         25    2    1    2    0    0  0.79141836661E+01  0.13409301306E+03 -0.60017148859E+02  0.19311581314E+03  0.12509232059E+03 0.  0.
        -24    2    1    2    0    0  0.42343511468E+02 -0.96658204945E+02  0.10196685577E+04  0.10281121919E+04  0.78453361987E+02 0.  0.
        -11    1    3    3    0    0 -0.65037802437E+02 -0.39455055015E+02 -0.12513862210E+04  0.12536961718E+04  0.00000000000E+00 0.  1.
         12    1    3    3    0    0  0.14780107303E+02  0.20202468970E+01 -0.88316015911E+03  0.88328613688E+03  0.00000000000E+00 0. -1.
         13    1    5    5    0    0  0.39815680782E+02 -0.55031276615E+01  0.33163887986E+03  0.33406574127E+03  0.00000000000E+00 0. -1.
        -14    1    5    5    0    0  0.25278306866E+01 -0.91155077283E+02  0.68802967785E+03  0.69404645064E+03  0.00000000000E+00 0.  1.
          5    1    4    4  501    0  0.58898031548E+02  0.32900949419E+02 -0.38224684390E+02  0.77653393291E+02  0.41800000000E+01 0. -1.
         -5    1    4    4    0  501 -0.50983847882E+02  0.10119206364E+03 -0.21792464469E+02  0.11546241985E+03  0.41800000000E+01 0. -1.
</event>
<event>
11    1  0.7577197E-009  0.1312162E+03  0.7561462E-02  0.1117784E+00
         22   -1    0    0    0    0  0.00000000000E+00  0.00000000000E+00  0.17819392590E+03  0.17819392590E+03  0.00000000000E+00 0.  1.
         22   -1    0    0    0    0 -0.00000000000E+00 -0.00000000000E+00 -0.20365051469E+04  0.20365051469E+04  0.00000000000E+00 0.  1.
        -24    2    1    2    0    0 -0.12067455635E+02  0.30300160597E+02 -0.14323833196E+04  0.14360388348E+04  0.97066150949E+02 0.  0.
         25    2    1    2    0    0  0.24591585101E+02 -0.69800280972E+02 -0.58105912523E+03  0.59896073102E+03  0.12508966787E+03 0.  0.
         24    2    1    2    0    0 -0.12524129467E+02  0.39500120375E+02  0.15513122384E+03  0.17969950695E+03  0.80679011264E+02 0.  0.
        -11    1    5    5    0    0 -0.61648284786E+00  0.27582245033E+02  0.15984247735E+03  0.16220597356E+03  0.00000000000E+00 0.  1.
         12    1    5    5    0    0 -0.11907646619E+02  0.11917875343E+02 -0.47112535141E+01  0.17493533387E+02  0.00000000000E+00 0. -1.
         13    1    3    3    0    0 -0.16860406081E+02 -0.32271656140E+02 -0.36477141962E+03  0.36658412630E+03  0.00000000000E+00 0. -1.
        -14    1    3    3    0    0  0.47929504464E+01  0.62571816736E+02 -0.10676118999E+04  0.10694547085E+04  0.00000000000E+00 0.  1.
          5    1    4    4  501    0 -0.24658548386E+02  0.21096035905E+02 -0.24940806398E+03  0.25154510832E+03  0.41800000000E+01 0. -1.
         -5    1    4    4    0  501  0.49250133487E+02 -0.90896316877E+02 -0.33165106125E+03  0.34741562270E+03  0.41800000000E+01 0. -1.
</event>
<event>
11    1  0.7577197E-009  0.1271911E+03  0.7561462E-02  0.1122769E+00
         22   -1    0    0    0    0  0.00000000000E+00  0.00000000000E+00  0.49398792866E+03  0.49398792866E+03  0.00000000000E+00 0. -1.
         22   -1    0    0    0    0 -0.00000000000E+00 -0.00000000000E+00 -0.43660147699E+03  0.43660147699E+03  0.00000000000E+00 0. -1.
         24    2    1    2    0    0  0.16943965987E+02 -0.20001588975E+02 -0.28680812017E+03  0.29907872034E+03  0.80635114064E+02 0.  0.
         25    2    1    2    0    0 -0.15215719716E+02 -0.29832315387E+01 -0.11143785595E+03  0.16824445197E+03  0.12508949629E+03 0.  0.
        -24    2    1    2    0    0 -0.17282462708E+01  0.22984820514E+02  0.45563242779E+03  0.46326623334E+03  0.80519593240E+02 0.  0.
        -13    1    3    3    0    0 -0.17610710857E+02 -0.36434561672E+02 -0.91373240440E+02  0.99933395268E+02  0.00000000000E+00 0.  1.
         14    1    3    3    0    0  0.34554676844E+02  0.16432972697E+02 -0.19543487973E+03  0.19914532507E+03  0.00000000000E+00 0. -1.
         11    1    5    5    0    0 -0.81624886750E+01  0.45102043753E+02  0.40565389699E+03  0.40823510960E+03  0.00000000000E+00 0. -1.
        -12    1    5    5    0    0  0.64342424042E+01 -0.22117223240E+02  0.49978530803E+02  0.55031123743E+02  0.00000000000E+00 0.  1.
          5    1    4    4  501    0  0.54030554496E+02 -0.12314894012E+02 -0.42110926992E+02  0.69726322188E+02  0.41800000000E+01 0. -1.
         -5    1    4    4    0  501 -0.69246274212E+02  0.93316624736E+01 -0.69326928960E+02  0.98518129782E+02  0.41800000000E+01 0. -1.
</event>
<event>
11    1  0.7577197E-009  0.1509063E+03  0.7561462E-02  0.1095956E+00
         22   -1    0    0    0    0  0.00000000000E+00  0.00000000000E+00  0.29115237964E+04  0.29115237964E+04  0.00000000000E+00 0. -1.
         22   -1    0    0    0    0 -0.00000000000E+00 -0.00000000000E+00 -0.76915480217E+03  0.76915480217E+03  0.00000000000E+00 0.  1.
        -24    2    1    2    0    0 -0.53059731143E+02  0.67025588620E+02 -0.66975715411E+03  0.67997305162E+03  0.80504290867E+02 0.  0.
         25    2    1    2    0    0  0.81085231973E+02 -0.25680610204E+02 -0.32380864374E+02  0.15469620984E+03  0.12509231942E+03 0.  0.
         24    2    1    2    0    0 -0.28025500830E+02 -0.41344978416E+02  0.28445070127E+04  0.28460093371E+04  0.77808518377E+02 0.  0.
        -13    1    5    5    0    0  0.22751109514E+02 -0.10955917384E+02  0.40606251106E+03  0.40684690978E+03  0.00000000000E+00 0.  1.
         14    1    5    5    0    0 -0.50776610344E+02 -0.30389061032E+02  0.24384445017E+04  0.24391624273E+04  0.00000000000E+00 0. -1.
         13    1    3    3    0    0  0.43013478811E+00  0.62513702044E+02 -0.40875922396E+03  0.41351209309E+03  0.00000000000E+00 0. -1.
        -14    1    3    3    0    0 -0.53489865932E+02  0.45118865767E+01 -0.26099793015E+03  0.26646095853E+03  0.00000000000E+00 0.  1.
          5    1    4    4  501    0 -0.29153636370E+01  0.11509493541E+02 -0.57906789544E+02  0.59259062278E+02  0.41800000000E+01 0. -1.
         -5    1    4    4    0  501  0.84000595610E+02 -0.37190103745E+02  0.25525925170E+02  0.95437147564E+02  0.41800000000E+01 0. -1.
</event>
<event>
11    1  0.7577197E-009  0.1398808E+03  0.7561462E-02  0.1107692E+00
         22   -1    0    0    0    0  0.00000000000E+00  0.00000000000E+00  0.48075905570E+03  0.48075905570E+03  0.00000000000E+00 0. -1.
         22   -1    0    0    0    0 -0.00000000000E+00 -0.00000000000E+00 -0.17556892339E+04  0.17556892339E+04  0.00000000000E+00 0. -1.
         24    2    1    2    0    0  0.60972525378E+02 -0.39681966051E+01 -0.15950249253E+04  0.15983252334E+04  0.82496328496E+02 0.  0.
         25    2    1    2    0    0 -0.10406398434E+03 -0.22023138747E+02 -0.10984143204E+03  0.19755075945E+03  0.12508729307E+03 0.  0.
        -24    2    1    2    0    0  0.43091458962E+02  0.25991335352E+02  0.42993617915E+03  0.44057229666E+03  0.82014676131E+02 0.  0.
        -13    1    3    3    0    0 -0.13300526895E+02  0.16655021619E+00 -0.58185514414E+02  0.59686563331E+02  0.00000000000E+00 0.  1.
         14    1    3    3    0    0  0.74273052273E+02 -0.41347468213E+01 -0.15368394108E+04  0.15386386701E+04  0.00000000000E+00 0. -1.
         11    1    5    5    0    0  0.45530861941E+02  0.18161181634E+02  0.42957524464E+03  0.43236301729E+03  0.00000000000E+00 0. -1.
        -12    1    5    5    0    0 -0.24394029789E+01  0.78301537184E+01  0.36093450061E+00  0.82092793752E+01  0.00000000000E+00 0.  1.
          5    1    4    4  501    0 -0.12464198712E+03 -0.17533560811E+02 -0.11985707988E+03  0.17385696047E+03  0.41800000000E+01 0.  1.
         -5    1    4    4    0  501  0.20578002776E+02 -0.44895779355E+01  0.10015647837E+02  0.23693798975E+02  0.41800000000E+01 0.  1.
</event>
<event>
11    1  0.7577197E-009  0.1367478E+03  0.7561462E-02  0.1111245E+00
         22   -1    0    0    0    0  0.00000000000E+00  0.00000000000E+00  0.19761764278E+03  0.19761764278E+03  0.00000000000E+00 0.  1.
         22   -1    0    0    0    0 -0.00000000000E+00 -0.00000000000E+00 -0.66780718590E+03  0.66780718590E+03  0.00000000000E+00 0.  1.
        -24    2    1    2    0    0 -0.23669451610E+02 -0.49103009038E+02 -0.56213718438E+03  0.57051935598E+03  0.80763686436E+02 0.  0.
         25    2    1    2    0    0 -0.35887618335E+01  0.74081748489E+02 -0.25725661922E+02  0.14768538337E+03  0.12509267808E+03 0.  0.
         24    2    1    2    0    0  0.27258213444E+02 -0.24978739451E+02  0.11767330319E+03  0.14722008933E+03  0.80372885944E+02 0.  0.
        -11    1    5    5    0    0  0.16171866145E+01 -0.34016370715E+02  0.11495986211E+03  0.11989786764E+03  0.00000000000E+00 0.  1.
         12    1    5    5    0    0  0.25641026829E+02  0.90376312636E+01  0.27134410829E+01  0.27322221693E+02  0.00000000000E+00 0. -1.
         13    1    3    3    0    0  0.20146737289E+01 -0.46927690711E+02 -0.14148289081E+03  0.14907607272E+03  0.00000000000E+00 0. -1.
        -14    1    3    3    0    0 -0.25684125339E+02 -0.21753183266E+01 -0.42065429357E+03  0.42144328326E+03  0.00000000000E+00 0.  1.
          5    1    4    4  501    0  0.29214087306E+02  0.44103646633E+02 -0.67968494373E+02  0.86230987300E+02  0.41800000000E+01 0.  1.
         -5    1    4    4    0  501 -0.32802849139E+02  0.29978101856E+02  0.42242832451E+02  0.61454396068E+02  0.41800000000E+01 0.  1.
</event>
<event>
11    1  0.7577197E-009  0.1428868E+03  0.7561462E-02  0.1104377E+00
         22   -1    0    0    0    0  0.00000000000E+00  0.00000000000E+00  0.38551668059E+04  0.38551668059E+04  0.00000000000E+00 0. -1.
         22   -1    0    0    0    0 -0.00000000000E+00 -0.00000000000E+00 -0.12043612198E+03  0.12043612198E+03  0.00000000000E+00 0. -1.
         24    2    1    2    0    0 -0.17651034652E+02 -0.66768515531E+02 -0.84362393568E+02  0.13549645351E+03  0.80452978663E+02 0.  0.
         25    2    1    2    0    0  0.65313027070E+02  0.53317196940E+02  0.56848616157E+03  0.58816026551E+03  0.12508983583E+03 0.  0.
        -24    2    1    2    0    0 -0.47661992419E+02  0.13451318591E+02  0.32506069159E+04  0.32519462089E+04  0.79096270812E+02 0.  0.
        -11    1    3    3    0    0  0.19543306423E+02  0.68151683023E+01 -0.55289387030E+01  0.21423270248E+02  0.00000000000E+00 0.  1.
         12    1    3    3    0    0 -0.37194341075E+02 -0.73583683834E+02 -0.78833454865E+02  0.11407318327E+03  0.00000000000E+00 0. -1.
         11    1    5    5    0    0 -0.15412619607E+02  0.41232894779E+02  0.10423259475E+04  0.10432550413E+04  0.00000000000E+00 0. -1.
        -12    1    5    5    0    0 -0.32249372812E+02 -0.27781576188E+02  0.22082809684E+04  0.22086911676E+04  0.00000000000E+00 0.  1.
          5    1    4    4  501    0 -0.11512854740E+02  0.47784355440E+02  0.82752728068E+02  0.96339902698E+02  0.41800000000E+01 0. -1.
         -5    1    4    4    0  501  0.76825881811E+02  0.55328415006E+01  0.48573343350E+03  0.49182036281E+03  0.41800000000E+01 0. -1.
</event>
<event>
11    1  0.7577197E-009  0.2307963E+03  0.7561462E-02  0.1034658E+00
         22   -1    0    0    0    0  0.00000000000E+00  0.00000000000E+00  0.51682045048E+03  0.51682045048E+03  0.00000000000E+00 0.  1.
         22   -1    0    0    0    0 -0.00000000000E+00 -0.00000000000E+00 -0.20585197729E+03  0.20585197729E+03  0.00000000000E+00 0.  1.
        -24    2    1    2    0    0  0.15230765941E+03 -0.10597753829E+03 -0.39126245692E+01  0.20198517265E+03  0.79710975402E+02 0.  0.
         25    2    1    2    0    0 -0.19269490566E+03  0.82857938002E+02  0.61894186553E+02  0.25194716750E+03  0.12509884222E+03 0.  0.
         24    2    1    2    0    0  0.40387246247E+02  0.23119600286E+02  0.25298691121E+03  0.26874008763E+03  0.77802389923E+02 0.  0.
        -11    1    5    5    0    0  0.13685858337E+02  0.44503050907E+02  0.81388969029E+02  0.93765604237E+02  0.00000000000E+00 0.  1.
         12    1    5    5    0    0  0.26701387910E+02 -0.21383450622E+02  0.17159794218E+03  0.17497448339E+03  0.00000000000E+00 0. -1.
         13    1    3    3    0    0 -0.12248160931E+01  0.72610939384E+01 -0.83825313400E+01  0.11157530700E+02  0.00000000000E+00 0. -1.
        -14    1    3    3    0    0  0.15353247551E+03 -0.11323863223E+03  0.44699067708E+01  0.19082764195E+03  0.00000000000E+00 0.  1.
          5    1    4    4  501    0 -0.55676701904E+02  0.84845634173E+02  0.10152358766E+00  0.10156849649E+03  0.41800000000E+01 0.  1.
         -5    1    4    4    0  501 -0.13701820376E+03 -0.19876961710E+01  0.61792662966E+02  0.15037867101E+03  0.41800000000E+01 0.  1.
</event>
<event>
11    1  0.7577197E-009  0.1504075E+03  0.7561462E-02  0.1096463E+00
         22   -1    0    0    0    0  0.00000000000E+00  0.00000000000E+00  0.33553925595E+03  0.33553925595E+03  0.00000000000E+00 0. -1.
         22   -1    0    0    0    0 -0.00000000000E+00 -0.00000000000E+00 -0.64682892784E+03  0.64682892784E+03  0.00000000000E+00 0.  1.
        -24    2    1    2    0    0  0.53715885065E+02  0.63416591714E+02 -0.56476717075E+03  0.57651587878E+03  0.80632133276E+02 0.  0.
         25    2    1    2    0    0 -0.24086295929E+02 -0.97275591500E+02  0.29582575113E+02  0.16298028084E+03  0.12507898641E+03 0.  0.
         24    2    1    2    0    0 -0.29629589136E+02  0.33858999786E+02  0.22389492375E+03  0.24287202417E+03  0.82665221387E+02 0.  0.
        -13    1    5    5    0    0 -0.24761544296E+02 -0.24008851475E+02  0.63084580691E+02  0.71897311118E+02  0.00000000000E+00 0.  1.
         14    1    5    5    0    0 -0.48680448403E+01  0.57867851261E+02  0.16081034306E+03  0.17097471305E+03  0.00000000000E+00 0. -1.
         13    1    3    3    0    0 -0.27766453330E+00 -0.16637413658E+02 -0.47939296073E+02  0.50745016887E+02  0.00000000000E+00 0. -1.
        -14    1    3    3    0    0  0.53993549599E+02  0.80054005372E+02 -0.51682787467E+03  0.52577086189E+03  0.00000000000E+00 0.  1.
          5    1    4    4  501    0 -0.33532873613E+02 -0.10875558339E+03 -0.15861415012E+02  0.11498385720E+03  0.41800000000E+01 0. -1.
         -5    1    4    4    0  501  0.94465776842E+01  0.11479991889E+02  0.45443990126E+02  0.47996423640E+02  0.41800000000E+01 0. -1.
</event>
<event>
11    1  0.7577197E-009  0.1404299E+03  0.7561462E-02  0.1107079E+00
         22   -1    0    0    0    0  0.00000000000E+00  0.00000000000E+00  0.28472617114E+03  0.28472617114E+03  0.00000000000E+00 0. -1.
         22   -1    0    0    0    0 -0.00000000000E+00 -0.00000000000E+00 -0.10528647062E+03  0.10528647062E+03  0.00000000000E+00 0. -1.
        -24    2    1    2    0    0  0.34260463697E+02  0.46462159656E+02  0.40226425793E+02  0.99937590003E+02  0.70970732777E+02 0.  0.
         25    2    1    2    0    0 -0.39829623115E+00 -0.91067746672E+02  0.66239025906E+02  0.16830484937E+03  0.12508165590E+03 0.  0.
         24    2    1    2    0    0 -0.33862167466E+02  0.44605587015E+02  0.72974248821E+02  0.12177020240E+03  0.79789951890E+02 0.  0.
        -13    1    5    5    0    0 -0.24874664851E+02  0.67805017790E+02  0.58826232104E+02  0.93149315470E+02  0.00000000000E+00 0.  1.
         14    1    5    5    0    0 -0.89875026149E+01 -0.23199430775E+02  0.14148016717E+02  0.28620886928E+02  0.00000000000E+00 0. -1.
         13    1    3    3    0    0  0.51145850092E+01  0.37471892306E+02  0.54440054103E+02  0.66287413462E+02  0.00000000000E+00 0. -1.
        -14    1    3    3    0    0  0.29145878688E+02  0.89902673506E+01 -0.14213628310E+02  0.33650176541E+02  0.00000000000E+00 0.  1.
          5    1    4    4  501    0  0.84360414829E+01 -0.11920589285E+03  0.69552847336E+02  0.13833395339E+03  0.41800000000E+01 0. -1.
         -5    1    4    4    0  501 -0.88343377140E+01  0.28138146181E+02 -0.33138214303E+01  0.29970895980E+02  0.41800000000E+01 0. -1.
</event>
<event>
11    1  0.7577197E-009  0.2267203E+03  0.7561462E-02  0.1037088E+00
         22   -1    0    0    0    0  0.00000000000E+00  0.00000000000E+00  0.14987388265E+03  0.14987388265E+03  0.00000000000E+00 0.  1.
         22   -1    0    0    0    0 -0.00000000000E+00 -0.00000000000E+00 -0.31390731452E+04  0.31390731452E+04  0.00000000000E+00 0. -1.
        -24    2    1    2    0    0  0.18331603224E+03 -0.36738813066E+02 -0.25246847707E+04  0.25326404612E+04  0.72663648707E+02 0.  0.
         25    2    1    2    0    0 -0.19044990146E+03  0.75629632626E+02 -0.56770178805E+03  0.61637993318E+03  0.12509154878E+03 0.  0.
         24    2    1    2    0    0  0.71338692189E+01 -0.38890819560E+02  0.10318729625E+03  0.13992663349E+03  0.85839715263E+02 0.  0.
        -11    1    5    5    0    0  0.38500823560E+02  0.61396693506E+01  0.51007691502E+02  0.64201195837E+02  0.00000000000E+00 0.  1.
         12    1    5    5    0    0 -0.31366954341E+02 -0.45030488911E+02  0.52179604747E+02  0.75725437653E+02  0.00000000000E+00 0. -1.
         13    1    3    3    0    0  0.95829329468E+02  0.14407860902E+02 -0.14275157719E+04  0.14308012181E+04  0.00000000000E+00 0. -1.
        -14    1    3    3    0    0  0.87486702771E+02 -0.51146673968E+02 -0.10971689989E+04  0.11018392430E+04  0.00000000000E+00 0.  1.
          5    1    4    4  501    0 -0.10091105153E+03  0.90307758989E+02 -0.23255285472E+03  0.26914091902E+03  0.41800000000E+01 0. -1.
         -5    1    4    4    0  501 -0.89538849929E+02 -0.14678126363E+02 -0.33514893334E+03  0.34723901416E+03  0.41800000000E+01 0. -1.
</event>
<event>
11    1  0.7577197E-009  0.1697625E+03  0.7561462E-02  0.1078239E+00
         22   -1    0    0    0    0  0.00000000000E+00  0.00000000000E+00  0.11338480214E+04  0.11338480214E+04  0.00000000000E+00 0.  1.
         22   -1    0    0    0    0 -0.00000000000E+00 -0.00000000000E+00 -0.19413257277E+03  0.19413257277E+03  0.00000000000E+00 0. -1.
         24    2    1    2    0    0 -0.60533174682E+02  0.89906476715E+02 -0.12322198716E+03  0.18424112648E+03  0.83747804590E+02 0.  0.
         25    2    1    2    0    0  0.11874789428E+03 -0.15101439098E+03  0.33204799895E+03  0.40349813417E+03  0.12509381279E+03 0.  0.
        -24    2    1    2    0    0 -0.58214719595E+02  0.61107914267E+02  0.73088943680E+03  0.74024133348E+03  0.81453865484E+02 0.  0.
        -11    1    3    3    0    0 -0.26833184234E+01  0.20857671057E+02  0.10108730994E+02  0.23333004136E+02  0.00000000000E+00 0.  1.
         12    1    3    3    0    0 -0.57849856259E+02  0.69048805658E+02 -0.13333071816E+03  0.16090812234E+03  0.00000000000E+00 0. -1.
         11    1    5    5    0    0 -0.40187864881E+02  0.34613021351E+02  0.16223934645E+03  0.17068898988E+03  0.00000000000E+00 0. -1.
        -12    1    5    5    0    0 -0.18026854715E+02  0.26494892916E+02  0.56865009035E+03  0.56955234360E+03  0.00000000000E+00 0.  1.
          5    1    4    4  501    0  0.83662723050E+02 -0.10698522792E+02  0.12829651468E+03  0.15359484919E+03  0.41800000000E+01 0. -1.
         -5    1    4    4    0  501  0.35085171228E+02 -0.14031586819E+03  0.20375148427E+03  0.24990328499E+03  0.41800000000E+01 0. -1.
</event>
<event>
11    1  0.7577197E-009  0.1331108E+03  0.7561462E-02  0.1115505E+00
         22   -1    0    0    0    0  0.00000000000E+00  0.00000000000E+00  0.25628961448E+04  0.25628961448E+04  0.00000000000E+00 0. -1.
         22   -1    0    0    0    0 -0.00000000000E+00 -0.00000000000E+00 -0.14760366451E+03  0.14760366451E+03  0.00000000000E+00 0.  1.
         24    2    1    2    0    0 -0.26050441942E+02  0.55022765660E+01 -0.11476055392E+03  0.14233530845E+03  0.79877748614E+02 0.  0.
         25    2    1    2    0    0  0.18979432582E+02 -0.50377500358E+02  0.23741992397E+03  0.27370307575E+03  0.12508813683E+03 0.  0.
        -24    2    1    2    0    0  0.70710093599E+01  0.44875223792E+02  0.22926331103E+04  0.22944614251E+04  0.79516464944E+02 0.  0.
        -11    1    3    3    0    0 -0.96615521074E+01 -0.22335367610E+02 -0.10614988024E+03  0.10890367905E+03  0.00000000000E+00 0.  1.
         12    1    3    3    0    0 -0.16388889835E+02  0.27837644176E+02 -0.86106736787E+01  0.33431629403E+02  0.00000000000E+00 0. -1.
         11    1    5    5    0    0  0.37530240365E+02  0.82140041612E+01  0.64807134988E+03  0.64920910602E+03  0.00000000000E+00 0. -1.
        -12    1    5    5    0    0 -0.30459231005E+02  0.36661219631E+02  0.16445617604E+04  0.16452523191E+04  0.00000000000E+00 0.  1.
          5    1    4    4  501    0 -0.50179013817E+02 -0.40154731748E+02  0.92061278748E+02  0.11235251379E+03  0.41800000000E+01 0.  1.
         -5    1    4    4    0  501  0.69158446399E+02 -0.10222768611E+02  0.14535864522E+03  0.16135056197E+03  0.41800000000E+01 0.  1.
</event>
<event>
11    1  0.7577197E-009  0.1446894E+03  0.7561462E-02  0.1102432E+00
         22   -1    0    0    0    0  0.00000000000E+00  0.00000000000E+00  0.94454294053E+02  0.94454294053E+02  0.00000000000E+00 0. -1.
         22   -1    0    0    0    0 -0.00000000000E+00 -0.00000000000E+00 -0.87263700711E+03  0.87263700711E+03  0.00000000000E+00 0. -1.
        -24    2    1    2    0    0 -0.16528277077E+02  0.56586441752E+02 -0.67355051395E+03  0.68082747943E+03  0.79878361079E+02 0.  0.
         25    2    1    2    0    0 -0.52339977406E+02 -0.73756407379E+02 -0.87965239365E+02  0.17766451279E+03  0.12508922777E+03 0.  0.
         24    2    1    2    0    0  0.68868254483E+02  0.17169965627E+02 -0.16666959741E+02  0.10859930894E+03  0.80488372830E+02 0.  0.
        -11    1    5    5    0    0  0.48844048718E+02  0.15226740850E+02 -0.48789606293E+02  0.70696678948E+02  0.00000000000E+00 0.  1.
         12    1    5    5    0    0  0.20024205765E+02  0.19432247767E+01  0.32122646552E+02  0.37902629995E+02  0.00000000000E+00 0. -1.
         11    1    3    3    0    0 -0.35653136619E+02  0.50935319042E+02 -0.62840908807E+03  0.63147726392E+03  0.00000000000E+00 0. -1.
        -12    1    3    3    0    0  0.19124859542E+02  0.56511227102E+01 -0.45141425881E+02  0.49350215511E+02  0.00000000000E+00 0.  1.
          5    1    4    4  501    0 -0.75209348394E+02 -0.32365075431E+02 -0.50737409374E+01  0.82141094712E+02  0.41800000000E+01 0.  1.
         -5    1    4    4    0  501  0.22869370988E+02 -0.41391331948E+02 -0.82891498427E+02  0.95523418078E+02  0.41800000000E+01 0.  1.
</event>
<event>
11    1  0.7577197E-009  0.1515033E+03  0.7561462E-02  0.1095353E+00
         22   -1    0    0    0    0  0.00000000000E+00  0.00000000000E+00  0.18680288059E+04  0.18680288059E+04  0.00000000000E+00 0.  1.
         22   -1    0    0    0    0 -0.00000000000E+00 -0.00000000000E+00 -0.54860256614E+03  0.54860256614E+03  0.00000000000E+00 0. -1.
         24    2    1    2    0    0 -0.46853455318E+02 -0.79563159259E-02 -0.47214426209E+03  0.48213019613E+03  0.85639216781E+02 0.  0.
         25    2    1    2    0    0  0.85717746234E+02 -0.75478247584E+02  0.33497746634E+02  0.17266711449E+03  0.12508931017E+03 0.  0.
        -24    2    1    2    0    0 -0.38864290917E+02  0.75486203900E+02  0.17580727552E+04  0.17618340614E+04  0.77658529803E+02 0.  0.
        -13    1    3    3    0    0 -0.24247443533E+02  0.41723674612E+02 -0.19063962538E+03  0.19665266412E+03  0.00000000000E+00 0.  1.
         14    1    3    3    0    0 -0.22606011785E+02 -0.41731630928E+02 -0.28150463672E+03  0.28547753201E+03  0.00000000000E+00 0. -1.
         11    1    5    5    0    0 -0.50122449420E+02  0.21794855680E+02  0.60732318158E+03  0.60977760089E+03  0.00000000000E+00 0. -1.
        -12    1    5    5    0    0  0.11258158503E+02  0.53691348220E+02  0.11507495736E+04  0.11520564605E+04  0.00000000000E+00 0.  1.
          5    1    4    4  501    0  0.55554395301E+02  0.23044182609E+01  0.62951797326E+02  0.84095198242E+02  0.41800000000E+01 0.  1.
         -5    1    4    4    0  501  0.30163350934E+02 -0.77782665845E+02 -0.29454050692E+02  0.88571916247E+02  0.41800000000E+01 0.  1.
</event>
<event>
11    1  0.7577197E-009  0.1385716E+03  0.7561462E-02  0.1109164E+00
         22   -1    0    0    0    0  0.00000000000E+00  0.00000000000E+00  0.13273008281E+03  0.13273008281E+03  0.00000000000E+00 0.  1.
         22   -1    0    0    0    0 -0.00000000000E+00 -0.00000000000E+00 -0.91596340571E+03  0.91596340571E+03  0.00000000000E+00 0. -1.
        -24    2    1    2    0    0 -0.47065490325E+02 -0.69175850087E+02 -0.68716580166E+03  0.69660815421E+03  0.77882109173E+02 0.  0.
         25    2    1    2    0    0  0.26260704940E+01  0.13042594142E+02 -0.17131879051E+03  0.21254087117E+03  0.12508592417E+03 0.  0.
         24    2    1    2    0    0  0.44439419831E+02  0.56133255945E+02  0.75251269265E+02  0.13954446314E+03  0.93188514359E+02 0.  0.
        -13    1    5    5    0    0  0.78147766257E+01  0.73645764027E+02  0.62745205992E+02  0.97065597241E+02  0.00000000000E+00 0.  1.
         14    1    5    5    0    0  0.36624643205E+02 -0.17512508082E+02  0.12506063272E+02  0.42478865896E+02  0.00000000000E+00 0. -1.
         13    1    3    3    0    0 -0.82252877275E+01 -0.31860624575E+02 -0.51868043413E+03  0.51972314506E+03  0.00000000000E+00 0. -1.
        -14    1    3    3    0    0 -0.38840202597E+02 -0.37315225511E+02 -0.16848536752E+03  0.17688500915E+03  0.00000000000E+00 0.  1.
          5    1    4    4  501    0 -0.58051657664E+02  0.11163637756E+02 -0.11619222500E+03  0.13043284600E+03  0.41800000000E+01 0. -1.
         -5    1    4    4    0  501  0.60677728158E+02  0.18789563862E+01 -0.55126565510E+02  0.82108025165E+02  0.41800000000E+01 0. -1.
</event>
<event>
11    1  0.7577197E-009  0.1740450E+03  0.7561462E-02  0.1074564E+00
         22   -1    0    0    0    0  0.00000000000E+00  0.00000000000E+00  0.66632568490E+03  0.66632568490E+03  0.00000000000E+00 0.  1.
         22   -1    0    0    0    0 -0.00000000000E+00 -0.00000000000E+00 -0.10762374827E+03  0.10762374827E+03  0.00000000000E+00 0. -1.
        -24    2    1    2    0    0 -0.68351623359E+02  0.71864876370E+02  0.56887669300E+02  0.14059115772E+03  0.81811746342E+02 0.  0.
         25    2    1    2    0    0  0.96901561424E+02 -0.12784944921E+03  0.11701619936E+03  0.23468217144E+03  0.12509011317E+03 0.  0.
         24    2    1    2    0    0 -0.28549938065E+02  0.55984572837E+02  0.38479806798E+03  0.39867610401E+03  0.83208842246E+02 0.  0.
        -11    1    5    5    0    0 -0.23653767455E+02  0.44467026606E+02  0.38268337276E+03  0.38598365374E+03  0.00000000000E+00 0.  1.
         12    1    5    5    0    0 -0.48961706101E+01  0.11517546231E+02  0.21146952168E+01  0.12692450263E+02  0.00000000000E+00 0. -1.
         13    1    3    3    0    0 -0.80465585076E+02  0.72547558208E+02  0.64671780363E+02  0.12617566231E+03  0.00000000000E+00 0. -1.
        -14    1    3    3    0    0  0.12113961717E+02 -0.68268183827E+00 -0.77841110627E+01  0.14415495413E+02  0.00000000000E+00 0.  1.
          5    1    4    4  501    0  0.17662801682E+02 -0.41064631947E+02 -0.24129590223E+02  0.50970462863E+02  0.41800000000E+01 0.  1.
         -5    1    4    4    0  501  0.79238759742E+02 -0.86784817260E+02  0.14114578958E+03  0.18371170858E+03  0.41800000000E+01 0.  1.
</event>
<event>
11    1  0.7577197E-009  0.1343810E+03  0.7561462E-02  0.1114000E+00
         22   -1    0    0    0    0  0.00000000000E+00  0.00000000000E+00  0.70561899876E+03  0.70561899876E+03  0.00000000000E+00 0. -1.
         22   -1    0    0    0    0 -0.00000000000E+00 -0.00000000000E+00 -0.52775565064E+03  0.52775565064E+03  0.00000000000E+00 0.  1.
        -24    2    1    2    0    0 -0.11437092810E+02  0.26324599735E+01 -0.46866283953E+03  0.47592652884E+03  0.81996748455E+02 0.  0.
         25    2    1    2    0    0  0.38026930097E+02  0.38323175506E+02  0.37721158553E+02  0.14136879906E+03  0.12509012092E+03 0.  0.
         24    2    1    2    0    0 -0.26589837287E+02 -0.40955635480E+02  0.60880502910E+03  0.61607932150E+03  0.80782321098E+02 0.  0.
        -11    1    5    5    0    0 -0.96767425975E+01 -0.28406230364E+02  0.62119706887E+02  0.68988486391E+02  0.00000000000E+00 0.  1.
         12    1    5    5    0    0 -0.16913094690E+02 -0.12549405116E+02  0.54668532221E+03  0.54709083511E+03  0.00000000000E+00 0. -1.
         13    1    3    3    0    0 -0.79845185961E+01  0.88534362072E+01 -0.62538048335E+01  0.13462761410E+02  0.00000000000E+00 0. -1.
        -14    1    3    3    0    0 -0.34525742137E+01 -0.62209762337E+01 -0.46240903470E+03  0.46246376743E+03  0.00000000000E+00 0.  1.
          5    1    4    4  501    0  0.38478750938E+02 -0.11800505364E+02 -0.34624201442E+02  0.53255740781E+02  0.41800000000E+01 0.  1.
         -5    1    4    4    0  501 -0.45182084075E+00  0.50123680870E+02  0.72345359995E+02  0.88113058277E+02  0.41800000000E+01 0.  1.
</event>
<event>
11    1  0.7577197E-009  0.1340636E+03  0.7561462E-02  0.1114375E+00
         22   -1    0    0    0    0  0.00000000000E+00  0.00000000000E+00  0.61971638997E+03  0.61971638997E+03  0.00000000000E+00 0. -1.
         22   -1    0    0    0    0 -0.00000000000E+00 -0.00000000000E+00 -0.11324660249E+03  0.11324660249E+03  0.00000000000E+00 0.  1.
         24    2    1    2    0    0  0.59116243973E+01  0.43899165004E+02 -0.66858002102E+02  0.11450616328E+03  0.81728728080E+02 0.  0.
         25    2    1    2    0    0 -0.51507292998E+02 -0.21943918712E+02  0.34703832121E+03  0.37312024829E+03  0.12509431040E+03 0.  0.
        -24    2    1    2    0    0  0.45595668600E+02 -0.21955246292E+02  0.22628946837E+03  0.24533658089E+03  0.80138109466E+02 0.  0.
        -13    1    3    3    0    0  0.28382112900E+02  0.21650851403E+02 -0.73935765491E+02  0.82102381926E+02  0.00000000000E+00 0.  1.
         14    1    3    3    0    0 -0.22470488503E+02  0.22248313601E+02  0.70777633892E+01  0.32403781357E+02  0.00000000000E+00 0. -1.
         13    1    5    5    0    0  0.53528140608E+01  0.22076394517E+02  0.13071729439E+03  0.13267641413E+03  0.00000000000E+00 0. -1.
        -14    1    5    5    0    0  0.40242854540E+02 -0.44031640809E+02  0.95572173985E+02  0.11266016676E+03  0.00000000000E+00 0.  1.
          5    1    4    4  501    0  0.13537939429E+02  0.41293651998E+02  0.14876455873E+03  0.15503808511E+03  0.41800000000E+01 0.  1.
         -5    1    4    4    0  501 -0.65045232426E+02 -0.63237570710E+02  0.19827376248E+03  0.21808216319E+03  0.41800000000E+01 0.  1.
</event>
<event>
11    1  0.7577197E-009  0.1343557E+03  0.7561462E-02  0.1114030E+00
         22   -1    0    0    0    0  0.00000000000E+00  0.00000000000E+00  0.54170135279E+02  0.54170135279E+02  0.00000000000E+00 0. -1.
         22   -1    0    0    0    0 -0.00000000000E+00 -0.00000000000E+00 -0.22178360246E+04  0.22178360246E+04  0.00000000000E+00 0. -1.
        -24    2    1    2    0    0 -0.29792039370E+02 -0.51371737813E+01 -0.17157023518E+04  0.17181282098E+04  0.86116369665E+02 0.  0.
         25    2    1    2    0    0  0.65144217863E+02 -0.25780742026E+02 -0.43659065951E+03  0.45952870803E+03  0.12508722458E+03 0.  0.
         24    2    1    2    0    0 -0.35352178494E+02  0.30917915807E+02 -0.11372878061E+02  0.94349242113E+02  0.81035443417E+02 0.  0.
        -11    1    5    5    0    0 -0.32457745449E+02  0.20446286511E+02 -0.44929313217E+02  0.59077906681E+02  0.00000000000E+00 0.  1.
         12    1    5    5    0    0 -0.28944330451E+01  0.10471629296E+02  0.33556435156E+02  0.35271335432E+02  0.00000000000E+00 0. -1.
         13    1    3    3    0    0 -0.17881125783E+02 -0.29970165223E+02 -0.15296797023E+04  0.15300777552E+04  0.00000000000E+00 0. -1.
        -14    1    3    3    0    0 -0.11910913587E+02  0.24832991442E+02 -0.18602264951E+03  0.18805045455E+03  0.00000000000E+00 0.  1.
          5    1    4    4  501    0  0.27814933162E+02 -0.75457154410E+02 -0.26614558510E+03  0.27806185917E+03  0.41800000000E+01 0. -1.
         -5    1    4    4    0  501  0.37329284701E+02  0.49676412384E+02 -0.17044507441E+03  0.18146684886E+03  0.41800000000E+01 0. -1.
</event>
<event>
11    1  0.7577197E-009  0.1433642E+03  0.7561462E-02  0.1103859E+00
         22   -1    0    0    0    0  0.00000000000E+00  0.00000000000E+00  0.45301686149E+03  0.45301686149E+03  0.00000000000E+00 0. -1.
         22   -1    0    0    0    0 -0.00000000000E+00 -0.00000000000E+00 -0.86050532342E+03  0.86050532342E+03  0.00000000000E+00 0.  1.
        -24    2    1    2    0    0  0.16542148043E+02 -0.19399397295E+02 -0.67647791105E+03  0.68201689218E+03  0.82913797363E+02 0.  0.
         25    2    1    2    0    0  0.29029889077E+02  0.72387025133E+02 -0.14295706464E+03  0.20534275675E+03  0.12508520917E+03 0.  0.
         24    2    1    2    0    0 -0.45572037120E+02 -0.52987627838E+02  0.41194651377E+03  0.42616253598E+03  0.83845557992E+02 0.  0.
        -13    1    5    5    0    0 -0.20791775674E+02 -0.45323037445E+02  0.87737106372E+02  0.10091717145E+03  0.00000000000E+00 0.  1.
         14    1    5    5    0    0 -0.24780261445E+02 -0.76645903927E+01  0.32420940740E+03  0.32524536453E+03  0.00000000000E+00 0. -1.
         13    1    3    3    0    0 -0.12881231628E+02  0.20748090034E+01 -0.16503406831E+02  0.21037903834E+02  0.00000000000E+00 0. -1.
        -14    1    3    3    0    0  0.29423379671E+02 -0.21474206299E+02 -0.65997450422E+03  0.66097898834E+03  0.00000000000E+00 0.  1.
          5    1    4    4  501    0  0.77927019640E+02  0.53472710308E+02 -0.86545969350E+02  0.12821711410E+03  0.41800000000E+01 0. -1.
         -5    1    4    4    0  501 -0.48897130563E+02  0.18914314825E+02 -0.56411095290E+02  0.77125642652E+02  0.41800000000E+01 0. -1.
</event>
<event>
11    1  0.7577197E-009  0.2330317E+03  0.7561462E-02  0.1033348E+00
         22   -1    0    0    0    0  0.00000000000E+00  0.00000000000E+00  0.11272862867E+04  0.11272862867E+04  0.00000000000E+00 0.  1.
         22   -1    0    0    0    0 -0.00000000000E+00 -0.00000000000E+00 -0.23140612625E+04  0.23140612625E+04  0.00000000000E+00 0. -1.
        -24    2    1    2    0    0 -0.19378606771E+03  0.29911095527E+02 -0.21985218578E+04  0.22086800126E+04  0.79506760361E+02 0.  0.
         25    2    1    2    0    0  0.21568878021E+03  0.10466267015E+02  0.35423755785E+02  0.25205624932E+03  0.12508524171E+03 0.  0.
         24    2    1    2    0    0 -0.21902712493E+02 -0.40377362542E+02  0.97632312621E+03  0.98061128737E+03  0.79256481900E+02 0.  0.
        -13    1    5    5    0    0 -0.42017139471E+02 -0.32119006190E+01  0.29695048282E+03  0.29992556670E+03  0.00000000000E+00 0.  1.
         14    1    5    5    0    0  0.20114426978E+02 -0.37165461923E+02  0.67937264339E+03  0.68068572067E+03  0.00000000000E+00 0. -1.
         13    1    3    3    0    0 -0.67550898242E+02  0.49460312388E+02 -0.90777346693E+03  0.91162608213E+03  0.00000000000E+00 0. -1.
        -14    1    3    3    0    0 -0.12623516947E+03 -0.19549216861E+02 -0.12907483909E+04  0.12970539304E+04  0.00000000000E+00 0.  1.
          5    1    4    4  501    0  0.59550216385E+01  0.18077624769E+02 -0.26780675035E+02  0.33120080847E+02  0.41800000000E+01 0. -1.
         -5    1    4    4    0  501  0.20973375857E+03 -0.76113577540E+01  0.62204430820E+02  0.21893616847E+03  0.41800000000E+01 0. -1.
</event>
<event>
11    1  0.7577197E-009  0.2054488E+03  0.7561462E-02  0.1050736E+00
         22   -1    0    0    0    0  0.00000000000E+00  0.00000000000E+00  0.13337161147E+04  0.13337161147E+04  0.00000000000E+00 0. -1.
         22   -1    0    0    0    0 -0.00000000000E+00 -0.00000000000E+00 -0.13019551930E+03  0.13019551930E+03  0.00000000000E+00 0.  1.
         24    2    1    2    0    0 -0.59685079687E+02 -0.37003320680E+02 -0.69996255187E+02  0.12750467994E+03  0.80164912451E+02 0.  0.
         25    2    1    2    0    0 -0.59643410739E+02 -0.10510314071E+03  0.34415293500E+03  0.38560251115E+03  0.12507616601E+03 0.  0.
        -24    2    1    2    0    0  0.11932849043E+03  0.14210646139E+03  0.92936391559E+03  0.95080444291E+03  0.76669851063E+02 0.  0.
        -11    1    3    3    0    0 -0.63495201975E+02 -0.35704051225E+02 -0.85015336052E+02  0.11195547022E+03  0.00000000000E+00 0.  1.
         12    1    3    3    0    0  0.38101222885E+01 -0.12992694552E+01  0.15019080865E+02  0.15549209723E+02  0.00000000000E+00 0. -1.
         11    1    5    5    0    0  0.99967181248E+02  0.14962499921E+03  0.82585035454E+03  0.84522771240E+03  0.00000000000E+00 0. -1.
        -12    1    5    5    0    0  0.19361309179E+02 -0.75185378211E+01  0.10351356105E+03  0.10557673051E+03  0.00000000000E+00 0.  1.
          5    1    4    4  501    0  0.62673520348E+01  0.23127152748E+02  0.91482979974E+02  0.94661253535E+02  0.41800000000E+01 0. -1.
         -5    1    4    4    0  501 -0.65910762774E+02 -0.12823029345E+03  0.25266995503E+03  0.29094125761E+03  0.41800000000E+01 0. -1.
</event>
<event>
11    1  0.7577197E-009  0.1528225E+03  0.7561462E-02  0.1094029E+00
         22   -1    0    0    0    0  0.00000000000E+00  0.00000000000E+00  0.38072896995E+02  0.38072896995E+02  0.00000000000E+00 0. -1.
         22   -1    0    0    0    0 -0.00000000000E+00 -0.00000000000E+00 -0.19169867712E+04  0.19169867712E+04  0.00000000000E+00 0. -1.
        -24    2    1    2    0    0  0.45096338979E+02 -0.33788185700E+02 -0.10047851891E+04  0.10094762643E+04  0.79206885785E+02 0.  0.
         25    2    1    2    0    0 -0.12616675442E+03  0.22251051629E+02 -0.76927564238E+03  0.78983971794E+03  0.12509439182E+03 0.  0.
         24    2    1    2    0    0  0.81070415441E+02  0.11537134071E+02 -0.10485304272E+03  0.15574368590E+03  0.80971707456E+02 0.  0.
        -11    1    5    5    0    0 -0.15831700850E+02  0.73178853195E+00 -0.25532970468E+02  0.30051802728E+02  0.00000000000E+00 0.  1.
         12    1    5    5    0    0  0.96902116291E+02  0.10805345539E+02 -0.79320072254E+02  0.12569188318E+03  0.00000000000E+00 0. -1.
         13    1    3    3    0    0  0.13123256008E+01 -0.42362566130E+02 -0.71716218375E+03  0.71841346521E+03  0.00000000000E+00 0. -1.
        -14    1    3    3    0    0  0.43784013378E+02  0.85743804298E+01 -0.28762300534E+03  0.29106279911E+03  0.00000000000E+00 0.  1.
          5    1    4    4  501    0 -0.67776497512E+02  0.68944287798E+02 -0.54128156649E+03  0.54986377864E+03  0.41800000000E+01 0.  1.
         -5    1    4    4    0  501 -0.58390256907E+02 -0.46693236170E+02 -0.22799407589E+03  0.23997593930E+03  0.41800000000E+01 0.  1.
</event>
<event>
11    1  0.7577197E-009  0.1427841E+03  0.7561462E-02  0.1104489E+00
         22   -1    0    0    0    0  0.00000000000E+00  0.00000000000E+00  0.13822352723E+03  0.13822352723E+03  0.00000000000E+00 0.  1.
         22   -1    0    0    0    0 -0.00000000000E+00 -0.00000000000E+00 -0.23845992964E+04  0.23845992964E+04  0.00000000000E+00 0.  1.
         24    2    1    2    0    0  0.59287285381E+02  0.37535536161E+01 -0.17713428928E+04  0.17741480792E+04  0.80104256097E+02 0.  0.
         25    2    1    2    0    0 -0.51099466834E+02  0.64979159501E+02 -0.57904032829E+03  0.59813765953E+03  0.12509001270E+03 0.  0.
        -24    2    1    2    0    0 -0.81878185474E+01 -0.68732713117E+02  0.10400745189E+03  0.15053708490E+03  0.83979983663E+02 0.  0.
        -13    1    3    3    0    0  0.53742309799E+02 -0.32935036706E+00 -0.17603916497E+04  0.17612118284E+04  0.00000000000E+00 0.  1.
         14    1    3    3    0    0  0.55449755822E+01  0.40829039832E+01 -0.10951243075E+02  0.12936250771E+02  0.00000000000E+00 0. -1.
         13    1    5    5    0    0  0.23599247862E+02 -0.38757653495E+02  0.94174249822E+01  0.46344019003E+02  0.00000000000E+00 0. -1.
        -14    1    5    5    0    0 -0.31787066410E+02 -0.29975059622E+02  0.94590026904E+02  0.10419306589E+03  0.00000000000E+00 0.  1.
          5    1    4    4  501    0 -0.90820331049E+02  0.29194333928E+02 -0.33989220416E+03  0.35305073929E+03  0.41800000000E+01 0.  1.
         -5    1    4    4    0  501  0.39720864215E+02  0.35784825573E+02 -0.23914812413E+03  0.24508692023E+03  0.41800000000E+01 0.  1.
</event>
<event>
11    1  0.7577197E-009  0.1486430E+03  0.7561462E-02  0.1098273E+00
         22   -1    0    0    0    0  0.00000000000E+00  0.00000000000E+00  0.49613280162E+03  0.49613280162E+03  0.00000000000E+00 0. -1.
         22   -1    0    0    0    0 -0.00000000000E+00 -0.00000000000E+00 -0.22438432684E+04  0.22438432684E+04  0.00000000000E+00 0. -1.
         24    2    1    2    0    0 -0.52715982571E+02 -0.61073995395E+02 -0.21592066448E+04  0.21621217829E+04  0.78027312859E+02 0.  0.
         25    2    1    2    0    0  0.13309643979E+02  0.70487999518E+02 -0.11995638925E+02  0.14470370435E+03  0.12509820942E+03 0.  0.
        -24    2    1    2    0    0  0.39406338592E+02 -0.94140041231E+01  0.42349181691E+03  0.43315058277E+03  0.81440931755E+02 0.  0.
        -11    1    3    3    0    0  0.18947788672E+02 -0.45968607087E+01 -0.53400210677E+03  0.53435793234E+03  0.00000000000E+00 0.  1.
         12    1    3    3    0    0 -0.71663771242E+02 -0.56477134686E+02 -0.16252045380E+04  0.16277638506E+04  0.00000000000E+00 0. -1.
         13    1    5    5    0    0  0.28288937293E+01  0.28418613239E+01  0.35109223104E+03  0.35111512857E+03  0.00000000000E+00 0. -1.
        -14    1    5    5    0    0  0.36577444862E+02 -0.12255865447E+02  0.72399585870E+02  0.82035454193E+02  0.00000000000E+00 0.  1.
          5    1    4    4  501    0  0.32408528255E+02  0.37977197978E+02  0.50793110570E+02  0.71344185126E+02  0.41800000000E+01 0. -1.
         -5    1    4    4    0  501 -0.19098884276E+02  0.32510801540E+02 -0.62788749496E+02  0.73359519223E+02  0.41800000000E+01 0. -1.
</event>
<event>
11    1  0.7577197E-009  0.1422996E+03  0.7561462E-02  0.1105017E+00
         22   -1    0    0    0    0  0.00000000000E+00  0.00000000000E+00  0.85575404363E+03  0.85575404363E+03  0.00000000000E+00 0.  1.
         22   -1    0    0    0    0 -0.00000000000E+00 -0.00000000000E+00 -0.11692259941E+03  0.11692259941E+03  0.00000000000E+00 0.  1.
        -24    2    1    2    0    0 -0.58998504719E+02 -0.25436818368E+02 -0.53622985741E+02  0.11717882761E+03  0.82021934585E+02 0.  0.
         25    2    1    2    0    0  0.76248481739E+02  0.54661606561E+02  0.18618513262E+03  0.24313495936E+03  0.12509189684E+03 0.  0.
         24    2    1    2    0    0 -0.17249977020E+02 -0.29224788194E+02  0.60626929735E+03  0.61236285607E+03  0.79209574168E+02 0.  0.
        -11    1    5    5    0    0  0.32489710732E+01 -0.25123532043E+02  0.56952336935E+03  0.57008649862E+03  0.00000000000E+00 0.  1.
         12    1    5    5    0    0 -0.20498948093E+02 -0.41012561510E+01  0.36745927996E+02  0.42276357450E+02  0.00000000000E+00 0. -1.
         11    1    3    3    0    0 -0.35130809656E+02  0.17700815728E+02  0.60219036514E+01  0.39796431852E+02  0.00000000000E+00 0. -1.
        -12    1    3    3    0    0 -0.23867695063E+02 -0.43137634096E+02 -0.59644889392E+02  0.77382395760E+02  0.00000000000E+00 0.  1.
          5    1    4    4  501    0 -0.15462376321E+02 -0.17083790388E+02 -0.93167205647E-01  0.23418412748E+02  0.41800000000E+01 0. -1.
         -5    1    4    4    0  501  0.91710858060E+02  0.71745396949E+02  0.18627829982E+03  0.21971654661E+03  0.41800000000E+01 0. -1.
</event>
<event>
11    1  0.7577197E-009  0.1811759E+03  0.7561462E-02  0.1068696E+00
         22   -1    0    0    0    0  0.00000000000E+00  0.00000000000E+00  0.32870131637E+04  0.32870131637E+04  0.00000000000E+00 0. -1.
         22   -1    0    0    0    0 -0.00000000000E+00 -0.00000000000E+00 -0.10513372320E+03  0.10513372320E+03  0.00000000000E+00 0.  1.
         24    2    1    2    0    0  0.38566139677E+01  0.63553291001E+01 -0.26227042200E+02  0.87273440087E+02  0.82906766447E+02 0.  0.
         25    2    1    2    0    0 -0.87191884138E+02  0.94923275424E+02  0.12702327874E+03  0.21998991472E+03  0.12509115220E+03 0.  0.
        -24    2    1    2    0    0  0.83335270170E+02 -0.10127860452E+03  0.30810832040E+04  0.30848835321E+04  0.78933984531E+02 0.  0.
        -13    1    3    3    0    0  0.14907435755E+02  0.11562599159E+02 -0.53855687257E+02  0.57064528300E+02  0.00000000000E+00 0.  1.
         14    1    3    3    0    0 -0.11050821787E+02 -0.52072700584E+01  0.27628645058E+02  0.30208911787E+02  0.00000000000E+00 0. -1.
         11    1    5    5    0    0  0.45851549680E+02 -0.70766783281E+02  0.26025634516E+04  0.26039291123E+04  0.00000000000E+00 0. -1.
        -12    1    5    5    0    0  0.37483720490E+02 -0.30511821243E+02  0.47851975233E+03  0.48095441978E+03  0.00000000000E+00 0.  1.
          5    1    4    4  501    0  0.19761635825E+02 -0.15772655548E+02  0.17609772023E+02  0.31094619860E+02  0.41800000000E+01 0. -1.
         -5    1    4    4    0  501 -0.10695351996E+03  0.11069593097E+03  0.10941350672E+03  0.18889529486E+03  0.41800000000E+01 0. -1.
</event>
<event>
11    1  0.7577197E-009  0.1837693E+03  0.7561462E-02  0.1066634E+00
         22   -1    0    0    0    0  0.00000000000E+00  0.00000000000E+00  0.19375999484E+04  0.19375999484E+04  0.00000000000E+00 0.  1.
         22   -1    0    0    0    0 -0.00000000000E+00 -0.00000000000E+00 -0.19913024037E+03  0.19913024037E+03  0.00000000000E+00 0.  1.
         24    2    1    2    0    0 -0.37411498349E+02 -0.41465288287E+02 -0.86406535116E+02  0.13053023084E+03  0.80330949893E+02 0.  0.
         25    2    1    2    0    0 -0.77843883014E+02  0.11176474095E+03  0.10921342112E+02  0.18525320185E+03  0.12509374740E+03 0.  0.
        -24    2    1    2    0    0  0.11525538136E+03 -0.70299452662E+02  0.18139549010E+04  0.18209467561E+04  0.84787319270E+02 0.  0.
        -13    1    3    3    0    0 -0.32847968735E+02 -0.65548005679E+02 -0.64050176356E+02  0.97354790276E+02  0.00000000000E+00 0.  1.
         14    1    3    3    0    0 -0.45635296140E+01  0.24082717392E+02 -0.22356358760E+02  0.33175440563E+02  0.00000000000E+00 0. -1.
         13    1    5    5    0    0  0.61908834531E+02 -0.50430477959E+02  0.55600369015E+03  0.56170814518E+03  0.00000000000E+00 0. -1.
        -14    1    5    5    0    0  0.53346546832E+02 -0.19868974703E+02  0.12579512109E+04  0.12592386109E+04  0.00000000000E+00 0.  1.
          5    1    4    4  501    0 -0.48015807147E+02  0.70327329356E+02 -0.55231418244E+02  0.10158460982E+03  0.41800000000E+01 0.  1.
         -5    1    4    4    0  501 -0.29828075867E+02  0.41437411593E+02  0.66152760355E+02  0.83668592029E+02  0.41800000000E+01 0.  1.
</event>
<event>
11    1  0.7577197E-009  0.1430878E+03  0.7561462E-02  0.1104159E+00
         22   -1    0    0    0    0  0.00000000000E+00  0.00000000000E+00  0.68805644655E+03  0.68805644655E+03  0.00000000000E+00 0. -1.
         22   -1    0    0    0    0 -0.00000000000E+00 -0.00000000000E+00 -0.12408919969E+03  0.12408919969E+03  0.00000000000E+00 0. -1.
         24    2    1    2    0    0  0.51417785914E+02 -0.36095020546E+02 -0.55068622353E+02  0.11623439924E+03  0.80816107192E+02 0.  0.
         25    2    1    2    0    0 -0.95575453031E+02  0.70900414619E+02  0.19479747640E+03  0.26029790173E+03  0.12508958718E+03 0.  0.
        -24    2    1    2    0    0  0.44157667117E+02 -0.34805394073E+02  0.42423839282E+03  0.43561334526E+03  0.81360049221E+02 0.  0.
        -11    1    3    3    0    0  0.15604157359E+02 -0.29794308481E+01  0.20717949564E+02  0.26107473436E+02  0.00000000000E+00 0.  1.
         12    1    3    3    0    0  0.35813628555E+02 -0.33115589698E+02 -0.75786571917E+02  0.90126925801E+02  0.00000000000E+00 0. -1.
         13    1    5    5    0    0  0.24908899236E+02  0.19628490381E+02  0.25126239200E+03  0.25325584007E+03  0.00000000000E+00 0. -1.
        -14    1    5    5    0    0  0.19248767881E+02 -0.54433884454E+02  0.17297600082E+03  0.18235750519E+03  0.00000000000E+00 0.  1.
          5    1    4    4  501    0 -0.12928333532E+02 -0.32797726228E+02  0.68358667080E+02  0.77027348511E+02  0.41800000000E+01 0. -1.
         -5    1    4    4    0  501 -0.82647119499E+02  0.10369814085E+03  0.12643880932E+03  0.18327055322E+03  0.41800000000E+01 0. -1.
</event>
<event>
11    1  0.7577197E-009  0.4271549E+03  0.7561462E-02  0.9572868E-01
         22   -1    0    0    0    0  0.00000000000E+00  0.00000000000E+00  0.29502601444E+04  0.29502601444E+04  0.00000000000E+00 0. -1.
         22   -1    0    0    0    0 -0.00000000000E+00 -0.00000000000E+00 -0.14883741842E+03  0.14883741842E+03  0.00000000000E+00 0. -1.
         24    2    1    2    0    0  0.10140268538E+02 -0.23667334723E+02 -0.22023111888E+01  0.84200439347E+02  0.80136733355E+02 0.  0.
         25    2    1    2    0    0 -0.40923140500E+03 -0.58805282414E+02  0.44561120498E+03  0.62060007421E+03  0.12508677799E+03 0.  0.
        -24    2    1    2    0    0  0.39909113646E+03  0.82472617137E+02  0.23580138322E+04  0.23942970493E+04  0.79709846012E+02 0.  0.
        -11    1    3    3    0    0 -0.26974523918E+02  0.10055402636E+01  0.20771479421E+02  0.34060099958E+02  0.00000000000E+00 0.  1.
         12    1    3    3    0    0  0.37114792456E+02 -0.24672874986E+02 -0.22973790609E+02  0.50140339389E+02  0.00000000000E+00 0. -1.
         11    1    5    5    0    0  0.39486652619E+03  0.91330415367E+02  0.23110197557E+04  0.23462892255E+04  0.00000000000E+00 0. -1.
        -12    1    5    5    0    0  0.42246102632E+01 -0.88577982299E+01  0.46994076447E+02  0.48007823763E+02  0.00000000000E+00 0.  1.
          5    1    4    4  501    0 -0.35001641340E+03 -0.38352999738E+01  0.34502164316E+03  0.49151155207E+03  0.41800000000E+01 0.  1.
         -5    1    4    4    0  501 -0.59214991598E+02 -0.54969982440E+02  0.10058956183E+03  0.12908852214E+03  0.41800000000E+01 0.  1.
</event>
<event>
11    1  0.7577197E-009  0.1293312E+03  0.7561462E-02  0.1120093E+00
         22   -1    0    0    0    0  0.00000000000E+00  0.00000000000E+00  0.40614227019E+03  0.40614227019E+03  0.00000000000E+00 0. -1.
         22   -1    0    0    0    0 -0.00000000000E+00 -0.00000000000E+00 -0.11840602681E+04  0.11840602681E+04  0.00000000000E+00 0.  1.
        -24    2    1    2    0    0  0.88790765716E+01 -0.31505206191E+02 -0.11346327746E+04  0.11379700483E+04  0.80702425993E+02 0.  0.
         25    2    1    2    0    0 -0.96482884890E+01  0.38111533291E+02  0.59532400670E+02  0.14400656417E+03  0.12509278698E+03 0.  0.
         24    2    1    2    0    0  0.76921191736E+00 -0.66063271006E+01  0.29718237601E+03  0.30822592586E+03  0.81496144196E+02 0.  0.
        -11    1    5    5    0    0  0.11860062745E+01  0.27010598815E+02  0.36703815287E+02  0.45586720828E+02  0.00000000000E+00 0.  1.
         12    1    5    5    0    0 -0.41679435714E+00 -0.33616925915E+02  0.26047856072E+03  0.26263920504E+03  0.00000000000E+00 0. -1.
         11    1    3    3    0    0 -0.10079073493E+02 -0.10327998729E+02 -0.33569043553E+02  0.36539512385E+02  0.00000000000E+00 0. -1.
        -12    1    3    3    0    0  0.18958150065E+02 -0.21177207462E+02 -0.11010637311E+04  0.11014305359E+04  0.00000000000E+00 0.  1.
          5    1    4    4  501    0  0.22783352343E+02  0.69996511186E+02  0.64635834929E+02  0.98050274243E+02  0.41800000000E+01 0. -1.
         -5    1    4    4    0  501 -0.32431640832E+02 -0.31884977895E+02 -0.51034342592E+01  0.45956289925E+02  0.41800000000E+01 0. -1.
</event>
<event>
11    1  0.7577197E-009  0.1907834E+03  0.7561462E-02  0.1061240E+00
         22   -1    0    0    0    0  0.00000000000E+00  0.00000000000E+00  0.53531334942E+03  0.53531334942E+03  0.00000000000E+00 0. -1.
         22   -1    0    0    0    0 -0.00000000000E+00 -0.00000000000E+00 -0.27417293856E+03  0.27417293856E+03  0.00000000000E+00 0. -1.
         24    2    1    2    0    0 -0.15430065669E+03  0.90705118729E+01 -0.19385240717E+03  0.26086723760E+03  0.81129483217E+02 0.  0.
         25    2    1    2    0    0  0.94876843080E+02 -0.80635215316E+01  0.11602239982E+03  0.19538462370E+03  0.12508924088E+03 0.  0.
        -24    2    1    2    0    0  0.59423813606E+02 -0.10069903413E+01  0.33897041820E+03  0.35323442669E+03  0.79632983928E+02 0.  0.
        -11    1    3    3    0    0 -0.78039033743E+02 -0.22283495715E+02 -0.14172141759E+03  0.16331443651E+03  0.00000000000E+00 0.  1.
         12    1    3    3    0    0 -0.76261622942E+02  0.31354007587E+02 -0.52130989581E+02  0.97552801089E+02  0.00000000000E+00 0. -1.
         11    1    5    5    0    0  0.50551584721E+02  0.25592637708E+02  0.29953124934E+03  0.30484326325E+03  0.00000000000E+00 0. -1.
        -12    1    5    5    0    0  0.88722288848E+01 -0.26599628049E+02  0.39439168865E+02  0.48391163434E+02  0.00000000000E+00 0.  1.
          5    1    4    4  501    0  0.64760487484E+02 -0.64397271125E+02  0.53628849646E+02  0.10599271287E+03  0.41800000000E+01 0. -1.
         -5    1    4    4    0  501  0.30116355596E+02  0.56333749594E+02  0.62393550178E+02  0.89391910828E+02  0.41800000000E+01 0. -1.
</event>
<event>
11    1  0.7577197E-009  0.1369659E+03  0.7561462E-02  0.1110995E+00
         22   -1    0    0    0    0  0.00000000000E+00  0.00000000000E+00  0.14823571562E+03  0.14823571562E+03  0.00000000000E+00 0.  1.
         22   -1    0    0    0    0 -0.00000000000E+00 -0.00000000000E+00 -0.42934494134E+03  0.42934494134E+03  0.00000000000E+00 0. -1.
         24    2    1    2    0    0  0.22464521322E+02 -0.53720384135E+02 -0.28225241055E+03  0.29869602116E+03  0.78500671350E+02 0.  0.
         25    2    1    2    0    0 -0.51821424946E+02  0.23460585359E+02 -0.77434906179E+02  0.15772833979E+03  0.12508479256E+03 0.  0.
        -24    2    1    2    0    0  0.29356903625E+02  0.30259798777E+02  0.78578091016E+02  0.12115629601E+03  0.82017366829E+02 0.  0.
        -11    1    3    3    0    0 -0.58389615595E+01 -0.38712174961E+02 -0.46541923094E+02  0.60818390045E+02  0.00000000000E+00 0.  1.
         12    1    3    3    0    0  0.28303482881E+02 -0.15008209175E+02 -0.23571048746E+03  0.23787763111E+03  0.00000000000E+00 0. -1.
         11    1    5    5    0    0 -0.11240337688E+02 -0.21355361733E+02  0.34362238775E+02  0.41990000234E+02  0.00000000000E+00 0. -1.
        -12    1    5    5    0    0  0.40597241312E+02  0.51615160510E+02  0.44215852241E+02  0.79166295771E+02  0.00000000000E+00 0.  1.
          5    1    4    4  501    0 -0.72201252734E+02  0.51389698466E+01  0.30848752015E+01  0.72570095511E+02  0.41800000000E+01 0. -1.
         -5    1    4    4    0  501  0.20379827788E+02  0.18321615512E+02 -0.80519781380E+02  0.85158244282E+02  0.41800000000E+01 0. -1.
</event>
<event>
11    1  0.7577197E-009  0.1382372E+03  0.7561462E-02  0.1109543E+00
         22   -1    0    0    0    0  0.00000000000E+00  0.00000000000E+00  0.17104943649E+04  0.17104943649E+04  0.00000000000E+00 0. -1.
         22   -1    0    0    0    0 -0.00000000000E+00 -0.00000000000E+00 -0.50970993577E+03  0.50970993577E+03  0.00000000000E+00 0. -1.
        -24    2    1    2    0    0  0.12443594146E+02 -0.42003893790E+02 -0.49598570507E+03  0.50474126485E+03  0.82720944618E+02 0.  0.
         25    2    1    2    0    0 -0.67343355190E+02  0.22598946076E+02  0.75519833049E+03  0.76877687185E+03  0.12509004941E+03 0.  0.
         24    2    1    2    0    0  0.54899761044E+02  0.19404947714E+02  0.94157180376E+03  0.94668616401E+03  0.79162464176E+02 0.  0.
        -13    1    5    5    0    0  0.16868448859E+02  0.17737371829E+01  0.32601915284E+02  0.36750178104E+02  0.00000000000E+00 0.  1.
         14    1    5    5    0    0  0.38031312185E+02  0.17631210531E+02  0.90896988847E+03  0.90993598590E+03  0.00000000000E+00 0. -1.
         13    1    3    3    0    0 -0.52725439846E+01 -0.48275338135E+02 -0.13859313155E+03  0.14685490835E+03  0.00000000000E+00 0. -1.
        -14    1    3    3    0    0  0.17716138131E+02  0.62714443448E+01 -0.35739257352E+03  0.35788635651E+03  0.00000000000E+00 0.  1.
          5    1    4    4  501    0 -0.88160161796E+02 -0.24996307760E+02  0.47854000491E+03  0.48725254051E+03  0.41800000000E+01 0. -1.
         -5    1    4    4    0  501  0.20816806606E+02  0.47595253835E+02  0.27665832558E+03  0.28152433135E+03  0.41800000000E+01 0. -1.
</event>
<event>
11    1  0.7577197E-009  0.1611790E+03  0.7561462E-02  0.1085974E+00
         22   -1    0    0    0    0  0.00000000000E+00  0.00000000000E+00  0.56193986693E+03  0.56193986693E+03  0.00000000000E+00 0. -1.
         22   -1    0    0    0    0 -0.00000000000E+00 -0.00000000000E+00 -0.10947187738E+03  0.10947187738E+03  0.00000000000E+00 0. -1.
        -24    2    1    2    0    0  0.70406575177E+02  0.49000245994E+02  0.12445429821E+02  0.11829507547E+03  0.80502957845E+02 0.  0.
         25    2    1    2    0    0 -0.13462006652E+03 -0.72080450065E+02  0.16076651869E+03  0.25458082068E+03  0.12508943656E+03 0.  0.
         24    2    1    2    0    0  0.64213491339E+02  0.23080204071E+02  0.27925604105E+03  0.29853584816E+03  0.80521102119E+02 0.  0.
        -13    1    5    5    0    0 -0.40356400855E+01  0.33119967789E+02  0.59616492963E+02  0.68317969016E+02  0.00000000000E+00 0.  1.
         14    1    5    5    0    0  0.68249131424E+02 -0.10039763718E+02  0.21963954808E+03  0.23021787915E+03  0.00000000000E+00 0. -1.
         11    1    3    3    0    0  0.70607212791E+02  0.68356989755E+02  0.99772305235E+01  0.98780573371E+02  0.00000000000E+00 0. -1.
        -12    1    3    3    0    0 -0.20063761393E+00 -0.19356743761E+02  0.24681992979E+01  0.19514502101E+02  0.00000000000E+00 0.  1.
          5    1    4    4  501    0 -0.10293002606E+03 -0.10803045507E+03  0.12304066134E+03  0.19344675296E+03  0.41800000000E+01 0.  1.
         -5    1    4    4    0  501 -0.31690040456E+02  0.35950005005E+02  0.37725857346E+02  0.61134067724E+02  0.41800000000E+01 0.  1.
</event>
<event>
11    1  0.7577197E-009  0.1850597E+03  0.7561462E-02  0.1065622E+00
         22   -1    0    0    0    0  0.00000000000E+00  0.00000000000E+00  0.85092827091E+03  0.85092827091E+03  0.00000000000E+00 0. -1.
         22   -1    0    0    0    0 -0.00000000000E+00 -0.00000000000E+00 -0.19246491994E+03  0.19246491994E+03  0.00000000000E+00 0. -1.
        -24    2    1    2    0    0 -0.63101640548E+02 -0.40747860793E+01  0.28600397073E+02  0.10536626820E+03  0.79282071365E+02 0.  0.
         25    2    1    2    0    0  0.14778359503E+03  0.10785105142E+03 -0.61013371008E+02  0.22987359591E+03  0.12508956152E+03 0.  0.
         24    2    1    2    0    0 -0.84681954480E+02 -0.10377626534E+03  0.69087632490E+03  0.70815332675E+03  0.78933460684E+02 0.  0.
        -13    1    5    5    0    0  0.14531410886E+02 -0.16720292617E+02  0.70815521132E+02  0.74199515637E+02  0.00000000000E+00 0.  1.
         14    1    5    5    0    0 -0.99213365366E+02 -0.87055972721E+02  0.62006080377E+03  0.63395381111E+03  0.00000000000E+00 0. -1.
         11    1    3    3    0    0 -0.55251283439E+02 -0.37285852760E+02  0.13310899961E+02  0.67971458682E+02  0.00000000000E+00 0. -1.
        -12    1    3    3    0    0 -0.78503571092E+01  0.33211066681E+02  0.15289497112E+02  0.37394809516E+02  0.00000000000E+00 0.  1.
          5    1    4    4  501    0  0.30033175530E+02 -0.59556096451E+01  0.29496355300E+02  0.42719647642E+02  0.41800000000E+01 0.  1.
         -5    1    4    4    0  501  0.11775041950E+03  0.11380666106E+03 -0.90509726308E+02  0.18715394826E+03  0.41800000000E+01 0.  1.
</event>
<event>
11    1  0.7577197E-009  0.2900623E+03  0.7561462E-02  0.1004487E+00
         22   -1    0    0    0    0  0.00000000000E+00  0.00000000000E+00  0.56723493871E+02  0.56723493871E+02  0.00000000000E+00 0.  1.
         22   -1    0    0    0    0 -0.00000000000E+00 -0.00000000000E+00 -0.22364857448E+04  0.22364857448E+04  0.00000000000E+00 0.  1.
        -24    2    1    2    0    0 -0.59108933998E+02 -0.25757427466E+02 -0.70924657345E+03  0.71675650596E+03  0.80943657831E+02 0.  0.
         25    2    1    2    0    0  0.28274211001E+03 -0.60023438071E+02 -0.78581055617E+03  0.84657652357E+03  0.12509063189E+03 0.  0.
         24    2    1    2    0    0 -0.22363317601E+03  0.85780865537E+02 -0.68470512134E+03  0.72987620917E+03  0.80796183146E+02 0.  0.
        -13    1    5    5    0    0 -0.20494514527E+03  0.83248444329E+02 -0.67111304049E+03  0.70662969734E+03  0.00000000000E+00 0.  1.
         14    1    5    5    0    0 -0.18688030740E+02  0.25324212079E+01 -0.13592080857E+02  0.23246511827E+02  0.00000000000E+00 0. -1.
         11    1    3    3    0    0 -0.21902790728E+02 -0.31723692217E+01 -0.37081351081E+02  0.43183593715E+02  0.00000000000E+00 0. -1.
        -12    1    3    3    0    0 -0.37206143270E+02 -0.22585058244E+02 -0.67216522237E+03  0.67357291225E+03  0.00000000000E+00 0.  1.
          5    1    4    4  501    0  0.12366491307E+02  0.22513889249E+02 -0.12740340278E+03  0.13003424455E+03  0.41800000000E+01 0. -1.
         -5    1    4    4    0  501  0.27037561870E+03 -0.82537327321E+02 -0.65840715338E+03  0.71654227902E+03  0.41800000000E+01 0. -1.
</event>
<event>
11    1  0.7577197E-009  0.1379302E+03  0.7561462E-02  0.1109892E+00
         22   -1    0    0    0    0  0.00000000000E+00  0.00000000000E+00  0.11145306032E+04  0.11145306032E+04  0.00000000000E+00 0. -1.
         22   -1    0    0    0    0 -0.00000000000E+00 -0.00000000000E+00 -0.72220369814E+03  0.72220369814E+03  0.00000000000E+00 0. -1.
        -24    2    1    2    0    0  0.56872894094E+02 -0.10534320248E+02 -0.69045102354E+03  0.69761110646E+03  0.81198164808E+02 0.  0.
         25    2    1    2    0    0 -0.70012223074E+02  0.26086312574E+02  0.17547119951E+03  0.22807827004E+03  0.12508936136E+03 0.  0.
         24    2    1    2    0    0  0.13139328981E+02 -0.15551992326E+02  0.90730672909E+03  0.91104492484E+03  0.79892727999E+02 0.  0.
        -13    1    5    5    0    0  0.39361710238E+02 -0.26031071694E+02  0.37009258035E+03  0.37308910324E+03  0.00000000000E+00 0.  1.
         14    1    5    5    0    0 -0.26222381257E+02  0.10479079367E+02  0.53721414874E+03  0.53795582160E+03  0.00000000000E+00 0. -1.
         13    1    3    3    0    0  0.63223434970E+02 -0.61017067655E+01 -0.68546237001E+03  0.68839893540E+03  0.00000000000E+00 0. -1.
        -14    1    3    3    0    0 -0.63505408765E+01 -0.44326134822E+01 -0.49886535270E+01  0.92121710643E+01  0.00000000000E+00 0.  1.
          5    1    4    4  501    0 -0.78621348403E+02  0.51102143739E+02  0.64419770007E+02  0.11384254340E+03  0.41800000000E+01 0. -1.
         -5    1    4    4    0  501  0.86091253288E+01 -0.25015831165E+02  0.11105142950E+03  0.11423572664E+03  0.41800000000E+01 0. -1.
</event>
<event>
11    1  0.7577197E-009  0.1964251E+03  0.7561462E-02  0.1057081E+00
         22   -1    0    0    0    0  0.00000000000E+00  0.00000000000E+00  0.27594888299E+03  0.27594888299E+03  0.00000000000E+00 0.  1.
         22   -1    0    0    0    0 -0.00000000000E+00 -0.00000000000E+00 -0.43544511527E+04  0.43544511527E+04  0.00000000000E+00 0. -1.
         24    2    1    2    0    0 -0.71177132136E+02  0.34079536444E+02 -0.42211859065E+04  0.42226966080E+04  0.80799674005E+02 0.  0.
         25    2    1    2    0    0  0.19385074105E+03 -0.33707106364E+02  0.89831607192E+02  0.24986542523E+03  0.12509490097E+03 0.  0.
        -24    2    1    2    0    0 -0.12267360891E+03 -0.37243007984E+00  0.52852029504E+02  0.15783800252E+03  0.84086532747E+02 0.  0.
        -11    1    3    3    0    0 -0.62015568158E+02  0.12099187715E+02 -0.14153623265E+04  0.14167719776E+04  0.00000000000E+00 0.  1.
         12    1    3    3    0    0 -0.91615639772E+01  0.21980348729E+02 -0.28058235799E+04  0.28059246304E+04  0.00000000000E+00 0. -1.
         13    1    5    5    0    0 -0.73814917527E+02 -0.41616348435E+02  0.28119481849E+02  0.89281956554E+02  0.00000000000E+00 0. -1.
        -14    1    5    5    0    0 -0.48858691387E+02  0.41243918356E+02  0.24732547655E+02  0.68556045969E+02  0.00000000000E+00 0.  1.
          5    1    4    4  501    0  0.16865031894E+03 -0.11394459437E+02  0.11765782828E+03  0.20599417647E+03  0.41800000000E+01 0. -1.
         -5    1    4    4    0  501  0.25200422110E+02 -0.22312646927E+02 -0.27826221090E+02  0.43871248758E+02  0.41800000000E+01 0. -1.
</event>
<event>
11    1  0.7577197E-009  0.1518389E+03  0.7561462E-02  0.1095014E+00
         22   -1    0    0    0    0  0.00000000000E+00  0.00000000000E+00  0.18760260748E+04  0.18760260748E+04  0.00000000000E+00 0. -1.
         22   -1    0    0    0    0 -0.00000000000E+00 -0.00000000000E+00 -0.29329850929E+03  0.29329850929E+03  0.00000000000E+00 0.  1.
         24    2    1    2    0    0 -0.82969153825E+02 -0.15187745584E+02 -0.19566296869E+03  0.22659004002E+03  0.77100588941E+02 0.  0.
         25    2    1    2    0    0  0.16698465018E+03  0.18683514759E+02  0.56520434846E+02  0.21696676869E+03  0.12508825700E+03 0.  0.
        -24    2    1    2    0    0 -0.84015496358E+02 -0.34957691750E+01  0.17218700993E+04  0.17257677754E+04  0.79793179601E+02 0.  0.
        -13    1    3    3    0    0 -0.33261273211E+02  0.85561827527E+01 -0.15329207673E+03  0.15709227017E+03  0.00000000000E+00 0.  1.
         14    1    3    3    0    0 -0.49707880613E+02 -0.23743928336E+02 -0.42370891960E+02  0.69497769844E+02  0.00000000000E+00 0. -1.
         11    1    5    5    0    0 -0.89589082554E+02 -0.23823373439E+02  0.12532627711E+04  0.12566866476E+04  0.00000000000E+00 0. -1.
        -12    1    5    5    0    0  0.55735861962E+01  0.20327604264E+02  0.46860732826E+03  0.46908112780E+03  0.00000000000E+00 0.  1.
          5    1    4    4  501    0  0.16716922768E+03  0.20935770577E+02  0.84543113051E+02  0.18854407320E+03  0.41800000000E+01 0.  1.
         -5    1    4    4    0  501 -0.18457749864E+00 -0.22522558183E+01 -0.28022678205E+02  0.28422695490E+02  0.41800000000E+01 0.  1.
</event>
<event>
11    1  0.7577197E-009  0.1490451E+03  0.7561462E-02  0.1097859E+00
         22   -1    0    0    0    0  0.00000000000E+00  0.00000000000E+00  0.78233207560E+03  0.78233207560E+03  0.00000000000E+00 0.  1.
         22   -1    0    0    0    0 -0.00000000000E+00 -0.00000000000E+00 -0.14680837196E+03  0.14680837196E+03  0.00000000000E+00 0.  1.
        -24    2    1    2    0    0  0.15597211149E+02 -0.31553112473E+01 -0.10492670052E+03  0.13229072596E+03  0.78980976868E+02 0.  0.
         25    2    1    2    0    0 -0.59945467177E+02  0.67548890880E+02  0.25793709987E+03  0.30056069511E+03  0.12509545259E+03 0.  0.
         24    2    1    2    0    0  0.44348256028E+02 -0.64393579633E+02  0.48251330430E+03  0.49628902650E+03  0.85851080890E+02 0.  0.
        -13    1    5    5    0    0  0.26202786884E+02 -0.79696756197E+02  0.43676543142E+03  0.44474959367E+03  0.00000000000E+00 0.  1.
         14    1    5    5    0    0  0.18145469144E+02  0.15303176564E+02  0.45747872881E+02  0.51539432831E+02  0.00000000000E+00 0. -1.
         11    1    3    3    0    0  0.82791430983E+00 -0.15086448802E+02  0.84660911039E+01  0.17319384462E+02  0.00000000000E+00 0. -1.
        -12    1    3    3    0    0  0.14769296839E+02  0.11931137554E+02 -0.11339279163E+03  0.11497134150E+03  0.00000000000E+00 0.  1.
          5    1    4    4  501    0  0.59439570145E+01  0.60904981869E+02  0.41189901274E+02  0.73883880573E+02  0.41800000000E+01 0.  1.
         -5    1    4    4    0  501 -0.65889424191E+02  0.66439090110E+01  0.21674719860E+03  0.22667681453E+03  0.41800000000E+01 0.  1.
</event>
<event>
11    1  0.7577197E-009  0.2462269E+03  0.7561462E-02  0.1025929E+00
         22   -1    0    0    0    0  0.00000000000E+00  0.00000000000E+00  0.59617444936E+03  0.59617444936E+03  0.00000000000E+00 0. -1.
         22   -1    0    0    0    0 -0.00000000000E+00 -0.00000000000E+00 -0.42723027358E+03  0.42723027358E+03  0.00000000000E+00 0.  1.
        -24    2    1    2    0    0 -0.16581927079E+03  0.18354429628E+03 -0.20650540235E+03  0.33256022844E+03  0.82263510011E+02 0.  0.
         25    2    1    2    0    0  0.16943057453E+03 -0.60530213482E+02 -0.63300466352E+02  0.22809618360E+03  0.12510113349E+03 0.  0.
         24    2    1    2    0    0 -0.36113037416E+01 -0.12301408279E+03  0.43875004448E+03  0.46274831091E+03  0.80553656890E+02 0.  0.
        -13    1    5    5    0    0  0.37518381096E+01 -0.99863052692E+02  0.20841087780E+03  0.23113156333E+03  0.00000000000E+00 0.  1.
         14    1    5    5    0    0 -0.73631418512E+01 -0.23151030103E+02  0.23033916667E+03  0.23161674757E+03  0.00000000000E+00 0. -1.
         13    1    3    3    0    0  0.90794805680E+01  0.41311333737E+01 -0.58850696545E+01  0.11581764769E+02  0.00000000000E+00 0. -1.
        -14    1    3    3    0    0 -0.17489875136E+03  0.17941316290E+03 -0.20062033270E+03  0.32097846367E+03  0.00000000000E+00 0.  1.
          5    1    4    4  501    0  0.24583150841E+02 -0.25393188433E+02 -0.70331685181E+02  0.78823623771E+02  0.41800000000E+01 0. -1.
         -5    1    4    4    0  501  0.14484742369E+03 -0.35137025048E+02  0.70312188291E+01  0.14927255983E+03  0.41800000000E+01 0. -1.
</event>
<event>
11    1  0.7577197E-009  0.1371488E+03  0.7561462E-02  0.1110785E+00
         22   -1    0    0    0    0  0.00000000000E+00  0.00000000000E+00  0.12399289579E+04  0.12399289579E+04  0.00000000000E+00 0. -1.
         22   -1    0    0    0    0 -0.00000000000E+00 -0.00000000000E+00 -0.27819899627E+03  0.27819899627E+03  0.00000000000E+00 0. -1.
         24    2    1    2    0    0 -0.18938344180E+02  0.52849998951E+02 -0.25927483410E+03  0.27680807607E+03  0.79041053336E+02 0.  0.
         25    2    1    2    0    0  0.70302790164E+01 -0.66441494769E+02  0.77628364285E+03  0.78913069458E+03  0.12508821654E+03 0.  0.
        -24    2    1    2    0    0  0.11908065163E+02  0.13591495818E+02  0.44472115283E+03  0.45218918347E+03  0.79822447306E+02 0.  0.
        -13    1    3    3    0    0  0.26011531518E+01  0.32267023172E+02 -0.25678785034E+02  0.41319811023E+02  0.00000000000E+00 0.  1.
         14    1    3    3    0    0 -0.21539497332E+02  0.20582975778E+02 -0.23359604907E+03  0.23548826505E+03  0.00000000000E+00 0. -1.
         13    1    5    5    0    0  0.35228392734E+02  0.32010390620E+02  0.34061301137E+03  0.34392285222E+03  0.00000000000E+00 0. -1.
        -14    1    5    5    0    0 -0.23320327570E+02 -0.18418894803E+02  0.10410814146E+03  0.10826633125E+03  0.00000000000E+00 0.  1.
          5    1    4    4  501    0  0.18341820248E+02  0.14082825366E+02  0.28551534598E+02  0.36978519011E+02  0.41800000000E+01 0. -1.
         -5    1    4    4    0  501 -0.11311541232E+02 -0.80524320134E+02  0.74773210826E+03  0.75215217557E+03  0.41800000000E+01 0. -1.
</event>
<event>
11    1  0.7577197E-009  0.6582403E+03  0.7561462E-02  0.9096212E-01
         22   -1    0    0    0    0  0.00000000000E+00  0.00000000000E+00  0.15523149017E+04  0.15523149017E+04  0.00000000000E+00 0. -1.
         22   -1    0    0    0    0 -0.00000000000E+00 -0.00000000000E+00 -0.39752879667E+03  0.39752879667E+03  0.00000000000E+00 0. -1.
        -24    2    1    2    0    0  0.14851007080E+02 -0.12822972960E+03  0.97778659196E+01  0.15413505749E+03  0.83657595722E+02 0.  0.
         25    2    1    2    0    0  0.14029002485E+03 -0.46799529354E+03  0.12743851430E+02  0.50449039048E+03  0.12508901829E+03 0.  0.
         24    2    1    2    0    0 -0.15514103193E+03  0.59622502314E+03  0.11322643877E+04  0.12912182504E+04  0.75292154354E+02 0.  0.
        -13    1    5    5    0    0  0.15874336368E+01  0.43101504260E+02  0.52510725013E+02  0.67953188714E+02  0.00000000000E+00 0.  1.
         14    1    5    5    0    0 -0.15672846557E+03  0.55312351888E+03  0.10797536627E+04  0.12232650617E+04  0.00000000000E+00 0. -1.
         11    1    3    3    0    0  0.49028880235E+02 -0.90208534128E+02  0.79246056606E+01  0.10297674544E+03  0.00000000000E+00 0. -1.
        -12    1    3    3    0    0 -0.34177873155E+02 -0.38021195472E+02  0.18532602590E+01  0.51158312053E+02  0.00000000000E+00 0.  1.
          5    1    4    4  501    0  0.11527680318E+03 -0.46155647031E+03  0.23189889115E+02  0.47631749915E+03  0.41800000000E+01 0. -1.
         -5    1    4    4    0  501  0.25013221671E+02 -0.64388232262E+01 -0.10446037685E+02  0.28172891336E+02  0.41800000000E+01 0. -1.
</event>
<event>
11    1  0.7577197E-009  0.1496112E+03  0.7561462E-02  0.1097277E+00
         22   -1    0    0    0    0  0.00000000000E+00  0.00000000000E+00  0.86187374790E+03  0.86187374790E+03  0.00000000000E+00 0.  1.
         22   -1    0    0    0    0 -0.00000000000E+00 -0.00000000000E+00 -0.23732527092E+03  0.23732527092E+03  0.00000000000E+00 0.  1.
         24    2    1    2    0    0  0.72193776806E+02 -0.27375746966E+02 -0.11986210420E+03  0.16414017393E+03  0.81324656429E+02 0.  0.
         25    2    1    2    0    0 -0.10135564807E+03  0.30762720563E+01 -0.22780843120E+02  0.16262713778E+03  0.12508472442E+03 0.  0.
        -24    2    1    2    0    0  0.29161871266E+02  0.24299474909E+02  0.76719142430E+03  0.77243170710E+03  0.81407502102E+02 0.  0.
        -11    1    3    3    0    0  0.20097364197E+02 -0.17636991412E+01 -0.10115708781E+03  0.10314926609E+03  0.00000000000E+00 0.  1.
         12    1    3    3    0    0  0.52096412609E+02 -0.25612047825E+02 -0.18705016396E+02  0.60990907838E+02  0.00000000000E+00 0. -1.
         11    1    5    5    0    0  0.38684605935E+02  0.41645266006E+02  0.33502968308E+03  0.33981717947E+03  0.00000000000E+00 0. -1.
        -12    1    5    5    0    0 -0.95227346688E+01 -0.17345791097E+02  0.43216174122E+03  0.43261452764E+03  0.00000000000E+00 0.  1.
          5    1    4    4  501    0  0.73046712950E+01 -0.32159466575E+02 -0.34270144976E+02  0.47744159327E+02  0.41800000000E+01 0.  1.
         -5    1    4    4    0  501 -0.10866031937E+03  0.35235738632E+02  0.11489301856E+02  0.11488297846E+03  0.41800000000E+01 0.  1.
</event>
<event>
11    1  0.7577197E-009  0.1848452E+03  0.7561462E-02  0.1065790E+00
         22   -1    0    0    0    0  0.00000000000E+00  0.00000000000E+00  0.21540369381E+04  0.21540369381E+04  0.00000000000E+00 0. -1.
         22   -1    0    0    0    0 -0.00000000000E+00 -0.00000000000E+00 -0.51093863850E+03  0.51093863850E+03  0.00000000000E+00 0. -1.
         24    2    1    2    0    0 -0.13032889554E+02  0.14992744491E+02 -0.46274857486E+03  0.47028760093E+03  0.81483406057E+02 0.  0.
         25    2    1    2    0    0  0.83903915501E+02 -0.12949187873E+03  0.19835606854E+03  0.28071464534E+03  0.12509024139E+03 0.  0.
        -24    2    1    2    0    0 -0.70871025947E+02  0.11449913424E+03  0.19074908059E+04  0.19139733303E+04  0.81486075139E+02 0.  0.
        -11    1    3    3    0    0 -0.28580747642E+02  0.69841347967E+01 -0.56847924421E+02  0.64010341239E+02  0.00000000000E+00 0.  1.
         12    1    3    3    0    0  0.15547858089E+02  0.80086096945E+01 -0.40590065044E+03  0.40627725969E+03  0.00000000000E+00 0. -1.
         13    1    5    5    0    0 -0.64955416168E+02  0.12226550642E+03  0.18734912224E+04  0.18785998564E+04  0.00000000000E+00 0. -1.
        -14    1    5    5    0    0 -0.59156097797E+01 -0.77663721766E+01  0.33999583539E+02  0.35373473913E+02  0.00000000000E+00 0.  1.
          5    1    4    4  501    0  0.29782770520E+02  0.17477404281E+02  0.10996981993E+02  0.36481215621E+02  0.41800000000E+01 0.  1.
         -5    1    4    4    0  501  0.54121144981E+02 -0.14696928301E+03  0.18735908655E+03  0.24423342972E+03  0.41800000000E+01 0.  1.
</event>
<event>
11    1  0.7577197E-009  0.1526909E+03  0.7561462E-02  0.1094160E+00
         22   -1    0    0    0    0  0.00000000000E+00  0.00000000000E+00  0.38043545886E+03  0.38043545886E+03  0.00000000000E+00 0. -1.
         22   -1    0    0    0    0 -0.00000000000E+00 -0.00000000000E+00 -0.73482616389E+03  0.73482616389E+03  0.00000000000E+00 0. -1.
         24    2    1    2    0    0  0.85294373744E+02 -0.25906472558E+02 -0.62124217430E+03  0.63260291500E+03  0.79362040206E+02 0.  0.
         25    2    1    2    0    0 -0.83899268369E+02 -0.40272156111E+02 -0.38047636475E+02  0.16048850694E+03  0.12509198387E+03 0.  0.
        -24    2    1    2    0    0 -0.13951053745E+01  0.66178628669E+02  0.30489910574E+03  0.32217020082E+03  0.80303277643E+02 0.  0.
        -13    1    3    3    0    0  0.36337489089E+02 -0.15241500671E+02 -0.81353407028E+02  0.90394099869E+02  0.00000000000E+00 0.  1.
         14    1    3    3    0    0  0.48956884655E+02 -0.10664971887E+02 -0.53988876727E+03  0.54220881513E+03  0.00000000000E+00 0. -1.
         11    1    5    5    0    0 -0.30779071857E+01  0.17112106863E+02  0.24081318378E+03  0.24144002816E+03  0.00000000000E+00 0. -1.
        -12    1    5    5    0    0  0.16828018112E+01  0.49066521805E+02  0.64085921964E+02  0.80730172662E+02  0.00000000000E+00 0.  1.
          5    1    4    4  501    0 -0.11205211548E+03 -0.49736015559E+02 -0.43210560757E+02  0.13005373039E+03  0.41800000000E+01 0. -1.
         -5    1    4    4    0  501  0.28152847114E+02  0.94638594480E+01  0.51629242817E+01  0.30434776547E+02  0.41800000000E+01 0. -1.
</event>
<event>
11    1  0.7577197E-009  0.4869259E+03  0.7561462E-02  0.9423220E-01
         22   -1    0    0    0    0  0.00000000000E+00  0.00000000000E+00  0.13291469667E+04  0.13291469667E+04  0.00000000000E+00 0.  1.
         22   -1    0    0    0    0 -0.00000000000E+00 -0.00000000000E+00 -0.40950047840E+03  0.40950047840E+03  0.00000000000E+00 0. -1.
        -24    2    1    2    0    0 -0.47116452979E+03 -0.14439228311E+03 -0.12180139569E+02  0.49927714612E+03  0.79272739856E+02 0.  0.
         25    2    1    2    0    0  0.45384195620E+03 -0.41116840170E+02  0.26479559650E+03  0.54169054165E+03  0.12509524064E+03 0.  0.
         24    2    1    2    0    0  0.17322573588E+02  0.18550912328E+03  0.66703103140E+03  0.69767975737E+03  0.84338251173E+02 0.  0.
        -13    1    5    5    0    0 -0.30300298194E+02  0.99146134044E+02  0.29042061485E+03  0.30837022797E+03  0.00000000000E+00 0.  1.
         14    1    5    5    0    0  0.47622871782E+02  0.86362989238E+02  0.37661041655E+03  0.38930952940E+03  0.00000000000E+00 0. -1.
         11    1    3    3    0    0 -0.19105313818E+03 -0.45091622313E+02 -0.41504873267E+02  0.20064199589E+03  0.00000000000E+00 0. -1.
        -12    1    3    3    0    0 -0.28011139161E+03 -0.99300660798E+02  0.29324733699E+02  0.29863515022E+03  0.00000000000E+00 0.  1.
          5    1    4    4  501    0  0.32144120281E+03 -0.17039031337E+02  0.24725541061E+03  0.40591561429E+03  0.41800000000E+01 0.  1.
         -5    1    4    4    0  501  0.13240075339E+03 -0.24077808833E+02  0.17540185894E+02  0.13577492735E+03  0.41800000000E+01 0.  1.
</event>
<event>
11    1  0.7577197E-009  0.1348150E+03  0.7561462E-02  0.1113490E+00
         22   -1    0    0    0    0  0.00000000000E+00  0.00000000000E+00  0.22005691785E+04  0.22005691785E+04  0.00000000000E+00 0.  1.
         22   -1    0    0    0    0 -0.00000000000E+00 -0.00000000000E+00 -0.23292645046E+03  0.23292645046E+03  0.00000000000E+00 0. -1.
         24    2    1    2    0    0  0.21028096486E+02  0.45399053185E+02 -0.21610010979E+03  0.23455385386E+03  0.76243019599E+02 0.  0.
         25    2    1    2    0    0 -0.19984074319E+02 -0.53956674095E+02  0.72498131216E+03  0.73795072687E+03  0.12515065484E+03 0.  0.
        -24    2    1    2    0    0 -0.10440221673E+01  0.85576209096E+01  0.14587615256E+04  0.14609910482E+04  0.80220517087E+02 0.  0.
        -11    1    3    3    0    0  0.33847351035E+02 -0.42861798158E+01 -0.48669224610E+02  0.59436587500E+02  0.00000000000E+00 0.  1.
         12    1    3    3    0    0 -0.12819254548E+02  0.49685233001E+02 -0.16743088518E+03  0.17511726636E+03  0.00000000000E+00 0. -1.
         11    1    5    5    0    0 -0.11262722821E+02  0.10914644228E+01  0.28367574158E+02  0.30541111367E+02  0.00000000000E+00 0. -1.
        -12    1    5    5    0    0  0.10218700654E+02  0.74661564868E+01  0.14303939515E+04  0.14304499368E+04  0.00000000000E+00 0.  1.
          5    1    4    4  501    0  0.12370366768E+02 -0.87965757058E+02  0.41628414415E+03  0.42567706240E+03  0.41800000000E+01 0.  1.
         -5    1    4    4    0  501 -0.32354441087E+02  0.34009082963E+02  0.30869716801E+03  0.31227366447E+03  0.41800000000E+01 0.  1.
</event>
<event>
11    1  0.7577197E-009  0.1457535E+03  0.7561462E-02  0.1101299E+00
         22   -1    0    0    0    0  0.00000000000E+00  0.00000000000E+00  0.38762681888E+03  0.38762681888E+03  0.00000000000E+00 0. -1.
         22   -1    0    0    0    0 -0.00000000000E+00 -0.00000000000E+00 -0.18984955318E+03  0.18984955318E+03  0.00000000000E+00 0.  1.
        -24    2    1    2    0    0  0.21598236537E+02  0.13694277839E+01 -0.11860573796E+03  0.14497401273E+03  0.80509528221E+02 0.  0.
         25    2    1    2    0    0  0.54244056398E+02 -0.23455129427E+02  0.57608867809E+02  0.14985619346E+03  0.12508211830E+03 0.  0.
         24    2    1    2    0    0 -0.75842292936E+02  0.22085701643E+02  0.25877413585E+03  0.28264616587E+03  0.81761666316E+02 0.  0.
        -11    1    5    5    0    0 -0.64280246827E+02 -0.44221732902E+01  0.85951217151E+02  0.10742028430E+03  0.00000000000E+00 0.  1.
         12    1    5    5    0    0 -0.11562046109E+02  0.26507874933E+02  0.17282291870E+03  0.17522588157E+03  0.00000000000E+00 0. -1.
         11    1    3    3    0    0  0.29751244356E+02 -0.29348993855E+00 -0.39465490718E+01  0.30013295832E+02  0.00000000000E+00 0. -1.
        -12    1    3    3    0    0 -0.81530078192E+01  0.16629177225E+01 -0.11465918889E+03  0.11496071690E+03  0.00000000000E+00 0.  1.
          5    1    4    4  501    0  0.61047397429E+02 -0.68808997263E+02  0.34500995361E+02  0.98332364551E+02  0.41800000000E+01 0. -1.
         -5    1    4    4    0  501 -0.68033410310E+01  0.45353867836E+02  0.23107872448E+02  0.51523828914E+02  0.41800000000E+01 0. -1.
</event>
<event>
11    1  0.7577197E-009  0.1252518E+03  0.7561462E-02  0.1125245E+00
         22   -1    0    0    0    0  0.00000000000E+00  0.00000000000E+00  0.24456834530E+03  0.24456834530E+03  0.00000000000E+00 0.  1.
         22   -1    0    0    0    0 -0.00000000000E+00 -0.00000000000E+00 -0.50816949150E+03  0.50816949150E+03  0.00000000000E+00 0.  1.
         24    2    1    2    0    0 -0.41167244162E+01  0.13269459948E+02 -0.28193586590E+03  0.29332099574E+03  0.79726708645E+02 0.  0.
         25    2    1    2    0    0 -0.29144612102E+02  0.21983384955E+02 -0.19453882226E+03  0.23414942074E+03  0.12509164735E+03 0.  0.
        -24    2    1    2    0    0  0.33261336518E+02 -0.35252844902E+02  0.21287354196E+03  0.22526742033E+03  0.55508433716E+02 0.  0.
        -13    1    3    3    0    0  0.19644255131E+02  0.21506852972E+02 -0.25427142995E+03  0.25593436966E+03  0.00000000000E+00 0.  1.
         14    1    3    3    0    0 -0.23760979548E+02 -0.82373930240E+01 -0.27664435950E+02  0.37386626076E+02  0.00000000000E+00 0. -1.
         13    1    5    5    0    0 -0.19053075299E+00 -0.24215124614E+02  0.15943301063E+03  0.16126156839E+03  0.00000000000E+00 0. -1.
        -14    1    5    5    0    0  0.33451867271E+02 -0.11037720288E+02  0.53440531335E+02  0.64005851939E+02  0.00000000000E+00 0.  1.
          5    1    4    4  501    0 -0.51445738899E+02  0.38145892803E+01 -0.19820565663E+03  0.20485158008E+03  0.41800000000E+01 0. -1.
         -5    1    4    4    0  501  0.22301126797E+02  0.18168795674E+02  0.36668343728E+01  0.29297840654E+02  0.41800000000E+01 0. -1.
</event>
<event>
11    1  0.7577197E-009  0.1641930E+03  0.7561462E-02  0.1083199E+00
         22   -1    0    0    0    0  0.00000000000E+00  0.00000000000E+00  0.22455497621E+03  0.22455497621E+03  0.00000000000E+00 0. -1.
         22   -1    0    0    0    0 -0.00000000000E+00 -0.00000000000E+00 -0.12126682213E+04  0.12126682213E+04  0.00000000000E+00 0.  1.
        -24    2    1    2    0    0 -0.19441191975E+02  0.28737209841E+02 -0.28579002340E+03  0.29888903493E+03  0.80342582431E+02 0.  0.
         25    2    1    2    0    0  0.22542360029E+02 -0.13436724888E+03 -0.88976361481E+03  0.90878587070E+03  0.12509897270E+03 0.  0.
         24    2    1    2    0    0 -0.31011680532E+01  0.10563003903E+03  0.18744039313E+03  0.22954829188E+03  0.79944949430E+02 0.  0.
        -13    1    5    5    0    0 -0.17065843416E+02 -0.15227595245E+01  0.56034818864E+01  0.18026669612E+02  0.00000000000E+00 0.  1.
         14    1    5    5    0    0  0.13964675362E+02  0.10715279856E+03  0.18183691124E+03  0.21152162227E+03  0.00000000000E+00 0. -1.
         11    1    3    3    0    0 -0.14061643346E+02 -0.27565528593E+02 -0.98913450976E+02  0.10364101005E+03  0.00000000000E+00 0. -1.
        -12    1    3    3    0    0 -0.53795486290E+01  0.56302738434E+02 -0.18687657243E+03  0.19524802488E+03  0.00000000000E+00 0.  1.
          5    1    4    4  501    0  0.27092674454E+01 -0.13079042048E+03 -0.87148583005E+03  0.88125960908E+03  0.41800000000E+01 0.  1.
         -5    1    4    4    0  501  0.19833092583E+02 -0.35768284000E+01 -0.18277784761E+02  0.27526261616E+02  0.41800000000E+01 0.  1.
</event>
<event>
11    1  0.7577197E-009  0.1287839E+03  0.7561462E-02  0.1120772E+00
         22   -1    0    0    0    0  0.00000000000E+00  0.00000000000E+00  0.22100143588E+03  0.22100143588E+03  0.00000000000E+00 0. -1.
         22   -1    0    0    0    0 -0.00000000000E+00 -0.00000000000E+00 -0.71486781456E+03  0.71486781456E+03  0.00000000000E+00 0.  1.
        -24    2    1    2    0    0  0.16465036788E+02 -0.17771094050E+02 -0.56613665387E+03  0.57203720448E+03  0.78287567536E+02 0.  0.
         25    2    1    2    0    0  0.98502961171E+00 -0.94764737337E+01 -0.10626664955E+03  0.16440582467E+03  0.12508357422E+03 0.  0.
         24    2    1    2    0    0 -0.17450066399E+02  0.27247567783E+02  0.17853692474E+03  0.19942622130E+03  0.82755359221E+02 0.  0.
        -11    1    5    5    0    0 -0.22348650649E+02  0.45184012779E+02  0.55431906353E+02  0.74924985410E+02  0.00000000000E+00 0.  1.
         12    1    5    5    0    0  0.48985842495E+01 -0.17936444996E+02  0.12310501839E+03  0.12450123589E+03  0.00000000000E+00 0. -1.
         13    1    3    3    0    0  0.32201262401E+02  0.50139012358E+01 -0.10209735452E+03  0.10717243258E+03  0.00000000000E+00 0. -1.
        -14    1    3    3    0    0 -0.15736225613E+02 -0.22784995286E+02 -0.46403929935E+03  0.46486477190E+03  0.00000000000E+00 0.  1.
          5    1    4    4  501    0  0.28883748664E+02  0.93964880538E+01 -0.12285845183E+03  0.12662636578E+03  0.41800000000E+01 0.  1.
         -5    1    4    4    0  501 -0.27898719052E+02 -0.18872961787E+02  0.16591802276E+02  0.37779458892E+02  0.41800000000E+01 0.  1.
</event>
<event>
11    1  0.7577197E-009  0.1519154E+03  0.7561462E-02  0.1094938E+00
         22   -1    0    0    0    0  0.00000000000E+00  0.00000000000E+00  0.15224827875E+03  0.15224827875E+03  0.00000000000E+00 0.  1.
         22   -1    0    0    0    0 -0.00000000000E+00 -0.00000000000E+00 -0.99941820449E+03  0.99941820449E+03  0.00000000000E+00 0.  1.
        -24    2    1    2    0    0 -0.31477968878E+01 -0.80930326524E+02 -0.67434128599E+03  0.68398347953E+03  0.80855450668E+02 0.  0.
         25    2    1    2    0    0  0.88162294441E+02  0.61204468126E+02 -0.26811083494E+03  0.31472182538E+03  0.12509128858E+03 0.  0.
         24    2    1    2    0    0 -0.85014497553E+02  0.19725858398E+02  0.95282195191E+02  0.15296117834E+03  0.81864834174E+02 0.  0.
        -13    1    5    5    0    0 -0.77354863735E+02  0.21475720339E+02  0.11005769134E+03  0.13622656470E+03  0.00000000000E+00 0.  1.
         14    1    5    5    0    0 -0.76596338173E+01 -0.17498619416E+01 -0.14775496150E+02  0.16734613635E+02  0.00000000000E+00 0. -1.
         13    1    3    3    0    0 -0.14443509729E+02 -0.43096431441E+02 -0.12132645707E+03  0.12956089904E+03  0.00000000000E+00 0. -1.
        -14    1    3    3    0    0  0.11295712841E+02 -0.37833895083E+02 -0.55301482892E+03  0.55442258049E+03  0.00000000000E+00 0.  1.
          5    1    4    4  501    0  0.18668040216E+02 -0.15873879538E+02  0.23825782037E+01  0.24972481975E+02  0.41800000000E+01 0. -1.
         -5    1    4    4    0  501  0.69494254224E+02  0.77078347664E+02 -0.27049341314E+03  0.28974934340E+03  0.41800000000E+01 0. -1.
</event>
<event>
11    1  0.7577197E-009  0.1416263E+03  0.7561462E-02  0.1105756E+00
         22   -1    0    0    0    0  0.00000000000E+00  0.00000000000E+00  0.14670364522E+04  0.14670364522E+04  0.00000000000E+00 0. -1.
         22   -1    0    0    0    0 -0.00000000000E+00 -0.00000000000E+00 -0.53364023210E+03  0.53364023210E+03  0.00000000000E+00 0. -1.
         24    2    1    2    0    0 -0.65925995978E+02 -0.85815851543E+01 -0.50594160355E+03  0.51833981444E+03  0.90991079101E+02 0.  0.
         25    2    1    2    0    0  0.68721296933E+02 -0.33198814304E+02  0.25184134158E+03  0.29136554158E+03  0.12508013259E+03 0.  0.
        -24    2    1    2    0    0 -0.27953009552E+01  0.41780399459E+02  0.11874964820E+04  0.11909713282E+04  0.80693211298E+02 0.  0.
        -13    1    3    3    0    0  0.11244171029E+02 -0.26789752266E+02 -0.20837350741E+03  0.21038926018E+03  0.00000000000E+00 0.  1.
         14    1    3    3    0    0 -0.77170167007E+02  0.18208167112E+02 -0.29756809614E+03  0.30795055426E+03  0.00000000000E+00 0. -1.
         11    1    5    5    0    0 -0.25270592682E+02 -0.58065684140E+01  0.72957305983E+03  0.73003367643E+03  0.00000000000E+00 0. -1.
        -12    1    5    5    0    0  0.22475291727E+02  0.47586967873E+02  0.45792342220E+03  0.46093765180E+03  0.00000000000E+00 0.  1.
          5    1    4    4  501    0  0.99819233066E+02 -0.95737294373E+01  0.13583917045E+03  0.16889431078E+03  0.41800000000E+01 0.  1.
         -5    1    4    4    0  501 -0.31097936133E+02 -0.23625084867E+02  0.11600217113E+03  0.12247123080E+03  0.41800000000E+01 0.  1.
</event>
<event>
11    1  0.7577197E-009  0.1527700E+03  0.7561462E-02  0.1094082E+00
         22   -1    0    0    0    0  0.00000000000E+00  0.00000000000E+00  0.68860273547E+03  0.68860273547E+03  0.00000000000E+00 0.  1.
         22   -1    0    0    0    0 -0.00000000000E+00 -0.00000000000E+00 -0.70420442344E+03  0.70420442344E+03  0.00000000000E+00 0. -1.
         24    2    1    2    0    0 -0.61996462809E+02 -0.61950774801E+02 -0.67504686443E+03  0.68527341798E+03  0.78929894940E+02 0.  0.
         25    2    1    2    0    0  0.30708064663E+02  0.98106131011E+02  0.35206099164E+03  0.38750914350E+03  0.12509434951E+03 0.  0.
        -24    2    1    2    0    0  0.31288398146E+02 -0.36155356210E+02  0.30738418481E+03  0.32002459744E+03  0.75130102170E+02 0.  0.
        -13    1    3    3    0    0 -0.16881920724E+02 -0.55816474860E+01 -0.22183583903E+02  0.28430009334E+02  0.00000000000E+00 0.  1.
         14    1    3    3    0    0 -0.45114542086E+02 -0.56369127315E+02 -0.65286328052E+03  0.65684340864E+03  0.00000000000E+00 0. -1.
         11    1    5    5    0    0  0.33761209165E+02  0.15601873750E+02  0.12337500043E+03  0.12885894784E+03  0.00000000000E+00 0. -1.
        -12    1    5    5    0    0 -0.24728110188E+01 -0.51757229960E+02  0.18400918438E+03  0.19116564959E+03  0.00000000000E+00 0.  1.
          5    1    4    4  501    0 -0.91191771710E+01  0.17013225120E+02 -0.39912470762E+01  0.20149731375E+02  0.41800000000E+01 0.  1.
         -5    1    4    4    0  501  0.39827241834E+02  0.81092905892E+02  0.35605223872E+03  0.36735941212E+03  0.41800000000E+01 0.  1.
</event>
<event>
11    1  0.7577197E-009  0.2160577E+03  0.7561462E-02  0.1043715E+00
         22   -1    0    0    0    0  0.00000000000E+00  0.00000000000E+00  0.88375941121E+03  0.88375941121E+03  0.00000000000E+00 0.  1.
         22   -1    0    0    0    0 -0.00000000000E+00 -0.00000000000E+00 -0.20787241696E+04  0.20787241696E+04  0.00000000000E+00 0.  1.
        -24    2    1    2    0    0 -0.18242672147E+03  0.23052436685E+02 -0.18486258874E+04  0.18594654431E+04  0.79894547681E+02 0.  0.
         25    2    1    2    0    0  0.11254065576E+03 -0.72668993076E+02 -0.18244620287E+03  0.25861257715E+03  0.12509063261E+03 0.  0.
         24    2    1    2    0    0  0.69886065712E+02  0.49616556391E+02  0.83610733187E+03  0.84440556063E+03  0.81236787016E+02 0.  0.
        -11    1    5    5    0    0  0.78838222445E+02  0.15773320885E+02  0.65770214842E+03  0.66259820329E+03  0.00000000000E+00 0.  1.
         12    1    5    5    0    0 -0.89521567336E+01  0.33843235506E+02  0.17840518345E+03  0.18180735734E+03  0.00000000000E+00 0. -1.
         11    1    3    3    0    0 -0.43517211512E+02 -0.16031502878E+02 -0.74551959736E+03  0.74696065949E+03  0.00000000000E+00 0. -1.
        -12    1    3    3    0    0 -0.13890950996E+03  0.39083939562E+02 -0.11031062901E+04  0.11125047836E+04  0.00000000000E+00 0.  1.
          5    1    4    4  501    0 -0.19201864198E+02  0.13489140769E+02 -0.38405802207E+02  0.45201178641E+02  0.41800000000E+01 0.  1.
         -5    1    4    4    0  501  0.13174251995E+03 -0.86158133845E+02 -0.14404040066E+03  0.21341139851E+03  0.41800000000E+01 0.  1.
</event>
<event>
11    1  0.7577197E-009  0.1391683E+03  0.7561462E-02  0.1108491E+00
         22   -1    0    0    0    0  0.00000000000E+00  0.00000000000E+00  0.19923655653E+04  0.19923655653E+04  0.00000000000E+00 0.  1.
         22   -1    0    0    0    0 -0.00000000000E+00 -0.00000000000E+00 -0.30274339378E+03  0.30274339378E+03  0.00000000000E+00 0.  1.
        -24    2    1    2    0    0 -0.16234840808E+02 -0.57803365771E+02 -0.18595174130E+03  0.21132966040E+03  0.80482147841E+02 0.  0.
         25    2    1    2    0    0  0.73198818349E+02  0.41469336636E+02 -0.47579633201E+02  0.15808020624E+03  0.12509099576E+03 0.  0.
         24    2    1    2    0    0 -0.56963977541E+02  0.16334029135E+02  0.19231535460E+04  0.19256990924E+04  0.79282645007E+02 0.  0.
        -13    1    5    5    0    0 -0.35148936227E+02  0.38313149164E+02  0.16459794839E+04  0.16468004756E+04  0.00000000000E+00 0.  1.
         14    1    5    5    0    0 -0.21815041314E+02 -0.21979120028E+02  0.27717406214E+03  0.27889861683E+03  0.00000000000E+00 0. -1.
         11    1    3    3    0    0  0.28204350706E+02 -0.16602719436E+02 -0.31540083008E+02  0.45452310476E+02  0.00000000000E+00 0. -1.
        -12    1    3    3    0    0 -0.44439191514E+02 -0.41200646335E+02 -0.15441165830E+03  0.16587734993E+03  0.00000000000E+00 0.  1.
          5    1    4    4  501    0 -0.25684779493E+02  0.29267872793E+01  0.19331345701E+02  0.32549152186E+02  0.41800000000E+01 0.  1.
         -5    1    4    4    0  501  0.98883597843E+02  0.38542549357E+02 -0.66910978902E+02  0.12553105405E+03  0.41800000000E+01 0.  1.
</event>
<event>
11    1  0.7577197E-009  0.1502959E+03  0.7561462E-02  0.1096577E+00
         22   -1    0    0    0    0  0.00000000000E+00  0.00000000000E+00  0.69327902588E+03  0.69327902588E+03  0.00000000000E+00 0.  1.
         22   -1    0    0    0    0 -0.00000000000E+00 -0.00000000000E+00 -0.64825894333E+03  0.64825894333E+03  0.00000000000E+00 0.  1.
        -24    2    1    2    0    0  0.18766371300E+02  0.81863417786E+02 -0.59763526308E+03  0.60869910493E+03  0.79327780777E+02 0.  0.
         25    2    1    2    0    0  0.70495290339E+01 -0.71461792407E+02  0.82953933678E+02  0.16638815782E+03  0.12508868981E+03 0.  0.
         24    2    1    2    0    0 -0.25815900333E+02 -0.10401625379E+02  0.55970141196E+03  0.56645070646E+03  0.82620080973E+02 0.  0.
        -11    1    5    5    0    0 -0.31756458939E+02 -0.21534684135E+01  0.55376585280E+03  0.55467984445E+03  0.00000000000E+00 0.  1.
         12    1    5    5    0    0  0.59405586054E+01 -0.82481569655E+01  0.59355591511E+01  0.11770862004E+02  0.00000000000E+00 0. -1.
         13    1    3    3    0    0 -0.53771481863E+01 -0.13294170321E+02 -0.40112496294E+02  0.42598838554E+02  0.00000000000E+00 0. -1.
        -14    1    3    3    0    0  0.24143519486E+02  0.95157588107E+02 -0.55752276678E+03  0.56610026637E+03  0.00000000000E+00 0.  1.
          5    1    4    4  501    0 -0.50775340749E+02  0.15604398801E+01  0.27838544544E+02  0.58077768235E+02  0.41800000000E+01 0. -1.
         -5    1    4    4    0  501  0.57824869783E+02 -0.73022232287E+02  0.55115389133E+02  0.10831038959E+03  0.41800000000E+01 0. -1.
</event>
<event>
11    1  0.7577197E-009  0.1506741E+03  0.7561462E-02  0.1096192E+00
         22   -1    0    0    0    0  0.00000000000E+00  0.00000000000E+00  0.13731829689E+03  0.13731829689E+03  0.00000000000E+00 0. -1.
         22   -1    0    0    0    0 -0.00000000000E+00 -0.00000000000E+00 -0.12333707922E+04  0.12333707922E+04  0.00000000000E+00 0.  1.
         24    2    1    2    0    0  0.71093183530E+02 -0.28482025916E+02 -0.81581589118E+03  0.82335244060E+03  0.80549404696E+02 0.  0.
         25    2    1    2    0    0 -0.11743816038E+03  0.35983395052E+02 -0.37276994129E+03  0.41193620806E+03  0.12508990426E+03 0.  0.
        -24    2    1    2    0    0  0.46344976855E+02 -0.75013691351E+01  0.92533337165E+02  0.13540044043E+03  0.86986972379E+02 0.  0.
        -13    1    3    3    0    0  0.87800084183E+02 -0.32921657365E+02 -0.67628251260E+03  0.68275231757E+03  0.00000000000E+00 0.  1.
         14    1    3    3    0    0 -0.16706900653E+02  0.44396314483E+01 -0.13953337858E+03  0.14060012303E+03  0.00000000000E+00 0. -1.
         11    1    5    5    0    0  0.69143040084E+02 -0.14973592538E+02  0.50218392170E+02  0.86757451425E+02  0.00000000000E+00 0. -1.
        -12    1    5    5    0    0 -0.22798063230E+02  0.74722234031E+01  0.42314944995E+02  0.48642989007E+02  0.00000000000E+00 0.  1.
          5    1    4    4  501    0  0.25382515274E+02 -0.36613849426E+01 -0.41031383327E+02  0.48566702987E+02  0.41800000000E+01 0. -1.
         -5    1    4    4    0  501 -0.14282067566E+03  0.39644779994E+02 -0.33173855797E+03  0.36336950507E+03  0.41800000000E+01 0. -1.
</event>
<event>
11    1  0.7577197E-009  0.1500963E+03  0.7561462E-02  0.1096780E+00
         22   -1    0    0    0    0  0.00000000000E+00  0.00000000000E+00  0.11196402961E+04  0.11196402961E+04  0.00000000000E+00 0.  1.
         22   -1    0    0    0    0 -0.00000000000E+00 -0.00000000000E+00 -0.64678026914E+03  0.64678026914E+03  0.00000000000E+00 0.  1.
        -24    2    1    2    0    0  0.71541195323E+02  0.22019896616E+02 -0.53779773953E+03  0.54926752559E+03  0.82857634249E+02 0.  0.
         25    2    1    2    0    0 -0.15224236248E+03 -0.18270119332E+02 -0.22506509270E+01  0.19789806925E+03  0.12508815367E+03 0.  0.
         24    2    1    2    0    0  0.80701167158E+02 -0.37497772833E+01  0.10129084174E+04  0.10192549704E+04  0.79815370787E+02 0.  0.
        -11    1    5    5    0    0  0.87428761232E+02 -0.24732865402E+02  0.76756717042E+03  0.77292616984E+03  0.00000000000E+00 0.  1.
         12    1    5    5    0    0 -0.67275940742E+01  0.20983088119E+02  0.24534124698E+03  0.24632880054E+03  0.00000000000E+00 0. -1.
         11    1    3    3    0    0  0.78562471679E+02  0.15358454272E+02 -0.27815737073E+03  0.28944682925E+03  0.00000000000E+00 0. -1.
        -12    1    3    3    0    0 -0.70212763565E+01  0.66614423435E+01 -0.25964036880E+03  0.25982069634E+03  0.00000000000E+00 0.  1.
          5    1    4    4  501    0 -0.15041464073E+03 -0.48137070157E+00 -0.40189631597E+02  0.15574811315E+03  0.41800000000E+01 0.  1.
         -5    1    4    4    0  501 -0.18277217532E+01 -0.17788748631E+02  0.37938980670E+02  0.42149956097E+02  0.41800000000E+01 0.  1.
</event>
<event>
11    1  0.7577197E-009  0.1585232E+03  0.7561462E-02  0.1088475E+00
         22   -1    0    0    0    0  0.00000000000E+00  0.00000000000E+00  0.87829699656E+03  0.87829699656E+03  0.00000000000E+00 0.  1.
         22   -1    0    0    0    0 -0.00000000000E+00 -0.00000000000E+00 -0.11796472979E+03  0.11796472979E+03  0.00000000000E+00 0.  1.
        -24    2    1    2    0    0  0.65467185605E+02 -0.43532529018E+02 -0.27453463153E+02  0.11551204782E+03  0.80051902403E+02 0.  0.
         25    2    1    2    0    0 -0.11307637284E+03  0.11823460816E+03  0.21872706979E+03  0.30042542524E+03  0.12509283117E+03 0.  0.
         24    2    1    2    0    0  0.47609187231E+02 -0.74702079145E+02  0.56905866014E+03  0.58032425329E+03  0.71424400186E+02 0.  0.
        -11    1    5    5    0    0  0.61168802163E+02 -0.58925251152E+02  0.34496354486E+03  0.35526561171E+03  0.00000000000E+00 0.  1.
         12    1    5    5    0    0 -0.13559614932E+02 -0.15776827993E+02  0.22409511528E+03  0.22505864158E+03  0.00000000000E+00 0. -1.
         11    1    3    3    0    0  0.12804149022E+02 -0.13588644469E+02  0.27820220945E+02  0.33504659140E+02  0.00000000000E+00 0. -1.
        -12    1    3    3    0    0  0.52663036583E+02 -0.29943884549E+02 -0.55273684098E+02  0.82007388678E+02  0.00000000000E+00 0.  1.
          5    1    4    4  501    0 -0.19374929756E+02  0.10979017526E+03  0.11187376722E+03  0.15799519828E+03  0.41800000000E+01 0. -1.
         -5    1    4    4    0  501 -0.93701443079E+02  0.84444329031E+01  0.10685330257E+03  0.14243022696E+03  0.41800000000E+01 0. -1.
</event>
<event>
11    1  0.7577197E-009  0.1881988E+03  0.7561462E-02  0.1063197E+00
         22   -1    0    0    0    0  0.00000000000E+00  0.00000000000E+00  0.97962000512E+03  0.97962000512E+03  0.00000000000E+00 0. -1.
         22   -1    0    0    0    0 -0.00000000000E+00 -0.00000000000E+00 -0.23935550955E+03  0.23935550955E+03  0.00000000000E+00 0. -1.
        -24    2    1    2    0    0 -0.98972004986E+01  0.48392011301E+02 -0.16664760645E+03  0.19131295692E+03  0.79934231801E+02 0.  0.
         25    2    1    2    0    0  0.10497004922E+03 -0.14407254040E+03  0.17559345140E+03  0.27974241825E+03  0.12508857768E+03 0.  0.
         24    2    1    2    0    0 -0.95072848718E+02  0.95680529097E+02  0.73131865061E+03  0.74792013949E+03  0.79774407620E+02 0.  0.
        -13    1    5    5    0    0  0.96474149230E+01  0.33532829653E+02  0.17023760459E+03  0.17377676858E+03  0.00000000000E+00 0.  1.
         14    1    5    5    0    0 -0.10472026364E+03  0.62147699445E+02  0.56108104602E+03  0.57414337091E+03  0.00000000000E+00 0. -1.
         11    1    3    3    0    0  0.28746923358E+02  0.17181851626E+02 -0.11448338582E+03  0.11928137850E+03  0.00000000000E+00 0. -1.
        -12    1    3    3    0    0 -0.38644123856E+02  0.31210159675E+02 -0.52164220631E+02  0.72031578419E+02  0.00000000000E+00 0.  1.
          5    1    4    4  501    0  0.79400437828E+02 -0.12139115020E+03  0.56421817308E+02  0.15569564780E+03  0.41800000000E+01 0. -1.
         -5    1    4    4    0  501  0.25569611388E+02 -0.22681390195E+02  0.11917163410E+03  0.12404677046E+03  0.41800000000E+01 0. -1.
</event>
<event>
11    1  0.7577197E-009  0.3246104E+03  0.7561462E-02  0.9902819E-01
         22   -1    0    0    0    0  0.00000000000E+00  0.00000000000E+00  0.81254415991E+03  0.81254415991E+03  0.00000000000E+00 0.  1.
         22   -1    0    0    0    0 -0.00000000000E+00 -0.00000000000E+00 -0.30313186414E+03  0.30313186414E+03  0.00000000000E+00 0. -1.
         24    2    1    2    0    0 -0.23790628101E+02 -0.52522666039E+02 -0.76124905287E+02  0.12629028400E+03  0.82641455671E+02 0.  0.
         25    2    1    2    0    0  0.30597918937E+03 -0.44232237996E+02  0.70462038925E+01  0.33356052178E+03  0.12503286564E+03 0.  0.
        -24    2    1    2    0    0 -0.28218856127E+03  0.96754904035E+02  0.57849099717E+03  0.65582521826E+03  0.80392708261E+02 0.  0.
        -13    1    3    3    0    0 -0.68515606017E+01  0.11646864579E+01  0.16497316619E+02  0.17901447786E+02  0.00000000000E+00 0.  1.
         14    1    3    3    0    0 -0.16939067500E+02 -0.53687352497E+02 -0.92622221905E+02  0.10838883622E+03  0.00000000000E+00 0. -1.
         11    1    5    5    0    0 -0.59031430466E+02  0.50423315928E+02  0.19253246598E+03  0.20759569126E+03  0.00000000000E+00 0. -1.
        -12    1    5    5    0    0 -0.22315713081E+03  0.46331588107E+02  0.38595853119E+03  0.44822952701E+03  0.00000000000E+00 0.  1.
          5    1    4    4  501    0  0.22727198160E+03  0.71954960341E+01 -0.35675679738E+02  0.23020546325E+03  0.41800000000E+01 0.  1.
         -5    1    4    4    0  501  0.78707207774E+02 -0.51427734030E+02  0.42721883630E+02  0.10335505853E+03  0.41800000000E+01 0.  1.
</event>
<event>
11    1  0.7577197E-009  0.1631909E+03  0.7561462E-02  0.1084114E+00
         22   -1    0    0    0    0  0.00000000000E+00  0.00000000000E+00  0.11366306774E+04  0.11366306774E+04  0.00000000000E+00 0.  1.
         22   -1    0    0    0    0 -0.00000000000E+00 -0.00000000000E+00 -0.97043447500E+03  0.97043447500E+03  0.00000000000E+00 0.  1.
        -24    2    1    2    0    0  0.16727132402E+02 -0.48330001822E+01 -0.94642147555E+03  0.95004318183E+03  0.81026434621E+02 0.  0.
         25    2    1    2    0    0 -0.42015135487E+02 -0.96950305273E+02  0.39911272950E+03  0.43139609108E+03  0.12508790210E+03 0.  0.
         24    2    1    2    0    0  0.25288003085E+02  0.10178330545E+03  0.71350494849E+03  0.72562587952E+03  0.80276280069E+02 0.  0.
        -11    1    5    5    0    0  0.32490173676E+02  0.10798394324E+03  0.70050039373E+03  0.70951881230E+03  0.00000000000E+00 0.  1.
         12    1    5    5    0    0 -0.72021705912E+01 -0.62006377839E+01  0.13004554759E+02  0.16107067226E+02  0.00000000000E+00 0. -1.
         11    1    3    3    0    0 -0.28191166477E+02  0.17011505792E+02 -0.37884163232E+03  0.38026979314E+03  0.00000000000E+00 0. -1.
        -12    1    3    3    0    0  0.44918298879E+02 -0.21844505974E+02 -0.56757984324E+03  0.56977338869E+03  0.00000000000E+00 0.  1.
          5    1    4    4  501    0 -0.53451741128E+02 -0.22911129621E+01  0.66997679286E+02  0.85839963059E+02  0.41800000000E+01 0.  1.
         -5    1    4    4    0  501  0.11436605641E+02 -0.94659192311E+02  0.33211505021E+03  0.34555612803E+03  0.41800000000E+01 0.  1.
</event>
<event>
11    1  0.7577197E-009  0.1807846E+03  0.7561462E-02  0.1069010E+00
         22   -1    0    0    0    0  0.00000000000E+00  0.00000000000E+00  0.12320375940E+04  0.12320375940E+04  0.00000000000E+00 0. -1.
         22   -1    0    0    0    0 -0.00000000000E+00 -0.00000000000E+00 -0.39979614729E+02  0.39979614729E+02  0.00000000000E+00 0.  1.
        -24    2    1    2    0    0 -0.42009558896E+02  0.10911253233E+02  0.29263475948E+03  0.30684771000E+03  0.81465061165E+02 0.  0.
         25    2    1    2    0    0 -0.10176647141E+03  0.49984153866E+02  0.35579999299E+03  0.39382254753E+03  0.12509090131E+03 0.  0.
         24    2    1    2    0    0  0.14377603030E+03 -0.60895407099E+02  0.54362322679E+03  0.57134695118E+03  0.80816634616E+02 0.  0.
        -13    1    5    5    0    0  0.70981758425E+02  0.10651961371E+02  0.26751494798E+03  0.27697675300E+03  0.00000000000E+00 0.  1.
         14    1    5    5    0    0  0.72794271876E+02 -0.71547368470E+02  0.27610827881E+03  0.29437019818E+03  0.00000000000E+00 0. -1.
         13    1    3    3    0    0 -0.26878982514E+02 -0.17630124558E+02  0.25597652920E+03  0.25798698513E+03  0.00000000000E+00 0. -1.
        -14    1    3    3    0    0 -0.15130576382E+02  0.28541377792E+02  0.36658230276E+02  0.48860724870E+02  0.00000000000E+00 0.  1.
          5    1    4    4  501    0 -0.55493112281E+02  0.55574371781E+02  0.33225480228E+03  0.34143626396E+03  0.41800000000E+01 0. -1.
         -5    1    4    4    0  501 -0.46273359124E+02 -0.55902179150E+01  0.23545190717E+02  0.52386283575E+02  0.41800000000E+01 0. -1.
</event>
<event>
11    1  0.7577197E-009  0.1444323E+03  0.7561462E-02  0.1102708E+00
         22   -1    0    0    0    0  0.00000000000E+00  0.00000000000E+00  0.26318941442E+03  0.26318941442E+03  0.00000000000E+00 0. -1.
         22   -1    0    0    0    0 -0.00000000000E+00 -0.00000000000E+00 -0.20246812074E+03  0.20246812074E+03  0.00000000000E+00 0.  1.
        -24    2    1    2    0    0  0.43908481816E+02  0.31272211084E+02 -0.86316185137E+02  0.13444908528E+03  0.87864479483E+02 0.  0.
         25    2    1    2    0    0  0.35454853427E+02 -0.10204532482E+02 -0.16252056867E+02  0.13142201932E+03  0.12508572539E+03 0.  0.
         24    2    1    2    0    0 -0.79363335243E+02 -0.21067678602E+02  0.16328953569E+03  0.19978643055E+03  0.80676882094E+02 0.  0.
        -13    1    5    5    0    0 -0.40572767534E+02  0.15185220845E+02  0.21461303238E+02  0.48345919519E+02  0.00000000000E+00 0.  1.
         14    1    5    5    0    0 -0.38790567709E+02 -0.36252899447E+02  0.14182823245E+03  0.15144051103E+03  0.00000000000E+00 0. -1.
         11    1    3    3    0    0  0.38835577109E+02 -0.10318122586E+02 -0.83247664868E+02  0.92438300552E+02  0.00000000000E+00 0. -1.
        -12    1    3    3    0    0  0.50729047070E+01  0.41590333670E+02 -0.30685202698E+01  0.42010784729E+02  0.00000000000E+00 0.  1.
          5    1    4    4  501    0  0.18989095543E+02 -0.59796244019E+02  0.21905241150E+02  0.66584446669E+02  0.41800000000E+01 0.  1.
         -5    1    4    4    0  501  0.16465757884E+02  0.49591711538E+02 -0.38157298017E+02  0.64837572656E+02  0.41800000000E+01 0.  1.
</event>
<event>
11    1  0.7577197E-009  0.1553573E+03  0.7561462E-02  0.1091527E+00
         22   -1    0    0    0    0  0.00000000000E+00  0.00000000000E+00  0.12970012369E+04  0.12970012369E+04  0.00000000000E+00 0.  1.
         22   -1    0    0    0    0 -0.00000000000E+00 -0.00000000000E+00 -0.42120441001E+03  0.42120441001E+03  0.00000000000E+00 0. -1.
        -24    2    1    2    0    0 -0.14242867216E+02 -0.84801818772E+02 -0.25694841133E+03  0.28262509115E+03  0.80375669979E+02 0.  0.
         25    2    1    2    0    0  0.47887338992E+02  0.10846388339E+03 -0.10019626656E+03  0.19936022679E+03  0.12509035517E+03 0.  0.
         24    2    1    2    0    0 -0.33644471776E+02 -0.23662064620E+02  0.12329415048E+04  0.12362203290E+04  0.80025644412E+02 0.  0.
        -11    1    5    5    0    0  0.14274640837E+01 -0.19849882950E+02  0.10329101487E+04  0.10331018492E+04  0.00000000000E+00 0.  1.
         12    1    5    5    0    0 -0.35071935859E+02 -0.38121816700E+01  0.20003135616E+03  0.20311847986E+03  0.00000000000E+00 0. -1.
         11    1    3    3    0    0 -0.84724500814E+01 -0.41003213806E+02 -0.22303745158E+03  0.22693336194E+03  0.00000000000E+00 0. -1.
        -12    1    3    3    0    0 -0.57704171350E+01 -0.43798604966E+02 -0.33910959756E+02  0.55691729210E+02  0.00000000000E+00 0.  1.
          5    1    4    4  501    0  0.90108895890E+02  0.75027299821E+02 -0.78380179953E+02  0.14110150193E+03  0.41800000000E+01 0. -1.
         -5    1    4    4    0  501 -0.42221556898E+02  0.33436583571E+02 -0.21816086611E+02  0.58258724864E+02  0.41800000000E+01 0. -1.
</event>
<event>
11    1  0.7577197E-009  0.1461123E+03  0.7561462E-02  0.1100919E+00
         22   -1    0    0    0    0  0.00000000000E+00  0.00000000000E+00  0.15319410993E+03  0.15319410993E+03  0.00000000000E+00 0. -1.
         22   -1    0    0    0    0 -0.00000000000E+00 -0.00000000000E+00 -0.72166937990E+03  0.72166937990E+03  0.00000000000E+00 0. -1.
         24    2    1    2    0    0  0.64555976667E+02 -0.46413581955E+02 -0.59365957921E+03  0.60472510478E+03  0.83301030280E+02 0.  0.
         25    2    1    2    0    0 -0.36234775831E+02  0.26138360925E+02 -0.61820512939E+02  0.14652243460E+03  0.12510345770E+03 0.  0.
        -24    2    1    2    0    0 -0.28321200836E+02  0.20275221030E+02  0.87004822172E+02  0.12361595045E+03  0.80609485300E+02 0.  0.
        -13    1    3    3    0    0  0.96043195477E+01 -0.19205244534E+02 -0.42016420044E+03  0.42071253808E+03  0.00000000000E+00 0.  1.
         14    1    3    3    0    0  0.54951657119E+02 -0.27208337422E+02 -0.17349537877E+03  0.18401256669E+03  0.00000000000E+00 0. -1.
         11    1    5    5    0    0  0.17902874452E+02  0.27621997656E+02  0.62846081152E+02  0.70944468314E+02  0.00000000000E+00 0. -1.
        -12    1    5    5    0    0 -0.46224075288E+02 -0.73467766257E+01  0.24158741021E+02  0.52671482139E+02  0.00000000000E+00 0.  1.
          5    1    4    4  501    0 -0.25282363091E+01  0.71230613174E+02 -0.14489573617E+02  0.72853362144E+02  0.41800000000E+01 0. -1.
         -5    1    4    4    0  501 -0.33706539522E+02 -0.45092252249E+02 -0.47330939322E+02  0.73669072456E+02  0.41800000000E+01 0. -1.
</event>
<event>
11    1  0.7577197E-009  0.1264980E+03  0.7561462E-02  0.1123648E+00
         22   -1    0    0    0    0  0.00000000000E+00  0.00000000000E+00  0.74358744494E+03  0.74358744494E+03  0.00000000000E+00 0. -1.
         22   -1    0    0    0    0 -0.00000000000E+00 -0.00000000000E+00 -0.20050074127E+04  0.20050074127E+04  0.00000000000E+00 0.  1.
        -24    2    1    2    0    0 -0.28288853738E+02 -0.72278381608E+01 -0.19308008315E+04  0.19327139005E+04  0.80862040268E+02 0.  0.
         25    2    1    2    0    0  0.39250569574E+02  0.21414874170E+02 -0.78591194173E+01  0.13307404136E+03  0.12509088967E+03 0.  0.
         24    2    1    2    0    0 -0.10961715835E+02 -0.14187036010E+02  0.67723998311E+03  0.68280691578E+03  0.85146099790E+02 0.  0.
        -13    1    5    5    0    0 -0.23709261546E+02 -0.24596558907E+02  0.10683021184E+03  0.11215976977E+03  0.00000000000E+00 0.  1.
         14    1    5    5    0    0  0.12747545711E+02  0.10409522898E+02  0.57040977127E+03  0.57064714601E+03  0.00000000000E+00 0. -1.
         11    1    3    3    0    0  0.15376118601E+02 -0.32185877235E+02 -0.81364798203E+03  0.81442949012E+03  0.00000000000E+00 0. -1.
        -12    1    3    3    0    0 -0.43664972339E+02  0.24958039074E+02 -0.11171528495E+04  0.11182844104E+04  0.00000000000E+00 0.  1.
          5    1    4    4  501    0  0.46746971998E+02 -0.44890488519E+02 -0.12173173588E+02  0.66076424734E+02  0.41800000000E+01 0.  1.
         -5    1    4    4    0  501 -0.74964024240E+01  0.66305362689E+02  0.43140541707E+01  0.66997616630E+02  0.41800000000E+01 0.  1.
</event>
<event>
11    1  0.7577197E-009  0.2038811E+03  0.7561462E-02  0.1051813E+00
         22   -1    0    0    0    0  0.00000000000E+00  0.00000000000E+00  0.77003808846E+02  0.77003808846E+02  0.00000000000E+00 0. -1.
         22   -1    0    0    0    0 -0.00000000000E+00 -0.00000000000E+00 -0.33123999952E+04  0.33123999952E+04  0.00000000000E+00 0. -1.
        -24    2    1    2    0    0 -0.33146508149E+02  0.12918834330E+02 -0.21914434458E+04  0.21931484578E+04  0.78804787465E+02 0.  0.
         25    2    1    2    0    0  0.61262821562E+02 -0.16934751619E+03 -0.98556994465E+03  0.10096662595E+04  0.12508447245E+03 0.  0.
         24    2    1    2    0    0 -0.28116313413E+02  0.15642868186E+03 -0.58382795915E+02  0.18658908675E+03  0.78399469677E+02 0.  0.
        -11    1    5    5    0    0 -0.40787186945E+02  0.32084820186E+02 -0.11929339013E+02  0.53247905448E+02  0.00000000000E+00 0.  1.
         12    1    5    5    0    0  0.12670873532E+02  0.12434386168E+03 -0.46453456902E+02  0.13334118130E+03  0.00000000000E+00 0. -1.
         11    1    3    3    0    0 -0.33731671365E+02  0.33111525364E+02 -0.71206450969E+03  0.71363160295E+03  0.00000000000E+00 0. -1.
        -12    1    3    3    0    0  0.58516321582E+00 -0.20192691034E+02 -0.14793789361E+04  0.14795168548E+04  0.00000000000E+00 0.  1.
          5    1    4    4  501    0  0.46127914968E+02 -0.33411477837E+01 -0.32861352159E+03  0.33187839155E+03  0.41800000000E+01 0.  1.
         -5    1    4    4    0  501  0.15134906594E+02 -0.16600636841E+03 -0.65695642306E+03  0.67778786796E+03  0.41800000000E+01 0.  1.
</event>
<event>
11    1  0.7577197E-009  0.1406273E+03  0.7561462E-02  0.1106860E+00
         22   -1    0    0    0    0  0.00000000000E+00  0.00000000000E+00  0.19977453407E+03  0.19977453407E+03  0.00000000000E+00 0.  1.
         22   -1    0    0    0    0 -0.00000000000E+00 -0.00000000000E+00 -0.34535064166E+03  0.34535064166E+03  0.00000000000E+00 0.  1.
         24    2    1    2    0    0  0.23416668938E+02 -0.67046734399E+02 -0.25604558217E+03  0.27721493553E+03  0.79026421890E+02 0.  0.
         25    2    1    2    0    0 -0.19001030885E+02  0.16182242701E+02  0.56736170551E+01  0.12767675416E+03  0.12508500897E+03 0.  0.
        -24    2    1    2    0    0 -0.44156380531E+01  0.50864491698E+02  0.10479585752E+03  0.14023348604E+03  0.77952321825E+02 0.  0.
        -13    1    3    3    0    0  0.27156338016E+02 -0.45485393112E+01 -0.16141791065E+03  0.16374949704E+03  0.00000000000E+00 0.  1.
         14    1    3    3    0    0 -0.37396690773E+01 -0.62498195088E+02 -0.94627671521E+02  0.11346543849E+03  0.00000000000E+00 0. -1.
         13    1    5    5    0    0 -0.39602025143E+02  0.40168106050E+02  0.63260360861E+02  0.84756536004E+02  0.00000000000E+00 0. -1.
        -14    1    5    5    0    0  0.35186387090E+02  0.10696385648E+02  0.41535496662E+02  0.55476950036E+02  0.00000000000E+00 0.  1.
          5    1    4    4  501    0  0.25135473300E+01 -0.51202541927E+02 -0.15504179053E+02  0.53720295867E+02  0.41800000000E+01 0. -1.
         -5    1    4    4    0  501 -0.21514578215E+02  0.67384784628E+02  0.21177796108E+02  0.73956458292E+02  0.41800000000E+01 0. -1.
</event>
<event>
11    1  0.7577197E-009  0.2620772E+03  0.7561462E-02  0.1017655E+00
         22   -1    0    0    0    0  0.00000000000E+00  0.00000000000E+00  0.35762593622E+03  0.35762593622E+03  0.00000000000E+00 0. -1.
         22   -1    0    0    0    0 -0.00000000000E+00 -0.00000000000E+00 -0.28478802428E+04  0.28478802428E+04  0.00000000000E+00 0.  1.
         24    2    1    2    0    0 -0.14324853211E+03 -0.18114983269E+03 -0.23722948031E+04  0.23845024372E+04  0.68802879075E+02 0.  0.
         25    2    1    2    0    0  0.91584659175E+02  0.21460092174E+03 -0.42310353345E+03  0.49910482184E+03  0.12509083804E+03 0.  0.
        -24    2    1    2    0    0  0.51663872934E+02 -0.33451089045E+02  0.30514403001E+03  0.32189891998E+03  0.81962823927E+02 0.  0.
        -13    1    3    3    0    0 -0.45853362108E+02 -0.11324934113E+03 -0.11748553906E+04  0.11811914040E+04  0.00000000000E+00 0.  1.
         14    1    3    3    0    0 -0.97395170001E+02 -0.67900491565E+02 -0.11974394125E+04  0.12033110332E+04  0.00000000000E+00 0. -1.
         13    1    5    5    0    0  0.57816718317E+02 -0.34520060100E+02  0.30782397083E+03  0.31510316482E+03  0.00000000000E+00 0. -1.
        -14    1    5    5    0    0 -0.61528453833E+01  0.10689710551E+01 -0.26799408103E+01  0.67957551585E+01  0.00000000000E+00 0.  1.
          5    1    4    4  501    0  0.39985473775E+02  0.20824922725E+03 -0.35124164666E+03  0.41031054765E+03  0.41800000000E+01 0. -1.
         -5    1    4    4    0  501  0.51599185400E+02  0.63516944888E+01 -0.71861886790E+02  0.88794274196E+02  0.41800000000E+01 0. -1.
</event>
<event>
11    1  0.9089745E-009  0.1673447E+03  0.7561462E-02  0.1080366E+00
         22   -1    0    0    0    0  0.00000000000E+00  0.00000000000E+00  0.68109263116E+03  0.68109263116E+03  0.00000000000E+00 0. -1.
         22   -1    0    0    0    0 -0.00000000000E+00 -0.00000000000E+00 -0.64696170007E+03  0.64696170007E+03  0.00000000000E+00 0. -1.
        -24    2    1    2    0    0  0.30372505165E+02 -0.97870164229E+02 -0.35984592495E+03  0.38096428706E+03  0.71719175958E+02 0.  0.
         25    2    1    2    0    0 -0.85142547319E+02  0.19148447375E+03 -0.21376472279E+03  0.32443876613E+03  0.12509835815E+03 0.  0.
         24    2    1    2    0    0  0.54770042154E+02 -0.93614309520E+02  0.60774157882E+03  0.62265127803E+03  0.81125772345E+02 0.  0.
        -11    1    5    5    0    0 -0.12833171734E+02 -0.56820461400E+02  0.24422996127E+03  0.25108072230E+03  0.00000000000E+00 0.  1.
         12    1    5    5    0    0  0.67603213888E+02 -0.36793848120E+02  0.36351161755E+03  0.37157055573E+03  0.00000000000E+00 0. -1.
         11    1    3    3    0    0  0.28017929301E+02 -0.10923905726E+03 -0.31285760266E+03  0.33256285953E+03  0.00000000000E+00 0. -1.
        -12    1    3    3    0    0  0.23545758636E+01  0.11368893033E+02 -0.46988322287E+02  0.48401427537E+02  0.00000000000E+00 0.  1.
          5    1    4    4  501    0  0.19710831596E+02  0.74717461616E+02 -0.11616734491E+03  0.13958345309E+03  0.41800000000E+01 0. -1.
         -5    1    4    4    0  501 -0.10485337891E+03  0.11676701213E+03 -0.97597377872E+02  0.18485531304E+03  0.41800000000E+01 0. -1.
</event>
<event>
11    1  0.7577197E-009  0.2087320E+03  0.7561462E-02  0.1048515E+00
         22   -1    0    0    0    0  0.00000000000E+00  0.00000000000E+00  0.38517725544E+03  0.38517725544E+03  0.00000000000E+00 0.  1.
         22   -1    0    0    0    0 -0.00000000000E+00 -0.00000000000E+00 -0.48918057595E+03  0.48918057595E+03  0.00000000000E+00 0.  1.
        -24    2    1    2    0    0 -0.19143636144E+02 -0.96438595081E+02 -0.36117045508E+03  0.38280770445E+03  0.80192016662E+02 0.  0.
         25    2    1    2    0    0 -0.15390589618E+03  0.79401660537E+02  0.76418701307E+02  0.22687819533E+03  0.12506897710E+03 0.  0.
         24    2    1    2    0    0  0.17304953232E+03  0.17036934545E+02  0.18074843326E+03  0.26467193161E+03  0.84527140496E+02 0.  0.
        -11    1    5    5    0    0  0.29398458669E+02 -0.30177703539E+02  0.39675731246E+02  0.57871640835E+02  0.00000000000E+00 0.  1.
         12    1    5    5    0    0  0.14365107365E+03  0.47214638084E+02  0.14107270202E+03  0.20680029078E+03  0.00000000000E+00 0. -1.
         13    1    3    3    0    0 -0.26525177352E+02 -0.70309101373E+02 -0.13085493795E+03  0.15089721520E+03  0.00000000000E+00 0. -1.
        -14    1    3    3    0    0  0.73815412072E+01 -0.26129493708E+02 -0.23031551714E+03  0.23191048925E+03  0.00000000000E+00 0.  1.
          5    1    4    4  501    0 -0.47768687552E+02 -0.16311323890E+02 -0.19967234501E+02  0.54443270026E+02  0.41800000000E+01 0.  1.
         -5    1    4    4    0  501 -0.10613720862E+03  0.95712984427E+02  0.96385935808E+02  0.17243492530E+03  0.41800000000E+01 0.  1.
</event>
<event>
11    1  0.7577197E-009  0.2175459E+03  0.7561462E-02  0.1042766E+00
         22   -1    0    0    0    0  0.00000000000E+00  0.00000000000E+00  0.41601192637E+04  0.41601192637E+04  0.00000000000E+00 0.  1.
         22   -1    0    0    0    0 -0.00000000000E+00 -0.00000000000E+00 -0.39564644730E+02  0.39564644730E+02  0.00000000000E+00 0. -1.
         24    2    1    2    0    0 -0.13085937698E+03 -0.11792724851E+03  0.28695475866E+03  0.34581923554E+03  0.78847306013E+02 0.  0.
         25    2    1    2    0    0  0.20112979713E+03  0.52348895004E+02  0.17812535882E+04  0.17976944435E+04  0.12508942750E+03 0.  0.
        -24    2    1    2    0    0 -0.70270420148E+02  0.65578353509E+02  0.20523462721E+04  0.20561702293E+04  0.80450847728E+02 0.  0.
        -11    1    3    3    0    0 -0.67360549021E+02 -0.10822627610E+03  0.17136160973E+03  0.21357708606E+03  0.00000000000E+00 0.  1.
         12    1    3    3    0    0 -0.63498827961E+02 -0.97009724146E+01  0.11559314893E+03  0.13224214948E+03  0.00000000000E+00 0. -1.
         13    1    5    5    0    0 -0.44742180848E+02  0.42559627646E+02  0.55419616814E+03  0.55762584000E+03  0.00000000000E+00 0. -1.
        -14    1    5    5    0    0 -0.25528239299E+02  0.23018725863E+02  0.14981501040E+04  0.14985443893E+04  0.00000000000E+00 0.  1.
          5    1    4    4  501    0  0.52920728510E+02 -0.41092726511E+02  0.52522791598E+03  0.52950075713E+03  0.41800000000E+01 0.  1.
         -5    1    4    4    0  501  0.14820906862E+03  0.93441621514E+02  0.12560256722E+04  0.12681936864E+04  0.41800000000E+01 0.  1.
</event>
<event>
11    1  0.7577197E-009  0.1508663E+03  0.7561462E-02  0.1095997E+00
         22   -1    0    0    0    0  0.00000000000E+00  0.00000000000E+00  0.14172139825E+04  0.14172139825E+04  0.00000000000E+00 0. -1.
         22   -1    0    0    0    0 -0.00000000000E+00 -0.00000000000E+00 -0.14783510826E+03  0.14783510826E+03  0.00000000000E+00 0.  1.
        -24    2    1    2    0    0 -0.24474860712E+02 -0.81990804469E+02 -0.90890954267E+02  0.14759724168E+03  0.78754487864E+02 0.  0.
         25    2    1    2    0    0  0.28545574151E+02  0.70494220104E+02  0.16967765312E+03  0.22410661435E+03  0.12509589823E+03 0.  0.
         24    2    1    2    0    0 -0.40707134390E+01  0.11496584365E+02  0.11905921753E+04  0.11933452347E+04  0.80089818487E+02 0.  0.
        -13    1    5    5    0    0 -0.20137658585E+02 -0.87817634687E+01  0.97398032663E+02  0.99844987003E+02  0.00000000000E+00 0.  1.
         14    1    5    5    0    0  0.16066945146E+02  0.20278347833E+02  0.10931941427E+04  0.10935002477E+04  0.00000000000E+00 0. -1.
         13    1    3    3    0    0 -0.17721169863E+02 -0.30664731487E+02  0.76971522998E+01  0.36243782529E+02  0.00000000000E+00 0. -1.
        -14    1    3    3    0    0 -0.67536908486E+01 -0.51326072982E+02 -0.98588106566E+02  0.11135345915E+03  0.00000000000E+00 0.  1.
          5    1    4    4  501    0 -0.33636210382E+02  0.75872374990E+02  0.85482892053E+02  0.11921748684E+03  0.41800000000E+01 0. -1.
         -5    1    4    4    0  501  0.62181784534E+02 -0.53781548864E+01  0.84194761063E+02  0.10488912750E+03  0.41800000000E+01 0. -1.
</event>
<event>
11    1  0.7577197E-009  0.1519287E+03  0.7561462E-02  0.1094924E+00
         22   -1    0    0    0    0  0.00000000000E+00  0.00000000000E+00  0.17904673733E+04  0.17904673733E+04  0.00000000000E+00 0.  1.
         22   -1    0    0    0    0 -0.00000000000E+00 -0.00000000000E+00 -0.24812961681E+04  0.24812961681E+04  0.00000000000E+00 0. -1.
        -24    2    1    2    0    0 -0.35330567859E+02  0.78589894743E+02 -0.24519465071E+04  0.24549802321E+04  0.86380817255E+02 0.  0.
         25    2    1    2    0    0  0.51825566546E+02 -0.82316816650E+02  0.20826009366E+03  0.26168811685E+03  0.12508579550E+03 0.  0.
         24    2    1    2    0    0 -0.16494998687E+02  0.37269219070E+01  0.15528576187E+04  0.15550951925E+04  0.81659651628E+02 0.  0.
        -13    1    5    5    0    0 -0.12939255322E+02  0.23450815648E+02  0.14529666806E+04  0.14532135218E+04  0.00000000000E+00 0.  1.
         14    1    5    5    0    0 -0.35557433654E+01 -0.19723893741E+02  0.99890938112E+02  0.10188167064E+03  0.00000000000E+00 0. -1.
         13    1    3    3    0    0 -0.12784028358E+02  0.41445380962E+02 -0.20877968972E+04  0.20882473597E+04  0.00000000000E+00 0. -1.
        -14    1    3    3    0    0 -0.22546539501E+02  0.37144513781E+02 -0.36414960987E+03  0.36673287243E+03  0.00000000000E+00 0.  1.
          5    1    4    4  501    0  0.12458219483E+02 -0.50443570753E+02  0.52250016174E+01  0.52388301222E+02  0.41800000000E+01 0.  1.
         -5    1    4    4    0  501  0.39367347063E+02 -0.31873245897E+02  0.20303509205E+03  0.20929981563E+03  0.41800000000E+01 0.  1.
</event>
<event>
11    1  0.7577197E-009  0.1496599E+03  0.7561462E-02  0.1097227E+00
         22   -1    0    0    0    0  0.00000000000E+00  0.00000000000E+00  0.86317497182E+03  0.86317497182E+03  0.00000000000E+00 0. -1.
         22   -1    0    0    0    0 -0.00000000000E+00 -0.00000000000E+00 -0.67474195685E+03  0.67474195685E+03  0.00000000000E+00 0.  1.
        -24    2    1    2    0    0 -0.43102877507E+02 -0.24821617398E+02 -0.57790515335E+03  0.58642572258E+03  0.86294791846E+02 0.  0.
         25    2    1    2    0    0  0.11939119373E+02  0.10047998000E+03 -0.14984138513E+02  0.16158941755E+03  0.12509135264E+03 0.  0.
         24    2    1    2    0    0  0.31163758134E+02 -0.75658362604E+02  0.78132230683E+03  0.78990178852E+03  0.82370630116E+02 0.  0.
        -13    1    5    5    0    0  0.17972938733E+01 -0.33063797473E+02  0.78766402694E+02  0.85443496897E+02  0.00000000000E+00 0.  1.
         14    1    5    5    0    0  0.29366464260E+02 -0.42594565131E+02  0.70255590414E+03  0.70445829163E+03  0.00000000000E+00 0. -1.
         13    1    3    3    0    0  0.20085463931E+02  0.13544751979E+02 -0.19013033075E+03  0.19166749552E+03  0.00000000000E+00 0. -1.
        -14    1    3    3    0    0 -0.63188341437E+02 -0.38366369377E+02 -0.38777482261E+03  0.39475822707E+03  0.00000000000E+00 0.  1.
          5    1    4    4  501    0 -0.49624055549E+02  0.91151118804E+01 -0.57804503328E+01  0.50956041445E+02  0.41800000000E+01 0. -1.
         -5    1    4    4    0  501  0.61563174922E+02  0.91364868121E+02 -0.92036881805E+01  0.11063337611E+03  0.41800000000E+01 0. -1.
</event>
<event>
11    1  0.7577197E-009  0.1480900E+03  0.7561462E-02  0.1098846E+00
         22   -1    0    0    0    0  0.00000000000E+00  0.00000000000E+00  0.22819698775E+03  0.22819698775E+03  0.00000000000E+00 0. -1.
         22   -1    0    0    0    0 -0.00000000000E+00 -0.00000000000E+00 -0.21871295727E+04  0.21871295727E+04  0.00000000000E+00 0.  1.
        -24    2    1    2    0    0  0.49422956442E+01 -0.62776040841E+02 -0.17309066814E+04  0.17338410641E+04  0.78750480471E+02 0.  0.
         25    2    1    2    0    0 -0.34426434264E+02  0.13417761873E+03 -0.41974914001E+03  0.45937747590E+03  0.12509800989E+03 0.  0.
         24    2    1    2    0    0  0.29484138620E+02 -0.71401577894E+02  0.19172323651E+03  0.22210802042E+03  0.81281446588E+02 0.  0.
        -13    1    5    5    0    0 -0.21804946103E+02 -0.53082575462E+02  0.10627403386E+03  0.12077825038E+03  0.00000000000E+00 0.  1.
         14    1    5    5    0    0  0.51289084723E+02 -0.18319002432E+02  0.85449202656E+02  0.10132977004E+03  0.00000000000E+00 0. -1.
         11    1    3    3    0    0 -0.28713035354E+02 -0.23409272452E+01 -0.71626244177E+03  0.71684154722E+03  0.00000000000E+00 0. -1.
        -12    1    3    3    0    0  0.33655330998E+02 -0.60435113596E+02 -0.10146442396E+04  0.10169995169E+04  0.00000000000E+00 0.  1.
          5    1    4    4  501    0  0.19164422681E+02  0.30821900962E+02 -0.25497806591E+03  0.25758212510E+03  0.41800000000E+01 0. -1.
         -5    1    4    4    0  501 -0.53590856945E+02  0.10335571777E+03 -0.16477107411E+03  0.20179535081E+03  0.41800000000E+01 0. -1.
</event>
<event>
11    1  0.7577197E-009  0.2037206E+03  0.7561462E-02  0.1051923E+00
         22   -1    0    0    0    0  0.00000000000E+00  0.00000000000E+00  0.15835801304E+04  0.15835801304E+04  0.00000000000E+00 0. -1.
         22   -1    0    0    0    0 -0.00000000000E+00 -0.00000000000E+00 -0.52929990352E+03  0.52929990352E+03  0.00000000000E+00 0.  1.
        -24    2    1    2    0    0 -0.13380445462E+03 -0.78182223675E+02 -0.35444707007E+03  0.39260452862E+03  0.67003718093E+02 0.  0.
         25    2    1    2    0    0  0.15267247980E+03  0.10640357531E+03 -0.73193460378E+02  0.23586971768E+03  0.12508650667E+03 0.  0.
         24    2    1    2    0    0 -0.18868025180E+02 -0.28221351631E+02  0.14819207574E+04  0.14844057877E+04  0.78860410022E+02 0.  0.
        -11    1    5    5    0    0 -0.13315262122E+02  0.34706948108E+01  0.43483525172E+02  0.45608758909E+02  0.00000000000E+00 0.  1.
         12    1    5    5    0    0 -0.55527630587E+01 -0.31692046442E+02  0.14384372322E+04  0.14387970288E+04  0.00000000000E+00 0. -1.
         13    1    3    3    0    0 -0.35471133605E+02 -0.22083749772E+02 -0.17893035318E+03  0.18374429137E+03  0.00000000000E+00 0. -1.
        -14    1    3    3    0    0 -0.98333321012E+02 -0.56098473902E+02 -0.17551671690E+03  0.20886023725E+03  0.00000000000E+00 0.  1.
          5    1    4    4  501    0  0.13116505283E+03  0.11387660605E+03 -0.99982156488E+02  0.20046460163E+03  0.41800000000E+01 0.  1.
         -5    1    4    4    0  501  0.21507426966E+02 -0.74730307450E+01  0.26788696110E+02  0.35405116050E+02  0.41800000000E+01 0.  1.
</event>
<event>
11    1  0.7577197E-009  0.1293428E+03  0.7561462E-02  0.1120079E+00
         22   -1    0    0    0    0  0.00000000000E+00  0.00000000000E+00  0.33258280039E+03  0.33258280039E+03  0.00000000000E+00 0. -1.
         22   -1    0    0    0    0 -0.00000000000E+00 -0.00000000000E+00 -0.48032368835E+03  0.48032368835E+03  0.00000000000E+00 0.  1.
        -24    2    1    2    0    0  0.32503995321E+02  0.11321345392E+02 -0.35277916459E+03  0.36436850631E+03  0.84419114258E+02 0.  0.
         25    2    1    2    0    0 -0.20204038810E+02 -0.15090441716E+02 -0.80942959992E+02  0.15109766012E+03  0.12507124172E+03 0.  0.
         24    2    1    2    0    0 -0.12299956512E+02  0.37690963239E+01  0.28598123662E+03  0.29744032231E+03  0.80746409302E+02 0.  0.
        -13    1    5    5    0    0 -0.29660961228E+02 -0.43037013280E+01  0.36514050166E+02  0.47239499633E+02  0.00000000000E+00 0.  1.
         14    1    5    5    0    0  0.17361004716E+02  0.80727976519E+01  0.24946718646E+03  0.25020082267E+03  0.00000000000E+00 0. -1.
         11    1    3    3    0    0 -0.26883579258E+02 -0.11671469332E+01 -0.66700312314E+02  0.71923714646E+02  0.00000000000E+00 0. -1.
        -12    1    3    3    0    0  0.59387574579E+02  0.12488492325E+02 -0.28607885227E+03  0.29244479167E+03  0.00000000000E+00 0.  1.
          5    1    4    4  501    0 -0.36664631486E+02 -0.57942136395E+02 -0.79379238739E+02  0.10497677036E+03  0.41800000000E+01 0. -1.
         -5    1    4    4    0  501  0.16460592676E+02  0.42851694679E+02 -0.15637212532E+01  0.46120889760E+02  0.41800000000E+01 0. -1.
</event>
<event>
11    1  0.7577197E-009  0.1311468E+03  0.7561462E-02  0.1117868E+00
         22   -1    0    0    0    0  0.00000000000E+00  0.00000000000E+00  0.17749522997E+04  0.17749522997E+04  0.00000000000E+00 0. -1.
         22   -1    0    0    0    0 -0.00000000000E+00 -0.00000000000E+00 -0.19587991110E+03  0.19587991110E+03  0.00000000000E+00 0. -1.
        -24    2    1    2    0    0  0.12097516083E+02 -0.34747156214E+02 -0.96869238291E+02  0.13115000275E+03  0.80392531583E+02 0.  0.
         25    2    1    2    0    0  0.81539233108E+01  0.36467995447E+00 -0.31828620573E+02  0.12935070914E+03  0.12510765528E+03 0.  0.
         24    2    1    2    0    0 -0.20251439394E+02  0.34382476260E+02  0.17077702475E+04  0.17103314989E+04  0.84630624346E+02 0.  0.
        -11    1    5    5    0    0  0.21400743741E+02  0.32753855418E+02  0.40281691671E+03  0.40471258353E+03  0.00000000000E+00 0.  1.
         12    1    5    5    0    0 -0.41652183135E+02  0.16286208423E+01  0.13049533308E+04  0.13056189154E+04  0.00000000000E+00 0. -1.
         11    1    3    3    0    0  0.27954070001E+02 -0.42751143892E+02 -0.10075923780E+03  0.11296687274E+03  0.00000000000E+00 0. -1.
        -12    1    3    3    0    0 -0.15856553917E+02  0.80039876776E+01  0.38899995123E+01  0.18183130013E+02  0.00000000000E+00 0.  1.
          5    1    4    4  501    0 -0.47995561737E+02  0.32451134510E+02 -0.27862091171E+02  0.64423742532E+02  0.41800000000E+01 0.  1.
         -5    1    4    4    0  501  0.56149485048E+02 -0.32086454555E+02 -0.39665294019E+01  0.64926966605E+02  0.41800000000E+01 0.  1.
</event>
<event>
11    1  0.7577197E-009  0.1377771E+03  0.7561462E-02  0.1110066E+00
         22   -1    0    0    0    0  0.00000000000E+00  0.00000000000E+00  0.17383420708E+04  0.17383420708E+04  0.00000000000E+00 0.  1.
         22   -1    0    0    0    0 -0.00000000000E+00 -0.00000000000E+00 -0.33615939865E+03  0.33615939865E+03  0.00000000000E+00 0. -1.
         24    2    1    2    0    0  0.45108472473E+02  0.42405026142E+02 -0.29071235788E+03  0.30792943907E+03  0.80460573506E+02 0.  0.
         25    2    1    2    0    0  0.10559029976E+02 -0.15221536948E+02  0.78093961179E+02  0.14862528555E+03  0.12509044900E+03 0.  0.
        -24    2    1    2    0    0 -0.55667502448E+02 -0.27183489194E+02  0.16148010689E+04  0.16179467449E+04  0.79569870228E+02 0.  0.
        -13    1    3    3    0    0 -0.12334170305E+02 -0.15543258704E+02 -0.62038357712E+02  0.65134341755E+02  0.00000000000E+00 0.  1.
         14    1    3    3    0    0  0.57442642778E+02  0.57948284846E+02 -0.22867400017E+03  0.24279509731E+03  0.00000000000E+00 0. -1.
         13    1    5    5    0    0 -0.12582855108E+02 -0.11809046386E+02  0.58962573332E+02  0.61435876108E+02  0.00000000000E+00 0. -1.
        -14    1    5    5    0    0 -0.43084647340E+02 -0.15374442808E+02  0.15558384956E+04  0.15565108688E+04  0.00000000000E+00 0.  1.
          5    1    4    4  501    0 -0.51826627558E+01  0.51846317175E+02  0.13250216796E+02  0.53925330254E+02  0.41800000000E+01 0. -1.
         -5    1    4    4    0  501  0.15741692731E+02 -0.67067854123E+02  0.64843744383E+02  0.94699955292E+02  0.41800000000E+01 0. -1.
</event>
<event>
11    1  0.7577197E-009  0.1897646E+03  0.7561462E-02  0.1062007E+00
         22   -1    0    0    0    0  0.00000000000E+00  0.00000000000E+00  0.31914007651E+02  0.31914007651E+02  0.00000000000E+00 0. -1.
         22   -1    0    0    0    0 -0.00000000000E+00 -0.00000000000E+00 -0.16829088200E+04  0.16829088200E+04  0.00000000000E+00 0.  1.
         24    2    1    2    0    0  0.10547157299E+03  0.10526818803E+03 -0.96692061270E+03  0.98165763236E+03  0.80688238267E+02 0.  0.
         25    2    1    2    0    0 -0.88915321855E+02 -0.91108216929E+02 -0.42489201349E+03  0.46085405930E+03  0.12508636694E+03 0.  0.
        -24    2    1    2    0    0 -0.16556251135E+02 -0.14159971100E+02 -0.25918218617E+03  0.27231113600E+03  0.80643257171E+02 0.  0.
        -13    1    3    3    0    0  0.30799559006E+02  0.29978241001E+02 -0.54215308477E+03  0.54385409357E+03  0.00000000000E+00 0.  1.
         14    1    3    3    0    0  0.74672013983E+02  0.75289947029E+02 -0.42476752793E+03  0.43780353879E+03  0.00000000000E+00 0. -1.
         11    1    5    5    0    0  0.28857122349E+02 -0.22854173206E+02 -0.10049342859E+03  0.10702324950E+03  0.00000000000E+00 0. -1.
        -12    1    5    5    0    0 -0.45413373484E+02  0.86942021059E+01 -0.15868875757E+03  0.16528788649E+03  0.00000000000E+00 0.  1.
          5    1    4    4  501    0 -0.10241570851E+03 -0.64105987005E+02 -0.40897692426E+03  0.42647174807E+03  0.41800000000E+01 0. -1.
         -5    1    4    4    0  501  0.13500386656E+02 -0.27002229924E+02 -0.15915089230E+02  0.34382311236E+02  0.41800000000E+01 0. -1.
</event>
<event>
11    1  0.7577197E-009  0.1477271E+03  0.7561462E-02  0.1099224E+00
         22   -1    0    0    0    0  0.00000000000E+00  0.00000000000E+00  0.21315537677E+04  0.21315537677E+04  0.00000000000E+00 0. -1.
         22   -1    0    0    0    0 -0.00000000000E+00 -0.00000000000E+00 -0.14926269474E+04  0.14926269474E+04  0.00000000000E+00 0. -1.
        -24    2    1    2    0    0  0.32877677546E+02 -0.30248933920E+02 -0.13904535377E+04  0.13934948667E+04  0.80442297604E+02 0.  0.
         25    2    1    2    0    0 -0.10771107618E+03  0.52162457679E+02 -0.23515977172E+02  0.17470704107E+03  0.12508777356E+03 0.  0.
         24    2    1    2    0    0  0.74833398630E+02 -0.21913523759E+02  0.20528963352E+04  0.20559788072E+04  0.81149569914E+02 0.  0.
        -13    1    5    5    0    0  0.38079639898E+02 -0.36583605596E+02  0.54244852299E+03  0.54501267808E+03  0.00000000000E+00 0.  1.
         14    1    5    5    0    0  0.36753758732E+02  0.14670081837E+02  0.15104478122E+04  0.15109661292E+04  0.00000000000E+00 0. -1.
         13    1    3    3    0    0  0.24060179056E+02 -0.56312298336E+02 -0.11121178455E+04  0.11138025271E+04  0.00000000000E+00 0. -1.
        -14    1    3    3    0    0  0.88174984894E+01  0.26063364416E+02 -0.27833569225E+03  0.27969233959E+03  0.00000000000E+00 0.  1.
          5    1    4    4  501    0  0.40228488480E+01 -0.51751126090E+01 -0.46345995905E+02  0.46993497846E+02  0.41800000000E+01 0. -1.
         -5    1    4    4    0  501 -0.11173392502E+03  0.57337570288E+02  0.22830018734E+02  0.12771354322E+03  0.41800000000E+01 0. -1.
</event>
<event>
11    1  0.7577197E-009  0.1535729E+03  0.7561462E-02  0.1093283E+00
         22   -1    0    0    0    0  0.00000000000E+00  0.00000000000E+00  0.26335838217E+04  0.26335838217E+04  0.00000000000E+00 0.  1.
         22   -1    0    0    0    0 -0.00000000000E+00 -0.00000000000E+00 -0.43597808049E+03  0.43597808049E+03  0.00000000000E+00 0. -1.
        -24    2    1    2    0    0  0.25251163636E+02 -0.59754506676E+02 -0.39058392185E+03  0.40388681515E+03  0.79752975519E+02 0.  0.
         25    2    1    2    0    0 -0.10936125245E+03  0.31015074879E+02  0.15433691657E+03  0.22888649247E+03  0.12508926499E+03 0.  0.
         24    2    1    2    0    0  0.84110088814E+02  0.28739431796E+02  0.24338527465E+04  0.24367885946E+04  0.79993756120E+02 0.  0.
        -13    1    5    5    0    0  0.97944019825E+02  0.35009560422E+02  0.21828765293E+04  0.21853532078E+04  0.00000000000E+00 0.  1.
         14    1    5    5    0    0 -0.13833931012E+02 -0.62701286254E+01  0.25097621716E+03  0.25143538681E+03  0.00000000000E+00 0. -1.
         13    1    3    3    0    0  0.17355299455E+02 -0.71556807280E+02 -0.37738149998E+03  0.38449756777E+03  0.00000000000E+00 0. -1.
        -14    1    3    3    0    0  0.78958641808E+01  0.11802300604E+02 -0.13202421870E+02  0.19389247380E+02  0.00000000000E+00 0.  1.
          5    1    4    4  501    0 -0.69283238377E+02  0.55693025519E+02  0.26893903666E+02  0.92965771475E+02  0.41800000000E+01 0.  1.
         -5    1    4    4    0  501 -0.40078014072E+02 -0.24677950640E+02  0.12744301290E+03  0.13592072100E+03  0.41800000000E+01 0.  1.
</event>
<event>
11    1  0.7577197E-009  0.1692313E+03  0.7561462E-02  0.1078703E+00
         22   -1    0    0    0    0  0.00000000000E+00  0.00000000000E+00  0.32863434409E+02  0.32863434409E+02  0.00000000000E+00 0.  1.
         22   -1    0    0    0    0 -0.00000000000E+00 -0.00000000000E+00 -0.12895463840E+04  0.12895463840E+04  0.00000000000E+00 0.  1.
         24    2    1    2    0    0 -0.81950826214E+02  0.60591068204E+02 -0.32378987263E+03  0.34931802759E+03  0.82437778460E+02 0.  0.
         25    2    1    2    0    0  0.12404192957E+03 -0.34684114748E+02 -0.66930219996E+03  0.69296309591E+03  0.12507209649E+03 0.  0.
        -24    2    1    2    0    0 -0.42091103353E+02 -0.25906953456E+02 -0.26359087703E+03  0.28012869494E+03  0.80926534921E+02 0.  0.
        -11    1    3    3    0    0 -0.83382700096E+02  0.75301535628E+02 -0.30719296317E+03  0.32709404238E+03  0.00000000000E+00 0.  1.
         12    1    3    3    0    0  0.14318738812E+01 -0.14710467425E+02 -0.16596909460E+02  0.22223985203E+02  0.00000000000E+00 0. -1.
         11    1    5    5    0    0  0.23544130643E+02 -0.82537391674E+01 -0.98129121648E+02  0.10125104846E+03  0.00000000000E+00 0. -1.
        -12    1    5    5    0    0 -0.65635233995E+02 -0.17653214288E+02 -0.16546175538E+03  0.17887764648E+03  0.00000000000E+00 0.  1.
          5    1    4    4  501    0  0.63495025580E+02 -0.14759276139E+02 -0.96016845008E+02  0.11612993340E+03  0.41800000000E+01 0.  1.
         -5    1    4    4    0  501  0.60546903987E+02 -0.19924838608E+02 -0.57328535495E+03  0.57683316251E+03  0.41800000000E+01 0.  1.
</event>
<event>
11    1  0.7577197E-009  0.1883204E+03  0.7561462E-02  0.1063105E+00
         22   -1    0    0    0    0  0.00000000000E+00  0.00000000000E+00  0.25953253111E+03  0.25953253111E+03  0.00000000000E+00 0.  1.
         22   -1    0    0    0    0 -0.00000000000E+00 -0.00000000000E+00 -0.16265705752E+04  0.16265705752E+04  0.00000000000E+00 0.  1.
        -24    2    1    2    0    0  0.12665084278E+03  0.72130749553E+02 -0.14429110746E+04  0.14524321645E+04  0.79520703025E+02 0.  0.
         25    2    1    2    0    0 -0.10281589664E+03 -0.19838858140E+02 -0.12962356475E+03  0.20836240931E+03  0.12509171108E+03 0.  0.
         24    2    1    2    0    0 -0.23834946133E+02 -0.52291891413E+02  0.20549659526E+03  0.22530853253E+03  0.72336281376E+02 0.  0.
        -13    1    5    5    0    0 -0.33707542078E+02 -0.50239990216E+02  0.20649526640E+03  0.21517562607E+03  0.00000000000E+00 0.  1.
         14    1    5    5    0    0  0.98725959445E+01 -0.20519011977E+01 -0.99867114332E+00  0.10132906457E+02  0.00000000000E+00 0. -1.
         13    1    3    3    0    0 -0.49050299604E+01  0.15681283612E+02 -0.62705766531E+02  0.64822643658E+02  0.00000000000E+00 0. -1.
        -14    1    3    3    0    0  0.13155587274E+03  0.56449465941E+02 -0.13802053080E+04  0.13876095208E+04  0.00000000000E+00 0.  1.
          5    1    4    4  501    0 -0.98985595329E+02  0.37074433396E+02 -0.79758000175E+02  0.13248197117E+03  0.41800000000E+01 0.  1.
         -5    1    4    4    0  501 -0.38303013152E+01 -0.56913291535E+02 -0.49865564578E+02  0.75880438140E+02  0.41800000000E+01 0.  1.
</event>
<event>
11    1  0.7577197E-009  0.1319104E+03  0.7561462E-02  0.1116944E+00
         22   -1    0    0    0    0  0.00000000000E+00  0.00000000000E+00  0.44368368138E+03  0.44368368138E+03  0.00000000000E+00 0. -1.
         22   -1    0    0    0    0 -0.00000000000E+00 -0.00000000000E+00 -0.21334546675E+03  0.21334546675E+03  0.00000000000E+00 0.  1.
        -24    2    1    2    0    0 -0.31193756004E+02  0.24929122350E+02 -0.13506461881E+03  0.16401253430E+03  0.84042540424E+02 0.  0.
         25    2    1    2    0    0  0.49513885390E+02 -0.21282193979E+02  0.18634027532E+02  0.13747264948E+03  0.12508775219E+03 0.  0.
         24    2    1    2    0    0 -0.18320129385E+02 -0.36469283714E+01  0.34676880591E+03  0.35554396434E+03  0.76249449843E+02 0.  0.
        -11    1    5    5    0    0  0.17216445956E-01 -0.34147378904E+02  0.88929135268E+02  0.95259828270E+02  0.00000000000E+00 0.  1.
         12    1    5    5    0    0 -0.18337345831E+02  0.30500450533E+02  0.25783967064E+03  0.26028413607E+03  0.00000000000E+00 0. -1.
         13    1    3    3    0    0 -0.13844058163E+02  0.29410934218E+01  0.93136334157E+01  0.16942601463E+02  0.00000000000E+00 0. -1.
        -14    1    3    3    0    0 -0.17349697841E+02  0.21988028928E+02 -0.14437825222E+03  0.14706993284E+03  0.00000000000E+00 0.  1.
          5    1    4    4  501    0  0.42492181530E+02 -0.20036714384E+01  0.69991060814E+02  0.82011104031E+02  0.41800000000E+01 0.  1.
         -5    1    4    4    0  501  0.70217038593E+01 -0.19278522540E+02 -0.51357033283E+02  0.55461545453E+02  0.41800000000E+01 0.  1.
</event>
<event>
11    1  0.7577197E-009  0.1802067E+03  0.7561462E-02  0.1069476E+00
         22   -1    0    0    0    0  0.00000000000E+00  0.00000000000E+00  0.19650318696E+04  0.19650318696E+04  0.00000000000E+00 0.  1.
         22   -1    0    0    0    0 -0.00000000000E+00 -0.00000000000E+00 -0.10748981020E+03  0.10748981020E+03  0.00000000000E+00 0. -1.
        -24    2    1    2    0    0 -0.57606630747E+01 -0.11725264915E+02 -0.39948597333E+01  0.78332014205E+02  0.77131565969E+02 0.  0.
         25    2    1    2    0    0 -0.73880069356E+02  0.11376795425E+03  0.71788116870E+02  0.19799483902E+03  0.12508801098E+03 0.  0.
         24    2    1    2    0    0  0.79640732431E+02 -0.10204268934E+03  0.17897488023E+04  0.17961948266E+04  0.79747872261E+02 0.  0.
        -11    1    5    5    0    0  0.26671736878E+02 -0.39607933096E+02  0.11809407356E+04  0.11819057454E+04  0.00000000000E+00 0.  1.
         12    1    5    5    0    0  0.52968995552E+02 -0.62434756242E+02  0.60880806666E+03  0.61428908122E+03  0.00000000000E+00 0. -1.
         13    1    3    3    0    0 -0.17094108115E+02 -0.23989985988E+02 -0.33388720580E+02  0.44525662510E+02  0.00000000000E+00 0. -1.
        -14    1    3    3    0    0  0.11333445040E+02  0.12264721073E+02  0.29393860847E+02  0.33806351696E+02  0.00000000000E+00 0.  1.
          5    1    4    4  501    0 -0.52053868359E+02  0.39070356265E+02 -0.28341222750E+02  0.71111147205E+02  0.41800000000E+01 0.  1.
         -5    1    4    4    0  501 -0.21826200997E+02  0.74697597988E+02  0.10012933962E+03  0.12688369181E+03  0.41800000000E+01 0.  1.
</event>
<event>
11    1  0.7577197E-009  0.1428388E+03  0.7561462E-02  0.1104429E+00
         22   -1    0    0    0    0  0.00000000000E+00  0.00000000000E+00  0.12874988558E+03  0.12874988558E+03  0.00000000000E+00 0. -1.
         22   -1    0    0    0    0 -0.00000000000E+00 -0.00000000000E+00 -0.39022686581E+03  0.39022686581E+03  0.00000000000E+00 0.  1.
         24    2    1    2    0    0  0.33199814200E+02  0.61252489516E+02 -0.24215458764E+03  0.26377850261E+03  0.78013838455E+02 0.  0.
         25    2    1    2    0    0 -0.23599230080E+01 -0.71928116323E+02 -0.66040722485E+02  0.15871762726E+03  0.12510269790E+03 0.  0.
        -24    2    1    2    0    0 -0.30839891192E+02  0.10675626808E+02  0.46718329894E+02  0.96480621523E+02  0.77851397450E+02 0.  0.
        -13    1    3    3    0    0  0.41254829182E+02  0.75450262384E+02 -0.17954029124E+03  0.19907139223E+03  0.00000000000E+00 0.  1.
         14    1    3    3    0    0 -0.80550149819E+01 -0.14197772869E+02 -0.62614296395E+02  0.64707110381E+02  0.00000000000E+00 0. -1.
         11    1    5    5    0    0 -0.11172963240E+02  0.18365634214E+02  0.65054182946E+02  0.68514074076E+02  0.00000000000E+00 0. -1.
        -12    1    5    5    0    0 -0.19666927952E+02 -0.76900074057E+01 -0.18335853053E+02  0.27966547448E+02  0.00000000000E+00 0.  1.
          5    1    4    4  501    0  0.33252064974E+02 -0.44123217066E+02  0.22045027464E+02  0.59632321313E+02  0.41800000000E+01 0. -1.
         -5    1    4    4    0  501 -0.35611987982E+02 -0.27804899257E+02 -0.88085749949E+02  0.99085305948E+02  0.41800000000E+01 0. -1.
</event>
<event>
11    1  0.7577197E-009  0.1813943E+03  0.7561462E-02  0.1068521E+00
         22   -1    0    0    0    0  0.00000000000E+00  0.00000000000E+00  0.38689903353E+03  0.38689903353E+03  0.00000000000E+00 0. -1.
         22   -1    0    0    0    0 -0.00000000000E+00 -0.00000000000E+00 -0.87669527484E+03  0.87669527484E+03  0.00000000000E+00 0.  1.
         24    2    1    2    0    0  0.41166951197E+02 -0.71241037633E+02 -0.68472537018E+03  0.69399688860E+03  0.77542539948E+02 0.  0.
         25    2    1    2    0    0  0.23898437036E+02  0.18066082702E+03 -0.97112835875E+02  0.24142999278E+03  0.12509224121E+03 0.  0.
        -24    2    1    2    0    0 -0.65065388232E+02 -0.10941978938E+03  0.29204196476E+03  0.32816742699E+03  0.78734718541E+02 0.  0.
        -13    1    3    3    0    0 -0.20314651583E+01 -0.20306529910E+02 -0.43550496275E+03  0.43598286043E+03  0.00000000000E+00 0.  1.
         14    1    3    3    0    0  0.43198416355E+02 -0.50934507723E+02 -0.24922040743E+03  0.25801402817E+03  0.00000000000E+00 0. -1.
         13    1    5    5    0    0 -0.80707088910E+02 -0.81720965695E+02  0.25267526651E+03  0.27755493284E+03  0.00000000000E+00 0. -1.
        -14    1    5    5    0    0  0.15641700678E+02 -0.27698823689E+02  0.39366698243E+02  0.50612494153E+02  0.00000000000E+00 0.  1.
          5    1    4    4  501    0  0.68096133897E+02  0.69144371895E+02 -0.65991848118E+02  0.11743263616E+03  0.41800000000E+01 0.  1.
         -5    1    4    4    0  501 -0.44197696861E+02  0.11151645512E+03 -0.31120987756E+02  0.12399735662E+03  0.41800000000E+01 0.  1.
</event>
<event>
11    1  0.7577197E-009  0.1945526E+03  0.7561462E-02  0.1058444E+00
         22   -1    0    0    0    0  0.00000000000E+00  0.00000000000E+00  0.94345447721E+03  0.94345447721E+03  0.00000000000E+00 0. -1.
         22   -1    0    0    0    0 -0.00000000000E+00 -0.00000000000E+00 -0.24828063968E+04  0.24828063968E+04  0.00000000000E+00 0.  1.
         24    2    1    2    0    0 -0.78159482471E+02 -0.18956875277E+02 -0.23787066958E+04  0.23814608839E+04  0.81499257837E+02 0.  0.
         25    2    1    2    0    0  0.11259779979E+03  0.16060802618E+03  0.49796170731E+02  0.23790556562E+03  0.12508475903E+03 0.  0.
        -24    2    1    2    0    0 -0.34438317317E+02 -0.14165115090E+03  0.78955860549E+03  0.80689442450E+03  0.80154691334E+02 0.  0.
        -11    1    3    3    0    0 -0.76479891328E+02 -0.21483796624E+02 -0.23761934615E+04  0.23775209975E+04  0.00000000000E+00 0.  1.
         12    1    3    3    0    0 -0.16795911425E+01  0.25269213473E+01 -0.25132343532E+01  0.39398863963E+01  0.00000000000E+00 0. -1.
         13    1    5    5    0    0 -0.59002491374E+02 -0.77708257071E+02  0.48716471230E+03  0.49683933431E+03  0.00000000000E+00 0. -1.
        -14    1    5    5    0    0  0.24564174057E+02 -0.63942893829E+02  0.30239389318E+03  0.31005509019E+03  0.00000000000E+00 0.  1.
          5    1    4    4  501    0  0.11723707774E+03  0.71536705692E+02  0.37777598240E+01  0.13745463444E+03  0.41800000000E+01 0.  1.
         -5    1    4    4    0  501 -0.46392779537E+01  0.89071320484E+02  0.46018410907E+02  0.10045093118E+03  0.41800000000E+01 0.  1.
</event>
<event>
11    1  0.7577197E-009  0.1603950E+03  0.7561462E-02  0.1086706E+00
         22   -1    0    0    0    0  0.00000000000E+00  0.00000000000E+00  0.18343499971E+03  0.18343499971E+03  0.00000000000E+00 0. -1.
         22   -1    0    0    0    0 -0.00000000000E+00 -0.00000000000E+00 -0.14678566578E+04  0.14678566578E+04  0.00000000000E+00 0. -1.
        -24    2    1    2    0    0  0.35591327118E+02 -0.44966799416E+02 -0.11797293073E+04  0.11838857321E+04  0.80842022406E+02 0.  0.
         25    2    1    2    0    0 -0.27076710148E+02  0.14099448067E+03 -0.22412900232E+03  0.29409835824E+03  0.12508973908E+03 0.  0.
         24    2    1    2    0    0 -0.85146169699E+01 -0.96027681256E+02  0.11943665159E+03  0.17330756712E+03  0.80477231609E+02 0.  0.
        -11    1    5    5    0    0  0.10514725408E+02  0.11722632197E+02  0.10632601152E+02  0.19000835857E+02  0.00000000000E+00 0.  1.
         12    1    5    5    0    0 -0.19029342377E+02 -0.10775031345E+03  0.10880405043E+03  0.15430673126E+03  0.00000000000E+00 0. -1.
         13    1    3    3    0    0  0.43726261621E+02 -0.11717031999E+02 -0.99387695444E+03  0.99490737024E+03  0.00000000000E+00 0. -1.
        -14    1    3    3    0    0 -0.81349345037E+01 -0.33249767416E+02 -0.18585235286E+03  0.18897836187E+03  0.00000000000E+00 0.  1.
          5    1    4    4  501    0  0.47618602164E+02  0.77738738634E+02 -0.91729837922E+02  0.12939350185E+03  0.41800000000E+01 0. -1.
         -5    1    4    4    0  501 -0.74695312312E+02  0.63255742038E+02 -0.13239916440E+03  0.16470485638E+03  0.41800000000E+01 0. -1.
</event>
<event>
11    1  0.7577197E-009  0.1428842E+03  0.7561462E-02  0.1104380E+00
         22   -1    0    0    0    0  0.00000000000E+00  0.00000000000E+00  0.18092044164E+04  0.18092044164E+04  0.00000000000E+00 0. -1.
         22   -1    0    0    0    0 -0.00000000000E+00 -0.00000000000E+00 -0.13063712683E+04  0.13063712683E+04  0.00000000000E+00 0.  1.
         24    2    1    2    0    0 -0.65683316488E+02 -0.11177922319E+02 -0.10854886716E+04  0.10902787963E+04  0.77349553993E+02 0.  0.
         25    2    1    2    0    0  0.10070388369E+03 -0.24310769743E+01 -0.18771991229E+03  0.24705011864E+03  0.12509122002E+03 0.  0.
        -24    2    1    2    0    0 -0.35020567201E+02  0.13608999293E+02  0.17760417320E+04  0.17782467698E+04  0.80160434958E+02 0.  0.
        -11    1    3    3    0    0 -0.31007844649E+02  0.29762624022E+02 -0.66392532092E+03  0.66531506219E+03  0.00000000000E+00 0.  1.
         12    1    3    3    0    0 -0.34675471839E+02 -0.40940546341E+02 -0.42156335068E+03  0.42496373412E+03  0.00000000000E+00 0. -1.
         13    1    5    5    0    0 -0.10201160040E+02  0.34354696640E+02  0.34833833213E+03  0.35017695881E+03  0.00000000000E+00 0. -1.
        -14    1    5    5    0    0 -0.24819407161E+02 -0.20745697347E+02  0.14277033999E+04  0.14280698110E+04  0.00000000000E+00 0.  1.
          5    1    4    4  501    0  0.68421227422E+01  0.54032362476E+00 -0.14251920043E+03  0.14274558306E+03  0.41800000000E+01 0. -1.
         -5    1    4    4    0  501  0.93861760947E+02 -0.29714005991E+01 -0.45200711860E+02  0.10430453558E+03  0.41800000000E+01 0. -1.
</event>
<event>
11    1  0.7577197E-009  0.3614404E+03  0.7561462E-02  0.9770924E-01
         22   -1    0    0    0    0  0.00000000000E+00  0.00000000000E+00  0.14394400742E+04  0.14394400742E+04  0.00000000000E+00 0. -1.
         22   -1    0    0    0    0 -0.00000000000E+00 -0.00000000000E+00 -0.25104073147E+03  0.25104073147E+03  0.00000000000E+00 0. -1.
        -24    2    1    2    0    0  0.13186104402E+03 -0.33839494527E+03  0.11993224275E+03  0.39131316223E+03  0.82727106608E+02 0.  0.
         25    2    1    2    0    0 -0.32349852022E+03  0.16020793723E+03  0.30847103470E+03  0.49104008306E+03  0.12509239860E+03 0.  0.
         24    2    1    2    0    0  0.19163747619E+03  0.17818700804E+03  0.75999606523E+03  0.80812756032E+03  0.83669603045E+02 0.  0.
        -11    1    5    5    0    0  0.23404920487E+02  0.20279852781E+02  0.20120849476E+03  0.20357780109E+03  0.00000000000E+00 0.  1.
         12    1    5    5    0    0  0.16823255571E+03  0.15790715526E+03  0.55878757047E+03  0.60454975924E+03  0.00000000000E+00 0. -1.
         11    1    3    3    0    0  0.14219094911E+03 -0.30356907074E+03  0.11623468506E+03  0.35479987138E+03  0.00000000000E+00 0. -1.
        -12    1    3    3    0    0 -0.10329905089E+02 -0.34825874531E+02  0.36975576932E+01  0.36513290852E+02  0.00000000000E+00 0.  1.
          5    1    4    4  501    0 -0.89601702341E+02  0.11097941854E+03  0.12478406680E+03  0.18956115670E+03  0.41800000000E+01 0.  1.
         -5    1    4    4    0  501 -0.23389681788E+03  0.49228518699E+02  0.18368696790E+03  0.30147892637E+03  0.41800000000E+01 0.  1.
</event>
<event>
11    1  0.7577197E-009  0.3097756E+03  0.7561462E-02  0.9961368E-01
         22   -1    0    0    0    0  0.00000000000E+00  0.00000000000E+00  0.14246987028E+03  0.14246987028E+03  0.00000000000E+00 0.  1.
         22   -1    0    0    0    0 -0.00000000000E+00 -0.00000000000E+00 -0.25192535970E+04  0.25192535970E+04  0.00000000000E+00 0. -1.
         24    2    1    2    0    0 -0.64668681633E+02 -0.18460175109E+02 -0.74105793936E+03  0.74837702573E+03  0.79865428667E+02 0.  0.
         25    2    1    2    0    0  0.20424038365E+03  0.25955046543E+03 -0.15796224098E+04  0.16186213659E+04  0.12509032802E+03 0.  0.
        -24    2    1    2    0    0 -0.13957170202E+03 -0.24109029032E+03 -0.56103377494E+02  0.29472507560E+03  0.78169643278E+02 0.  0.
        -13    1    3    3    0    0 -0.27228164223E+02  0.28473479212E+02 -0.18889672524E+03  0.19296135559E+03  0.00000000000E+00 0.  1.
         14    1    3    3    0    0 -0.37440517410E+02 -0.46933654320E+02 -0.55216121413E+03  0.55541567014E+03  0.00000000000E+00 0. -1.
         11    1    5    5    0    0 -0.47705197103E+02 -0.55399184152E+02  0.16952893107E+02  0.75048357877E+02  0.00000000000E+00 0. -1.
        -12    1    5    5    0    0 -0.91866504918E+02 -0.18569110617E+03 -0.73056270601E+02  0.21967671772E+03  0.00000000000E+00 0.  1.
          5    1    4    4  501    0 -0.72620535336E+01  0.31332421250E+01 -0.17389229320E+03  0.17412224632E+03  0.41800000000E+01 0. -1.
         -5    1    4    4    0  501  0.21150243719E+03  0.25641722330E+03 -0.14057301166E+04  0.14444991196E+04  0.41800000000E+01 0. -1.
</event>
<event>
11    1  0.7577197E-009  0.1314213E+03  0.7561462E-02  0.1117535E+00
         22   -1    0    0    0    0  0.00000000000E+00  0.00000000000E+00  0.19332132146E+04  0.19332132146E+04  0.00000000000E+00 0.  1.
         22   -1    0    0    0    0 -0.00000000000E+00 -0.00000000000E+00 -0.57568891761E+02  0.57568891761E+02  0.00000000000E+00 0.  1.
         24    2    1    2    0    0 -0.12185497272E+02 -0.40134916432E+02 -0.62781231562E+01  0.89612327410E+02  0.78940841982E+02 0.  0.
         25    2    1    2    0    0  0.15429055380E+02  0.17402940537E+02  0.47415968462E+03  0.49093381652E+03  0.12509071744E+03 0.  0.
        -24    2    1    2    0    0 -0.32435581080E+01  0.22731975895E+02  0.14077627614E+04  0.14102359624E+04  0.80263404111E+02 0.  0.
        -13    1    3    3    0    0  0.15996510674E+02  0.17461714724E+02 -0.92453619852E+01  0.25421969890E+02  0.00000000000E+00 0.  1.
         14    1    3    3    0    0 -0.28182007945E+02 -0.57596631156E+02  0.29672388290E+01  0.64190357520E+02  0.00000000000E+00 0. -1.
         11    1    5    5    0    0  0.10202484311E+02  0.50956384024E+02  0.93096126828E+03  0.93241059989E+03  0.00000000000E+00 0. -1.
        -12    1    5    5    0    0 -0.13446042419E+02 -0.28224408129E+02  0.47680149311E+03  0.47782536255E+03  0.00000000000E+00 0.  1.
          5    1    4    4  501    0  0.36574150374E+02 -0.36990113170E+02  0.10595448731E+03  0.11810911366E+03  0.41800000000E+01 0. -1.
         -5    1    4    4    0  501 -0.21145094994E+02  0.54393053706E+02  0.36820519731E+03  0.37282470286E+03  0.41800000000E+01 0. -1.
</event>
<event>
11    1  0.7577197E-009  0.1994028E+03  0.7561462E-02  0.1054947E+00
         22   -1    0    0    0    0  0.00000000000E+00  0.00000000000E+00  0.54955481537E+03  0.54955481537E+03  0.00000000000E+00 0. -1.
         22   -1    0    0    0    0 -0.00000000000E+00 -0.00000000000E+00 -0.13337059424E+04  0.13337059424E+04  0.00000000000E+00 0.  1.
         24    2    1    2    0    0 -0.53977432604E+02 -0.14521663471E+03 -0.12838430473E+04  0.12958456767E+04  0.83436283700E+02 0.  0.
         25    2    1    2    0    0  0.88236369732E+02  0.15632379794E+03  0.33265601472E+03  0.39815903518E+03  0.12509119242E+03 0.  0.
        -24    2    1    2    0    0 -0.34258937129E+02 -0.11107163223E+02  0.16703590552E+03  0.18925604595E+03  0.81362235378E+02 0.  0.
        -11    1    3    3    0    0 -0.14992240393E+02 -0.85532277756E+02 -0.97603383086E+03  0.97988906351E+03  0.00000000000E+00 0.  1.
         12    1    3    3    0    0 -0.38985192211E+02 -0.59684356959E+02 -0.30780921644E+03  0.31595661316E+03  0.00000000000E+00 0. -1.
         11    1    5    5    0    0 -0.50926558689E+02  0.17185871508E+02  0.12379743607E+03  0.13496174916E+03  0.00000000000E+00 0. -1.
        -12    1    5    5    0    0  0.16667621561E+02 -0.28293034731E+02  0.43238469456E+02  0.54294296788E+02  0.00000000000E+00 0.  1.
          5    1    4    4  501    0  0.32712287785E+02 -0.93071109003E+01  0.10945558985E+03  0.11469400435E+03  0.41800000000E+01 0.  1.
         -5    1    4    4    0  501  0.55524081947E+02  0.16563090884E+03  0.22320042487E+03  0.28346503083E+03  0.41800000000E+01 0.  1.
</event>
<event>
11    1  0.7577197E-009  0.1862682E+03  0.7561462E-02  0.1064682E+00
         22   -1    0    0    0    0  0.00000000000E+00  0.00000000000E+00  0.10606086074E+04  0.10606086074E+04  0.00000000000E+00 0. -1.
         22   -1    0    0    0    0 -0.00000000000E+00 -0.00000000000E+00 -0.15657952469E+04  0.15657952469E+04  0.00000000000E+00 0.  1.
         24    2    1    2    0    0 -0.38704613495E+02  0.13438032270E+03 -0.13995385895E+04  0.14087656114E+04  0.79725566839E+02 0.  0.
         25    2    1    2    0    0  0.78316231098E+02 -0.99833869776E+02 -0.10966671471E+03  0.20922315611E+03  0.12508919669E+03 0.  0.
        -24    2    1    2    0    0 -0.39611617602E+02 -0.34546452921E+02  0.10040186647E+04  0.10084150868E+04  0.78006221018E+02 0.  0.
        -11    1    3    3    0    0 -0.23133406796E+02  0.13383583435E+03 -0.13504704111E+04  0.13572831379E+04  0.00000000000E+00 0.  1.
         12    1    3    3    0    0 -0.15571206699E+02  0.54448834922E+00 -0.49068178375E+02  0.51482473471E+02  0.00000000000E+00 0. -1.
         13    1    5    5    0    0 -0.10964282099E+02 -0.36074815451E+02  0.89149494422E+03  0.89229190480E+03  0.00000000000E+00 0. -1.
        -14    1    5    5    0    0 -0.28647335503E+02  0.15283625303E+01  0.11252372049E+03  0.11612318199E+03  0.00000000000E+00 0.  1.
          5    1    4    4  501    0  0.59702992567E+02 -0.44473259136E+02  0.10739775865E+02  0.75333480506E+02  0.41800000000E+01 0.  1.
         -5    1    4    4    0  501  0.18613238531E+02 -0.55360610640E+02 -0.12040649058E+03  0.13388967560E+03  0.41800000000E+01 0.  1.
</event>
<event>
11    1  0.7577197E-009  0.2115595E+03  0.7561462E-02  0.1046637E+00
         22   -1    0    0    0    0  0.00000000000E+00  0.00000000000E+00  0.37899371687E+04  0.37899371687E+04  0.00000000000E+00 0. -1.
         22   -1    0    0    0    0 -0.00000000000E+00 -0.00000000000E+00 -0.59771423785E+02  0.59771423785E+02  0.00000000000E+00 0. -1.
         24    2    1    2    0    0 -0.36817535419E+02 -0.13226133957E+03  0.23469769037E+03  0.28309836742E+03  0.78823136874E+02 0.  0.
         25    2    1    2    0    0  0.38994606854E+02  0.23780410650E+03  0.50650617083E+03  0.57468900438E+03  0.12509028037E+03 0.  0.
        -24    2    1    2    0    0 -0.21770714356E+01 -0.10554276693E+03  0.29889618838E+04  0.29919212207E+04  0.80965629710E+02 0.  0.
        -13    1    3    3    0    0 -0.12783847259E+02  0.82051430627E+00  0.69527687682E+00  0.12829006368E+02  0.00000000000E+00 0.  1.
         14    1    3    3    0    0 -0.24033688160E+02 -0.13308185388E+03  0.23400241350E+03  0.27026936105E+03  0.00000000000E+00 0. -1.
         13    1    5    5    0    0 -0.17235145809E+02 -0.10571747237E+03  0.20165696963E+04  0.20194124329E+04  0.00000000000E+00 0. -1.
        -14    1    5    5    0    0  0.15058074374E+02  0.17470543878E+00  0.97239218747E+03  0.97250878782E+03  0.00000000000E+00 0.  1.
          5    1    4    4  501    0 -0.35299484853E+02  0.89390512997E+02  0.11833549770E+03  0.15250403228E+03  0.41800000000E+01 0. -1.
         -5    1    4    4    0  501  0.74294091708E+02  0.14841359350E+03  0.38817067312E+03  0.42218497211E+03  0.41800000000E+01 0. -1.
</event>
<event>
11    1  0.7577197E-009  0.1610320E+03  0.7561462E-02  0.1086111E+00
         22   -1    0    0    0    0  0.00000000000E+00  0.00000000000E+00  0.50245815657E+03  0.50245815657E+03  0.00000000000E+00 0.  1.
         22   -1    0    0    0    0 -0.00000000000E+00 -0.00000000000E+00 -0.57639974959E+03  0.57639974959E+03  0.00000000000E+00 0.  1.
        -24    2    1    2    0    0  0.85793212924E+02 -0.52427096795E+02 -0.52519090968E+03  0.54076825977E+03  0.80596174217E+02 0.  0.
         25    2    1    2    0    0 -0.86741594978E+02  0.10567955871E+03  0.22022397951E+03  0.28781874890E+03  0.12509499447E+03 0.  0.
         24    2    1    2    0    0  0.94838205382E+00 -0.53252461915E+02  0.23102533714E+03  0.25027089749E+03  0.80162906624E+02 0.  0.
        -13    1    5    5    0    0  0.34111055326E+02 -0.21527327278E+02  0.16502166013E+03  0.16987977580E+03  0.00000000000E+00 0.  1.
         14    1    5    5    0    0 -0.33162673272E+02 -0.31725134637E+02  0.66003677017E+02  0.80391121687E+02  0.00000000000E+00 0. -1.
         13    1    3    3    0    0 -0.80245476437E+01  0.10898710134E+02 -0.93957615950E+02  0.94927387209E+02  0.00000000000E+00 0. -1.
        -14    1    3    3    0    0  0.93817760568E+02 -0.63325806929E+02 -0.43123329373E+03  0.44584087256E+03  0.00000000000E+00 0.  1.
          5    1    4    4  501    0  0.24786794636E+02  0.76390022437E+01  0.77427763982E+02  0.81763503954E+02  0.41800000000E+01 0. -1.
         -5    1    4    4    0  501 -0.11152838961E+03  0.98040556466E+02  0.14279621553E+03  0.20605524495E+03  0.41800000000E+01 0. -1.
</event>
<event>
11    1  0.7577197E-009  0.1457749E+03  0.7561462E-02  0.1101276E+00
         22   -1    0    0    0    0  0.00000000000E+00  0.00000000000E+00  0.17441185055E+03  0.17441185055E+03  0.00000000000E+00 0.  1.
         22   -1    0    0    0    0 -0.00000000000E+00 -0.00000000000E+00 -0.63822793847E+03  0.63822793847E+03  0.00000000000E+00 0.  1.
         24    2    1    2    0    0 -0.50556211415E+02  0.42763172070E+02 -0.26964114108E+03  0.28912800817E+03  0.80647633261E+02 0.  0.
         25    2    1    2    0    0  0.80297485928E+02 -0.43321950688E+02 -0.33007435178E+03  0.36458400890E+03  0.12509174306E+03 0.  0.
        -24    2    1    2    0    0 -0.29741274513E+02  0.55877861819E+00  0.13589940493E+03  0.15892777196E+03  0.76840957803E+02 0.  0.
        -11    1    3    3    0    0 -0.52459016756E+02 -0.31819196394E+01 -0.19030387157E+03  0.19742754768E+03  0.00000000000E+00 0.  1.
         12    1    3    3    0    0  0.19028053413E+01  0.45945091709E+02 -0.79337269510E+02  0.91700460488E+02  0.00000000000E+00 0. -1.
         11    1    5    5    0    0 -0.27510735263E+02 -0.60119768408E+00  0.49557668446E+01  0.27960000329E+02  0.00000000000E+00 0. -1.
        -12    1    5    5    0    0 -0.22305392497E+01  0.11599763023E+01  0.13094363809E+03  0.13096777163E+03  0.00000000000E+00 0.  1.
          5    1    4    4  501    0  0.17959275198E+02  0.72808823738E+01 -0.25111142733E+03  0.25189277114E+03  0.41800000000E+01 0.  1.
         -5    1    4    4    0  501  0.62338210729E+02 -0.50602833062E+02 -0.78962924447E+02  0.11269123776E+03  0.41800000000E+01 0.  1.
</event>
<event>
11    1  0.7577197E-009  0.1324536E+03  0.7561462E-02  0.1116291E+00
         22   -1    0    0    0    0  0.00000000000E+00  0.00000000000E+00  0.13587554241E+03  0.13587554241E+03  0.00000000000E+00 0.  1.
         22   -1    0    0    0    0 -0.00000000000E+00 -0.00000000000E+00 -0.51369892640E+03  0.51369892640E+03  0.00000000000E+00 0. -1.
         24    2    1    2    0    0 -0.10888941416E+02 -0.11101066046E+02 -0.37925797163E+03  0.38857076757E+03  0.83119369915E+02 0.  0.
         25    2    1    2    0    0 -0.92127564223E+01 -0.30519290872E+02 -0.67125507975E+02  0.14549287625E+03  0.12508413657E+03 0.  0.
        -24    2    1    2    0    0  0.20101697839E+02  0.41620356918E+02  0.68560095610E+02  0.11551082499E+03  0.80659355399E+02 0.  0.
        -13    1    3    3    0    0  0.83112079976E+01  0.26914543629E+02 -0.57743577444E+02  0.64247876020E+02  0.00000000000E+00 0.  1.
         14    1    3    3    0    0 -0.19200149414E+02 -0.38015609674E+02 -0.32151439419E+03  0.32432289155E+03  0.00000000000E+00 0. -1.
         13    1    5    5    0    0  0.18582693273E+02 -0.14018740634E+02 -0.44550678908E+01  0.23699983295E+02  0.00000000000E+00 0. -1.
        -14    1    5    5    0    0  0.15190045654E+01  0.55639097552E+02  0.73015163501E+02  0.91810841693E+02  0.00000000000E+00 0.  1.
          5    1    4    4  501    0 -0.66786778393E+02 -0.92057814157E+01 -0.34945187549E+02  0.76051684481E+02  0.41800000000E+01 0.  1.
         -5    1    4    4    0  501  0.57574021970E+02 -0.21313509456E+02 -0.32180320426E+02  0.69441191766E+02  0.41800000000E+01 0.  1.
</event>
<event>
11    1  0.7577197E-009  0.1435866E+03  0.7561462E-02  0.1103618E+00
         22   -1    0    0    0    0  0.00000000000E+00  0.00000000000E+00  0.58855552267E+03  0.58855552267E+03  0.00000000000E+00 0. -1.
         22   -1    0    0    0    0 -0.00000000000E+00 -0.00000000000E+00 -0.21046265048E+03  0.21046265048E+03  0.00000000000E+00 0.  1.
        -24    2    1    2    0    0 -0.55132895892E+02  0.46181555089E+02 -0.16361693159E+03  0.19610912441E+03  0.80721224804E+02 0.  0.
         25    2    1    2    0    0  0.42985581450E+02 -0.33594283310E+02  0.14986637606E+03  0.20270658376E+03  0.12511471673E+03 0.  0.
         24    2    1    2    0    0  0.12147314442E+02 -0.12587271779E+02  0.39184342772E+03  0.40020246497E+03  0.79465366463E+02 0.  0.
        -11    1    5    5    0    0 -0.20867514179E+02  0.31463725898E+01  0.30946181679E+02  0.37456894813E+02  0.00000000000E+00 0.  1.
         12    1    5    5    0    0  0.33014828621E+02 -0.15733644369E+02  0.36089724604E+03  0.36274557016E+03  0.00000000000E+00 0. -1.
         11    1    3    3    0    0 -0.55452240963E+01  0.38158767901E+02 -0.18940476358E+02  0.42960245841E+02  0.00000000000E+00 0. -1.
        -12    1    3    3    0    0 -0.49587671795E+02  0.80227871872E+01 -0.14467645523E+03  0.15314887857E+03  0.00000000000E+00 0.  1.
          5    1    4    4  501    0 -0.17630089077E+02 -0.22481932518E+02 -0.10603287557E+02  0.30759704772E+02  0.41800000000E+01 0.  1.
         -5    1    4    4    0  501  0.60615670527E+02 -0.11112350791E+02  0.16046966362E+03  0.17194687899E+03  0.41800000000E+01 0.  1.
</event>
<event>
11    1  0.7577197E-009  0.1309091E+03  0.7561462E-02  0.1118157E+00
         22   -1    0    0    0    0  0.00000000000E+00  0.00000000000E+00  0.17700532494E+04  0.17700532494E+04  0.00000000000E+00 0.  1.
         22   -1    0    0    0    0 -0.00000000000E+00 -0.00000000000E+00 -0.15510630723E+03  0.15510630723E+03  0.00000000000E+00 0.  1.
        -24    2    1    2    0    0 -0.29805084045E+02  0.24547742258E+02 -0.13406835965E+03  0.16047438431E+03  0.79289143476E+02 0.  0.
         25    2    1    2    0    0  0.16911260486E+02 -0.38029981538E+02  0.68655249508E+03  0.69909565093E+03  0.12509248747E+03 0.  0.
         24    2    1    2    0    0  0.12893823558E+02  0.13482239280E+02  0.10624628067E+04  0.10655895214E+04  0.79409010533E+02 0.  0.
        -11    1    5    5    0    0  0.44410350142E+02  0.63431638487E+01  0.77900709510E+03  0.78029774390E+03  0.00000000000E+00 0.  1.
         12    1    5    5    0    0 -0.31516526584E+02  0.71390754318E+01  0.28345571163E+03  0.28529177749E+03  0.00000000000E+00 0. -1.
         11    1    3    3    0    0 -0.23454215967E+02 -0.20582595410E+02 -0.96472370132E+02  0.10139359782E+03  0.00000000000E+00 0. -1.
        -12    1    3    3    0    0 -0.63508680782E+01  0.45130337668E+02 -0.37595989521E+02  0.59080786483E+02  0.00000000000E+00 0.  1.
          5    1    4    4  501    0 -0.62031036241E+01  0.32320808070E+02  0.63496854182E+02  0.71641021907E+02  0.41800000000E+01 0. -1.
         -5    1    4    4    0  501  0.23114364111E+02 -0.70350789608E+02  0.62305564089E+03  0.62745462902E+03  0.41800000000E+01 0. -1.
</event>
<event>
11    1  0.7577197E-009  0.1362394E+03  0.7561462E-02  0.1111832E+00
         22   -1    0    0    0    0  0.00000000000E+00  0.00000000000E+00  0.76681967856E+03  0.76681967856E+03  0.00000000000E+00 0.  1.
         22   -1    0    0    0    0 -0.00000000000E+00 -0.00000000000E+00 -0.64583053215E+03  0.64583053215E+03  0.00000000000E+00 0. -1.
        -24    2    1    2    0    0 -0.36517651161E+02  0.12958088686E+02 -0.37558673173E+03  0.39320802673E+03  0.10975294222E+03 0.  0.
         25    2    1    2    0    0  0.10588901192E+03  0.21079202095E+02 -0.23027544559E+03  0.28342779977E+03  0.12509085192E+03 0.  0.
         24    2    1    2    0    0 -0.69371360756E+02 -0.34037290781E+02  0.72685132373E+03  0.73601438421E+03  0.86217191448E+02 0.  0.
        -11    1    5    5    0    0 -0.76104864134E+02  0.13613975283E+01  0.57104212949E+03  0.57609280277E+03  0.00000000000E+00 0.  1.
         12    1    5    5    0    0  0.67335033779E+01 -0.35398688309E+02  0.15580919423E+03  0.15992158144E+03  0.00000000000E+00 0. -1.
         13    1    3    3    0    0 -0.87809746820E+01  0.35845319581E+02 -0.34205356190E+03  0.34403870663E+03  0.00000000000E+00 0. -1.
        -14    1    3    3    0    0 -0.27736676479E+02 -0.22887230895E+02 -0.33533169828E+02  0.49169320098E+02  0.00000000000E+00 0.  1.
          5    1    4    4  501    0  0.98216446140E+02  0.62299856023E+02 -0.20050681858E+03  0.23183657832E+03  0.41800000000E+01 0.  1.
         -5    1    4    4    0  501  0.76725657769E+01 -0.41220653929E+02 -0.29768627018E+02  0.51591221448E+02  0.41800000000E+01 0.  1.
</event>
<event>
11    1  0.7577197E-009  0.1807256E+03  0.7561462E-02  0.1069057E+00
         22   -1    0    0    0    0  0.00000000000E+00  0.00000000000E+00  0.22172785074E+03  0.22172785074E+03  0.00000000000E+00 0. -1.
         22   -1    0    0    0    0 -0.00000000000E+00 -0.00000000000E+00 -0.16446924495E+04  0.16446924495E+04  0.00000000000E+00 0. -1.
         24    2    1    2    0    0  0.16802899726E+02  0.61294303859E+02 -0.93927895754E+03  0.94505095734E+03  0.82686291252E+02 0.  0.
         25    2    1    2    0    0 -0.11317666110E+03  0.28334395294E+02 -0.66323960196E+03  0.68494242152E+03  0.12509019391E+03 0.  0.
        -24    2    1    2    0    0  0.96373761372E+02 -0.89628699153E+02  0.17955396078E+03  0.23642692135E+03  0.79604388770E+02 0.  0.
        -13    1    3    3    0    0  0.10040983468E+02  0.79307219887E+02 -0.61080202706E+03  0.61601101674E+03  0.00000000000E+00 0.  1.
         14    1    3    3    0    0  0.67619162577E+01 -0.18012916028E+02 -0.32847693048E+03  0.32903994060E+03  0.00000000000E+00 0. -1.
         11    1    5    5    0    0  0.96986329428E+02 -0.96940021614E+02  0.18270663602E+03  0.22844130697E+03  0.00000000000E+00 0. -1.
        -12    1    5    5    0    0 -0.61256805556E+00  0.73113224610E+01 -0.31526752366E+01  0.79856143720E+01  0.00000000000E+00 0.  1.
          5    1    4    4  501    0 -0.90757692123E+02 -0.30317843548E+02 -0.51607271339E+03  0.52488536675E+03  0.41800000000E+01 0.  1.
         -5    1    4    4    0  501 -0.22418968976E+02  0.58652238842E+02 -0.14716688857E+03  0.16005705477E+03  0.41800000000E+01 0.  1.
</event>
<event>
11    1  0.7577197E-009  0.1313290E+03  0.7561462E-02  0.1117647E+00
         22   -1    0    0    0    0  0.00000000000E+00  0.00000000000E+00  0.12027105554E+04  0.12027105554E+04  0.00000000000E+00 0.  1.
         22   -1    0    0    0    0 -0.00000000000E+00 -0.00000000000E+00 -0.82718650038E+03  0.82718650038E+03  0.00000000000E+00 0. -1.
         24    2    1    2    0    0  0.44609900093E+02  0.27512869916E+01 -0.80623870500E+03  0.81072456898E+03  0.72497341568E+02 0.  0.
         25    2    1    2    0    0  0.36112535647E+00 -0.74545805255E+01  0.22163788867E+03  0.25461058517E+03  0.12508994845E+03 0.  0.
        -24    2    1    2    0    0 -0.44971025449E+02  0.47032935339E+01  0.96012487136E+03  0.96456190164E+03  0.80593916547E+02 0.  0.
        -13    1    3    3    0    0 -0.24067814172E+01 -0.12033393894E+02 -0.24193802016E+02  0.27128126021E+02  0.00000000000E+00 0.  1.
         14    1    3    3    0    0  0.47016681510E+02  0.14784680885E+02 -0.78204490299E+03  0.78359644296E+03  0.00000000000E+00 0. -1.
         11    1    5    5    0    0 -0.24719775401E+02  0.42512578613E+02  0.55402820177E+03  0.55620646796E+03  0.00000000000E+00 0. -1.
        -12    1    5    5    0    0 -0.20251250048E+02 -0.37809285079E+02  0.40609666959E+03  0.40835543368E+03  0.00000000000E+00 0.  1.
          5    1    4    4  501    0  0.54300293375E+01 -0.54792045339E+02  0.18858492334E+03  0.19650292406E+03  0.41800000000E+01 0.  1.
         -5    1    4    4    0  501 -0.50689039810E+01  0.47337464814E+02  0.33052965328E+02  0.58107661109E+02  0.41800000000E+01 0.  1.
</event>
<event>
11    1  0.7577197E-009  0.1375888E+03  0.7561462E-02  0.1110281E+00
         22   -1    0    0    0    0  0.00000000000E+00  0.00000000000E+00  0.20331231327E+04  0.20331231327E+04  0.00000000000E+00 0.  1.
         22   -1    0    0    0    0 -0.00000000000E+00 -0.00000000000E+00 -0.46806638331E+03  0.46806638331E+03  0.00000000000E+00 0. -1.
         24    2    1    2    0    0 -0.41010526984E+02  0.40394999259E+02 -0.45359781533E+03  0.46385192214E+03  0.78064129512E+02 0.  0.
         25    2    1    2    0    0  0.57062816178E+01 -0.24343061070E+02  0.50126490022E+03  0.51725268792E+03  0.12513471422E+03 0.  0.
        -24    2    1    2    0    0  0.35304245366E+02 -0.16051938189E+02  0.15173896645E+04  0.15200849059E+04  0.81747617108E+02 0.  0.
        -13    1    3    3    0    0 -0.11955448449E+02 -0.21950519589E+02 -0.74967245591E+02  0.79024337829E+02  0.00000000000E+00 0.  1.
         14    1    3    3    0    0 -0.29055078534E+02  0.62345518848E+02 -0.37863056974E+03  0.38482758431E+03  0.00000000000E+00 0. -1.
         13    1    5    5    0    0  0.47080183604E+02 -0.34082484040E+01  0.43434648504E+03  0.43690391268E+03  0.00000000000E+00 0. -1.
        -14    1    5    5    0    0 -0.11775938238E+02 -0.12643689785E+02  0.10830431794E+04  0.10831809933E+04  0.00000000000E+00 0.  1.
          5    1    4    4  501    0 -0.20913403187E+02 -0.51661628375E+02  0.44872610232E+03  0.45219341169E+03  0.41800000000E+01 0. -1.
         -5    1    4    4    0  501  0.26619684805E+02  0.27318567305E+02  0.52538797902E+02  0.65059276231E+02  0.41800000000E+01 0. -1.
</event>
<event>
11    1  0.7577197E-009  0.1343133E+03  0.7561462E-02  0.1114080E+00
         22   -1    0    0    0    0  0.00000000000E+00  0.00000000000E+00  0.10818466064E+04  0.10818466064E+04  0.00000000000E+00 0.  1.
         22   -1    0    0    0    0 -0.00000000000E+00 -0.00000000000E+00 -0.73810974342E+03  0.73810974342E+03  0.00000000000E+00 0.  1.
         24    2    1    2    0    0  0.43353199003E+02 -0.23022529055E+02 -0.67560048036E+03  0.68203436789E+03  0.79531963444E+02 0.  0.
         25    2    1    2    0    0 -0.32251727392E+02  0.30968901536E+02  0.19908741658E+02  0.13434923034E+03  0.12511638948E+03 0.  0.
        -24    2    1    2    0    0 -0.11101471611E+02 -0.79463724814E+01  0.99942860172E+03  0.10035727516E+04  0.90079689045E+02 0.  0.
        -11    1    3    3    0    0  0.38110861468E+02 -0.28466132715E+02 -0.67196746048E+03  0.67364903801E+03  0.00000000000E+00 0.  1.
         12    1    3    3    0    0  0.52423375347E+01  0.54436036596E+01 -0.36330198794E+01  0.83853298728E+01  0.00000000000E+00 0. -1.
         11    1    5    5    0    0  0.16821442537E+02 -0.58024091110E+01  0.40515773657E+02  0.44251065473E+02  0.00000000000E+00 0. -1.
        -12    1    5    5    0    0 -0.27922914148E+02 -0.21439633704E+01  0.95891282807E+03  0.95932168616E+03  0.00000000000E+00 0.  1.
          5    1    4    4  501    0 -0.43421956369E+02  0.60124375870E+02  0.50987644841E+02  0.90097831245E+02  0.41800000000E+01 0.  1.
         -5    1    4    4    0  501  0.11170228977E+02 -0.29155474334E+02 -0.31078903184E+02  0.44251399098E+02  0.41800000000E+01 0.  1.
</event>
<event>
11    1  0.7577197E-009  0.1707722E+03  0.7561462E-02  0.1077362E+00
         22   -1    0    0    0    0  0.00000000000E+00  0.00000000000E+00  0.85123980556E+03  0.85123980556E+03  0.00000000000E+00 0.  1.
         22   -1    0    0    0    0 -0.00000000000E+00 -0.00000000000E+00 -0.36720259613E+03  0.36720259613E+03  0.00000000000E+00 0. -1.
        -24    2    1    2    0    0  0.86908894255E+01 -0.14422870121E+02 -0.28412560863E+03  0.29619795544E+03  0.81989734644E+02 0.  0.
         25    2    1    2    0    0 -0.10387338394E+03 -0.52497622679E+02  0.33521374799E+02  0.17411608657E+03  0.12508816393E+03 0.  0.
         24    2    1    2    0    0  0.95182494512E+02  0.66920492799E+02  0.73464144327E+03  0.74812835968E+03  0.80373706963E+02 0.  0.
        -11    1    5    5    0    0  0.59199138964E+01  0.35809452453E+02  0.35681484233E+03  0.35865609429E+03  0.00000000000E+00 0.  1.
         12    1    5    5    0    0  0.89262580616E+02  0.31111040346E+02  0.37782660094E+03  0.38947226539E+03  0.00000000000E+00 0. -1.
         11    1    3    3    0    0  0.54040924746E+01 -0.38589722808E+02 -0.25609342539E+03  0.25904094937E+03  0.00000000000E+00 0. -1.
        -12    1    3    3    0    0  0.32867969509E+01  0.24166852688E+02 -0.28032183235E+02  0.37157006068E+02  0.00000000000E+00 0.  1.
          5    1    4    4  501    0 -0.42199767066E+02  0.37639760119E+02  0.31363954362E+02  0.64797699924E+02  0.41800000000E+01 0. -1.
         -5    1    4    4    0  501 -0.61673616872E+02 -0.90137382797E+02  0.21574204374E+01  0.10931838664E+03  0.41800000000E+01 0. -1.
</event>
<event>
11    1  0.7577197E-009  0.1958997E+03  0.7561462E-02  0.1057462E+00
         22   -1    0    0    0    0  0.00000000000E+00  0.00000000000E+00  0.12651271760E+03  0.12651271760E+03  0.00000000000E+00 0. -1.
         22   -1    0    0    0    0 -0.00000000000E+00 -0.00000000000E+00 -0.20270030138E+04  0.20270030138E+04  0.00000000000E+00 0. -1.
        -24    2    1    2    0    0 -0.15002143059E+03  0.53516271063E+01 -0.17713090077E+04  0.17794358133E+04  0.79505616793E+02 0.  0.
         25    2    1    2    0    0  0.16025175947E+03  0.58288839223E+02 -0.16149537444E+03  0.26609550671E+03  0.12509135675E+03 0.  0.
         24    2    1    2    0    0 -0.10230328877E+02 -0.63640466329E+02  0.32314085959E+02  0.10798441143E+03  0.80384478464E+02 0.  0.
        -11    1    5    5    0    0  0.81606658484E+01 -0.72312577262E+01 -0.23888670566E+02  0.26259400922E+02  0.00000000000E+00 0.  1.
         12    1    5    5    0    0 -0.18390994726E+02 -0.56409208603E+02  0.56202756525E+02  0.81725010512E+02  0.00000000000E+00 0. -1.
         13    1    3    3    0    0 -0.12261158902E+03 -0.94365453687E+01 -0.10052407956E+04  0.10127347665E+04  0.00000000000E+00 0. -1.
        -14    1    3    3    0    0 -0.27409841573E+02  0.14788172475E+02 -0.76606821217E+03  0.76670104679E+03  0.00000000000E+00 0.  1.
          5    1    4    4  501    0  0.10894947894E+03 -0.83664417385E+01 -0.36313727571E+02  0.11522215724E+03  0.41800000000E+01 0.  1.
         -5    1    4    4    0  501  0.51302280529E+02  0.66655280961E+02 -0.12518164687E+03  0.15087334947E+03  0.41800000000E+01 0.  1.
</event>
<event>
11    1  0.7577197E-009  0.1437742E+03  0.7561462E-02  0.1103416E+00
         22   -1    0    0    0    0  0.00000000000E+00  0.00000000000E+00  0.22798199351E+04  0.22798199351E+04  0.00000000000E+00 0. -1.
         22   -1    0    0    0    0 -0.00000000000E+00 -0.00000000000E+00 -0.30622758182E+02  0.30622758182E+02  0.00000000000E+00 0. -1.
        -24    2    1    2    0    0 -0.27353902416E+02 -0.33355244445E+02  0.89686757110E+02  0.12814448924E+03  0.80724763314E+02 0.  0.
         25    2    1    2    0    0  0.37301929951E+02 -0.41436090649E+02  0.48125820098E+03  0.50036543064E+03  0.12509086529E+03 0.  0.
         24    2    1    2    0    0 -0.99480275357E+01  0.74791335094E+02  0.16782522188E+04  0.16819327734E+04  0.81698452854E+02 0.  0.
        -11    1    5    5    0    0  0.35634101872E+02  0.33367752233E+02  0.64352741528E+03  0.64537642529E+03  0.00000000000E+00 0.  1.
         12    1    5    5    0    0 -0.45582129408E+02  0.41423582861E+02  0.10347248035E+04  0.10365563481E+04  0.00000000000E+00 0. -1.
         11    1    3    3    0    0 -0.49740357577E+01  0.19593203124E+02 -0.15875951250E+01  0.20276959799E+02  0.00000000000E+00 0. -1.
        -12    1    3    3    0    0 -0.22379866658E+02 -0.52948447569E+02  0.91274352235E+02  0.10786752944E+03  0.00000000000E+00 0.  1.
          5    1    4    4  501    0 -0.10549179618E+02  0.44673126748E+01 -0.21755945166E+01  0.12387400237E+02  0.41800000000E+01 0. -1.
         -5    1    4    4    0  501  0.47851109569E+02 -0.45903403324E+02  0.48343379550E+03  0.48797803040E+03  0.41800000000E+01 0. -1.
</event>
<event>
11    1  0.7577197E-009  0.1479711E+03  0.7561462E-02  0.1098970E+00
         22   -1    0    0    0    0  0.00000000000E+00  0.00000000000E+00  0.11111577255E+04  0.11111577255E+04  0.00000000000E+00 0.  1.
         22   -1    0    0    0    0 -0.00000000000E+00 -0.00000000000E+00 -0.18012739507E+03  0.18012739507E+03  0.00000000000E+00 0. -1.
         24    2    1    2    0    0  0.10121606536E+02 -0.68328356606E+02 -0.86487937411E+02  0.13610526083E+03  0.79203961221E+02 0.  0.
         25    2    1    2    0    0 -0.29124113194E+02  0.12485124294E+03  0.55511171313E+02  0.18752261159E+03  0.12508874005E+03 0.  0.
        -24    2    1    2    0    0  0.19002506658E+02 -0.56522886331E+02  0.96200709655E+03  0.96765724816E+03  0.85714433821E+02 0.  0.
        -13    1    3    3    0    0 -0.32233060622E+02 -0.11622394069E+02 -0.26246781843E+02  0.43161832654E+02  0.00000000000E+00 0.  1.
         14    1    3    3    0    0  0.42354667158E+02 -0.56705962537E+02 -0.60241155567E+02  0.92943428177E+02  0.00000000000E+00 0. -1.
         11    1    5    5    0    0  0.44453258398E+02 -0.54727424417E+02  0.50006302250E+03  0.50500911838E+03  0.00000000000E+00 0. -1.
        -12    1    5    5    0    0 -0.25450751741E+02 -0.17954619138E+01  0.46194407404E+03  0.46264812978E+03  0.00000000000E+00 0.  1.
          5    1    4    4  501    0  0.12214032110E+02  0.11777530768E+03  0.75895664367E+02  0.14070476164E+03  0.41800000000E+01 0.  1.
         -5    1    4    4    0  501 -0.41338145304E+02  0.70759352583E+01 -0.20384493054E+02  0.46817849951E+02  0.41800000000E+01 0.  1.
</event>
<event>
11    1  0.7577197E-009  0.3619903E+03  0.7561462E-02  0.9769084E-01
         22   -1    0    0    0    0  0.00000000000E+00  0.00000000000E+00  0.55124634130E+03  0.55124634130E+03  0.00000000000E+00 0.  1.
         22   -1    0    0    0    0 -0.00000000000E+00 -0.00000000000E+00 -0.36746034316E+03  0.36746034316E+03  0.00000000000E+00 0.  1.
        -24    2    1    2    0    0 -0.28057087469E+02 -0.30313588591E+02 -0.10591121834E+03  0.14317667563E+03  0.87041716806E+02 0.  0.
         25    2    1    2    0    0 -0.31513327784E+03  0.92716160704E+02  0.81915013580E+02  0.36091189847E+03  0.12506822037E+03 0.  0.
         24    2    1    2    0    0  0.34319036531E+03 -0.62402572114E+02  0.20778220290E+03  0.41461811036E+03  0.84029909836E+02 0.  0.
        -11    1    5    5    0    0  0.23660621428E+03 -0.26881514839E+01  0.13780115038E+03  0.27382272338E+03  0.00000000000E+00 0.  1.
         12    1    5    5    0    0  0.10658415103E+03 -0.59714420630E+02  0.69981052522E+02  0.14079538698E+03  0.00000000000E+00 0. -1.
         11    1    3    3    0    0  0.36919797741E+01  0.28679293904E+02 -0.25876410991E+02  0.38803624306E+02  0.00000000000E+00 0. -1.
        -12    1    3    3    0    0 -0.31749067243E+02 -0.58992882495E+02 -0.80034807351E+02  0.10437305133E+03  0.00000000000E+00 0.  1.
          5    1    4    4  501    0 -0.40150114798E+02 -0.23772763338E+02  0.35232274401E+02  0.58617075622E+02  0.41800000000E+01 0. -1.
         -5    1    4    4    0  501 -0.27498316304E+03  0.11648892404E+03  0.46682739180E+02  0.30229482285E+03  0.41800000000E+01 0. -1.
</event>
<event>
11    1  0.7577197E-009  0.1562471E+03  0.7561462E-02  0.1090661E+00
         22   -1    0    0    0    0  0.00000000000E+00  0.00000000000E+00  0.20273547509E+03  0.20273547509E+03  0.00000000000E+00 0.  1.
         22   -1    0    0    0    0 -0.00000000000E+00 -0.00000000000E+00 -0.55274701677E+03  0.55274701677E+03  0.00000000000E+00 0. -1.
        -24    2    1    2    0    0  0.38171334166E+02 -0.30475694918E+02 -0.43967250124E+03  0.45011317328E+03  0.83091164862E+02 0.  0.
         25    2    1    2    0    0 -0.10897577297E+03  0.63054687452E+02  0.36480120587E+02  0.18118969610E+03  0.12508914450E+03 0.  0.
         24    2    1    2    0    0  0.70804438805E+02 -0.32578992534E+02  0.53180838972E+02  0.12417962248E+03  0.80732383201E+02 0.  0.
        -13    1    5    5    0    0  0.46743288134E+02 -0.52908746448E+02  0.59169385297E+02  0.92115615358E+02  0.00000000000E+00 0.  1.
         14    1    5    5    0    0  0.24061150672E+02  0.20329753914E+02 -0.59885463258E+01  0.32064007125E+02  0.00000000000E+00 0. -1.
         13    1    3    3    0    0  0.20108153839E+02 -0.20663552644E+02 -0.42206000490E+03  0.42304369513E+03  0.00000000000E+00 0. -1.
        -14    1    3    3    0    0  0.18063180327E+02 -0.98121422743E+01 -0.17612496344E+02  0.27069478145E+02  0.00000000000E+00 0.  1.
          5    1    4    4  501    0 -0.53357728146E+01  0.57122993761E+02 -0.22446731761E+02  0.61748158308E+02  0.41800000000E+01 0. -1.
         -5    1    4    4    0  501 -0.10364000016E+03  0.59316936913E+01  0.58926852348E+02  0.11944153779E+03  0.41800000000E+01 0. -1.
</event>
<event>
11    1  0.7577197E-009  0.2038623E+03  0.7561462E-02  0.1051826E+00
         22   -1    0    0    0    0  0.00000000000E+00  0.00000000000E+00  0.16556403302E+03  0.16556403302E+03  0.00000000000E+00 0.  1.
         22   -1    0    0    0    0 -0.00000000000E+00 -0.00000000000E+00 -0.43203776224E+03  0.43203776224E+03  0.00000000000E+00 0.  1.
         24    2    1    2    0    0 -0.14178073125E+03 -0.41851721927E+02 -0.21950270412E+03  0.28138877168E+03  0.95628768286E+02 0.  0.
         25    2    1    2    0    0  0.16187202790E+03  0.36768916244E+02  0.20820307828E+02  0.20888950926E+03  0.12508731048E+03 0.  0.
        -24    2    1    2    0    0 -0.20091296650E+02  0.50828056828E+01 -0.67791332919E+02  0.10732351432E+03  0.80580250637E+02 0.  0.
        -13    1    3    3    0    0 -0.14392062972E+03 -0.42643480240E+02 -0.15122930032E+03  0.21307725205E+03  0.00000000000E+00 0.  1.
         14    1    3    3    0    0  0.21398984654E+01  0.79175831272E+00 -0.68273403801E+02  0.68311519623E+02  0.00000000000E+00 0. -1.
         13    1    5    5    0    0 -0.51472777002E+02  0.53207446826E+01 -0.44366148196E+02  0.68162395806E+02  0.00000000000E+00 0. -1.
        -14    1    5    5    0    0  0.31381480352E+02 -0.23793899975E+00 -0.23425184723E+02  0.39161118516E+02  0.00000000000E+00 0.  1.
          5    1    4    4  501    0  0.12987592844E+02 -0.33231676862E+01  0.49977797687E+02  0.51913135843E+02  0.41800000000E+01 0.  1.
         -5    1    4    4    0  501  0.14888443506E+03  0.40092083930E+02 -0.29157489859E+02  0.15697637342E+03  0.41800000000E+01 0.  1.
</event>
<event>
11    1  0.7577197E-009  0.1673996E+03  0.7561462E-02  0.1080317E+00
         22   -1    0    0    0    0  0.00000000000E+00  0.00000000000E+00  0.18501622564E+03  0.18501622564E+03  0.00000000000E+00 0. -1.
         22   -1    0    0    0    0 -0.00000000000E+00 -0.00000000000E+00 -0.55406000749E+03  0.55406000749E+03  0.00000000000E+00 0. -1.
        -24    2    1    2    0    0 -0.40432291897E+02  0.11092396714E+03 -0.30507710232E+03  0.33437664508E+03  0.69258975598E+02 0.  0.
         25    2    1    2    0    0 -0.40002167186E+02 -0.10794956117E+03 -0.17626829700E+03  0.24489002753E+03  0.12508929578E+03 0.  0.
         24    2    1    2    0    0  0.80434459083E+02 -0.29744059638E+01  0.11230161747E+03  0.15980956053E+03  0.80305000171E+02 0.  0.
        -11    1    5    5    0    0 -0.84525175750E+01  0.20142668900E+02  0.20717180834E+02  0.30106041677E+02  0.00000000000E+00 0.  1.
         12    1    5    5    0    0  0.88886976658E+02 -0.23117074863E+02  0.91584436631E+02  0.12970351885E+03  0.00000000000E+00 0. -1.
         11    1    3    3    0    0 -0.17979589615E+02  0.11286434276E+03 -0.25824877608E+03  0.28240760588E+03  0.00000000000E+00 0. -1.
        -12    1    3    3    0    0 -0.22452702282E+02 -0.19403756226E+01 -0.46828326239E+02  0.51969039203E+02  0.00000000000E+00 0.  1.
          5    1    4    4  501    0 -0.36262227807E+02 -0.19791953849E+02 -0.14556340340E+03  0.15136990260E+03  0.41800000000E+01 0. -1.
         -5    1    4    4    0  501 -0.37399393791E+01 -0.88157607326E+02 -0.30704893593E+02  0.93520124928E+02  0.41800000000E+01 0. -1.
</event>
<event>
11    1  0.7577197E-009  0.1268056E+03  0.7561462E-02  0.1123257E+00
         22   -1    0    0    0    0  0.00000000000E+00  0.00000000000E+00  0.76010808123E+03  0.76010808123E+03  0.00000000000E+00 0. -1.
         22   -1    0    0    0    0 -0.00000000000E+00 -0.00000000000E+00 -0.39709850586E+03  0.39709850586E+03  0.00000000000E+00 0. -1.
         24    2    1    2    0    0  0.39801982215E+01  0.15447675755E+02 -0.23390447299E+03  0.25342054308E+03  0.96209129020E+02 0.  0.
         25    2    1    2    0    0 -0.28894337216E+02 -0.25519309841E+02 -0.12243642225E+03  0.17923293731E+03  0.12509056889E+03 0.  0.
        -24    2    1    2    0    0  0.24914138995E+02  0.10071634087E+02  0.71935047061E+03  0.72455310671E+03  0.82401169534E+02 0.  0.
        -13    1    3    3    0    0 -0.10933199722E+02  0.10586241630E+02  0.34037226821E+01  0.15594508524E+02  0.00000000000E+00 0.  1.
         14    1    3    3    0    0  0.14913397944E+02  0.48614341245E+01 -0.23730819567E+03  0.23782603455E+03  0.00000000000E+00 0. -1.
         13    1    5    5    0    0 -0.29784236204E+02  0.11146569148E+02  0.28612974910E+03  0.28789161164E+03  0.00000000000E+00 0. -1.
        -14    1    5    5    0    0  0.54698375198E+02 -0.10749350615E+01  0.43322072150E+03  0.43666149507E+03  0.00000000000E+00 0.  1.
          5    1    4    4  501    0 -0.77584970022E+02 -0.25868069735E+02 -0.72714468200E+02  0.10951461496E+03  0.41800000000E+01 0. -1.
         -5    1    4    4    0  501  0.48690632806E+02  0.34875989350E+00 -0.49721954050E+02  0.69718322348E+02  0.41800000000E+01 0. -1.
</event>
<event>
11    1  0.7577197E-009  0.1275474E+03  0.7561462E-02  0.1122320E+00
         22   -1    0    0    0    0  0.00000000000E+00  0.00000000000E+00  0.22812490416E+03  0.22812490416E+03  0.00000000000E+00 0. -1.
         22   -1    0    0    0    0 -0.00000000000E+00 -0.00000000000E+00 -0.47910110631E+03  0.47910110631E+03  0.00000000000E+00 0.  1.
         24    2    1    2    0    0 -0.11276567283E+02 -0.24465916858E+02 -0.39770988356E+03  0.40635136457E+03  0.78883065028E+02 0.  0.
         25    2    1    2    0    0  0.12053155158E+02 -0.91229876964E+01 -0.85991401625E+01  0.12629721644E+03  0.12509410144E+03 0.  0.
        -24    2    1    2    0    0 -0.77658787524E+00  0.33588904555E+02  0.15533282157E+03  0.17457742946E+03  0.72250784234E+02 0.  0.
        -13    1    3    3    0    0 -0.24992737889E+02 -0.46334044482E+02 -0.19413579536E+03  0.20114717911E+03  0.00000000000E+00 0.  1.
         14    1    3    3    0    0  0.13716170606E+02  0.21868127624E+02 -0.20357408821E+03  0.20520418546E+03  0.00000000000E+00 0. -1.
         13    1    5    5    0    0  0.25506408702E+02  0.33443987195E+02  0.13484444043E+03  0.14125190363E+03  0.00000000000E+00 0. -1.
        -14    1    5    5    0    0 -0.26282996578E+02  0.14491735977E+00  0.20488381141E+02  0.33325525831E+02  0.00000000000E+00 0.  1.
          5    1    4    4  501    0  0.39087320971E+02 -0.31956641517E+02 -0.50337859396E+02  0.71417211415E+02  0.41800000000E+01 0.  1.
         -5    1    4    4    0  501 -0.27034165813E+02  0.22833653820E+02  0.41738719234E+02  0.54880005022E+02  0.41800000000E+01 0.  1.
</event>
<event>
11    1  0.7577197E-009  0.1346367E+03  0.7561462E-02  0.1113700E+00
         22   -1    0    0    0    0  0.00000000000E+00  0.00000000000E+00  0.36416264372E+03  0.36416264372E+03  0.00000000000E+00 0.  1.
         22   -1    0    0    0    0 -0.00000000000E+00 -0.00000000000E+00 -0.38732160238E+03  0.38732160238E+03  0.00000000000E+00 0. -1.
         24    2    1    2    0    0 -0.12785692059E+02  0.46352912382E+02 -0.22092985103E+03  0.24212804704E+03  0.86625202333E+02 0.  0.
         25    2    1    2    0    0 -0.25977744509E+02 -0.60175145146E+02 -0.11686943856E+03  0.18330310285E+03  0.12508265484E+03 0.  0.
        -24    2    1    2    0    0  0.38763436567E+02  0.13822232764E+02  0.31464033093E+03  0.32605309621E+03  0.74956157651E+02 0.  0.
        -13    1    3    3    0    0 -0.44484451993E+02  0.73823062063E+01 -0.72008815661E+02  0.84962547319E+02  0.00000000000E+00 0.  1.
         14    1    3    3    0    0  0.31698759934E+02  0.38970606176E+02 -0.14892103537E+03  0.15716549972E+03  0.00000000000E+00 0. -1.
         13    1    5    5    0    0  0.15119030245E+02 -0.15967998808E+02  0.22550102675E+02  0.31497129903E+02  0.00000000000E+00 0. -1.
        -14    1    5    5    0    0  0.23644406322E+02  0.29790231571E+02  0.29209022825E+03  0.29455596631E+03  0.00000000000E+00 0.  1.
          5    1    4    4  501    0  0.48294999846E+02 -0.30702832663E+02 -0.28427086282E+02  0.64036259870E+02  0.41800000000E+01 0.  1.
         -5    1    4    4    0  501 -0.74272744355E+02 -0.29472312483E+02 -0.88442352282E+02  0.11926684298E+03  0.41800000000E+01 0.  1.
</event>
<event>
11    1  0.7577197E-009  0.1808681E+03  0.7561462E-02  0.1068943E+00
         22   -1    0    0    0    0  0.00000000000E+00  0.00000000000E+00  0.98920919509E+02  0.98920919509E+02  0.00000000000E+00 0. -1.
         22   -1    0    0    0    0 -0.00000000000E+00 -0.00000000000E+00 -0.52075910822E+03  0.52075910822E+03  0.00000000000E+00 0. -1.
         24    2    1    2    0    0  0.16673406158E+02 -0.76807653031E+02 -0.11903443463E+03  0.16124851248E+03  0.75196197453E+02 0.  0.
         25    2    1    2    0    0  0.13434636292E+02 -0.89928919548E+02 -0.16156200313E+03  0.22364380452E+03  0.12508625194E+03 0.  0.
        -24    2    1    2    0    0 -0.30108042450E+02  0.16673657258E+03 -0.14124175096E+03  0.23478771073E+03  0.80426724676E+02 0.  0.
        -13    1    3    3    0    0  0.24580863426E+02 -0.37686498770E+02 -0.11202787569E+03  0.12072587116E+03  0.00000000000E+00 0.  1.
         14    1    3    3    0    0 -0.79074572678E+01 -0.39121154261E+02 -0.70065589436E+01  0.40522641318E+02  0.00000000000E+00 0. -1.
         11    1    5    5    0    0  0.20790167319E+02  0.10216401794E+03 -0.91330269602E+02  0.13860352003E+03  0.00000000000E+00 0. -1.
        -12    1    5    5    0    0 -0.50898209769E+02  0.64572554638E+02 -0.49911481355E+02  0.96184190703E+02  0.00000000000E+00 0.  1.
          5    1    4    4  501    0 -0.40221599057E+02 -0.90697034107E+02 -0.11922677101E+03  0.15516515186E+03  0.41800000000E+01 0.  1.
         -5    1    4    4    0  501  0.53656235349E+02  0.76811455988E+00 -0.42335232116E+02  0.68478652660E+02  0.41800000000E+01 0.  1.
</event>
<event>
11    1  0.7577197E-009  0.5699474E+03  0.7561462E-02  0.9249514E-01
         22   -1    0    0    0    0  0.00000000000E+00  0.00000000000E+00  0.77389810656E+03  0.77389810656E+03  0.00000000000E+00 0. -1.
         22   -1    0    0    0    0 -0.00000000000E+00 -0.00000000000E+00 -0.66743611556E+03  0.66743611556E+03  0.00000000000E+00 0. -1.
         24    2    1    2    0    0 -0.55898575776E+03  0.69446891396E+02 -0.33308114454E+03  0.66241223341E+03  0.10275684901E+03 0.  0.
         25    2    1    2    0    0  0.52758680585E+03 -0.72621705849E+02  0.39588968973E+03  0.67527648271E+03  0.12509169358E+03 0.  0.
        -24    2    1    2    0    0  0.31398951907E+02  0.31748144524E+01  0.43653445820E+02  0.10364550600E+03  0.88548257776E+02 0.  0.
        -11    1    3    3    0    0 -0.43348806750E+03  0.93096608709E+02 -0.27810572294E+03  0.52337527296E+03  0.00000000000E+00 0.  1.
         12    1    3    3    0    0 -0.12549769026E+03 -0.23649717313E+02 -0.54975421599E+02  0.13903696045E+03  0.00000000000E+00 0. -1.
         13    1    5    5    0    0  0.21287536356E+02  0.44881564059E+02  0.32307220756E+02  0.59255974462E+02  0.00000000000E+00 0. -1.
        -14    1    5    5    0    0  0.10111415551E+02 -0.41706749607E+02  0.11346225065E+02  0.44389531541E+02  0.00000000000E+00 0.  1.
          5    1    4    4  501    0  0.37949267299E+03 -0.37495073888E+02  0.21128330054E+03  0.43598013132E+03  0.41800000000E+01 0.  1.
         -5    1    4    4    0  501  0.14809413286E+03 -0.35126631961E+02  0.18460638918E+03  0.23929635139E+03  0.41800000000E+01 0.  1.
</event>
<event>
11    1  0.7577197E-009  0.1602049E+03  0.7561462E-02  0.1086885E+00
         22   -1    0    0    0    0  0.00000000000E+00  0.00000000000E+00  0.14877942797E+04  0.14877942797E+04  0.00000000000E+00 0.  1.
         22   -1    0    0    0    0 -0.00000000000E+00 -0.00000000000E+00 -0.80755359148E+03  0.80755359148E+03  0.00000000000E+00 0. -1.
        -24    2    1    2    0    0 -0.74413764796E+01  0.10127782918E+03 -0.76807640057E+03  0.77900932260E+03  0.81250198908E+02 0.  0.
         25    2    1    2    0    0 -0.27338191470E+02 -0.60505726196E+02  0.12396982319E+03  0.18821141075E+03  0.12508676373E+03 0.  0.
         24    2    1    2    0    0  0.34779567950E+02 -0.40772102981E+02  0.13243472656E+04  0.13281271378E+04  0.84581508636E+02 0.  0.
        -11    1    5    5    0    0  0.13074601192E+02  0.12648444146E+02  0.86282668789E+03  0.86301843646E+03  0.00000000000E+00 0.  1.
         12    1    5    5    0    0  0.21704966758E+02 -0.53420547127E+02  0.46152057769E+03  0.46510870135E+03  0.00000000000E+00 0. -1.
         13    1    3    3    0    0  0.38482850870E+01  0.10448581831E+03 -0.50698251650E+03  0.51765178215E+03  0.00000000000E+00 0. -1.
        -14    1    3    3    0    0 -0.11289661567E+02 -0.32079891367E+01 -0.26109388406E+03  0.26135754044E+03  0.00000000000E+00 0.  1.
          5    1    4    4  501    0  0.78508161905E+01 -0.93043602722E+02  0.79734426833E+02  0.12285682132E+03  0.41800000000E+01 0.  1.
         -5    1    4    4    0  501 -0.35189007661E+02  0.32537876526E+02  0.44235396360E+02  0.65354589434E+02  0.41800000000E+01 0.  1.
</event>
<event>
11    1  0.7577197E-009  0.1603360E+03  0.7561462E-02  0.1086762E+00
         22   -1    0    0    0    0  0.00000000000E+00  0.00000000000E+00  0.26057393552E+04  0.26057393552E+04  0.00000000000E+00 0. -1.
         22   -1    0    0    0    0 -0.00000000000E+00 -0.00000000000E+00 -0.39154777539E+02  0.39154777539E+02  0.00000000000E+00 0.  1.
        -24    2    1    2    0    0  0.91738564223E+02 -0.21115424305E+02  0.18375322460E+03  0.22122175536E+03  0.79448047065E+02 0.  0.
         25    2    1    2    0    0 -0.10644627942E+03  0.32635226706E+02  0.33824546497E+03  0.37743223740E+03  0.12509688576E+03 0.  0.
         24    2    1    2    0    0  0.14707715194E+02 -0.11519802401E+02  0.20445858881E+04  0.20462401400E+04  0.80113881389E+02 0.  0.
        -11    1    5    5    0    0  0.46723870119E+02 -0.88773140225E+01  0.14577310103E+04  0.14585066422E+04  0.00000000000E+00 0.  1.
         12    1    5    5    0    0 -0.32016154926E+02 -0.26424883787E+01  0.58685487780E+03  0.58773349787E+03  0.00000000000E+00 0. -1.
         11    1    3    3    0    0  0.30072069688E+02  0.16007902431E+02  0.12108067499E+03  0.12578200258E+03  0.00000000000E+00 0. -1.
        -12    1    3    3    0    0  0.61666494535E+02 -0.37123326736E+02  0.62672549606E+02  0.95439752778E+02  0.00000000000E+00 0.  1.
          5    1    4    4  501    0  0.25978176828E+02 -0.70030157382E+01  0.79730417364E+02  0.84251526715E+02  0.41800000000E+01 0.  1.
         -5    1    4    4    0  501 -0.13242445625E+03  0.39638242444E+02  0.25851504761E+03  0.29318071068E+03  0.41800000000E+01 0.  1.
</event>
<event>
11    1  0.7577197E-009  0.1489219E+03  0.7561462E-02  0.1097986E+00
         22   -1    0    0    0    0  0.00000000000E+00  0.00000000000E+00  0.12304675946E+03  0.12304675946E+03  0.00000000000E+00 0. -1.
         22   -1    0    0    0    0 -0.00000000000E+00 -0.00000000000E+00 -0.93836608764E+03  0.93836608764E+03  0.00000000000E+00 0.  1.
        -24    2    1    2    0    0 -0.39014342413E+01 -0.13673846587E+02 -0.77581576125E+03  0.78033557710E+03  0.82651813175E+02 0.  0.
         25    2    1    2    0    0  0.22356312460E+02 -0.68463896820E+02 -0.72087588907E+02  0.16134077829E+03  0.12508843428E+03 0.  0.
         24    2    1    2    0    0 -0.18454878218E+02  0.82137743406E+02  0.32584021976E+02  0.11973649170E+03  0.78663317594E+02 0.  0.
        -13    1    5    5    0    0 -0.23929314884E+02  0.62781543093E+01 -0.16022404181E+02  0.29474476554E+02  0.00000000000E+00 0.  1.
         14    1    5    5    0    0  0.54744366660E+01  0.75859589097E+02  0.48606426157E+02  0.90262015148E+02  0.00000000000E+00 0. -1.
         13    1    3    3    0    0  0.16695907259E+02  0.23171794960E+02 -0.12807202079E+03  0.13121786429E+03  0.00000000000E+00 0. -1.
        -14    1    3    3    0    0 -0.20597341500E+02 -0.36845641546E+02 -0.64774374046E+03  0.64911771281E+03  0.00000000000E+00 0.  1.
          5    1    4    4  501    0  0.36745958608E+02  0.26718855293E+02 -0.37186220108E+02  0.58859579238E+02  0.41800000000E+01 0. -1.
         -5    1    4    4    0  501 -0.14389646148E+02 -0.95182752113E+02 -0.34901368799E+02  0.10248119906E+03  0.41800000000E+01 0. -1.
</event>
<event>
11    1  0.7577197E-009  0.1254919E+03  0.7561462E-02  0.1124935E+00
         22   -1    0    0    0    0  0.00000000000E+00  0.00000000000E+00  0.91765321559E+03  0.91765321559E+03  0.00000000000E+00 0. -1.
         22   -1    0    0    0    0 -0.00000000000E+00 -0.00000000000E+00 -0.43715460989E+03  0.43715460989E+03  0.00000000000E+00 0.  1.
         24    2    1    2    0    0 -0.80428155642E+01  0.73300404910E+01 -0.41057685835E+03  0.42391056919E+03  0.10492091154E+03 0.  0.
         25    2    1    2    0    0 -0.92864456506E+01  0.11475791380E+02  0.21176027281E+03  0.24638448445E+03  0.12507985120E+03 0.  0.
        -24    2    1    2    0    0  0.17329261215E+02 -0.18805831871E+02  0.67931519124E+03  0.68451277184E+03  0.80216227540E+02 0.  0.
        -13    1    3    3    0    0  0.25362880130E+02 -0.39407719902E+02 -0.21625148291E+03  0.22127120901E+03  0.00000000000E+00 0.  1.
         14    1    3    3    0    0 -0.33405695694E+02  0.46737760393E+02 -0.19432537545E+03  0.20263936018E+03  0.00000000000E+00 0. -1.
         13    1    5    5    0    0 -0.72188504088E+01 -0.98322012337E+01  0.61456992827E+03  0.61469096358E+03  0.00000000000E+00 0. -1.
        -14    1    5    5    0    0  0.24548111624E+02 -0.89736306377E+01  0.64745262974E+02  0.69821808260E+02  0.00000000000E+00 0.  1.
          5    1    4    4  501    0  0.44648627897E+02 -0.26281118688E+02  0.51925332705E+02  0.73470468551E+02  0.41800000000E+01 0. -1.
         -5    1    4    4    0  501 -0.53935073547E+02  0.37756910069E+02  0.15983494011E+03  0.17291401590E+03  0.41800000000E+01 0. -1.
</event>
<event>
11    1  0.7577197E-009  0.1808072E+03  0.7561462E-02  0.1068992E+00
         22   -1    0    0    0    0  0.00000000000E+00  0.00000000000E+00  0.22701741106E+04  0.22701741106E+04  0.00000000000E+00 0. -1.
         22   -1    0    0    0    0 -0.00000000000E+00 -0.00000000000E+00 -0.13774734879E+03  0.13774734879E+03  0.00000000000E+00 0. -1.
         24    2    1    2    0    0  0.10552716340E+03  0.81236156706E+02 -0.80445388473E+02  0.17460669538E+03  0.79251133577E+02 0.  0.
         25    2    1    2    0    0 -0.47897399374E+02 -0.84553472531E+02  0.72182741075E+03  0.73900331038E+03  0.12509049230E+03 0.  0.
        -24    2    1    2    0    0 -0.57629764029E+02  0.33173158253E+01  0.14910447395E+04  0.14943114536E+04  0.80125594326E+02 0.  0.
        -13    1    3    3    0    0  0.12628484340E+02  0.61346008172E+01  0.15846233993E+02  0.21171090564E+02  0.00000000000E+00 0.  1.
         14    1    3    3    0    0  0.92898679062E+02  0.75101555889E+02 -0.96291622466E+02  0.15343560482E+03  0.00000000000E+00 0. -1.
         13    1    5    5    0    0 -0.38240921437E+02  0.18771179332E+02  0.13744309352E+04  0.13750909501E+04  0.00000000000E+00 0. -1.
        -14    1    5    5    0    0 -0.19388842592E+02 -0.15453863507E+02  0.11661380427E+03  0.11922050352E+03  0.00000000000E+00 0.  1.
          5    1    4    4  501    0  0.20910767529E+02 -0.86292416061E+02  0.37546725650E+03  0.38584553175E+03  0.41800000000E+01 0. -1.
         -5    1    4    4    0  501 -0.68808166903E+02  0.17389435298E+01  0.34636015425E+03  0.35315777863E+03  0.41800000000E+01 0. -1.
</event>
<event>
11    1  0.7577197E-009  0.1279330E+03  0.7561462E-02  0.1121835E+00
         22   -1    0    0    0    0  0.00000000000E+00  0.00000000000E+00  0.47694110156E+02  0.47694110156E+02  0.00000000000E+00 0.  1.
         22   -1    0    0    0    0 -0.00000000000E+00 -0.00000000000E+00 -0.80111019931E+03  0.80111019931E+03  0.00000000000E+00 0.  1.
        -24    2    1    2    0    0  0.26200539841E+02 -0.11841026579E+02 -0.48302545329E+03  0.49038522859E+03  0.79607824350E+02 0.  0.
         25    2    1    2    0    0  0.59234069427E+01  0.58164046391E+01 -0.23193566777E+03  0.26365022453E+03  0.12509344347E+03 0.  0.
         24    2    1    2    0    0 -0.32123946783E+02  0.60246219400E+01 -0.38454968093E+02  0.94768856341E+02  0.80212888831E+02 0.  0.
        -11    1    5    5    0    0  0.18476710590E+02 -0.16132069037E+02  0.43183098061E+01  0.24905426823E+02  0.00000000000E+00 0.  1.
         12    1    5    5    0    0 -0.50600657374E+02  0.22156690977E+02 -0.42773277900E+02  0.69863429518E+02  0.00000000000E+00 0. -1.
         13    1    3    3    0    0  0.12450176201E+01 -0.67439230059E+01 -0.17158365553E+00  0.68600296890E+01  0.00000000000E+00 0. -1.
        -14    1    3    3    0    0  0.24955522220E+02 -0.50971035732E+01 -0.48285386964E+03  0.48352519891E+03  0.00000000000E+00 0.  1.
          5    1    4    4  501    0 -0.19043916778E+02  0.10592753054E+02  0.70485165536E+01  0.23281562858E+02  0.41800000000E+01 0.  1.
         -5    1    4    4    0  501  0.24967323721E+02 -0.47763484152E+01 -0.23898418432E+03  0.24036866167E+03  0.41800000000E+01 0.  1.
</event>
<event>
11    1  0.7577197E-009  0.1496681E+03  0.7561462E-02  0.1097218E+00
         22   -1    0    0    0    0  0.00000000000E+00  0.00000000000E+00  0.41141520156E+03  0.41141520156E+03  0.00000000000E+00 0. -1.
         22   -1    0    0    0    0 -0.00000000000E+00 -0.00000000000E+00 -0.26733364147E+04  0.26733364147E+04  0.00000000000E+00 0. -1.
         24    2    1    2    0    0 -0.71533521036E+02  0.54332938203E+02 -0.22268844880E+04  0.22301402210E+04  0.80260636492E+02 0.  0.
         25    2    1    2    0    0  0.39790020200E+02 -0.65057239720E+01 -0.42903108214E+03  0.44871005607E+03  0.12508986700E+03 0.  0.
        -24    2    1    2    0    0  0.31743500836E+02 -0.47827214231E+02  0.39399435691E+03  0.40590133924E+03  0.78925608347E+02 0.  0.
        -11    1    3    3    0    0 -0.33945289560E+02 -0.11560022979E+02 -0.11638989222E+04  0.11644512089E+04  0.00000000000E+00 0.  1.
         12    1    3    3    0    0 -0.37588231476E+02  0.65892961182E+02 -0.10629855658E+04  0.10656890121E+04  0.00000000000E+00 0. -1.
         11    1    5    5    0    0 -0.88423805570E+01 -0.55387596177E+02  0.24026772566E+03  0.24672769098E+03  0.00000000000E+00 0. -1.
        -12    1    5    5    0    0  0.40585881393E+02  0.75603819467E+01  0.15372663125E+03  0.15917364826E+03  0.00000000000E+00 0.  1.
          5    1    4    4  501    0  0.45860354932E+02 -0.27496219531E+02 -0.42197656475E+03  0.42537149392E+03  0.41800000000E+01 0. -1.
         -5    1    4    4    0  501 -0.60703347319E+01  0.20990495559E+02 -0.70545173891E+01  0.23338562149E+02  0.41800000000E+01 0. -1.
</event>
<event>
11    1  0.7577197E-009  0.2670632E+03  0.7561462E-02  0.1015183E+00
         22   -1    0    0    0    0  0.00000000000E+00  0.00000000000E+00  0.22081402693E+03  0.22081402693E+03  0.00000000000E+00 0. -1.
         22   -1    0    0    0    0 -0.00000000000E+00 -0.00000000000E+00 -0.11874883319E+04  0.11874883319E+04  0.00000000000E+00 0. -1.
         24    2    1    2    0    0 -0.17773349138E+03 -0.16702454853E+03 -0.10394118993E+04  0.10704286364E+04  0.77162007652E+02 0.  0.
         25    2    1    2    0    0  0.14318624601E+03  0.86397672810E+02  0.63641410431E+02  0.21832092133E+03  0.12508771584E+03 0.  0.
        -24    2    1    2    0    0  0.34547245372E+02  0.80626875723E+02  0.90961838784E+01  0.11955280114E+03  0.80721288686E+02 0.  0.
        -13    1    3    3    0    0 -0.51870950984E+01 -0.26691243622E+02 -0.20850794054E+03  0.21027336900E+03  0.00000000000E+00 0.  1.
         14    1    3    3    0    0 -0.17254639629E+03 -0.14033330491E+03 -0.83090395874E+03  0.86015526737E+03  0.00000000000E+00 0. -1.
         13    1    5    5    0    0  0.52427386519E+02  0.20328063228E+02  0.65060318325E+01  0.56605560346E+02  0.00000000000E+00 0. -1.
        -14    1    5    5    0    0 -0.17880141147E+02  0.60298812495E+02  0.25901520459E+01  0.62947240792E+02  0.00000000000E+00 0.  1.
          5    1    4    4  501    0  0.48310480498E+02  0.47362307183E+02  0.89659532355E+02  0.11239837548E+03  0.41800000000E+01 0.  1.
         -5    1    4    4    0  501  0.94875765515E+02  0.39035365627E+02 -0.26018121924E+02  0.10592254585E+03  0.41800000000E+01 0.  1.
</event>
<event>
11    1  0.7577197E-009  0.1336888E+03  0.7561462E-02  0.1114818E+00
         22   -1    0    0    0    0  0.00000000000E+00  0.00000000000E+00  0.84854404365E+02  0.84854404365E+02  0.00000000000E+00 0. -1.
         22   -1    0    0    0    0 -0.00000000000E+00 -0.00000000000E+00 -0.10868321553E+04  0.10868321553E+04  0.00000000000E+00 0. -1.
        -24    2    1    2    0    0 -0.19651983617E+02  0.28347456263E+02 -0.86508453212E+03  0.86954187273E+03  0.80882890572E+02 0.  0.
         25    2    1    2    0    0  0.49252553605E+02  0.10287285411E+02 -0.15582561646E+03  0.20606027814E+03  0.12509026024E+03 0.  0.
         24    2    1    2    0    0 -0.29600569989E+02 -0.38634741674E+02  0.18932397600E+02  0.96084408830E+02  0.80653214030E+02 0.  0.
        -13    1    5    5    0    0 -0.53467569122E+02 -0.15477788831E+02 -0.38159367019E+01  0.55793407028E+02  0.00000000000E+00 0.  1.
         14    1    5    5    0    0  0.23866999133E+02 -0.23156952843E+02  0.22748334302E+02  0.40291001801E+02  0.00000000000E+00 0. -1.
         13    1    3    3    0    0 -0.31805383487E+02  0.46191555030E+02 -0.76988321447E+03  0.77192318665E+03  0.00000000000E+00 0. -1.
        -14    1    3    3    0    0  0.12153399870E+02 -0.17844098767E+02 -0.95201317653E+02  0.97618686080E+02  0.00000000000E+00 0.  1.
          5    1    4    4  501    0 -0.12003798100E+02  0.56173365357E+02 -0.76447502303E+02  0.95714320521E+02  0.41800000000E+01 0.  1.
         -5    1    4    4    0  501  0.61256351705E+02 -0.45886079946E+02 -0.79378114152E+02  0.11034595762E+03  0.41800000000E+01 0.  1.
</event>
<event>
11    1  0.7577197E-009  0.1492969E+03  0.7561462E-02  0.1097599E+00
         22   -1    0    0    0    0  0.00000000000E+00  0.00000000000E+00  0.16842489467E+04  0.16842489467E+04  0.00000000000E+00 0.  1.
         22   -1    0    0    0    0 -0.00000000000E+00 -0.00000000000E+00 -0.53906031591E+03  0.53906031591E+03  0.00000000000E+00 0. -1.
        -24    2    1    2    0    0  0.42625181833E+02  0.69993607529E+02 -0.50076851308E+03  0.51353802215E+03  0.78969521196E+02 0.  0.
         25    2    1    2    0    0 -0.23754067303E+02 -0.66899118506E+02  0.13661691039E+03  0.19837331829E+03  0.12509214777E+03 0.  0.
         24    2    1    2    0    0 -0.18871114530E+02 -0.30944890229E+01  0.15093402335E+04  0.15113979222E+04  0.76485580079E+02 0.  0.
        -11    1    5    5    0    0  0.87469144987E+01  0.12976010314E+02  0.12498200660E+04  0.12499180304E+04  0.00000000000E+00 0.  1.
         12    1    5    5    0    0 -0.27618029029E+02 -0.16070499337E+02  0.25952016745E+03  0.26147989175E+03  0.00000000000E+00 0. -1.
         11    1    3    3    0    0  0.74321826154E+01  0.75194734795E+02 -0.38807076473E+03  0.39535857638E+03  0.00000000000E+00 0. -1.
        -12    1    3    3    0    0  0.35192999218E+02 -0.52011272654E+01 -0.11269774835E+03  0.11817944577E+03  0.00000000000E+00 0.  1.
          5    1    4    4  501    0 -0.10821012742E+02  0.36860104093E+02  0.44741850880E+02  0.59119093453E+02  0.41800000000E+01 0. -1.
         -5    1    4    4    0  501 -0.12933054561E+02 -0.10375922260E+03  0.91875059510E+02  0.13925422484E+03  0.41800000000E+01 0. -1.
</event>
<event>
11    1  0.7920339E-009  0.1546561E+03  0.7561462E-02  0.1092214E+00
         22   -1    0    0    0    0  0.00000000000E+00  0.00000000000E+00  0.15418077663E+04  0.15418077663E+04  0.00000000000E+00 0.  1.
         22   -1    0    0    0    0 -0.00000000000E+00 -0.00000000000E+00 -0.46113600056E+03  0.46113600056E+03  0.00000000000E+00 0. -1.
        -24    2    1    2    0    0  0.23817605407E+02 -0.42703203123E+02 -0.38179347342E+03  0.39315473595E+03  0.80084631279E+02 0.  0.
         25    2    1    2    0    0 -0.61944504114E+02 -0.40952911318E+02  0.32834598370E+01  0.14550964102E+03  0.12509201407E+03 0.  0.
         24    2    1    2    0    0  0.38126898707E+02  0.83656114441E+02  0.14591817793E+04  0.14642793899E+04  0.80316005151E+02 0.  0.
        -13    1    5    5    0    0  0.41788397517E+01  0.83532806971E+02  0.83591231254E+03  0.84008605917E+03  0.00000000000E+00 0.  1.
         14    1    5    5    0    0  0.33948058956E+02  0.12330746999E+00  0.62326946676E+03  0.62419333071E+03  0.00000000000E+00 0. -1.
         11    1    3    3    0    0  0.46464247285E+02 -0.27391091701E+02 -0.33197928606E+03  0.33633234241E+03  0.00000000000E+00 0. -1.
        -12    1    3    3    0    0 -0.22646641878E+02 -0.15312111422E+02 -0.49814187361E+02  0.56822393535E+02  0.00000000000E+00 0.  1.
          5    1    4    4  501    0  0.14395911080E+02  0.19587793163E+02 -0.33223439115E+02  0.41378656375E+02  0.41800000000E+01 0. -1.
         -5    1    4    4    0  501 -0.76340415194E+02 -0.60540704481E+02  0.36506898951E+02  0.10413098464E+03  0.41800000000E+01 0. -1.
</event>
<event>
11    1  0.7577197E-009  0.1607183E+03  0.7561462E-02  0.1086404E+00
         22   -1    0    0    0    0  0.00000000000E+00  0.00000000000E+00  0.15461846434E+03  0.15461846434E+03  0.00000000000E+00 0. -1.
         22   -1    0    0    0    0 -0.00000000000E+00 -0.00000000000E+00 -0.21778150144E+04  0.21778150144E+04  0.00000000000E+00 0. -1.
         24    2    1    2    0    0 -0.83663475940E+02 -0.56140029855E+02 -0.17490376099E+04  0.17538133988E+04  0.81102383449E+02 0.  0.
         25    2    1    2    0    0  0.72760296453E+02  0.74059887542E+02 -0.39734307280E+03  0.42931076098E+03  0.12508910547E+03 0.  0.
        -24    2    1    2    0    0  0.10903179486E+02 -0.17919857687E+02  0.12318413266E+03  0.14930931900E+03  0.81724791709E+02 0.  0.
        -13    1    3    3    0    0  0.12073536330E+01  0.11963969009E+02 -0.47042228049E+03  0.47057594099E+03  0.00000000000E+00 0.  1.
         14    1    3    3    0    0 -0.84870829573E+02 -0.68103998864E+02 -0.12786153294E+04  0.12832374578E+04  0.00000000000E+00 0. -1.
         11    1    5    5    0    0 -0.19536111633E+02  0.12991381309E+02  0.94338426139E+02  0.97212006936E+02  0.00000000000E+00 0. -1.
        -12    1    5    5    0    0  0.30439291119E+02 -0.30911238995E+02  0.28845706519E+02  0.52097312067E+02  0.00000000000E+00 0.  1.
          5    1    4    4  501    0 -0.12976776651E+02 -0.49391472342E+01  0.70728912539E+00  0.14517732797E+02  0.41800000000E+01 0. -1.
         -5    1    4    4    0  501  0.85737073104E+02  0.78999034776E+02 -0.39805036192E+03  0.41479302818E+03  0.41800000000E+01 0. -1.
</event>
<event>
11    1  0.7577197E-009  0.1365693E+03  0.7561462E-02  0.1111451E+00
         22   -1    0    0    0    0  0.00000000000E+00  0.00000000000E+00  0.54109326807E+03  0.54109326807E+03  0.00000000000E+00 0.  1.
         22   -1    0    0    0    0 -0.00000000000E+00 -0.00000000000E+00 -0.20113497674E+03  0.20113497674E+03  0.00000000000E+00 0.  1.
         24    2    1    2    0    0  0.84769660728E+01  0.33687906125E+02 -0.11530158307E+03  0.14487948232E+03  0.80553555897E+02 0.  0.
         25    2    1    2    0    0  0.40404788496E+02 -0.56884424498E+02  0.14951791794E+02  0.14400735827E+03  0.12508468521E+03 0.  0.
        -24    2    1    2    0    0 -0.48881754569E+02  0.23196518373E+02  0.44030808259E+03  0.45334140421E+03  0.93379423758E+02 0.  0.
        -11    1    3    3    0    0  0.33721609119E+02 -0.61639159638E+01 -0.76383791379E+02  0.83723499491E+02  0.00000000000E+00 0.  1.
         12    1    3    3    0    0 -0.25244643046E+02  0.39851822089E+02 -0.38917791689E+02  0.61155982833E+02  0.00000000000E+00 0. -1.
         13    1    5    5    0    0 -0.62669794208E+02 -0.11061611555E+01  0.16311050721E+03  0.17473913203E+03  0.00000000000E+00 0. -1.
        -14    1    5    5    0    0  0.13788039638E+02  0.24302679529E+02  0.27719757538E+03  0.27860227219E+03  0.00000000000E+00 0.  1.
          5    1    4    4  501    0 -0.33609022569E+02 -0.52782501329E+02  0.27902860712E+02  0.68641101976E+02  0.41800000000E+01 0. -1.
         -5    1    4    4    0  501  0.74013811066E+02 -0.41019231696E+01 -0.12951068919E+02  0.75366256297E+02  0.41800000000E+01 0. -1.
</event>
<event>
11    1  0.7577197E-009  0.1426142E+03  0.7561462E-02  0.1104674E+00
         22   -1    0    0    0    0  0.00000000000E+00  0.00000000000E+00  0.11769639567E+04  0.11769639567E+04  0.00000000000E+00 0. -1.
         22   -1    0    0    0    0 -0.00000000000E+00 -0.00000000000E+00 -0.88635359077E+03  0.88635359077E+03  0.00000000000E+00 0.  1.
        -24    2    1    2    0    0  0.15135242126E+02 -0.19943407735E+02 -0.84555445945E+03  0.85010929873E+03  0.84241681007E+02 0.  0.
         25    2    1    2    0    0  0.24326676142E+02 -0.38202655746E+02  0.87891950138E+02  0.15944870226E+03  0.12509062185E+03 0.  0.
         24    2    1    2    0    0 -0.39461918268E+02  0.58146063480E+02  0.10482728753E+04  0.10537595465E+04  0.81209316782E+02 0.  0.
        -13    1    5    5    0    0  0.23649775577E+02  0.35714559396E+01  0.24560914161E+03  0.24677098214E+03  0.00000000000E+00 0.  1.
         14    1    5    5    0    0 -0.63111693845E+02  0.54574607541E+02  0.80266373368E+03  0.80698856439E+03  0.00000000000E+00 0. -1.
         13    1    3    3    0    0 -0.43104172522E+00  0.27797691225E+02 -0.51627565587E+03  0.51702364576E+03  0.00000000000E+00 0. -1.
        -14    1    3    3    0    0  0.15566283851E+02 -0.47741098959E+02 -0.32927880359E+03  0.33308565297E+03  0.00000000000E+00 0.  1.
          5    1    4    4  501    0  0.77816977744E+01 -0.59257983712E+02 -0.74088113933E+01  0.60369084308E+02  0.41800000000E+01 0. -1.
         -5    1    4    4    0  501  0.16544978367E+02  0.21055327966E+02  0.95300761531E+02  0.99079617951E+02  0.41800000000E+01 0. -1.
</event>
<event>
11    1  0.7577197E-009  0.1436254E+03  0.7561462E-02  0.1103576E+00
         22   -1    0    0    0    0  0.00000000000E+00  0.00000000000E+00  0.41352161294E+03  0.41352161294E+03  0.00000000000E+00 0. -1.
         22   -1    0    0    0    0 -0.00000000000E+00 -0.00000000000E+00 -0.72329125625E+03  0.72329125625E+03  0.00000000000E+00 0. -1.
         24    2    1    2    0    0 -0.16677981677E+01 -0.15430187093E+02 -0.67212457763E+03  0.67683611528E+03  0.78197230550E+02 0.  0.
         25    2    1    2    0    0 -0.16376717515E+02  0.80541777562E+02  0.10681630310E+03  0.18386566075E+03  0.12506671733E+03 0.  0.
        -24    2    1    2    0    0  0.18044515683E+02 -0.65111590469E+02  0.25553863121E+03  0.27611109316E+03  0.79826185961E+02 0.  0.
        -11    1    3    3    0    0  0.97209819924E+01 -0.22681622254E+02 -0.64467539896E+02  0.69029103856E+02  0.00000000000E+00 0.  1.
         12    1    3    3    0    0 -0.11388780160E+02  0.72514351609E+01 -0.60765703774E+03  0.60780701142E+03  0.00000000000E+00 0. -1.
         13    1    5    5    0    0  0.25726413509E+02 -0.41491965974E+02  0.24379884362E+03  0.24863891035E+03  0.00000000000E+00 0. -1.
        -14    1    5    5    0    0 -0.76818978263E+01 -0.23619624495E+02  0.11739787596E+02  0.27472182809E+02  0.00000000000E+00 0.  1.
          5    1    4    4  501    0  0.53810038780E+02  0.40826943208E+02  0.37066098657E+02  0.77160401988E+02  0.41800000000E+01 0.  1.
         -5    1    4    4    0  501 -0.70186756295E+02  0.39714834354E+02  0.69750204447E+02  0.10670525876E+03  0.41800000000E+01 0.  1.
</event>
<event>
11    1  0.7577197E-009  0.1446016E+03  0.7561462E-02  0.1102526E+00
         22   -1    0    0    0    0  0.00000000000E+00  0.00000000000E+00  0.81959936188E+03  0.81959936188E+03  0.00000000000E+00 0.  1.
         22   -1    0    0    0    0 -0.00000000000E+00 -0.00000000000E+00 -0.98904761248E+02  0.98904761248E+02  0.00000000000E+00 0. -1.
         24    2    1    2    0    0  0.27373114314E+02  0.27981893404E+02 -0.57080974465E+02  0.90470870926E+02  0.58262055358E+02 0.  0.
         25    2    1    2    0    0 -0.93331928975E+02 -0.25696040341E+02  0.30620042466E+03  0.34464523379E+03  0.12510196505E+03 0.  0.
        -24    2    1    2    0    0  0.65958814660E+02 -0.22858530631E+01  0.47157515044E+03  0.48338801841E+03  0.83216966264E+02 0.  0.
        -11    1    3    3    0    0  0.20078724874E+02  0.14969827863E+02  0.59140316516E+01  0.25733765935E+02  0.00000000000E+00 0.  1.
         12    1    3    3    0    0  0.72943894401E+01  0.13012065541E+02 -0.62995006117E+02  0.64737104991E+02  0.00000000000E+00 0. -1.
         11    1    5    5    0    0  0.27239087061E+02  0.39168378823E+02  0.25998837861E+03  0.26432950418E+03  0.00000000000E+00 0. -1.
        -12    1    5    5    0    0  0.38719727599E+02 -0.41454231886E+02  0.21158677183E+03  0.21905851423E+03  0.00000000000E+00 0.  1.
          5    1    4    4  501    0  0.22727541946E+01  0.27027440187E+02  0.10461966798E+02  0.29369594549E+02  0.41800000000E+01 0.  1.
         -5    1    4    4    0  501 -0.95604683169E+02 -0.52723480528E+02  0.29573845786E+03  0.31527563924E+03  0.41800000000E+01 0.  1.
</event>
<event>
11    1  0.7577197E-009  0.1521176E+03  0.7561462E-02  0.1094734E+00
         22   -1    0    0    0    0  0.00000000000E+00  0.00000000000E+00  0.21318721397E+04  0.21318721397E+04  0.00000000000E+00 0.  1.
         22   -1    0    0    0    0 -0.00000000000E+00 -0.00000000000E+00 -0.41281773714E+03  0.41281773714E+03  0.00000000000E+00 0.  1.
        -24    2    1    2    0    0 -0.23324521280E+02 -0.58640790150E+02 -0.39605876591E+03  0.40909059657E+03  0.80683298093E+02 0.  0.
         25    2    1    2    0    0  0.10293240749E+03  0.50187544619E+02  0.96998623386E+03  0.98470042323E+03  0.12509100478E+03 0.  0.
         24    2    1    2    0    0 -0.79607886212E+02  0.84532455310E+01  0.11451269346E+04  0.11508988570E+04  0.82726113622E+02 0.  0.
        -11    1    5    5    0    0 -0.70297290978E+02  0.17065008598E+02  0.11235076812E+04  0.11258341056E+04  0.00000000000E+00 0.  1.
         12    1    5    5    0    0 -0.93105952343E+01 -0.86117630669E+01  0.21619253426E+02  0.25064751454E+02  0.00000000000E+00 0. -1.
         13    1    3    3    0    0  0.25533981488E+02 -0.47091885305E+01 -0.62367964689E+02  0.67556818210E+02  0.00000000000E+00 0. -1.
        -14    1    3    3    0    0 -0.48858502768E+02 -0.53931601619E+02 -0.33369080122E+03  0.34153377836E+03  0.00000000000E+00 0.  1.
          5    1    4    4  501    0  0.71373432072E+02  0.91526288425E+02  0.72236484865E+03  0.73164176702E+03  0.41800000000E+01 0. -1.
         -5    1    4    4    0  501  0.31558975420E+02 -0.41338743807E+02  0.24762138521E+03  0.25305865621E+03  0.41800000000E+01 0. -1.
</event>
<event>
11    1  0.7577197E-009  0.1849444E+03  0.7561462E-02  0.1065712E+00
         22   -1    0    0    0    0  0.00000000000E+00  0.00000000000E+00  0.29239527717E+03  0.29239527717E+03  0.00000000000E+00 0. -1.
         22   -1    0    0    0    0 -0.00000000000E+00 -0.00000000000E+00 -0.37076905643E+04  0.37076905643E+04  0.00000000000E+00 0. -1.
         24    2    1    2    0    0  0.61813838945E+01  0.13659037384E+03 -0.36492008132E+04  0.36526490949E+04  0.80521395454E+02 0.  0.
         25    2    1    2    0    0  0.30457338964E+02 -0.85550631030E+02  0.14314843630E+03  0.21067962414E+03  0.12509144353E+03 0.  0.
        -24    2    1    2    0    0 -0.36638722858E+02 -0.51039742811E+02  0.90757089768E+02  0.13675712251E+03  0.80735431221E+02 0.  0.
        -13    1    3    3    0    0 -0.17070607802E+02  0.17258433778E+02 -0.22796049924E+03  0.22924931494E+03  0.00000000000E+00 0.  1.
         14    1    3    3    0    0  0.23251991696E+02  0.11933194006E+03 -0.34212403140E+04  0.34233997799E+04  0.00000000000E+00 0. -1.
         11    1    5    5    0    0  0.15524835641E+01  0.16558650195E+01  0.67663079627E+02  0.67701140602E+02  0.00000000000E+00 0. -1.
        -12    1    5    5    0    0 -0.38191206422E+02 -0.52695607830E+02  0.23094010142E+02  0.69055981906E+02  0.00000000000E+00 0.  1.
          5    1    4    4  501    0  0.11808841851E+01 -0.11043858596E+03  0.12812943841E+03  0.16921200059E+03  0.41800000000E+01 0. -1.
         -5    1    4    4    0  501  0.29276454779E+02  0.24887954930E+02  0.15018997892E+02  0.41467623548E+02  0.41800000000E+01 0. -1.
</event>
<event>
11    1  0.7577197E-009  0.2003134E+03  0.7561462E-02  0.1054302E+00
         22   -1    0    0    0    0  0.00000000000E+00  0.00000000000E+00  0.74866788164E+03  0.74866788164E+03  0.00000000000E+00 0. -1.
         22   -1    0    0    0    0 -0.00000000000E+00 -0.00000000000E+00 -0.46295568088E+03  0.46295568088E+03  0.00000000000E+00 0. -1.
        -24    2    1    2    0    0  0.60293250296E+02 -0.67897917083E+02 -0.32344908841E+03  0.34533203945E+03  0.79934357469E+02 0.  0.
         25    2    1    2    0    0  0.56823267515E+02  0.17134021659E+03 -0.12763610819E+02  0.21997987308E+03  0.12506750675E+03 0.  0.
         24    2    1    2    0    0 -0.11711651781E+03 -0.10344229951E+03  0.62192489999E+03  0.64631164999E+03  0.80694359253E+02 0.  0.
        -13    1    5    5    0    0 -0.67288500357E+02 -0.79200807275E+01  0.21990683442E+03  0.23010755264E+03  0.00000000000E+00 0.  1.
         14    1    5    5    0    0 -0.49828017454E+02 -0.95522218784E+02  0.40201806558E+03  0.41620409735E+03  0.00000000000E+00 0. -1.
         13    1    3    3    0    0  0.75154348581E+02 -0.73396839033E+02 -0.28513924220E+03  0.30387441408E+03  0.00000000000E+00 0. -1.
        -14    1    3    3    0    0 -0.14861098285E+02  0.54989219501E+01 -0.38309846207E+02  0.41457625369E+02  0.00000000000E+00 0.  1.
          5    1    4    4  501    0  0.74369349775E+02  0.18337479311E+03 -0.11591538854E+02  0.19826485092E+03  0.41800000000E+01 0.  1.
         -5    1    4    4    0  501 -0.17546082260E+02 -0.12034576520E+02 -0.11720719642E+01  0.21715022159E+02  0.41800000000E+01 0.  1.
</event>
<event>
11    1  0.7577197E-009  0.1284705E+03  0.7561462E-02  0.1121163E+00
         22   -1    0    0    0    0  0.00000000000E+00  0.00000000000E+00  0.68287771791E+02  0.68287771791E+02  0.00000000000E+00 0. -1.
         22   -1    0    0    0    0 -0.00000000000E+00 -0.00000000000E+00 -0.39860314421E+04  0.39860314421E+04  0.00000000000E+00 0.  1.
         24    2    1    2    0    0 -0.15254260553E+01 -0.29379374323E+02 -0.36362751939E+04  0.36374607883E+04  0.88080794181E+02 0.  0.
         25    2    1    2    0    0  0.15989589964E+02  0.25341553922E+02 -0.30494199560E+03  0.33096020247E+03  0.12508866293E+03 0.  0.
        -24    2    1    2    0    0 -0.14464163909E+02  0.40378204013E+01  0.23473519120E+02  0.85898223166E+02  0.81252585264E+02 0.  0.
        -11    1    3    3    0    0 -0.21763414040E+02  0.22003933457E+00 -0.30566970239E+04  0.30567745076E+04  0.00000000000E+00 0.  1.
         12    1    3    3    0    0  0.20237987985E+02 -0.29599413657E+02 -0.57957817000E+03  0.58068628069E+03  0.00000000000E+00 0. -1.
         13    1    5    5    0    0 -0.16854443501E+02  0.72727039923E+01  0.53005242085E+02  0.56093851513E+02  0.00000000000E+00 0. -1.
        -14    1    5    5    0    0  0.23902795924E+01 -0.32348835910E+01 -0.29531722965E+02  0.29804371653E+02  0.00000000000E+00 0.  1.
          5    1    4    4  501    0 -0.16184318426E+02 -0.13295279166E+02 -0.26694994024E+03  0.26780298655E+03  0.41800000000E+01 0.  1.
         -5    1    4    4    0  501  0.32173908391E+02  0.38636833087E+02 -0.37992055364E+02  0.63157215921E+02  0.41800000000E+01 0.  1.
</event>
<event>
11    1  0.7577197E-009  0.1963734E+03  0.7561462E-02  0.1057118E+00
         22   -1    0    0    0    0  0.00000000000E+00  0.00000000000E+00  0.22412851574E+04  0.22412851574E+04  0.00000000000E+00 0. -1.
         22   -1    0    0    0    0 -0.00000000000E+00 -0.00000000000E+00 -0.15000977134E+03  0.15000977134E+03  0.00000000000E+00 0. -1.
        -24    2    1    2    0    0  0.12083967794E+02 -0.47340879689E+01 -0.97474977390E+02  0.12846054899E+03  0.82657773760E+02 0.  0.
         25    2    1    2    0    0 -0.16204639687E+03  0.11716857067E+02  0.28265496279E+03  0.34919572521E+03  0.12508999574E+03 0.  0.
         24    2    1    2    0    0  0.14996242908E+03 -0.69827690983E+01  0.19060954007E+04  0.19136386546E+04  0.79219534036E+02 0.  0.
        -13    1    5    5    0    0  0.17663760230E+02 -0.30193716831E+02  0.45285874348E+03  0.45420778341E+03  0.00000000000E+00 0.  1.
         14    1    5    5    0    0  0.13229866885E+03  0.23210947732E+02  0.14532366572E+04  0.14594308712E+04  0.00000000000E+00 0. -1.
         11    1    3    3    0    0 -0.14649227650E+02 -0.28541891463E+02 -0.84497895426E+02  0.90383260455E+02  0.00000000000E+00 0. -1.
        -12    1    3    3    0    0  0.26733195444E+02  0.23807803494E+02 -0.12977081964E+02  0.38077288535E+02  0.00000000000E+00 0.  1.
          5    1    4    4  501    0 -0.11758934690E+03 -0.16042593301E+02  0.27022628181E+03  0.29516831654E+03  0.41800000000E+01 0. -1.
         -5    1    4    4    0  501 -0.44457049969E+02  0.27759450368E+02  0.12428680976E+02  0.54027408669E+02  0.41800000000E+01 0. -1.
</event>
<event>
11    1  0.7577197E-009  0.1624963E+03  0.7561462E-02  0.1084753E+00
         22   -1    0    0    0    0  0.00000000000E+00  0.00000000000E+00  0.17000017312E+04  0.17000017312E+04  0.00000000000E+00 0. -1.
         22   -1    0    0    0    0 -0.00000000000E+00 -0.00000000000E+00 -0.75635002091E+02  0.75635002091E+02  0.00000000000E+00 0.  1.
        -24    2    1    2    0    0 -0.31665059545E+02  0.95319537407E+02  0.48128930781E+02  0.13789288032E+03  0.81299214378E+02 0.  0.
         25    2    1    2    0    0  0.76716818691E+02 -0.90612442357E+02  0.22550599015E+03  0.28389365855E+03  0.12508626140E+03 0.  0.
         24    2    1    2    0    0 -0.45051759146E+02 -0.47070950495E+01  0.13507318082E+04  0.13538501944E+04  0.79888131473E+02 0.  0.
        -11    1    5    5    0    0 -0.49076130947E+02  0.14734093888E+02  0.45134421524E+03  0.45424350384E+03  0.00000000000E+00 0.  1.
         12    1    5    5    0    0  0.40243718010E+01 -0.19441188937E+02  0.89938759297E+03  0.89960669060E+03  0.00000000000E+00 0. -1.
         11    1    3    3    0    0 -0.40187128799E+02  0.23951538160E+02  0.46555387223E+02  0.66000648336E+02  0.00000000000E+00 0. -1.
        -12    1    3    3    0    0  0.85220692541E+01  0.71367999247E+02  0.15735435590E+01  0.71892231988E+02  0.00000000000E+00 0.  1.
          5    1    4    4  501    0 -0.24451471982E+02 -0.13620487291E+02  0.41636037834E+01  0.28604198163E+02  0.41800000000E+01 0. -1.
         -5    1    4    4    0  501  0.10116829067E+03 -0.76991955067E+02  0.22134238637E+03  0.25528946039E+03  0.41800000000E+01 0. -1.
</event>
<event>
11    1  0.7577197E-009  0.2927132E+03  0.7561462E-02  0.1003323E+00
         22   -1    0    0    0    0  0.00000000000E+00  0.00000000000E+00  0.47088143312E+03  0.47088143312E+03  0.00000000000E+00 0. -1.
         22   -1    0    0    0    0 -0.00000000000E+00 -0.00000000000E+00 -0.29217697283E+03  0.29217697283E+03  0.00000000000E+00 0.  1.
         24    2    1    2    0    0 -0.24050855600E+03 -0.57482717874E+02 -0.39485141830E+02  0.25927734825E+03  0.67208917047E+02 0.  0.
         25    2    1    2    0    0  0.30364869238E+03  0.21849803275E+02  0.12080345132E+03  0.35059826969E+03  0.12508289480E+03 0.  0.
        -24    2    1    2    0    0 -0.63140136384E+02  0.35632914599E+02  0.97386150803E+02  0.15318278800E+03  0.93405153746E+02 0.  0.
        -11    1    3    3    0    0 -0.92829871024E+02 -0.46109493127E+00 -0.39721412153E+02  0.10097221472E+03  0.00000000000E+00 0.  1.
         12    1    3    3    0    0 -0.14767868497E+03 -0.57021622942E+02  0.23627032348E+00  0.15830513353E+03  0.00000000000E+00 0. -1.
         11    1    5    5    0    0  0.37038691355E+01  0.47837727601E+02  0.55482639136E+02  0.73351823932E+02  0.00000000000E+00 0. -1.
        -12    1    5    5    0    0 -0.66844005520E+02 -0.12204813002E+02  0.41903511668E+02  0.79830964071E+02  0.00000000000E+00 0.  1.
          5    1    4    4  501    0  0.13409253217E+03 -0.47994164031E+02  0.77228835439E+02  0.16206792523E+03  0.41800000000E+01 0.  1.
         -5    1    4    4    0  501  0.16955616021E+03  0.69843967305E+02  0.43574615879E+02  0.18853034446E+03  0.41800000000E+01 0.  1.
</event>
<event>
11    1  0.7577197E-009  0.1427697E+03  0.7561462E-02  0.1104504E+00
         22   -1    0    0    0    0  0.00000000000E+00  0.00000000000E+00  0.53910480462E+02  0.53910480462E+02  0.00000000000E+00 0.  1.
         22   -1    0    0    0    0 -0.00000000000E+00 -0.00000000000E+00 -0.34415880508E+04  0.34415880508E+04  0.00000000000E+00 0.  1.
        -24    2    1    2    0    0  0.55858029605E+02 -0.32881679855E+02 -0.27305326291E+04  0.27324974726E+04  0.80824967389E+02 0.  0.
         25    2    1    2    0    0  0.13587714149E+02  0.54148240003E+02 -0.63880208349E+03  0.65332391394E+03  0.12508947510E+03 0.  0.
         24    2    1    2    0    0 -0.69445743754E+02 -0.21266560148E+02 -0.18342857817E+02  0.10967714470E+03  0.80110159971E+02 0.  0.
        -13    1    5    5    0    0 -0.52828747679E+02 -0.27157578557E+02  0.23803152495E+02  0.63992192674E+02  0.00000000000E+00 0.  1.
         14    1    5    5    0    0 -0.16616996075E+02  0.58910184095E+01 -0.42146010312E+02  0.45684952027E+02  0.00000000000E+00 0. -1.
         13    1    3    3    0    0 -0.19273498077E+02 -0.17372134642E+02 -0.54209549143E+03  0.54271611420E+03  0.00000000000E+00 0. -1.
        -14    1    3    3    0    0  0.75131527682E+02 -0.15509545213E+02 -0.21884371376E+04  0.21897813584E+04  0.00000000000E+00 0.  1.
          5    1    4    4  501    0 -0.31743978444E+02  0.73095629913E+02 -0.49281377108E+03  0.49923294828E+03  0.41800000000E+01 0. -1.
         -5    1    4    4    0  501  0.45331692593E+02 -0.18947389911E+02 -0.14598831241E+03  0.15409096566E+03  0.41800000000E+01 0. -1.
</event>
<event>
11    1  0.7577197E-009  0.1750226E+03  0.7561462E-02  0.1073742E+00
         22   -1    0    0    0    0  0.00000000000E+00  0.00000000000E+00  0.99063591898E+03  0.99063591898E+03  0.00000000000E+00 0. -1.
         22   -1    0    0    0    0 -0.00000000000E+00 -0.00000000000E+00 -0.97866066972E+03  0.97866066972E+03  0.00000000000E+00 0. -1.
         24    2    1    2    0    0 -0.12066032557E+03 -0.16133133913E+02 -0.93521395186E+03  0.94649594536E+03  0.80064016010E+02 0.  0.
         25    2    1    2    0    0  0.16693840897E+03 -0.26230921449E+02  0.30462099486E+03  0.37013770456E+03  0.12510585998E+03 0.  0.
        -24    2    1    2    0    0 -0.46278083396E+02  0.42364055361E+02  0.64256820626E+03  0.65266293878E+03  0.95596222599E+02 0.  0.
        -11    1    3    3    0    0  0.10386563389E+02 -0.19425945641E+01 -0.31630713290E+02  0.33349008919E+02  0.00000000000E+00 0.  1.
         12    1    3    3    0    0 -0.13104688896E+03 -0.14190539348E+02 -0.90358323856E+03  0.91314693644E+03  0.00000000000E+00 0. -1.
         11    1    5    5    0    0 -0.33217315766E+02  0.63719563396E+02  0.59086543775E+03  0.59521889952E+03  0.00000000000E+00 0. -1.
        -12    1    5    5    0    0 -0.13060767630E+02 -0.21355508034E+02  0.51702768509E+02  0.57444039256E+02  0.00000000000E+00 0.  1.
          5    1    4    4  501    0  0.93882638398E+02 -0.41097628633E+02  0.70666277649E+02  0.12455585120E+03  0.41800000000E+01 0. -1.
         -5    1    4    4    0  501  0.73055770572E+02  0.14866707184E+02  0.23395471721E+03  0.24558185336E+03  0.41800000000E+01 0. -1.
</event>
<event>
11    1  0.7577197E-009  0.1500167E+03  0.7561462E-02  0.1096862E+00
         22   -1    0    0    0    0  0.00000000000E+00  0.00000000000E+00  0.50948717813E+03  0.50948717813E+03  0.00000000000E+00 0.  1.
         22   -1    0    0    0    0 -0.00000000000E+00 -0.00000000000E+00 -0.16750941303E+03  0.16750941303E+03  0.00000000000E+00 0. -1.
        -24    2    1    2    0    0 -0.90751848319E+02 -0.98540567019E+01 -0.10000966345E+03  0.16261496718E+03  0.90048289049E+02 0.  0.
         25    2    1    2    0    0  0.43193999515E+02 -0.12098206281E+02  0.12180205923E+03  0.18026408010E+03  0.12508920317E+03 0.  0.
         24    2    1    2    0    0  0.47557848804E+02  0.21952262983E+02  0.32018536933E+03  0.33411754389E+03  0.79826133369E+02 0.  0.
        -13    1    5    5    0    0  0.62073396514E+01  0.31341289647E+02  0.25061419984E+03  0.25264260263E+03  0.00000000000E+00 0.  1.
         14    1    5    5    0    0  0.41350509152E+02 -0.93890266646E+01  0.69571169485E+02  0.81474941255E+02  0.00000000000E+00 0. -1.
         11    1    3    3    0    0 -0.78948839771E+02 -0.42500262528E+02 -0.88654913200E+02  0.12609078178E+03  0.00000000000E+00 0. -1.
        -12    1    3    3    0    0 -0.11803008548E+02  0.32646205826E+02 -0.11354750251E+02  0.36524185397E+02  0.00000000000E+00 0.  1.
          5    1    4    4  501    0  0.12156011700E+02 -0.49149831967E+02  0.18096769233E+01  0.50835243025E+02  0.41800000000E+01 0. -1.
         -5    1    4    4    0  501  0.31037987815E+02  0.37051625686E+02  0.11999238231E+03  0.12942883707E+03  0.41800000000E+01 0. -1.
</event>
<event>
11    1  0.7577197E-009  0.1367444E+03  0.7561462E-02  0.1111249E+00
         22   -1    0    0    0    0  0.00000000000E+00  0.00000000000E+00  0.70499060634E+03  0.70499060634E+03  0.00000000000E+00 0.  1.
         22   -1    0    0    0    0 -0.00000000000E+00 -0.00000000000E+00 -0.13014444310E+03  0.13014444310E+03  0.00000000000E+00 0. -1.
         24    2    1    2    0    0 -0.44428466927E+02  0.46479463641E+01 -0.13540128750E+02  0.91890106640E+02  0.79151528936E+02 0.  0.
         25    2    1    2    0    0  0.95926689718E+02  0.83852282066E+01  0.11194077063E+02  0.15825716879E+03  0.12509109585E+03 0.  0.
        -24    2    1    2    0    0 -0.51498222791E+02 -0.13033174571E+02  0.57719221494E+03  0.58498777401E+03  0.78980454325E+02 0.  0.
        -13    1    3    3    0    0 -0.32308320741E+02 -0.16616851518E+02  0.26494851128E+02  0.44965814568E+02  0.00000000000E+00 0.  1.
         14    1    3    3    0    0 -0.12120146186E+02  0.21264797882E+02 -0.40034979879E+02  0.46924292072E+02  0.00000000000E+00 0. -1.
         11    1    5    5    0    0 -0.38542747058E+02 -0.24109331699E+02  0.13465411122E+03  0.14212154268E+03  0.00000000000E+00 0. -1.
        -12    1    5    5    0    0 -0.12955475732E+02  0.11076157128E+02  0.44253810372E+03  0.44286623133E+03  0.00000000000E+00 0.  1.
          5    1    4    4  501    0  0.74547903938E+01  0.22912773810E+02 -0.45811537476E+02  0.51930130651E+02  0.41800000000E+01 0.  1.
         -5    1    4    4    0  501  0.88471899324E+02 -0.14527545604E+02  0.57005614539E+02  0.10632703814E+03  0.41800000000E+01 0.  1.
</event>
<event>
11    1  0.7577197E-009  0.1358733E+03  0.7561462E-02  0.1112256E+00
         22   -1    0    0    0    0  0.00000000000E+00  0.00000000000E+00  0.31421836692E+03  0.31421836692E+03  0.00000000000E+00 0. -1.
         22   -1    0    0    0    0 -0.00000000000E+00 -0.00000000000E+00 -0.50278166723E+03  0.50278166723E+03  0.00000000000E+00 0.  1.
         24    2    1    2    0    0 -0.13514524567E+02  0.42694261671E+02 -0.42575671317E+03  0.43584635235E+03  0.81779103038E+02 0.  0.
         25    2    1    2    0    0  0.64120824687E+02 -0.44381736327E+02  0.25842931217E+02  0.14965245193E+03  0.12508709205E+03 0.  0.
        -24    2    1    2    0    0 -0.50606300120E+02  0.16874746558E+01  0.21135048163E+03  0.23150122987E+03  0.79749283157E+02 0.  0.
        -13    1    3    3    0    0  0.25606869187E+02  0.13633221483E+02 -0.29290381133E+03  0.29433691439E+03  0.00000000000E+00 0.  1.
         14    1    3    3    0    0 -0.39121393754E+02  0.29061040188E+02 -0.13285290183E+03  0.14150943796E+03  0.00000000000E+00 0. -1.
         13    1    5    5    0    0 -0.60252083876E+02  0.27976921522E+02  0.15140459044E+03  0.16533714573E+03  0.00000000000E+00 0. -1.
        -14    1    5    5    0    0  0.96457837551E+01 -0.26289446866E+02  0.59945891190E+02  0.66164084149E+02  0.00000000000E+00 0.  1.
          5    1    4    4  501    0 -0.21034381914E+02 -0.36921526709E+02 -0.25613304896E+02  0.49791145244E+02  0.41800000000E+01 0. -1.
         -5    1    4    4    0  501  0.85155206601E+02 -0.74602096181E+01  0.51456236113E+02  0.99861306690E+02  0.41800000000E+01 0. -1.
</event>
<event>
11    1  0.7577197E-009  0.3939473E+03  0.7561462E-02  0.9667787E-01
         22   -1    0    0    0    0  0.00000000000E+00  0.00000000000E+00  0.44808303964E+03  0.44808303964E+03  0.00000000000E+00 0. -1.
         22   -1    0    0    0    0 -0.00000000000E+00 -0.00000000000E+00 -0.48724584592E+03  0.48724584592E+03  0.00000000000E+00 0. -1.
        -24    2    1    2    0    0  0.23858448042E+03  0.25897356909E+03 -0.59333635456E+02  0.36603460376E+03  0.80442445668E+02 0.  0.
         25    2    1    2    0    0 -0.34297357944E+03 -0.22330831881E+03 -0.14956621950E+02  0.42821401456E+03  0.12508421276E+03 0.  0.
         24    2    1    2    0    0  0.10438909902E+03 -0.35665250288E+02  0.35127451126E+02  0.14108026723E+03  0.80626359889E+02 0.  0.
        -11    1    5    5    0    0  0.98401852913E+02 -0.54415330073E+02  0.15898629256E+02  0.11356372315E+03  0.00000000000E+00 0.  1.
         12    1    5    5    0    0  0.59872461033E+01  0.18750079785E+02  0.19228821870E+02  0.27516544084E+02  0.00000000000E+00 0. -1.
         11    1    3    3    0    0  0.22517175879E+03  0.20180988675E+03 -0.46427617005E+02  0.30591677785E+03  0.00000000000E+00 0. -1.
        -12    1    3    3    0    0  0.13412721637E+02  0.57163682341E+02 -0.12906018451E+02  0.60117825915E+02  0.00000000000E+00 0.  1.
          5    1    4    4  501    0 -0.24370165468E+03 -0.92020193652E+02 -0.32867636129E+02  0.26259468090E+03  0.41800000000E+01 0.  1.
         -5    1    4    4    0  501 -0.99271924763E+02 -0.13128812515E+03  0.17911014179E+02  0.16561933366E+03  0.41800000000E+01 0.  1.
</event>
<event>
11    1  0.7577197E-009  0.1710003E+03  0.7561462E-02  0.1077164E+00
         22   -1    0    0    0    0  0.00000000000E+00  0.00000000000E+00  0.71719024905E+03  0.71719024905E+03  0.00000000000E+00 0. -1.
         22   -1    0    0    0    0 -0.00000000000E+00 -0.00000000000E+00 -0.10194409201E+04  0.10194409201E+04  0.00000000000E+00 0. -1.
         24    2    1    2    0    0  0.30259551158E+02  0.13286473625E+01 -0.92487685623E+03  0.92885263991E+03  0.80328212579E+02 0.  0.
         25    2    1    2    0    0 -0.22836847621E+02 -0.11770571811E+03  0.42393099274E+01  0.17332554631E+03  0.12509042957E+03 0.  0.
        -24    2    1    2    0    0 -0.74227035371E+01  0.11637707074E+03  0.61838687528E+03  0.63445298290E+03  0.80805574535E+02 0.  0.
        -13    1    3    3    0    0 -0.82906370625E+01 -0.11551095831E+02 -0.31598493352E+02  0.34650068686E+02  0.00000000000E+00 0.  1.
         14    1    3    3    0    0  0.38550188221E+02  0.12879743194E+02 -0.89327836288E+03  0.89420257123E+03  0.00000000000E+00 0. -1.
         11    1    5    5    0    0  0.14720486360E+02  0.10021779027E+03  0.56920482044E+03  0.57814740838E+03  0.00000000000E+00 0. -1.
        -12    1    5    5    0    0 -0.22143189897E+02  0.16159280471E+02  0.49182054838E+02  0.56305574522E+02  0.00000000000E+00 0.  1.
          5    1    4    4  501    0 -0.25548632457E+02 -0.11481451898E+03 -0.43321877352E+02  0.12541676063E+03  0.41800000000E+01 0.  1.
         -5    1    4    4    0  501  0.27117848359E+01 -0.28911991218E+01  0.47561187279E+02  0.47908785674E+02  0.41800000000E+01 0.  1.
</event>
<event>
11    1  0.7577197E-009  0.2090960E+03  0.7561462E-02  0.1048271E+00
         22   -1    0    0    0    0  0.00000000000E+00  0.00000000000E+00  0.37109368424E+03  0.37109368424E+03  0.00000000000E+00 0. -1.
         22   -1    0    0    0    0 -0.00000000000E+00 -0.00000000000E+00 -0.68284972384E+03  0.68284972384E+03  0.00000000000E+00 0. -1.
        -24    2    1    2    0    0 -0.10407527506E+02 -0.13572889152E+02 -0.41954193067E+03  0.42736597432E+03  0.79584574298E+02 0.  0.
         25    2    1    2    0    0  0.10698771208E+03 -0.12398204912E+03 -0.18692154007E+03  0.27821709099E+03  0.12508864270E+03 0.  0.
         24    2    1    2    0    0 -0.96580184576E+02  0.13755493827E+03  0.29470743115E+03  0.34836034277E+03  0.79078222937E+02 0.  0.
        -13    1    5    5    0    0 -0.68149085929E+02  0.45702424507E+02  0.18561036920E+03  0.20293895307E+03  0.00000000000E+00 0.  1.
         14    1    5    5    0    0 -0.28431098647E+02  0.91852513767E+02  0.10909706195E+03  0.14542138969E+03  0.00000000000E+00 0. -1.
         11    1    3    3    0    0 -0.18363602796E+02 -0.42668995189E+01 -0.41310243184E+03  0.41353240203E+03  0.00000000000E+00 0. -1.
        -12    1    3    3    0    0  0.79560752898E+01 -0.93059896330E+01 -0.64394988349E+01  0.13833572290E+02  0.00000000000E+00 0.  1.
          5    1    4    4  501    0  0.12686584789E+03 -0.95111462133E+02 -0.18380164341E+03  0.24277901498E+03  0.41800000000E+01 0. -1.
         -5    1    4    4    0  501 -0.19878135810E+02 -0.28870586989E+02 -0.31198966600E+01  0.35438076013E+02  0.41800000000E+01 0. -1.
</event>
<event>
11    1  0.7577197E-009  0.1551315E+03  0.7561462E-02  0.1091748E+00
         22   -1    0    0    0    0  0.00000000000E+00  0.00000000000E+00  0.48345446849E+03  0.48345446849E+03  0.00000000000E+00 0.  1.
         22   -1    0    0    0    0 -0.00000000000E+00 -0.00000000000E+00 -0.82097996919E+03  0.82097996919E+03  0.00000000000E+00 0. -1.
         24    2    1    2    0    0  0.88789950561E+02  0.15573887602E+02 -0.74971412389E+03  0.75915159631E+03  0.78190007791E+02 0.  0.
         25    2    1    2    0    0 -0.14001484482E+03 -0.37133345554E+02  0.95551241878E+02  0.21391793005E+03  0.12509116216E+03 0.  0.
        -24    2    1    2    0    0  0.51224894259E+02  0.21559457952E+02  0.31663738131E+03  0.33136491133E+03  0.80340980795E+02 0.  0.
        -11    1    3    3    0    0  0.42559864236E+02 -0.31447814370E+02 -0.36762248149E+03  0.37141162605E+03  0.00000000000E+00 0.  1.
         12    1    3    3    0    0  0.46230086325E+02  0.47021701972E+02 -0.38209164240E+03  0.38773997025E+03  0.00000000000E+00 0. -1.
         13    1    5    5    0    0  0.86927200086E+01 -0.19950537851E+02  0.22572354051E+02  0.31354401750E+02  0.00000000000E+00 0. -1.
        -14    1    5    5    0    0  0.42532174250E+02  0.41509995803E+02  0.29406502726E+03  0.30001050958E+03  0.00000000000E+00 0.  1.
          5    1    4    4  501    0 -0.24259116134E+02  0.38975244330E+02  0.94235873973E+00  0.46107860785E+02  0.41800000000E+01 0. -1.
         -5    1    4    4    0  501 -0.11575572869E+03 -0.76108589884E+02  0.94608883138E+02  0.16781006926E+03  0.41800000000E+01 0. -1.
</event>
<event>
11    1  0.7577197E-009  0.1660098E+03  0.7561462E-02  0.1081557E+00
         22   -1    0    0    0    0  0.00000000000E+00  0.00000000000E+00  0.14585042224E+04  0.14585042224E+04  0.00000000000E+00 0. -1.
         22   -1    0    0    0    0 -0.00000000000E+00 -0.00000000000E+00 -0.11290582682E+04  0.11290582682E+04  0.00000000000E+00 0. -1.
        -24    2    1    2    0    0 -0.17316135091E+02  0.10857708802E+03 -0.10916130000E+04  0.11001012041E+04  0.80714836894E+02 0.  0.
         25    2    1    2    0    0 -0.54776696068E+02 -0.79152216032E+02  0.17048090810E+03  0.23233708766E+03  0.12510484619E+03 0.  0.
         24    2    1    2    0    0  0.72092831158E+02 -0.29424871989E+02  0.12505780462E+04  0.12551241987E+04  0.72993872038E+02 0.  0.
        -11    1    5    5    0    0  0.41866734638E+02 -0.37206112485E+02  0.39223246917E+03  0.39621134278E+03  0.00000000000E+00 0.  1.
         12    1    5    5    0    0  0.30226096521E+02  0.77812404966E+01  0.85834557699E+03  0.85891285597E+03  0.00000000000E+00 0. -1.
         13    1    3    3    0    0  0.28914858063E+01  0.11174441387E+03 -0.80000065638E+03  0.80777238435E+03  0.00000000000E+00 0. -1.
        -14    1    3    3    0    0 -0.20207620897E+02 -0.31673258466E+01 -0.29161234366E+03  0.29232881977E+03  0.00000000000E+00 0.  1.
          5    1    4    4  501    0  0.73706555298E+01 -0.81226729382E+02  0.14201272453E+03  0.16382061671E+03  0.41800000000E+01 0.  1.
         -5    1    4    4    0  501 -0.62147351597E+02  0.20745133499E+01  0.28468183569E+02  0.68516470954E+02  0.41800000000E+01 0.  1.
</event>
<event>
11    1  0.7577197E-009  0.4526608E+03  0.7561462E-02  0.9506005E-01
         22   -1    0    0    0    0  0.00000000000E+00  0.00000000000E+00  0.24486789793E+04  0.24486789793E+04  0.00000000000E+00 0. -1.
         22   -1    0    0    0    0 -0.00000000000E+00 -0.00000000000E+00 -0.49568800775E+03  0.49568800775E+03  0.00000000000E+00 0. -1.
        -24    2    1    2    0    0 -0.11714713788E+03  0.41657491075E+03 -0.28369332105E+03  0.52358625550E+03  0.80015988193E+02 0.  0.
         25    2    1    2    0    0  0.12677459696E+03 -0.42800448739E+03  0.49886624034E+03  0.68100978412E+03  0.12508861121E+03 0.  0.
         24    2    1    2    0    0 -0.96274590889E+01  0.11429576646E+02  0.17378180522E+04  0.17397709474E+04  0.81043467133E+02 0.  0.
        -11    1    5    5    0    0 -0.83811524806E+01 -0.30021626946E+02  0.36556347541E+03  0.36688989678E+03  0.00000000000E+00 0.  1.
         12    1    5    5    0    0 -0.12463066083E+01  0.41451203591E+02  0.13722545768E+04  0.13728810506E+04  0.00000000000E+00 0. -1.
         11    1    3    3    0    0 -0.95189561977E+02  0.32362654384E+03 -0.17903913818E+03  0.38190339824E+03  0.00000000000E+00 0. -1.
        -12    1    3    3    0    0 -0.21957575898E+02  0.92948366907E+02 -0.10465418287E+03  0.14168285726E+03  0.00000000000E+00 0.  1.
          5    1    4    4  501    0  0.25163664988E+02 -0.24052980208E+03  0.32902120820E+03  0.40836285773E+03  0.41800000000E+01 0.  1.
         -5    1    4    4    0  501  0.10161093198E+03 -0.18747468531E+03  0.16984503214E+03  0.27264692639E+03  0.41800000000E+01 0.  1.
</event>
<event>
11    1  0.7577197E-009  0.1368745E+03  0.7561462E-02  0.1111100E+00
         22   -1    0    0    0    0  0.00000000000E+00  0.00000000000E+00  0.39306652125E+03  0.39306652125E+03  0.00000000000E+00 0.  1.
         22   -1    0    0    0    0 -0.00000000000E+00 -0.00000000000E+00 -0.19469086961E+03  0.19469086961E+03  0.00000000000E+00 0. -1.
        -24    2    1    2    0    0  0.43432374427E+01 -0.54997356521E+01 -0.99575109506E+02  0.12741736746E+03  0.79188839446E+02 0.  0.
         25    2    1    2    0    0 -0.10457549373E+01  0.60463640060E+02 -0.78808560858E+01  0.13916505870E+03  0.12509140777E+03 0.  0.
         24    2    1    2    0    0 -0.32974825054E+01 -0.54963904408E+02  0.30583161724E+03  0.32117496470E+03  0.81169425702E+02 0.  0.
        -11    1    5    5    0    0  0.13854417928E+02 -0.51630771965E+02  0.29666652341E+03  0.30144436904E+03  0.00000000000E+00 0.  1.
         12    1    5    5    0    0 -0.17151900434E+02 -0.33331324427E+01  0.91650938235E+01  0.19730595662E+02  0.00000000000E+00 0. -1.
         13    1    3    3    0    0 -0.18492993197E+02  0.31202360863E+02 -0.45723389731E+02  0.58362714890E+02  0.00000000000E+00 0. -1.
        -14    1    3    3    0    0  0.22836230640E+02 -0.36702096516E+02 -0.53851719775E+02  0.69054652567E+02  0.00000000000E+00 0.  1.
          5    1    4    4  501    0 -0.59142052089E+02  0.53670498854E+02  0.16950146798E+00  0.79973782599E+02  0.41800000000E+01 0.  1.
         -5    1    4    4    0  501  0.58096297151E+02  0.67931412060E+01 -0.80503575538E+01  0.59191276105E+02  0.41800000000E+01 0.  1.
</event>
<event>
11    1  0.7577197E-009  0.1475484E+03  0.7561462E-02  0.1099410E+00
         22   -1    0    0    0    0  0.00000000000E+00  0.00000000000E+00  0.29318718475E+04  0.29318718475E+04  0.00000000000E+00 0.  1.
         22   -1    0    0    0    0 -0.00000000000E+00 -0.00000000000E+00 -0.13688365661E+03  0.13688365661E+03  0.00000000000E+00 0.  1.
        -24    2    1    2    0    0 -0.18310974230E+02  0.65197271950E+02 -0.73973629625E+02  0.12699023501E+03  0.77900230169E+02 0.  0.
         25    2    1    2    0    0  0.32185740704E+01 -0.14001958351E+03  0.21488613847E+03  0.28537531274E+03  0.12508866308E+03 0.  0.
         24    2    1    2    0    0  0.15092400159E+02  0.74822311558E+02  0.26540756820E+04  0.26563899564E+04  0.80397234733E+02 0.  0.
        -13    1    5    5    0    0  0.10674077974E+02  0.63901103648E+02  0.26088714359E+04  0.26096757377E+04  0.00000000000E+00 0.  1.
         14    1    5    5    0    0  0.44183221857E+01  0.10921207910E+02  0.45204246134E+02  0.46714218624E+02  0.00000000000E+00 0. -1.
         13    1    3    3    0    0 -0.38348012411E+02  0.68381019277E+01 -0.15318259457E+02  0.41856645430E+02  0.00000000000E+00 0. -1.
        -14    1    3    3    0    0  0.20037038182E+02  0.58359170022E+02 -0.58655370168E+02  0.85133589577E+02  0.00000000000E+00 0.  1.
          5    1    4    4  501    0 -0.63434310091E+01 -0.11835935093E+02  0.13116729047E+03  0.13191913798E+03  0.41800000000E+01 0. -1.
         -5    1    4    4    0  501  0.95620050794E+01 -0.12818364841E+03  0.83718848001E+02  0.15345617476E+03  0.41800000000E+01 0. -1.
</event>
<event>
11    1  0.7577197E-009  0.1358646E+03  0.7561462E-02  0.1112266E+00
         22   -1    0    0    0    0  0.00000000000E+00  0.00000000000E+00  0.24184234337E+03  0.24184234337E+03  0.00000000000E+00 0. -1.
         22   -1    0    0    0    0 -0.00000000000E+00 -0.00000000000E+00 -0.88904481626E+03  0.88904481626E+03  0.00000000000E+00 0.  1.
         24    2    1    2    0    0  0.56886165330E+02 -0.23245929385E+02 -0.64710904076E+03  0.65517971511E+03  0.82060583802E+02 0.  0.
         25    2    1    2    0    0 -0.20907426568E+02 -0.10532849375E+02 -0.20997580005E+03  0.24553033665E+03  0.12508896118E+03 0.  0.
        -24    2    1    2    0    0 -0.35978738762E+02  0.33778778760E+02  0.20988236792E+03  0.23017710788E+03  0.80594150470E+02 0.  0.
        -11    1    3    3    0    0  0.19799468193E+02  0.25300970113E+02 -0.37121960384E+03  0.37260723598E+03  0.00000000000E+00 0.  1.
         12    1    3    3    0    0  0.37086697136E+02 -0.48546899499E+02 -0.27588943693E+03  0.28257247913E+03  0.00000000000E+00 0. -1.
         11    1    5    5    0    0  0.10469907457E+02  0.32088996229E+02  0.32685535210E+02  0.46985815446E+02  0.00000000000E+00 0. -1.
        -12    1    5    5    0    0 -0.46448646219E+02  0.16897825310E+01  0.17719683271E+03  0.18319129243E+03  0.00000000000E+00 0.  1.
          5    1    4    4  501    0 -0.20517383865E+02 -0.48902181053E+02 -0.19814193353E+03  0.20515868146E+03  0.41800000000E+01 0. -1.
         -5    1    4    4    0  501 -0.39004270270E+00  0.38369331678E+02 -0.11833866516E+02  0.40371655198E+02  0.41800000000E+01 0. -1.
</event>
<event>
11    1  0.1346984E-008  0.1860195E+03  0.7561462E-02  0.1064875E+00
         22   -1    0    0    0    0  0.00000000000E+00  0.00000000000E+00  0.14617202710E+04  0.14617202710E+04  0.00000000000E+00 0.  1.
         22   -1    0    0    0    0 -0.00000000000E+00 -0.00000000000E+00 -0.11700224603E+04  0.11700224603E+04  0.00000000000E+00 0.  1.
         24    2    1    2    0    0  0.34914024807E+00  0.10836763631E+02 -0.10127401996E+04  0.10164788645E+04  0.86423449567E+02 0.  0.
         25    2    1    2    0    0 -0.40225162069E+02  0.12125925128E+03 -0.97809778546E+02  0.20380467887E+03  0.12509086564E+03 0.  0.
        -24    2    1    2    0    0  0.39876021821E+02 -0.13209601491E+03  0.14022477888E+04  0.14114591879E+04  0.82938070499E+02 0.  0.
        -11    1    3    3    0    0 -0.20875807249E+02  0.30748183257E+02 -0.87044605401E+03  0.87123910785E+03  0.00000000000E+00 0.  1.
         12    1    3    3    0    0  0.21224947497E+02 -0.19911419626E+02 -0.14229414563E+03  0.14523975664E+03  0.00000000000E+00 0. -1.
         13    1    5    5    0    0  0.12478955630E+02 -0.10564315834E+02  0.35950768680E+02  0.39494137177E+02  0.00000000000E+00 0. -1.
        -14    1    5    5    0    0  0.27397066191E+02 -0.12153169908E+03  0.13662970202E+04  0.13719650507E+04  0.00000000000E+00 0.  1.
          5    1    4    4  501    0 -0.56078782499E+02  0.14089390476E+03 -0.73713194728E+02  0.16866247277E+03  0.41800000000E+01 0.  1.
         -5    1    4    4    0  501  0.15853620430E+02 -0.19634653477E+02 -0.24096583818E+02  0.35142206100E+02  0.41800000000E+01 0.  1.
</event>
<event>
11    1  0.7577197E-009  0.3104609E+03  0.7561462E-02  0.9958586E-01
         22   -1    0    0    0    0  0.00000000000E+00  0.00000000000E+00  0.24843651308E+04  0.24843651308E+04  0.00000000000E+00 0. -1.
         22   -1    0    0    0    0 -0.00000000000E+00 -0.00000000000E+00 -0.64752889677E+02  0.64752889677E+02  0.00000000000E+00 0. -1.
         24    2    1    2    0    0  0.17156419192E+03 -0.22531723957E+03  0.49962222497E+03  0.57949634775E+03  0.77404902780E+02 0.  0.
         25    2    1    2    0    0 -0.23761932534E+03  0.17567142874E+03  0.15218744942E+04  0.15553368848E+04  0.12508978538E+03 0.  0.
        -24    2    1    2    0    0  0.66055133420E+02  0.49645810828E+02  0.39811552194E+03  0.41428478794E+03  0.79422474922E+02 0.  0.
        -13    1    3    3    0    0  0.10857960557E+03 -0.79003534956E+02  0.22580075822E+03  0.26271100414E+03  0.00000000000E+00 0.  1.
         14    1    3    3    0    0  0.62984586350E+02 -0.14631370461E+03  0.27382146675E+03  0.31678534361E+03  0.00000000000E+00 0. -1.
         11    1    5    5    0    0  0.83442020650E+02  0.42626352268E+02  0.29647603564E+03  0.31093024366E+03  0.00000000000E+00 0. -1.
        -12    1    5    5    0    0 -0.17386887230E+02  0.70194585598E+01  0.10163948630E+03  0.10335454427E+03  0.00000000000E+00 0.  1.
          5    1    4    4  501    0 -0.18377122823E+03  0.10973952011E+03  0.13027006663E+04  0.13201746570E+04  0.41800000000E+01 0. -1.
         -5    1    4    4    0  501 -0.53848097109E+02  0.65931908629E+02  0.21917382785E+03  0.23516222773E+03  0.41800000000E+01 0. -1.
</event>
<event>
11    1  0.7577197E-009  0.2057296E+03  0.7561462E-02  0.1050544E+00
         22   -1    0    0    0    0  0.00000000000E+00  0.00000000000E+00  0.11093455081E+04  0.11093455081E+04  0.00000000000E+00 0. -1.
         22   -1    0    0    0    0 -0.00000000000E+00 -0.00000000000E+00 -0.14673067251E+04  0.14673067251E+04  0.00000000000E+00 0.  1.
         24    2    1    2    0    0  0.12666987769E+03  0.99299751478E+02 -0.12930308019E+04  0.13055492423E+04  0.81390852459E+02 0.  0.
         25    2    1    2    0    0 -0.16121599355E+03 -0.10847253103E+03 -0.85991534203E+02  0.24657461089E+03  0.12509040018E+03 0.  0.
        -24    2    1    2    0    0  0.34546115863E+02  0.91727795477E+01  0.10210611191E+04  0.10245283800E+04  0.76256269033E+02 0.  0.
        -13    1    3    3    0    0  0.11177143748E+03  0.92332558741E+02 -0.85458456849E+03  0.86679463563E+03  0.00000000000E+00 0.  1.
         14    1    3    3    0    0  0.14898440207E+02  0.69671927362E+01 -0.43844623336E+03  0.43875460663E+03  0.00000000000E+00 0. -1.
         11    1    5    5    0    0 -0.52435277452E+01  0.33341682200E+02  0.28401540299E+03  0.28601383094E+03  0.00000000000E+00 0. -1.
        -12    1    5    5    0    0  0.39789643608E+02 -0.24168902653E+02  0.73704571611E+03  0.73851454910E+03  0.00000000000E+00 0.  1.
          5    1    4    4  501    0 -0.66130480644E+02 -0.98177621340E+02 -0.83661804431E+00  0.11844939059E+03  0.41800000000E+01 0.  1.
         -5    1    4    4    0  501 -0.95085512910E+02 -0.10294909685E+02 -0.85154916159E+02  0.12812522030E+03  0.41800000000E+01 0.  1.
</event>
<event>
11    1  0.7577197E-009  0.1463601E+03  0.7561462E-02  0.1100657E+00
         22   -1    0    0    0    0  0.00000000000E+00  0.00000000000E+00  0.13270482376E+04  0.13270482376E+04  0.00000000000E+00 0. -1.
         22   -1    0    0    0    0 -0.00000000000E+00 -0.00000000000E+00 -0.10898318189E+04  0.10898318189E+04  0.00000000000E+00 0. -1.
        -24    2    1    2    0    0  0.26520573372E+02 -0.19369296490E+02 -0.10486571984E+04  0.10521208322E+04  0.78726204487E+02 0.  0.
         25    2    1    2    0    0 -0.48008931751E+02  0.90453713940E+02  0.14033137296E+03  0.21407414094E+03  0.12509241259E+03 0.  0.
         24    2    1    2    0    0  0.21488358379E+02 -0.71084417450E+02  0.11455422442E+04  0.11506850834E+04  0.79337153769E+02 0.  0.
        -11    1    5    5    0    0  0.10282459430E+02 -0.13568716649E+02  0.38536633669E+02  0.42129694729E+02  0.00000000000E+00 0.  1.
         12    1    5    5    0    0  0.11205898949E+02 -0.57515700801E+02  0.11070056105E+04  0.11085553887E+04  0.00000000000E+00 0. -1.
         11    1    3    3    0    0  0.18859300293E+02 -0.33451358466E+02 -0.10029300276E+04  0.10036649376E+04  0.00000000000E+00 0. -1.
        -12    1    3    3    0    0  0.76612730793E+01  0.14082061976E+02 -0.45727170772E+02  0.48455894600E+02  0.00000000000E+00 0.  1.
          5    1    4    4  501    0  0.44185474324E+00  0.22545641422E+02 -0.21832064800E+02  0.31664059060E+02  0.41800000000E+01 0.  1.
         -5    1    4    4    0  501 -0.48450786494E+02  0.67908072518E+02  0.16216343776E+03  0.18241008188E+03  0.41800000000E+01 0.  1.
</event>
<event>
11    1  0.7577197E-009  0.3145220E+03  0.7561462E-02  0.9942258E-01
         22   -1    0    0    0    0  0.00000000000E+00  0.00000000000E+00  0.50894381166E+03  0.50894381166E+03  0.00000000000E+00 0.  1.
         22   -1    0    0    0    0 -0.00000000000E+00 -0.00000000000E+00 -0.37239761299E+03  0.37239761299E+03  0.00000000000E+00 0.  1.
        -24    2    1    2    0    0 -0.96233282135E+02  0.43490045209E+02 -0.23494423543E+02  0.13334378193E+03  0.77950930839E+02 0.  0.
         25    2    1    2    0    0  0.30398500434E+01 -0.31317582184E+03 -0.10072462616E+03  0.35196897087E+03  0.12509344534E+03 0.  0.
         24    2    1    2    0    0  0.93193432092E+02  0.26968577663E+03  0.26076524837E+03  0.39602867185E+03  0.86167048610E+02 0.  0.
        -11    1    5    5    0    0  0.46420658455E+02  0.21964931251E+03  0.16648935127E+03  0.27949848319E+03  0.00000000000E+00 0.  1.
         12    1    5    5    0    0  0.46772773637E+02  0.50036464121E+02  0.94275897100E+02  0.11653018866E+03  0.00000000000E+00 0. -1.
         13    1    3    3    0    0 -0.82803886750E+02  0.63038901544E+02 -0.30792508365E+02  0.10852909905E+03  0.00000000000E+00 0. -1.
        -14    1    3    3    0    0 -0.13429395386E+02 -0.19548856334E+02  0.72980848227E+01  0.24814682881E+02  0.00000000000E+00 0.  1.
          5    1    4    4  501    0 -0.57013197930E+02 -0.11410649987E+03 -0.55314212196E+02  0.13909684584E+03  0.41800000000E+01 0. -1.
         -5    1    4    4    0  501  0.60053047973E+02 -0.19906932197E+03 -0.45410413962E+02  0.21287212503E+03  0.41800000000E+01 0. -1.
</event>
<event>
11    1  0.7577197E-009  0.1394697E+03  0.7561462E-02  0.1108152E+00
         22   -1    0    0    0    0  0.00000000000E+00  0.00000000000E+00  0.10019418348E+03  0.10019418348E+03  0.00000000000E+00 0.  1.
         22   -1    0    0    0    0 -0.00000000000E+00 -0.00000000000E+00 -0.15881902125E+04  0.15881902125E+04  0.00000000000E+00 0. -1.
         24    2    1    2    0    0 -0.20483181679E+02 -0.15963976010E+02 -0.14182575610E+04  0.14207653898E+04  0.80283087193E+02 0.  0.
         25    2    1    2    0    0 -0.21192219137E+02  0.61617820353E+02 -0.86205073276E+02  0.16531100869E+03  0.12510215426E+03 0.  0.
        -24    2    1    2    0    0  0.41675400817E+02 -0.45653844343E+02  0.16466605290E+02  0.10230799752E+03  0.79841497546E+02 0.  0.
        -13    1    3    3    0    0 -0.98925853839E+01  0.29243921079E+02 -0.30946278208E+03  0.31099884832E+03  0.00000000000E+00 0.  1.
         14    1    3    3    0    0 -0.10590596295E+02 -0.45207897089E+02 -0.11087947790E+04  0.11097665415E+04  0.00000000000E+00 0. -1.
         11    1    5    5    0    0 -0.84751970754E+01  0.16199305029E+02 -0.65471343327E+01  0.19419356757E+02  0.00000000000E+00 0. -1.
        -12    1    5    5    0    0  0.50150597892E+02 -0.61853149372E+02  0.23013739623E+02  0.82888640763E+02  0.00000000000E+00 0.  1.
          5    1    4    4  501    0 -0.16644512048E+02  0.49107514553E+02  0.21803974989E+02  0.56404552052E+02  0.41800000000E+01 0. -1.
         -5    1    4    4    0  501 -0.45477070898E+01  0.12510305800E+02 -0.10800904826E+03  0.10890645664E+03  0.41800000000E+01 0. -1.
</event>
<event>
11    1  0.7577197E-009  0.1989857E+03  0.7561462E-02  0.1055243E+00
         22   -1    0    0    0    0  0.00000000000E+00  0.00000000000E+00  0.59479641967E+03  0.59479641967E+03  0.00000000000E+00 0. -1.
         22   -1    0    0    0    0 -0.00000000000E+00 -0.00000000000E+00 -0.13267991774E+03  0.13267991774E+03  0.00000000000E+00 0.  1.
         24    2    1    2    0    0  0.13370728597E+03 -0.73001967762E+02 -0.13919693118E+02  0.17021288116E+03  0.74644098489E+02 0.  0.
         25    2    1    2    0    0 -0.16105658642E+03  0.46126975011E+02  0.27559052780E+03  0.34592621772E+03  0.12509151545E+03 0.  0.
        -24    2    1    2    0    0  0.27349300450E+02  0.26874992751E+02  0.20044566724E+03  0.21133723853E+03  0.54906405850E+02 0.  0.
        -13    1    3    3    0    0  0.11581869882E+03 -0.45996044862E+02 -0.37509345851E+02  0.13014053237E+03  0.00000000000E+00 0.  1.
         14    1    3    3    0    0  0.17888587151E+02 -0.27005922900E+02  0.23589652734E+02  0.40072348796E+02  0.00000000000E+00 0. -1.
         13    1    5    5    0    0  0.39658623611E+02  0.15317298513E+02  0.89151385548E+02  0.98769406223E+02  0.00000000000E+00 0. -1.
        -14    1    5    5    0    0 -0.12309323161E+02  0.11557694238E+02  0.11129428170E+03  0.11256783231E+03  0.00000000000E+00 0.  1.
          5    1    4    4  501    0 -0.88567193828E+02  0.74101065666E+02  0.96090658565E+02  0.15028640264E+03  0.41800000000E+01 0.  1.
         -5    1    4    4    0  501 -0.72489392588E+02 -0.27974090655E+02  0.17949986924E+03  0.19563981508E+03  0.41800000000E+01 0.  1.
</event>
<event>
11    1  0.7577197E-009  0.1615645E+03  0.7561462E-02  0.1085615E+00
         22   -1    0    0    0    0  0.00000000000E+00  0.00000000000E+00  0.19103155472E+03  0.19103155472E+03  0.00000000000E+00 0.  1.
         22   -1    0    0    0    0 -0.00000000000E+00 -0.00000000000E+00 -0.51947334409E+03  0.51947334409E+03  0.00000000000E+00 0.  1.
         24    2    1    2    0    0 -0.53616954359E+02  0.96639900698E+02 -0.40917230390E+03  0.43110573179E+03  0.78842434645E+02 0.  0.
         25    2    1    2    0    0  0.64677343657E+02 -0.12826311993E+02  0.12268034520E+02  0.14193635849E+03  0.12509097541E+03 0.  0.
        -24    2    1    2    0    0 -0.11060389298E+02 -0.83813588705E+02  0.68462480016E+02  0.13746280853E+03  0.84034889752E+02 0.  0.
        -13    1    3    3    0    0 -0.42803463487E+02  0.69868425896E+02 -0.38448078771E+03  0.39311475365E+03  0.00000000000E+00 0.  1.
         14    1    3    3    0    0 -0.10813490872E+02  0.26771474801E+02 -0.24691516195E+02  0.37990978138E+02  0.00000000000E+00 0. -1.
         11    1    5    5    0    0  0.49997947831E+01 -0.10399788673E+02 -0.18950244143E+02  0.22187052652E+02  0.00000000000E+00 0. -1.
        -12    1    5    5    0    0 -0.16060184081E+02 -0.73413800032E+02  0.87412724160E+02  0.11527575588E+03  0.00000000000E+00 0.  1.
          5    1    4    4  501    0 -0.34088106933E+02  0.16653013031E+02  0.54550602626E+01  0.38555829128E+02  0.41800000000E+01 0. -1.
         -5    1    4    4    0  501  0.98765450590E+02 -0.29479325023E+02  0.68129742578E+01  0.10338052937E+03  0.41800000000E+01 0. -1.
</event>
<event>
11    1  0.7577197E-009  0.1864376E+03  0.7561462E-02  0.1064551E+00
         22   -1    0    0    0    0  0.00000000000E+00  0.00000000000E+00  0.13708913337E+04  0.13708913337E+04  0.00000000000E+00 0. -1.
         22   -1    0    0    0    0 -0.00000000000E+00 -0.00000000000E+00 -0.32615231995E+04  0.32615231995E+04  0.00000000000E+00 0.  1.
        -24    2    1    2    0    0 -0.10932363048E+01 -0.27274320041E+02 -0.29622403093E+04  0.29635128058E+04  0.82434314920E+02 0.  0.
         25    2    1    2    0    0 -0.73240729714E+02  0.14341759143E+03 -0.25849625876E+03  0.32923902712E+03  0.12508081854E+03 0.  0.
         24    2    1    2    0    0  0.74333966019E+02 -0.11614327139E+03  0.13301047024E+04  0.13396627003E+04  0.80640146783E+02 0.  0.
        -11    1    5    5    0    0  0.21150970109E+02 -0.88063725079E+02  0.56657048249E+03  0.57376362279E+03  0.00000000000E+00 0.  1.
         12    1    5    5    0    0  0.53182995910E+02 -0.28079546313E+02  0.76353421987E+03  0.76589907748E+03  0.00000000000E+00 0. -1.
         13    1    3    3    0    0 -0.36648263638E+02 -0.14582093333E+02 -0.82830617480E+03  0.82924474788E+03  0.00000000000E+00 0. -1.
        -14    1    3    3    0    0  0.35555027333E+02 -0.12692226708E+02 -0.21339341345E+04  0.21342680579E+04  0.00000000000E+00 0.  1.
          5    1    4    4  501    0  0.84024250374E+01  0.68185883154E+02 -0.18137722009E+03  0.19399763859E+03  0.41800000000E+01 0. -1.
         -5    1    4    4    0  501 -0.81643154751E+02  0.75231708280E+02 -0.77119038666E+02  0.13524138854E+03  0.41800000000E+01 0. -1.
</event>
<event>
11    1  0.7577197E-009  0.1998072E+03  0.7561462E-02  0.1054660E+00
         22   -1    0    0    0    0  0.00000000000E+00  0.00000000000E+00  0.78129839724E+03  0.78129839724E+03  0.00000000000E+00 0.  1.
         22   -1    0    0    0    0 -0.00000000000E+00 -0.00000000000E+00 -0.10886867312E+03  0.10886867312E+03  0.00000000000E+00 0. -1.
        -24    2    1    2    0    0 -0.17053770982E+02 -0.16797333010E+03  0.39358495349E+02  0.19085256393E+03  0.79810646368E+02 0.  0.
         25    2    1    2    0    0 -0.16788743463E+02  0.10007662410E+03  0.49723712978E+03  0.52266321005E+03  0.12503949502E+03 0.  0.
         24    2    1    2    0    0  0.33842514445E+02  0.67896706004E+02  0.13583409898E+03  0.17665129637E+03  0.83663012090E+02 0.  0.
        -11    1    5    5    0    0  0.18532220370E+02  0.41562254605E+02  0.13877720706E+03  0.14604785996E+03  0.00000000000E+00 0.  1.
         12    1    5    5    0    0  0.15310294075E+02  0.26334451398E+02 -0.29431080718E+01  0.30603436412E+02  0.00000000000E+00 0. -1.
         13    1    3    3    0    0 -0.28284208490E+02 -0.14292414744E+03  0.35588738868E+01  0.14573940426E+03  0.00000000000E+00 0. -1.
        -14    1    3    3    0    0  0.11230437508E+02 -0.25049182662E+02  0.35799621463E+02  0.45113159671E+02  0.00000000000E+00 0.  1.
          5    1    4    4  501    0 -0.60361576379E+02  0.98967643279E+02  0.33020098733E+03  0.34998325496E+03  0.41800000000E+01 0.  1.
         -5    1    4    4    0  501  0.43572832916E+02  0.11089808188E+01  0.16703614245E+03  0.17267995509E+03  0.41800000000E+01 0.  1.
</event>
<event>
11    1  0.7577197E-009  0.3123890E+03  0.7561462E-02  0.9950801E-01
         22   -1    0    0    0    0  0.00000000000E+00  0.00000000000E+00  0.42793080931E+03  0.42793080931E+03  0.00000000000E+00 0.  1.
         22   -1    0    0    0    0 -0.00000000000E+00 -0.00000000000E+00 -0.20171523122E+04  0.20171523122E+04  0.00000000000E+00 0.  1.
        -24    2    1    2    0    0 -0.12308395631E+03 -0.27739521725E+03 -0.17301910599E+04  0.17584518615E+04  0.80585847459E+02 0.  0.
         25    2    1    2    0    0  0.14178400978E+03  0.16706413524E+03 -0.19792911995E+03  0.32067659590E+03  0.12507762360E+03 0.  0.
         24    2    1    2    0    0 -0.18700053471E+02  0.11033108200E+03  0.33889867690E+03  0.36595466410E+03  0.80918868744E+02 0.  0.
        -11    1    5    5    0    0 -0.22421580295E+02  0.10461956192E+01  0.11015044069E+03  0.11241415112E+03  0.00000000000E+00 0.  1.
         12    1    5    5    0    0  0.37215268240E+01  0.10928488639E+03  0.22874823621E+03  0.25354051298E+03  0.00000000000E+00 0. -1.
         11    1    3    3    0    0 -0.21926463960E+02 -0.36755249619E+02 -0.12378389826E+03  0.13097393506E+03  0.00000000000E+00 0. -1.
        -12    1    3    3    0    0 -0.10115749234E+03 -0.24063996763E+03 -0.16064071616E+04  0.16274779265E+04  0.00000000000E+00 0.  1.
          5    1    4    4  501    0  0.56842903146E+02  0.13643273747E+03 -0.68873456299E+02  0.16311355822E+03  0.41800000000E+01 0.  1.
         -5    1    4    4    0  501  0.84941106630E+02  0.30631397772E+02 -0.12905566365E+03  0.15756303768E+03  0.41800000000E+01 0.  1.
</event>
<event>
11    1  0.7577197E-009  0.1566380E+03  0.7561462E-02  0.1090283E+00
         22   -1    0    0    0    0  0.00000000000E+00  0.00000000000E+00  0.31442937489E+03  0.31442937489E+03  0.00000000000E+00 0.  1.
         22   -1    0    0    0    0 -0.00000000000E+00 -0.00000000000E+00 -0.31666252803E+04  0.31666252803E+04  0.00000000000E+00 0. -1.
        -24    2    1    2    0    0  0.45048596467E+02 -0.84214578654E+02 -0.28004667925E+04  0.28032831901E+04  0.81614440977E+02 0.  0.
         25    2    1    2    0    0  0.79011026855E+01  0.93094090531E+02 -0.33975807816E+03  0.37391341768E+03  0.12508699027E+03 0.  0.
         24    2    1    2    0    0 -0.52949699152E+02 -0.88795118774E+01  0.28802896520E+03  0.30385804741E+03  0.80538883823E+02 0.  0.
        -11    1    5    5    0    0 -0.59193415962E+02 -0.11088059217E+02  0.29058439377E+03  0.29675932244E+03  0.00000000000E+00 0.  1.
         12    1    5    5    0    0  0.62437168100E+01  0.22085473396E+01 -0.25554285727E+01  0.70987249661E+01  0.00000000000E+00 0. -1.
         13    1    3    3    0    0  0.56897151174E+02 -0.92123966336E+02 -0.26277499464E+04  0.26299798273E+04  0.00000000000E+00 0. -1.
        -14    1    3    3    0    0 -0.11848554707E+02  0.79093876823E+01 -0.17271684603E+03  0.17330336282E+03  0.00000000000E+00 0.  1.
          5    1    4    4  501    0  0.55677744644E+02  0.91764231982E+02 -0.25098982486E+03  0.27300924912E+03  0.41800000000E+01 0.  1.
         -5    1    4    4    0  501 -0.47776641958E+02  0.13298585489E+01 -0.88768253298E+02  0.10090416857E+03  0.41800000000E+01 0.  1.
</event>
<event>
11    1  0.7577197E-009  0.1778959E+03  0.7561462E-02  0.1071358E+00
         22   -1    0    0    0    0  0.00000000000E+00  0.00000000000E+00  0.13715321603E+03  0.13715321603E+03  0.00000000000E+00 0.  1.
         22   -1    0    0    0    0 -0.00000000000E+00 -0.00000000000E+00 -0.27060311314E+04  0.27060311314E+04  0.00000000000E+00 0.  1.
         24    2    1    2    0    0 -0.17786502540E+02  0.47765965987E+02 -0.21071909721E+04  0.21097730692E+04  0.91053080389E+02 0.  0.
         25    2    1    2    0    0  0.11636100490E+03  0.33531999618E+02 -0.53598017761E+03  0.56354568120E+03  0.12507879735E+03 0.  0.
        -24    2    1    2    0    0 -0.98574502356E+02 -0.81297965605E+02  0.74293234358E+02  0.16986559701E+03  0.83717051140E+02 0.  0.
        -13    1    3    3    0    0  0.23084329899E+02  0.55052248399E+02 -0.14844360551E+04  0.14856359036E+04  0.00000000000E+00 0.  1.
         14    1    3    3    0    0 -0.40870832439E+02 -0.72862824116E+01 -0.62275491701E+03  0.62413716562E+03  0.00000000000E+00 0. -1.
         11    1    5    5    0    0  0.24708576195E+01  0.12933718264E+02  0.13684506832E+02  0.18990838126E+02  0.00000000000E+00 0. -1.
        -12    1    5    5    0    0 -0.10104535998E+03 -0.94231683868E+02  0.60608727526E+02  0.15087475889E+03  0.00000000000E+00 0.  1.
          5    1    4    4  501    0  0.10841463029E+03 -0.20128586766E+02 -0.43571091758E+03  0.44946675980E+03  0.41800000000E+01 0.  1.
         -5    1    4    4    0  501  0.79463746045E+01  0.53660586384E+02 -0.10026926003E+03  0.11407892140E+03  0.41800000000E+01 0.  1.
</event>
<event>
11    1  0.7577197E-009  0.1450386E+03  0.7561462E-02  0.1102059E+00
         22   -1    0    0    0    0  0.00000000000E+00  0.00000000000E+00  0.14723843848E+03  0.14723843848E+03  0.00000000000E+00 0.  1.
         22   -1    0    0    0    0 -0.00000000000E+00 -0.00000000000E+00 -0.64686051358E+03  0.64686051358E+03  0.00000000000E+00 0.  1.
        -24    2    1    2    0    0  0.39754556832E+02 -0.55422280385E+02 -0.46755732586E+03  0.47922560836E+03  0.79970474445E+02 0.  0.
         25    2    1    2    0    0 -0.66337552296E+02 -0.19510404934E+02 -0.10783328452E+03  0.17904347354E+03  0.12508885411E+03 0.  0.
         24    2    1    2    0    0  0.26582995464E+02  0.74932685319E+02  0.75768535278E+02  0.13582987016E+03  0.79920708914E+02 0.  0.
        -11    1    5    5    0    0  0.39420366717E+02  0.59813546875E+02  0.87267453689E+02  0.11290364996E+03  0.00000000000E+00 0.  1.
         12    1    5    5    0    0 -0.12837371253E+02  0.15119138443E+02 -0.11498918411E+02  0.22926220198E+02  0.00000000000E+00 0. -1.
         11    1    3    3    0    0  0.25453457650E+02 -0.54843013612E+02 -0.15551012280E+03  0.16685033096E+03  0.00000000000E+00 0. -1.
        -12    1    3    3    0    0  0.14301099181E+02 -0.57926677327E+00 -0.31204720306E+03  0.31237527739E+03  0.00000000000E+00 0.  1.
          5    1    4    4  501    0 -0.14798112380E+02  0.34041126409E+02  0.10893570122E+02  0.38909185126E+02  0.41800000000E+01 0. -1.
         -5    1    4    4    0  501 -0.51539439916E+02 -0.53551531343E+02 -0.11872685464E+03  0.14013428841E+03  0.41800000000E+01 0. -1.
</event>
<event>
11    1  0.7577197E-009  0.1276503E+03  0.7561462E-02  0.1122190E+00
         22   -1    0    0    0    0  0.00000000000E+00  0.00000000000E+00  0.37083178883E+03  0.37083178883E+03  0.00000000000E+00 0. -1.
         22   -1    0    0    0    0 -0.00000000000E+00 -0.00000000000E+00 -0.41562264283E+03  0.41562264283E+03  0.00000000000E+00 0.  1.
         24    2    1    2    0    0 -0.38226235773E+00  0.35104489010E+02 -0.23205051843E+03  0.25264549553E+03  0.93540536843E+02 0.  0.
         25    2    1    2    0    0 -0.20334724763E+02 -0.57668891678E+00 -0.14266076460E+03  0.19082305604E+03  0.12509001302E+03 0.  0.
        -24    2    1    2    0    0  0.20716987120E+02 -0.34527800093E+02  0.32992042904E+03  0.34298588010E+03  0.84678580009E+02 0.  0.
        -11    1    3    3    0    0  0.36426741706E+02 -0.10557612849E+01 -0.15954398176E+03  0.16365299954E+03  0.00000000000E+00 0.  1.
         12    1    3    3    0    0 -0.36809004064E+02  0.36160250295E+02 -0.72506536667E+02  0.88992495982E+02  0.00000000000E+00 0. -1.
         13    1    5    5    0    0  0.22279681391E+02 -0.59930578988E+02  0.27672653067E+03  0.28401695597E+03  0.00000000000E+00 0. -1.
        -14    1    5    5    0    0 -0.15626942705E+01  0.25402778895E+02  0.53193898374E+02  0.58968924132E+02  0.00000000000E+00 0.  1.
          5    1    4    4  501    0  0.49513614339E+02 -0.20255607969E+02 -0.68008442008E+02  0.86628564824E+02  0.41800000000E+01 0. -1.
         -5    1    4    4    0  501 -0.69848339102E+02  0.19678919052E+02 -0.74652322595E+02  0.10419449121E+03  0.41800000000E+01 0. -1.
</event>
<event>
11    1  0.7577197E-009  0.2335710E+03  0.7561462E-02  0.1033034E+00
         22   -1    0    0    0    0  0.00000000000E+00  0.00000000000E+00  0.20751314637E+04  0.20751314637E+04  0.00000000000E+00 0.  1.
         22   -1    0    0    0    0 -0.00000000000E+00 -0.00000000000E+00 -0.10873831362E+04  0.10873831362E+04  0.00000000000E+00 0.  1.
         24    2    1    2    0    0 -0.66709327096E+02  0.18665881482E+03 -0.10403118904E+04  0.10620248830E+04  0.79726879338E+02 0.  0.
         25    2    1    2    0    0  0.91162876808E+01 -0.17450794213E+03  0.29695609765E+03  0.36656042002E+03  0.12508992376E+03 0.  0.
        -24    2    1    2    0    0  0.57593039416E+02 -0.12150872695E+02  0.17311041202E+04  0.17339292969E+04  0.79528169680E+02 0.  0.
        -13    1    3    3    0    0 -0.51176000142E+02  0.14065754130E+03 -0.92307703144E+03  0.93513353746E+03  0.00000000000E+00 0.  1.
         14    1    3    3    0    0 -0.15533326954E+02  0.46001273523E+02 -0.11723485896E+03  0.12689134552E+03  0.00000000000E+00 0. -1.
         11    1    5    5    0    0  0.11085745740E+02  0.30089415618E+02  0.37418501048E+03  0.37555650541E+03  0.00000000000E+00 0. -1.
        -12    1    5    5    0    0  0.46507293675E+02 -0.42240288313E+02  0.13569191097E+04  0.13583727915E+04  0.00000000000E+00 0.  1.
          5    1    4    4  501    0 -0.31832498217E+02  0.18556737339E+01  0.62654548816E+02  0.70425963643E+02  0.41800000000E+01 0.  1.
         -5    1    4    4    0  501  0.40948785897E+02 -0.17636361586E+03  0.23430154884E+03  0.29613445638E+03  0.41800000000E+01 0.  1.
</event>
<event>
11    1  0.7577197E-009  0.1632754E+03  0.7561462E-02  0.1084036E+00
         22   -1    0    0    0    0  0.00000000000E+00  0.00000000000E+00  0.23679273721E+03  0.23679273721E+03  0.00000000000E+00 0.  1.
         22   -1    0    0    0    0 -0.00000000000E+00 -0.00000000000E+00 -0.15959906369E+04  0.15959906369E+04  0.00000000000E+00 0.  1.
         24    2    1    2    0    0  0.10346928919E+03 -0.97704342208E+01 -0.12644671542E+04  0.12711970551E+04  0.79141732229E+02 0.  0.
         25    2    1    2    0    0 -0.11297990150E+03 -0.12872538672E+02 -0.29777982042E+03  0.34241825842E+03  0.12508909566E+03 0.  0.
        -24    2    1    2    0    0  0.95106123153E+01  0.22642972893E+02  0.20304907490E+03  0.21916806056E+03  0.78756307576E+02 0.  0.
        -11    1    3    3    0    0  0.40034370954E+02 -0.14029945331E+01 -0.91784740944E+03  0.91872116894E+03  0.00000000000E+00 0.  1.
         12    1    3    3    0    0  0.63434918233E+02 -0.83674396876E+01 -0.34661974473E+03  0.35247588618E+03  0.00000000000E+00 0. -1.
         13    1    5    5    0    0  0.19289038479E+02 -0.15860301159E+02  0.20390554547E+02  0.32239585497E+02  0.00000000000E+00 0. -1.
        -14    1    5    5    0    0 -0.97784261634E+01  0.38503274052E+02  0.18265852036E+03  0.18692847506E+03  0.00000000000E+00 0.  1.
          5    1    4    4  501    0 -0.13943972678E+03 -0.20807115005E+02 -0.25199192596E+03  0.28877980641E+03  0.41800000000E+01 0. -1.
         -5    1    4    4    0  501  0.26459825277E+02  0.79345763334E+01 -0.45787894456E+02  0.53638452009E+02  0.41800000000E+01 0. -1.
</event>
<event>
11    1  0.7577197E-009  0.2128442E+03  0.7561462E-02  0.1045795E+00
         22   -1    0    0    0    0  0.00000000000E+00  0.00000000000E+00  0.10314491470E+04  0.10314491470E+04  0.00000000000E+00 0.  1.
         22   -1    0    0    0    0 -0.00000000000E+00 -0.00000000000E+00 -0.11787231061E+04  0.11787231061E+04  0.00000000000E+00 0. -1.
         24    2    1    2    0    0  0.35614557492E+01 -0.16656013016E+03 -0.95057830800E+03  0.96879637711E+03  0.84925495245E+02 0.  0.
         25    2    1    2    0    0 -0.36244835710E+02  0.21652965493E+03 -0.14282062632E+03  0.29024942887E+03  0.12509284584E+03 0.  0.
        -24    2    1    2    0    0  0.32683379961E+02 -0.49969524769E+02  0.94612497520E+03  0.95112644708E+03  0.76966829974E+02 0.  0.
        -13    1    3    3    0    0 -0.22742039170E+01  0.90851999931E+01 -0.88014873644E+02  0.88511755405E+02  0.00000000000E+00 0.  1.
         14    1    3    3    0    0  0.58356596662E+01 -0.17564533015E+03 -0.86256343436E+03  0.88028462171E+03  0.00000000000E+00 0. -1.
         11    1    5    5    0    0 -0.95246022384E+01  0.14088401050E+02  0.29657196934E+03  0.29705914241E+03  0.00000000000E+00 0. -1.
        -12    1    5    5    0    0  0.42207982199E+02 -0.64057925818E+02  0.64955300586E+03  0.65406730467E+03  0.00000000000E+00 0.  1.
          5    1    4    4  501    0 -0.75937924441E+02  0.17072349294E+03 -0.13130857012E+03  0.22841298648E+03  0.41800000000E+01 0.  1.
         -5    1    4    4    0  501  0.39693088731E+02  0.45806161990E+02 -0.11512056202E+02  0.61836442388E+02  0.41800000000E+01 0.  1.
</event>
<event>
11    1  0.7577197E-009  0.1402369E+03  0.7561462E-02  0.1107294E+00
         22   -1    0    0    0    0  0.00000000000E+00  0.00000000000E+00  0.14067167097E+04  0.14067167097E+04  0.00000000000E+00 0. -1.
         22   -1    0    0    0    0 -0.00000000000E+00 -0.00000000000E+00 -0.22122656776E+03  0.22122656776E+03  0.00000000000E+00 0.  1.
        -24    2    1    2    0    0  0.24897955190E+02  0.51001915984E+02 -0.18507683582E+03  0.20987750119E+03  0.81080372120E+02 0.  0.
         25    2    1    2    0    0 -0.71917715617E+02 -0.63579422598E+01  0.22187645824E+03  0.26474383953E+03  0.12509019386E+03 0.  0.
         24    2    1    2    0    0  0.47019760427E+02 -0.44643973724E+02  0.11486905196E+04  0.11533219368E+04  0.80359429172E+02 0.  0.
        -13    1    5    5    0    0 -0.14099577139E+02 -0.29469983557E+01  0.47192434262E+02  0.49341754392E+02  0.00000000000E+00 0.  1.
         14    1    5    5    0    0  0.61119337566E+02 -0.41696975368E+02  0.11014980853E+04  0.11039801824E+04  0.00000000000E+00 0. -1.
         13    1    3    3    0    0  0.32314461316E+02  0.67600559127E+02 -0.11330170670E+03  0.13583569761E+03  0.00000000000E+00 0. -1.
        -14    1    3    3    0    0 -0.74165061261E+01 -0.16598643143E+02 -0.71775129123E+02  0.74041803583E+02  0.00000000000E+00 0.  1.
          5    1    4    4  501    0  0.92331864957E+01 -0.11270760221E+02  0.16438580916E+03  0.16508315608E+03  0.41800000000E+01 0. -1.
         -5    1    4    4    0  501 -0.81150902113E+02  0.49128179610E+01  0.57490649078E+02  0.99660683449E+02  0.41800000000E+01 0. -1.
</event>
<event>
11    1  0.7577197E-009  0.3252415E+03  0.7561462E-02  0.9900403E-01
         22   -1    0    0    0    0  0.00000000000E+00  0.00000000000E+00  0.21470466763E+03  0.21470466763E+03  0.00000000000E+00 0. -1.
         22   -1    0    0    0    0 -0.00000000000E+00 -0.00000000000E+00 -0.13941520665E+04  0.13941520665E+04  0.00000000000E+00 0.  1.
        -24    2    1    2    0    0  0.18137561580E+03 -0.22399660622E+03 -0.94995596014E+03  0.99585843670E+03  0.79032310694E+02 0.  0.
         25    2    1    2    0    0 -0.22326708776E+03  0.26222402204E+03 -0.31419014225E+03  0.48266695082E+03  0.12506921968E+03 0.  0.
         24    2    1    2    0    0  0.41891471955E+02 -0.38227415814E+02  0.84698703522E+02  0.13033134661E+03  0.81216739589E+02 0.  0.
        -11    1    5    5    0    0  0.83578335684E+01  0.19450588247E+02  0.51767336544E+02  0.55928846743E+02  0.00000000000E+00 0.  1.
         12    1    5    5    0    0  0.33533638387E+02 -0.57678004062E+02  0.32931366978E+02  0.74402499871E+02  0.00000000000E+00 0. -1.
         11    1    3    3    0    0  0.33152501189E+02 -0.75657541816E+02 -0.37129588898E+03  0.38037322348E+03  0.00000000000E+00 0. -1.
        -12    1    3    3    0    0  0.14822311461E+03 -0.14833906441E+03 -0.57866007117E+03  0.61548521322E+03  0.00000000000E+00 0.  1.
          5    1    4    4  501    0 -0.17054514181E+03  0.10661538239E+03 -0.18949409401E+03  0.27636564407E+03  0.41800000000E+01 0. -1.
         -5    1    4    4    0  501 -0.52721945946E+02  0.15560863965E+03 -0.12469604825E+03  0.20630130674E+03  0.41800000000E+01 0. -1.
</event>
<event>
11    1  0.7577197E-009  0.2033904E+03  0.7561462E-02  0.1052152E+00
         22   -1    0    0    0    0  0.00000000000E+00  0.00000000000E+00  0.39929313449E+03  0.39929313449E+03  0.00000000000E+00 0.  1.
         22   -1    0    0    0    0 -0.00000000000E+00 -0.00000000000E+00 -0.58565056018E+03  0.58565056018E+03  0.00000000000E+00 0.  1.
         24    2    1    2    0    0 -0.95778292614E+02  0.10349014816E+03 -0.29912675821E+03  0.34055940951E+03  0.81364622682E+02 0.  0.
         25    2    1    2    0    0  0.27928985542E+02  0.75091730974E+02 -0.21186134994E+03  0.25875626569E+03  0.12510306607E+03 0.  0.
        -24    2    1    2    0    0  0.67849307072E+02 -0.17858187913E+03  0.32463068246E+03  0.38562801948E+03  0.82636997710E+02 0.  0.
        -13    1    3    3    0    0 -0.46369396915E+01  0.62827369157E+02 -0.11515060892E+03  0.13125716079E+03  0.00000000000E+00 0.  1.
         14    1    3    3    0    0 -0.91141352922E+02  0.40662779000E+02 -0.18397614929E+03  0.20930224871E+03  0.00000000000E+00 0. -1.
         13    1    5    5    0    0  0.33416476712E+00 -0.14875769584E+02  0.92372413290E+02  0.93563149391E+02  0.00000000000E+00 0. -1.
        -14    1    5    5    0    0  0.67515142305E+02 -0.16370610955E+03  0.23225826917E+03  0.29206487009E+03  0.00000000000E+00 0.  1.
          5    1    4    4  501    0  0.54433865335E+02  0.60313306015E+01 -0.15766903002E+03  0.16696232531E+03  0.41800000000E+01 0.  1.
         -5    1    4    4    0  501 -0.26504879794E+02  0.69060400372E+02 -0.54192319917E+02  0.91793940380E+02  0.41800000000E+01 0.  1.
</event>
<event>
11    1  0.7577197E-009  0.1354621E+03  0.7561462E-02  0.1112734E+00
         22   -1    0    0    0    0  0.00000000000E+00  0.00000000000E+00  0.64717364874E+03  0.64717364874E+03  0.00000000000E+00 0. -1.
         22   -1    0    0    0    0 -0.00000000000E+00 -0.00000000000E+00 -0.10678769935E+04  0.10678769935E+04  0.00000000000E+00 0.  1.
         24    2    1    2    0    0  0.17624332339E+02 -0.23530879130E+02 -0.86660822898E+03  0.87072071680E+03  0.79249130960E+02 0.  0.
         25    2    1    2    0    0  0.24042656581E+02 -0.83319405549E+01 -0.17500884728E+03  0.21662075923E+03  0.12509590774E+03 0.  0.
        -24    2    1    2    0    0 -0.41666988920E+02  0.31862819685E+02  0.62091373146E+03  0.62770916625E+03  0.75720262988E+02 0.  0.
        -13    1    3    3    0    0 -0.58635085091E+01  0.25335733417E+02 -0.16676917368E+03  0.16878458878E+03  0.00000000000E+00 0.  1.
         14    1    3    3    0    0  0.23487840848E+02 -0.48866612548E+02 -0.69983905530E+03  0.70193612802E+03  0.00000000000E+00 0. -1.
         13    1    5    5    0    0 -0.42278065224E+02  0.50293878578E+02  0.56557547324E+03  0.56937906965E+03  0.00000000000E+00 0. -1.
        -14    1    5    5    0    0  0.61107630439E+00 -0.18431058893E+02  0.55338258221E+02  0.58330096598E+02  0.00000000000E+00 0.  1.
          5    1    4    4  501    0  0.48875271364E+02 -0.53747659059E+02 -0.78577343279E+02  0.10709563148E+03  0.41800000000E+01 0.  1.
         -5    1    4    4    0  501 -0.24832614782E+02  0.45415718504E+02 -0.96431504000E+02  0.10952512775E+03  0.41800000000E+01 0.  1.
</event>
<event>
11    1  0.7577197E-009  0.1859862E+03  0.7561462E-02  0.1064901E+00
         22   -1    0    0    0    0  0.00000000000E+00  0.00000000000E+00  0.49278808651E+02  0.49278808651E+02  0.00000000000E+00 0.  1.
         22   -1    0    0    0    0 -0.00000000000E+00 -0.00000000000E+00 -0.25880508634E+04  0.25880508634E+04  0.00000000000E+00 0. -1.
        -24    2    1    2    0    0  0.39541321364E+02 -0.42971004177E+02 -0.13170183390E+04  0.13208298522E+04  0.81511778668E+02 0.  0.
         25    2    1    2    0    0 -0.13132409940E+03  0.13498176347E+03 -0.10906218547E+04  0.11138085030E+04  0.12508899142E+03 0.  0.
         24    2    1    2    0    0  0.91782778040E+02 -0.92010759291E+02 -0.13113186103E+03  0.20269131681E+03  0.83654926702E+02 0.  0.
        -11    1    5    5    0    0  0.86726055670E+02 -0.10027035977E+03 -0.89518756531E+02  0.15996612626E+03  0.00000000000E+00 0.  1.
         12    1    5    5    0    0  0.50567223699E+01  0.82596004773E+01 -0.41613104497E+02  0.42725190544E+02  0.00000000000E+00 0. -1.
         11    1    3    3    0    0  0.33853880272E+01 -0.53757294911E+02 -0.10205165791E+04  0.10219370802E+04  0.00000000000E+00 0. -1.
        -12    1    3    3    0    0  0.36155933337E+02  0.10786290734E+02 -0.29650175985E+03  0.29889277204E+03  0.00000000000E+00 0.  1.
          5    1    4    4  501    0  0.45644225830E+01  0.19599706147E+02 -0.20851183627E+02  0.29278433926E+02  0.41800000000E+01 0.  1.
         -5    1    4    4    0  501 -0.13588852199E+03  0.11538205732E+03 -0.10697706711E+04  0.10845300691E+04  0.41800000000E+01 0.  1.
</event>
<event>
11    1  0.7577197E-009  0.1701590E+03  0.7561462E-02  0.1077893E+00
         22   -1    0    0    0    0  0.00000000000E+00  0.00000000000E+00  0.69702257937E+03  0.69702257937E+03  0.00000000000E+00 0. -1.
         22   -1    0    0    0    0 -0.00000000000E+00 -0.00000000000E+00 -0.81863103668E+03  0.81863103668E+03  0.00000000000E+00 0. -1.
        -24    2    1    2    0    0  0.98666485291E+02 -0.55472927449E+02 -0.71178645719E+03  0.72463709493E+03  0.75144112979E+02 0.  0.
         25    2    1    2    0    0 -0.18085140139E+03 -0.48883750771E+00  0.36564476249E+02  0.22291677296E+03  0.12508980134E+03 0.  0.
         24    2    1    2    0    0  0.82184916097E+02  0.55961764956E+02  0.55361352362E+03  0.56809974815E+03  0.79770362533E+02 0.  0.
        -11    1    5    5    0    0  0.21577845371E+01  0.29604526038E+02  0.28599316382E+03  0.28752943110E+03  0.00000000000E+00 0.  1.
         12    1    5    5    0    0  0.80027131560E+02  0.26357238919E+02  0.26762035980E+03  0.28057031705E+03  0.00000000000E+00 0. -1.
         13    1    3    3    0    0  0.39114034233E+02 -0.60836894724E+02 -0.47193151851E+03  0.47744150804E+03  0.00000000000E+00 0. -1.
        -14    1    3    3    0    0  0.59552451058E+02  0.53639672750E+01 -0.23985493867E+03  0.24719558689E+03  0.00000000000E+00 0.  1.
          5    1    4    4  501    0 -0.17275678372E+03  0.27666467982E+02 -0.11077264536E+01  0.17501154028E+03  0.41800000000E+01 0. -1.
         -5    1    4    4    0  501 -0.80946176682E+01 -0.28155305490E+02  0.37672202702E+02  0.47905232688E+02  0.41800000000E+01 0. -1.
</event>
<event>
11    1  0.7577197E-009  0.1376678E+03  0.7561462E-02  0.1110191E+00
         22   -1    0    0    0    0  0.00000000000E+00  0.00000000000E+00  0.47428222980E+03  0.47428222980E+03  0.00000000000E+00 0. -1.
         22   -1    0    0    0    0 -0.00000000000E+00 -0.00000000000E+00 -0.14887163383E+03  0.14887163383E+03  0.00000000000E+00 0. -1.
        -24    2    1    2    0    0 -0.36227080302E+02  0.27987303152E+02 -0.82038816543E+02  0.12329893040E+03  0.79853417799E+02 0.  0.
         25    2    1    2    0    0  0.83429721607E+02 -0.22615710310E+01  0.11051290452E+03  0.18661943995E+03  0.12509228654E+03 0.  0.
         24    2    1    2    0    0 -0.47202641305E+02 -0.25725732121E+02  0.29693650799E+03  0.31323549327E+03  0.83995725076E+02 0.  0.
        -13    1    5    5    0    0 -0.39173123099E+02  0.49693916414E+00  0.44393521392E+02  0.59207814210E+02  0.00000000000E+00 0.  1.
         14    1    5    5    0    0 -0.80295182055E+01 -0.26222671285E+02  0.25254298659E+03  0.25402767906E+03  0.00000000000E+00 0. -1.
         11    1    3    3    0    0 -0.57080645449E+02  0.16707142280E+02 -0.79741702898E+02  0.99478982047E+02  0.00000000000E+00 0. -1.
        -12    1    3    3    0    0  0.20853565147E+02  0.11280160871E+02 -0.22971136441E+01  0.23819948357E+02  0.00000000000E+00 0.  1.
          5    1    4    4  501    0  0.57982630053E+02  0.41221185063E+02  0.11560851980E+03  0.13580859228E+03  0.41800000000E+01 0. -1.
         -5    1    4    4    0  501  0.25447091554E+02 -0.43482756094E+02 -0.50956152827E+01  0.50810847672E+02  0.41800000000E+01 0. -1.
</event>
<event>
11    1  0.7577197E-009  0.1751094E+03  0.7561462E-02  0.1073669E+00
         22   -1    0    0    0    0  0.00000000000E+00  0.00000000000E+00  0.12323372559E+03  0.12323372559E+03  0.00000000000E+00 0.  1.
         22   -1    0    0    0    0 -0.00000000000E+00 -0.00000000000E+00 -0.91001885562E+03  0.91001885562E+03  0.00000000000E+00 0. -1.
         24    2    1    2    0    0  0.34025928200E+02 -0.10604851362E+03 -0.53571444784E+03  0.55307387320E+03  0.80602038218E+02 0.  0.
         25    2    1    2    0    0 -0.13683529761E+01  0.17278630909E+03 -0.29362970367E+03  0.36293672612E+03  0.12509070025E+03 0.  0.
        -24    2    1    2    0    0 -0.32657575224E+02 -0.66737795467E+02  0.42559021479E+02  0.11724198188E+03  0.80087211485E+02 0.  0.
        -13    1    3    3    0    0  0.18600361753E+02  0.49456332224E+01 -0.34701151373E+02  0.39681263235E+02  0.00000000000E+00 0.  1.
         14    1    3    3    0    0  0.15425566447E+02 -0.11099414684E+03 -0.50101329647E+03  0.51339260997E+03  0.00000000000E+00 0. -1.
         11    1    5    5    0    0 -0.13084862971E+02 -0.22675418110E+02 -0.23689082918E+02  0.35306668986E+02  0.00000000000E+00 0. -1.
        -12    1    5    5    0    0 -0.19572712253E+02 -0.44062377357E+02  0.66248104398E+02  0.81935312897E+02  0.00000000000E+00 0.  1.
          5    1    4    4  501    0 -0.10482183956E+02  0.11049615359E+02 -0.13584942158E+03  0.13676442492E+03  0.41800000000E+01 0.  1.
         -5    1    4    4    0  501  0.91138309804E+01  0.16173669373E+03 -0.15778028210E+03  0.22617230120E+03  0.41800000000E+01 0.  1.
</event>
<event>
11    1  0.7577197E-009  0.1645878E+03  0.7561462E-02  0.1082840E+00
         22   -1    0    0    0    0  0.00000000000E+00  0.00000000000E+00  0.13026578183E+04  0.13026578183E+04  0.00000000000E+00 0. -1.
         22   -1    0    0    0    0 -0.00000000000E+00 -0.00000000000E+00 -0.39287876527E+03  0.39287876527E+03  0.00000000000E+00 0.  1.
        -24    2    1    2    0    0  0.89939453962E+02  0.63620818323E+02 -0.26727882493E+03  0.29995775313E+03  0.79999809413E+02 0.  0.
         25    2    1    2    0    0 -0.97655466956E+02 -0.24843886685E+02 -0.47699533039E+02  0.16753956678E+03  0.12506179294E+03 0.  0.
         24    2    1    2    0    0  0.77160129944E+01 -0.38776931638E+02  0.12247574110E+04  0.12280392637E+04  0.80538996757E+02 0.  0.
        -11    1    5    5    0    0  0.14994441859E+02  0.20706931771E+02  0.21684927752E+03  0.21835113801E+03  0.00000000000E+00 0.  1.
         12    1    5    5    0    0 -0.72784288646E+01 -0.59483863409E+02  0.10079081335E+04  0.10096881257E+04  0.00000000000E+00 0. -1.
         13    1    3    3    0    0 -0.10513649152E+02 -0.76314002119E+01 -0.25827029865E+02  0.28910388433E+02  0.00000000000E+00 0. -1.
        -14    1    3    3    0    0  0.10045310311E+03  0.71252218534E+02 -0.24145179506E+03  0.27104736470E+03  0.00000000000E+00 0.  1.
          5    1    4    4  501    0 -0.11301965152E+02  0.30838077676E+02  0.25097718354E+02  0.41546231089E+02  0.41800000000E+01 0.  1.
         -5    1    4    4    0  501 -0.86353501804E+02 -0.55681964361E+02 -0.72797251393E+02  0.12599333569E+03  0.41800000000E+01 0.  1.
</event>
<event>
11    1  0.7577197E-009  0.1672947E+03  0.7561462E-02  0.1080410E+00
         22   -1    0    0    0    0  0.00000000000E+00  0.00000000000E+00  0.41454990567E+04  0.41454990567E+04  0.00000000000E+00 0.  1.
         22   -1    0    0    0    0 -0.00000000000E+00 -0.00000000000E+00 -0.10492116981E+04  0.10492116981E+04  0.00000000000E+00 0.  1.
         24    2    1    2    0    0 -0.11442661217E+02  0.39586961571E+02 -0.10272361022E+04  0.10311506736E+04  0.79747351147E+02 0.  0.
         25    2    1    2    0    0  0.11691234147E+03 -0.45296267796E+01  0.37211659962E+03  0.40964669238E+03  0.12510250099E+03 0.  0.
        -24    2    1    2    0    0 -0.10546968026E+03 -0.35057334792E+02  0.37514068612E+04  0.37539133888E+04  0.80370530374E+02 0.  0.
        -13    1    3    3    0    0  0.17008699474E+02  0.36196136338E+02 -0.89278880449E+03  0.89368411957E+03  0.00000000000E+00 0.  1.
         14    1    3    3    0    0 -0.28451360691E+02  0.33908252335E+01 -0.13444729774E+03  0.13746655408E+03  0.00000000000E+00 0. -1.
         13    1    5    5    0    0 -0.61899030000E+02  0.16006603830E+02  0.12807763188E+04  0.12823711164E+04  0.00000000000E+00 0. -1.
        -14    1    5    5    0    0 -0.43570650258E+02 -0.51063938621E+02  0.24706305423E+04  0.24715422724E+04  0.00000000000E+00 0.  1.
          5    1    4    4  501    0  0.43763580430E+02 -0.21509158889E+02  0.30482014602E+03  0.30872429238E+03  0.41800000000E+01 0.  1.
         -5    1    4    4    0  501  0.73148761044E+02  0.16979532110E+02  0.67296453601E+02  0.10092239999E+03  0.41800000000E+01 0.  1.
</event>
<event>
11    1  0.1112765E-008  0.1952412E+03  0.7561462E-02  0.1057941E+00
         22   -1    0    0    0    0  0.00000000000E+00  0.00000000000E+00  0.10845394503E+04  0.10845394503E+04  0.00000000000E+00 0.  1.
         22   -1    0    0    0    0 -0.00000000000E+00 -0.00000000000E+00 -0.26662300646E+03  0.26662300646E+03  0.00000000000E+00 0.  1.
        -24    2    1    2    0    0 -0.95275556987E+02 -0.14191487485E+02 -0.12932726351E+03  0.17900894424E+03  0.77716349339E+02 0.  0.
         25    2    1    2    0    0  0.14510982747E+03  0.15216466018E+03  0.37922402408E+02  0.24758018433E+03  0.12508754227E+03 0.  0.
         24    2    1    2    0    0 -0.49834270479E+02 -0.13797317270E+03  0.90932130489E+03  0.92457332816E+03  0.80315333011E+02 0.  0.
        -13    1    5    5    0    0 -0.45348152333E+02 -0.13920615203E+03  0.90801299615E+03  0.91974040298E+03  0.00000000000E+00 0.  1.
         14    1    5    5    0    0 -0.44861181454E+01  0.12329793365E+01  0.13083087362E+01  0.48329251813E+01  0.00000000000E+00 0. -1.
         13    1    3    3    0    0 -0.52979760924E+02 -0.15650024100E+02 -0.15212374307E+02  0.57299168004E+02  0.00000000000E+00 0. -1.
        -14    1    3    3    0    0 -0.42295796063E+02  0.14585366154E+01 -0.11411488920E+03  0.12170977623E+03  0.00000000000E+00 0.  1.
          5    1    4    4  501    0  0.19473677761E+02 -0.17466039792E+02 -0.14275024366E+02  0.30092115117E+02  0.41800000000E+01 0.  1.
         -5    1    4    4    0  501  0.12563614970E+03  0.16963069997E+03  0.52197426774E+02  0.21748806921E+03  0.41800000000E+01 0.  1.
</event>
<event>
11    1  0.7577197E-009  0.1305074E+03  0.7561462E-02  0.1118647E+00
         22   -1    0    0    0    0  0.00000000000E+00  0.00000000000E+00  0.11252643734E+04  0.11252643734E+04  0.00000000000E+00 0. -1.
         22   -1    0    0    0    0 -0.00000000000E+00 -0.00000000000E+00 -0.29134719153E+03  0.29134719153E+03  0.00000000000E+00 0. -1.
         24    2    1    2    0    0 -0.17149613854E+02  0.26124807533E+02 -0.26751695059E+03  0.28045901377E+03  0.78200541719E+02 0.  0.
         25    2    1    2    0    0 -0.22063790690E+02 -0.27882281832E+02  0.26823016853E+03  0.29809265008E+03  0.12509025631E+03 0.  0.
        -24    2    1    2    0    0  0.39213404544E+02  0.17574742995E+01  0.83320396389E+03  0.83805990104E+03  0.81084970647E+02 0.  0.
        -11    1    3    3    0    0 -0.26715287893E+02  0.96078918280E+01 -0.26978580499E+02  0.39164550276E+02  0.00000000000E+00 0.  1.
         12    1    3    3    0    0  0.95656740391E+01  0.16516915705E+02 -0.24053837009E+03  0.24129446349E+03  0.00000000000E+00 0. -1.
         11    1    5    5    0    0  0.58707239674E+02 -0.18052297000E+02  0.62460771045E+03  0.62762028119E+03  0.00000000000E+00 0. -1.
        -12    1    5    5    0    0 -0.19493835130E+02  0.19809771299E+02  0.20859625345E+03  0.21043961984E+03  0.00000000000E+00 0.  1.
          5    1    4    4  501    0  0.19185865746E+02  0.34765170159E+02  0.16888609419E+03  0.17354163682E+03  0.41800000000E+01 0. -1.
         -5    1    4    4    0  501 -0.41249656436E+02 -0.62647451991E+02  0.99344074343E+02  0.12455101326E+03  0.41800000000E+01 0. -1.
</event>
<event>
11    1  0.7577197E-009  0.1364816E+03  0.7561462E-02  0.1111552E+00
         22   -1    0    0    0    0  0.00000000000E+00  0.00000000000E+00  0.41433480131E+03  0.41433480131E+03  0.00000000000E+00 0. -1.
         22   -1    0    0    0    0 -0.00000000000E+00 -0.00000000000E+00 -0.68334926568E+03  0.68334926568E+03  0.00000000000E+00 0.  1.
         24    2    1    2    0    0  0.10542003690E+02  0.36461036146E+02 -0.64434218703E+03  0.65067000537E+03  0.82183093719E+02 0.  0.
         25    2    1    2    0    0  0.51256632344E+01  0.27672200914E+02  0.13907481470E+03  0.18915767470E+03  0.12508716436E+03 0.  0.
        -24    2    1    2    0    0 -0.15667666924E+02 -0.64133237060E+02  0.23625290796E+03  0.25785638692E+03  0.79472837331E+02 0.  0.
        -11    1    3    3    0    0 -0.64117908335E+01  0.29349734461E+02 -0.61694466146E+03  0.61767566997E+03  0.00000000000E+00 0.  1.
         12    1    3    3    0    0  0.16953794523E+02  0.71113016851E+01 -0.27397525576E+02  0.32994335394E+02  0.00000000000E+00 0. -1.
         13    1    5    5    0    0 -0.42498491744E+02 -0.42830206741E+02  0.19558998811E+03  0.20468510414E+03  0.00000000000E+00 0. -1.
        -14    1    5    5    0    0  0.26830824820E+02 -0.21303030319E+02  0.40662919852E+02  0.53171282777E+02  0.00000000000E+00 0.  1.
          5    1    4    4  501    0 -0.94681695089E+01  0.76426481506E+02  0.81773564145E+02  0.11240570049E+03  0.41800000000E+01 0. -1.
         -5    1    4    4    0  501  0.14593832743E+02 -0.48754280591E+02  0.57301250555E+02  0.76751974211E+02  0.41800000000E+01 0. -1.
</event>
<event>
11    1  0.7577197E-009  0.1584378E+03  0.7561462E-02  0.1088556E+00
         22   -1    0    0    0    0  0.00000000000E+00  0.00000000000E+00  0.72885905775E+03  0.72885905775E+03  0.00000000000E+00 0. -1.
         22   -1    0    0    0    0 -0.00000000000E+00 -0.00000000000E+00 -0.53597858413E+03  0.53597858413E+03  0.00000000000E+00 0. -1.
        -24    2    1    2    0    0  0.37522234551E+01  0.10161059603E+03 -0.49549741375E+03  0.51214646526E+03  0.80234172468E+02 0.  0.
         25    2    1    2    0    0  0.11575977146E+02 -0.14819773217E+02  0.12942752456E+03  0.18097637082E+03  0.12508930312E+03 0.  0.
         24    2    1    2    0    0 -0.15328200601E+02 -0.86790822815E+02  0.55895036282E+03  0.57171480580E+03  0.81637677695E+02 0.  0.
        -11    1    5    5    0    0  0.10110775393E+02 -0.73471225313E+00  0.65418831133E+01  0.12064983042E+02  0.00000000000E+00 0.  1.
         12    1    5    5    0    0 -0.25438975994E+02 -0.86056110562E+02  0.55240847971E+03  0.55964982276E+03  0.00000000000E+00 0. -1.
         11    1    3    3    0    0  0.67817239087E+01  0.92241128273E+02 -0.49350836936E+03  0.50210051599E+03  0.00000000000E+00 0. -1.
        -12    1    3    3    0    0 -0.30295004536E+01  0.93694677589E+01 -0.19890443884E+01  0.10045949266E+02  0.00000000000E+00 0.  1.
          5    1    4    4  501    0 -0.32411596892E+02 -0.20315992546E+02  0.13088691942E+03  0.13642620438E+03  0.41800000000E+01 0. -1.
         -5    1    4    4    0  501  0.43987574038E+02  0.54962193289E+01 -0.14593948588E+01  0.44550166442E+02  0.41800000000E+01 0. -1.
</event>
<event>
11    1  0.7577197E-009  0.1349345E+03  0.7561462E-02  0.1113351E+00
         22   -1    0    0    0    0  0.00000000000E+00  0.00000000000E+00  0.30053310493E+04  0.30053310493E+04  0.00000000000E+00 0.  1.
         22   -1    0    0    0    0 -0.00000000000E+00 -0.00000000000E+00 -0.60908225836E+03  0.60908225836E+03  0.00000000000E+00 0. -1.
         24    2    1    2    0    0  0.26416487624E+02 -0.43241666387E+02 -0.60040601281E+03  0.60754618576E+03  0.77828754898E+02 0.  0.
         25    2    1    2    0    0  0.72007800647E+00  0.36153023704E+02  0.98675913123E+03  0.99531307318E+03  0.12508785295E+03 0.  0.
        -24    2    1    2    0    0 -0.27136565630E+02  0.70886426830E+01  0.20098956726E+04  0.20115540488E+04  0.76697030161E+02 0.  0.
        -13    1    3    3    0    0 -0.17628350879E+02 -0.22432478440E+02 -0.81321926036E+02  0.86181381388E+02  0.00000000000E+00 0.  1.
         14    1    3    3    0    0  0.44044838502E+02 -0.20809187947E+02 -0.51908408677E+03  0.52136480438E+03  0.00000000000E+00 0. -1.
         11    1    5    5    0    0 -0.10518581028E+02 -0.29814550896E+01  0.37464028739E+02  0.39026696897E+02  0.00000000000E+00 0. -1.
        -12    1    5    5    0    0 -0.16617984602E+02  0.10070097773E+02  0.19724316438E+04  0.19725273519E+04  0.00000000000E+00 0.  1.
          5    1    4    4  501    0  0.17669862867E+02  0.34951970028E+02  0.88330955317E+02  0.96714499067E+02  0.41800000000E+01 0.  1.
         -5    1    4    4    0  501 -0.16949784861E+02  0.12010536763E+01  0.89842817591E+03  0.89859857412E+03  0.41800000000E+01 0.  1.
</event>
<event>
11    1  0.7577197E-009  0.1776397E+03  0.7561462E-02  0.1071568E+00
         22   -1    0    0    0    0  0.00000000000E+00  0.00000000000E+00  0.10351673868E+03  0.10351673868E+03  0.00000000000E+00 0.  1.
         22   -1    0    0    0    0 -0.00000000000E+00 -0.00000000000E+00 -0.22223819674E+04  0.22223819674E+04  0.00000000000E+00 0. -1.
         24    2    1    2    0    0 -0.76867183921E+02 -0.33671009447E+02 -0.15454696664E+04  0.15499383674E+04  0.82402379518E+02 0.  0.
         25    2    1    2    0    0  0.17049993095E+03  0.10598025873E+03 -0.58704633416E+03  0.63290870452E+03  0.12509191863E+03 0.  0.
        -24    2    1    2    0    0 -0.93632747032E+02 -0.72309249278E+02  0.13650771788E+02  0.14305163420E+03  0.79257224463E+02 0.  0.
        -13    1    3    3    0    0  0.13437751816E+02 -0.92551458475E+01 -0.50735822038E+03  0.50762052233E+03  0.00000000000E+00 0.  1.
         14    1    3    3    0    0 -0.90304935737E+02 -0.24415863600E+02 -0.10381114460E+04  0.10423178450E+04  0.00000000000E+00 0. -1.
         11    1    5    5    0    0 -0.83765301696E+02 -0.16850896056E+02  0.14772890118E+02  0.86711110871E+02  0.00000000000E+00 0. -1.
        -12    1    5    5    0    0 -0.98674453358E+01 -0.55458353223E+02 -0.11221183297E+01  0.56340523331E+02  0.00000000000E+00 0.  1.
          5    1    4    4  501    0  0.95751458319E+02  0.38292469472E+02 -0.45582106880E+03  0.46735957693E+03  0.41800000000E+01 0. -1.
         -5    1    4    4    0  501  0.74748472634E+02  0.67687789254E+02 -0.13122526536E+03  0.16554912759E+03  0.41800000000E+01 0. -1.
</event>
<event>
11    1  0.7577197E-009  0.1761291E+03  0.7561462E-02  0.1072818E+00
         22   -1    0    0    0    0  0.00000000000E+00  0.00000000000E+00  0.77985219262E+03  0.77985219262E+03  0.00000000000E+00 0.  1.
         22   -1    0    0    0    0 -0.00000000000E+00 -0.00000000000E+00 -0.51097836210E+03  0.51097836210E+03  0.00000000000E+00 0.  1.
         24    2    1    2    0    0 -0.12575585263E+03  0.28032477556E+02 -0.45726119296E+03  0.48197783695E+03  0.81329468567E+02 0.  0.
         25    2    1    2    0    0  0.58691659200E+02 -0.45833779491E+02  0.10700429516E+03  0.18067078715E+03  0.12508624202E+03 0.  0.
        -24    2    1    2    0    0  0.67064193430E+02  0.17801301935E+02  0.61913072832E+03  0.62818193062E+03  0.80468545570E+02 0.  0.
        -11    1    3    3    0    0 -0.42365871334E+02  0.16773006614E+02 -0.30165435508E+03  0.30507630315E+03  0.00000000000E+00 0.  1.
         12    1    3    3    0    0 -0.83389981296E+02  0.11259470942E+02 -0.15560683787E+03  0.17690153380E+03  0.00000000000E+00 0. -1.
         13    1    5    5    0    0  0.33941876246E+02  0.48523048341E+02  0.40775869918E+03  0.41203603476E+03  0.00000000000E+00 0. -1.
        -14    1    5    5    0    0  0.33122317184E+02 -0.30721746406E+02  0.21137202913E+03  0.21614589586E+03  0.00000000000E+00 0.  1.
          5    1    4    4  501    0  0.23021615763E+02 -0.40708167012E+02  0.12965988395E+03  0.13789962857E+03  0.41800000000E+01 0. -1.
         -5    1    4    4    0  501  0.35670043437E+02 -0.51256124791E+01 -0.22655588793E+02  0.42771158572E+02  0.41800000000E+01 0. -1.
</event>
<event>
11    1  0.7577197E-009  0.1271734E+03  0.7561462E-02  0.1122791E+00
         22   -1    0    0    0    0  0.00000000000E+00  0.00000000000E+00  0.38917151240E+03  0.38917151240E+03  0.00000000000E+00 0.  1.
         22   -1    0    0    0    0 -0.00000000000E+00 -0.00000000000E+00 -0.10557130544E+04  0.10557130544E+04  0.00000000000E+00 0.  1.
        -24    2    1    2    0    0  0.21443674401E+02  0.79016272971E+01 -0.95491190247E+03  0.95937386649E+03  0.89550026952E+02 0.  0.
         25    2    1    2    0    0 -0.20527281150E+02 -0.13438409482E+02 -0.50653992506E+02  0.13717202689E+03  0.12509347658E+03 0.  0.
         24    2    1    2    0    0 -0.91639325119E+00  0.55367821849E+01  0.33902435296E+03  0.34833867344E+03  0.79817440302E+02 0.  0.
        -11    1    5    5    0    0  0.20322026170E+02 -0.23013073649E+02  0.63570410523E+02  0.70595916316E+02  0.00000000000E+00 0.  1.
         12    1    5    5    0    0 -0.21238419421E+02  0.28549855834E+02  0.27545394244E+03  0.27774275712E+03  0.00000000000E+00 0. -1.
         11    1    3    3    0    0  0.20065392794E+02  0.47256399723E+02 -0.44726579803E+03  0.45020271145E+03  0.00000000000E+00 0. -1.
        -12    1    3    3    0    0  0.13782816067E+01 -0.39354772425E+02 -0.50764610444E+03  0.50917115504E+03  0.00000000000E+00 0.  1.
          5    1    4    4  501    0 -0.33112889831E+02 -0.23444091692E+02 -0.87618179879E+02  0.96646297153E+02  0.41800000000E+01 0. -1.
         -5    1    4    4    0  501  0.12585608681E+02  0.10005682210E+02  0.36964187373E+02  0.40525729734E+02  0.41800000000E+01 0. -1.
</event>
<event>
11    1  0.7577197E-009  0.1286473E+03  0.7561462E-02  0.1120942E+00
         22   -1    0    0    0    0  0.00000000000E+00  0.00000000000E+00  0.99564256826E+02  0.99564256826E+02  0.00000000000E+00 0.  1.
         22   -1    0    0    0    0 -0.00000000000E+00 -0.00000000000E+00 -0.34563149684E+04  0.34563149684E+04  0.00000000000E+00 0. -1.
        -24    2    1    2    0    0 -0.17713443230E+02  0.13227389055E+02 -0.31932402905E+04  0.31943295933E+04  0.80431761918E+02 0.  0.
         25    2    1    2    0    0 -0.12162374207E+02 -0.22253595778E+02 -0.22178465626E+03  0.25588601360E+03  0.12508426091E+03 0.  0.
         24    2    1    2    0    0  0.29875817437E+02  0.90262067229E+01  0.58274235193E+02  0.10566361826E+03  0.82431043062E+02 0.  0.
        -13    1    5    5    0    0  0.15400473109E+02 -0.35930898238E+02  0.37135200791E+02  0.53918708793E+02  0.00000000000E+00 0.  1.
         14    1    5    5    0    0  0.14475344329E+02  0.44957104961E+02  0.21139034402E+02  0.51744909463E+02  0.00000000000E+00 0. -1.
         13    1    3    3    0    0  0.14500841533E+01 -0.27677047026E+02 -0.20642130547E+04  0.20643991031E+04  0.00000000000E+00 0. -1.
        -14    1    3    3    0    0 -0.19163527384E+02  0.40904436081E+02 -0.11290272358E+04  0.11299304903E+04  0.00000000000E+00 0.  1.
          5    1    4    4  501    0  0.17103593847E+02 -0.59588976748E+02 -0.18660662206E+03  0.19667964528E+03  0.41800000000E+01 0. -1.
         -5    1    4    4    0  501 -0.29265968054E+02  0.37335380971E+02 -0.35178034207E+02  0.59206368315E+02  0.41800000000E+01 0. -1.
</event>
<event>
11    1  0.7577197E-009  0.1922224E+03  0.7561462E-02  0.1060164E+00
         22   -1    0    0    0    0  0.00000000000E+00  0.00000000000E+00  0.85546601324E+03  0.85546601324E+03  0.00000000000E+00 0. -1.
         22   -1    0    0    0    0 -0.00000000000E+00 -0.00000000000E+00 -0.44488083109E+03  0.44488083109E+03  0.00000000000E+00 0.  1.
        -24    2    1    2    0    0 -0.12735189589E+03 -0.72312595327E+02 -0.40456537332E+03  0.43773966152E+03  0.80593133390E+02 0.  0.
         25    2    1    2    0    0  0.12145641479E+03  0.55819840899E+02  0.40563702387E+03  0.44503507548E+03  0.12508919994E+03 0.  0.
         24    2    1    2    0    0  0.58954810970E+01  0.16492754429E+02  0.40951353159E+03  0.41757210732E+03  0.79739354194E+02 0.  0.
        -11    1    5    5    0    0  0.33804424434E+02  0.34333420087E+02  0.22382333913E+03  0.22895067152E+03  0.00000000000E+00 0.  1.
         12    1    5    5    0    0 -0.27908943337E+02 -0.17840665659E+02  0.18569019246E+03  0.18862143580E+03  0.00000000000E+00 0. -1.
         13    1    3    3    0    0 -0.25936434348E+01  0.67824219200E+01 -0.89173698621E+02  0.89468859158E+02  0.00000000000E+00 0. -1.
        -14    1    3    3    0    0 -0.12475825246E+03 -0.79095017247E+02 -0.31539167470E+03  0.34827080236E+03  0.00000000000E+00 0.  1.
          5    1    4    4  501    0  0.56861588579E+02 -0.28646378247E+02  0.79287287357E+02  0.10177328519E+03  0.41800000000E+01 0. -1.
         -5    1    4    4    0  501  0.64594826216E+02  0.84466219145E+02  0.32634973652E+03  0.34326179029E+03  0.41800000000E+01 0. -1.
</event>
<event>
11    1  0.7577197E-009  0.1388778E+03  0.7561462E-02  0.1108818E+00
         22   -1    0    0    0    0  0.00000000000E+00  0.00000000000E+00  0.35465304162E+03  0.35465304162E+03  0.00000000000E+00 0.  1.
         22   -1    0    0    0    0 -0.00000000000E+00 -0.00000000000E+00 -0.30921546529E+03  0.30921546529E+03  0.00000000000E+00 0. -1.
        -24    2    1    2    0    0  0.11414966725E+02  0.55224591570E+02 -0.22579195454E+03  0.24613979973E+03  0.80141982116E+02 0.  0.
         25    2    1    2    0    0 -0.18003105481E+02  0.12170694854E+02  0.68634836658E+00  0.12696565271E+03  0.12509024052E+03 0.  0.
         24    2    1    2    0    0  0.65881387556E+01 -0.67395286424E+02  0.27054318250E+03  0.29076305447E+03  0.82243614007E+02 0.  0.
        -11    1    5    5    0    0 -0.16083230129E+02 -0.36630526287E+02  0.23562421670E+03  0.23899631220E+03  0.00000000000E+00 0.  1.
         12    1    5    5    0    0  0.22671368885E+02 -0.30764760137E+02  0.34918965795E+02  0.51766742273E+02  0.00000000000E+00 0. -1.
         11    1    3    3    0    0  0.90457728251E+01  0.49711768259E+02 -0.23203965951E+03  0.23747734523E+03  0.00000000000E+00 0. -1.
        -12    1    3    3    0    0  0.23691939001E+01  0.55128233105E+01  0.62477049734E+01  0.86624545034E+01  0.00000000000E+00 0.  1.
          5    1    4    4  501    0 -0.26049781145E+02 -0.86183101249E+01  0.58561120806E+02  0.64805429072E+02  0.41800000000E+01 0.  1.
         -5    1    4    4    0  501  0.80466756645E+01  0.20789004979E+02 -0.57874772440E+02  0.62160223634E+02  0.41800000000E+01 0.  1.
</event>
<event>
11    1  0.7577197E-009  0.1298847E+03  0.7561462E-02  0.1119411E+00
         22   -1    0    0    0    0  0.00000000000E+00  0.00000000000E+00  0.10393849065E+04  0.10393849065E+04  0.00000000000E+00 0.  1.
         22   -1    0    0    0    0 -0.00000000000E+00 -0.00000000000E+00 -0.10403503209E+03  0.10403503209E+03  0.00000000000E+00 0. -1.
        -24    2    1    2    0    0  0.48094864450E+01  0.14122096539E+02 -0.59204434670E+02  0.99426763987E+02  0.78472616509E+02 0.  0.
         25    2    1    2    0    0 -0.74605392771E+01 -0.47679618237E+02  0.17804892734E+03  0.22287809755E+03  0.12507685717E+03 0.  0.
         24    2    1    2    0    0  0.26510528321E+01  0.33557521699E+02  0.81650538176E+03  0.82111507707E+03  0.80098664263E+02 0.  0.
        -13    1    5    5    0    0  0.16067583265E+02  0.29208518574E+02  0.12217212222E+03  0.12663858906E+03  0.00000000000E+00 0.  1.
         14    1    5    5    0    0 -0.13416530433E+02  0.43490031244E+01  0.69433325953E+03  0.69447648802E+03  0.00000000000E+00 0. -1.
         13    1    3    3    0    0  0.29725357018E+01  0.35471858080E+02  0.90939880839E+00  0.35607803784E+02  0.00000000000E+00 0. -1.
        -14    1    3    3    0    0  0.18369507432E+01 -0.21349761541E+02 -0.60113833479E+02  0.63818960203E+02  0.00000000000E+00 0.  1.
          5    1    4    4  501    0 -0.39910597850E+02 -0.66186672422E+02  0.56994217543E+02  0.96121509874E+02  0.41800000000E+01 0. -1.
         -5    1    4    4    0  501  0.32450058573E+02  0.18507054185E+02  0.12105470980E+03  0.12675658768E+03  0.41800000000E+01 0. -1.
</event>
<event>
11    1  0.7577197E-009  0.1442624E+03  0.7561462E-02  0.1102890E+00
         22   -1    0    0    0    0  0.00000000000E+00  0.00000000000E+00  0.29799418639E+03  0.29799418639E+03  0.00000000000E+00 0.  1.
         22   -1    0    0    0    0 -0.00000000000E+00 -0.00000000000E+00 -0.23522486477E+03  0.23522486477E+03  0.00000000000E+00 0. -1.
        -24    2    1    2    0    0 -0.17000218067E+01  0.11618341159E+02 -0.98979519866E+02  0.11370728655E+03  0.54722259966E+02 0.  0.
         25    2    1    2    0    0 -0.14486115253E+02  0.59499468921E+02 -0.75668594271E+02  0.15850173624E+03  0.12508808854E+03 0.  0.
         24    2    1    2    0    0  0.16186137060E+02 -0.71117810079E+02  0.23741743575E+03  0.26101002838E+03  0.80246259548E+02 0.  0.
        -11    1    5    5    0    0  0.40981703208E+02 -0.10336379171E+02  0.80654289802E+02  0.91057428009E+02  0.00000000000E+00 0.  1.
         12    1    5    5    0    0 -0.24795566148E+02 -0.60781430909E+02  0.15676314595E+03  0.16995260037E+03  0.00000000000E+00 0. -1.
         13    1    3    3    0    0 -0.86410039832E+00  0.23729091708E+02 -0.98750941547E+02  0.10156556956E+03  0.00000000000E+00 0. -1.
        -14    1    3    3    0    0 -0.83592140840E+00 -0.12110750549E+02 -0.22857831892E+00  0.12141716992E+02  0.00000000000E+00 0.  1.
          5    1    4    4  501    0 -0.21033578097E+02  0.90972942514E+02 -0.83298264271E+02  0.12519808668E+03  0.41800000000E+01 0.  1.
         -5    1    4    4    0  501  0.65474628439E+01 -0.31473473594E+02  0.76296700002E+01  0.33303649561E+02  0.41800000000E+01 0.  1.
</event>
<event>
11    1  0.7577197E-009  0.1878307E+03  0.7561462E-02  0.1063479E+00
         22   -1    0    0    0    0  0.00000000000E+00  0.00000000000E+00  0.10849293552E+04  0.10849293552E+04  0.00000000000E+00 0. -1.
         22   -1    0    0    0    0 -0.00000000000E+00 -0.00000000000E+00 -0.12752985599E+04  0.12752985599E+04  0.00000000000E+00 0.  1.
        -24    2    1    2    0    0 -0.14031014398E+03  0.61496970612E+01 -0.11874109635E+04  0.11984342589E+04  0.81087122230E+02 0.  0.
         25    2    1    2    0    0  0.13492212012E+03  0.98308258238E+02  0.62342021006E+02  0.21771742332E+03  0.12508339897E+03 0.  0.
         24    2    1    2    0    0  0.53880238569E+01 -0.10445795530E+03  0.93469973781E+03  0.94407623293E+03  0.81705804505E+02 0.  0.
        -13    1    5    5    0    0 -0.28844633910E+02 -0.83675746972E+01  0.25552764953E+03  0.25728662788E+03  0.00000000000E+00 0.  1.
         14    1    5    5    0    0  0.34232657767E+02 -0.96090380602E+02  0.67917208829E+03  0.68678960505E+03  0.00000000000E+00 0. -1.
         13    1    3    3    0    0 -0.34228700547E+02  0.19158629537E+02 -0.13422127710E+03  0.13983564729E+03  0.00000000000E+00 0. -1.
        -14    1    3    3    0    0 -0.10608144343E+03 -0.13008932475E+02 -0.10531896864E+04  0.10585986116E+04  0.00000000000E+00 0.  1.
          5    1    4    4  501    0  0.14922593639E+03  0.51773455826E+02  0.59270867010E+02  0.16875834467E+03  0.41800000000E+01 0. -1.
         -5    1    4    4    0  501 -0.14303816269E+02  0.46534802411E+02  0.30711539955E+01  0.48959078649E+02  0.41800000000E+01 0. -1.
</event>
<event>
11    1  0.7577197E-009  0.3233326E+03  0.7561462E-02  0.9907729E-01
         22   -1    0    0    0    0  0.00000000000E+00  0.00000000000E+00  0.16871085031E+04  0.16871085031E+04  0.00000000000E+00 0. -1.
         22   -1    0    0    0    0 -0.00000000000E+00 -0.00000000000E+00 -0.45337399404E+03  0.45337399404E+03  0.00000000000E+00 0.  1.
         24    2    1    2    0    0  0.43146129838E+02 -0.89541566370E+02 -0.23155306331E+03  0.27076006055E+03  0.99070220703E+02 0.  0.
         25    2    1    2    0    0 -0.29323550506E+03  0.23958890731E+03  0.26740649899E+02  0.39969894069E+03  0.12511704479E+03 0.  0.
        -24    2    1    2    0    0  0.25008937522E+03 -0.15004734094E+03  0.14385469225E+04  0.14700234959E+04  0.80578720561E+02 0.  0.
        -13    1    3    3    0    0  0.69409277653E+01 -0.81810579585E+02 -0.21511905989E+03  0.23025498331E+03  0.00000000000E+00 0.  1.
         14    1    3    3    0    0  0.36205202073E+02 -0.77309867849E+01 -0.16434003426E+02  0.40505077242E+02  0.00000000000E+00 0. -1.
         13    1    5    5    0    0  0.86258754326E+02 -0.31592371704E+02  0.62596821126E+03  0.63267278442E+03  0.00000000000E+00 0. -1.
        -14    1    5    5    0    0  0.16383062089E+03 -0.11845496924E+03  0.81257871126E+03  0.83735071151E+03  0.00000000000E+00 0.  1.
          5    1    4    4  501    0 -0.20921036095E+03  0.12794382542E+03  0.66943402674E+02  0.25423903940E+03  0.41800000000E+01 0. -1.
         -5    1    4    4    0  501 -0.84025144109E+02  0.11164508189E+03 -0.40202752774E+02  0.14545990129E+03  0.41800000000E+01 0. -1.
</event>
<event>
11    1  0.7577197E-009  0.1433169E+03  0.7561462E-02  0.1103910E+00
         22   -1    0    0    0    0  0.00000000000E+00  0.00000000000E+00  0.10716764019E+04  0.10716764019E+04  0.00000000000E+00 0. -1.
         22   -1    0    0    0    0 -0.00000000000E+00 -0.00000000000E+00 -0.75211090670E+03  0.75211090670E+03  0.00000000000E+00 0.  1.
        -24    2    1    2    0    0 -0.44108267657E+02 -0.71490926393E+01 -0.63990482490E+03  0.64648918003E+03  0.80457604772E+02 0.  0.
         25    2    1    2    0    0 -0.19140765392E+02  0.39148089610E+02 -0.64730984412E+02  0.14743214934E+03  0.12508875447E+03 0.  0.
         24    2    1    2    0    0  0.63249033049E+02 -0.31998996971E+02  0.10242013045E+04  0.10298659792E+04  0.81309575248E+02 0.  0.
        -11    1    5    5    0    0  0.75716027389E+02 -0.23304554017E+02  0.57776346154E+03  0.58316947497E+03  0.00000000000E+00 0.  1.
         12    1    5    5    0    0 -0.12466994340E+02 -0.86944429539E+01  0.44643784295E+03  0.44669650424E+03  0.00000000000E+00 0. -1.
         11    1    3    3    0    0 -0.65179689861E+02 -0.15440897739E+02 -0.40573636162E+03  0.41122841394E+03  0.00000000000E+00 0. -1.
        -12    1    3    3    0    0  0.21071422204E+02  0.82918051000E+01 -0.23416846327E+03  0.23526076608E+03  0.00000000000E+00 0.  1.
          5    1    4    4  501    0  0.43122096024E+02  0.91489697385E+01 -0.64446379211E+02  0.78192243901E+02  0.41800000000E+01 0.  1.
         -5    1    4    4    0  501 -0.62262861417E+02  0.29999119872E+02 -0.28460520062E+00  0.69239905437E+02  0.41800000000E+01 0.  1.
</event>
<event>
11    1  0.7577197E-009  0.1277695E+03  0.7561462E-02  0.1122040E+00
         22   -1    0    0    0    0  0.00000000000E+00  0.00000000000E+00  0.38967139049E+03  0.38967139049E+03  0.00000000000E+00 0. -1.
         22   -1    0    0    0    0 -0.00000000000E+00 -0.00000000000E+00 -0.29322084317E+04  0.29322084317E+04  0.00000000000E+00 0.  1.
         24    2    1    2    0    0 -0.68988350885E+00 -0.23332356906E+02 -0.21222104680E+04  0.21238797042E+04  0.80887902655E+02 0.  0.
         25    2    1    2    0    0 -0.17038043370E+02  0.43413453881E+02 -0.79977398215E+03  0.81084010987E+03  0.12509291888E+03 0.  0.
        -24    2    1    2    0    0  0.17727926879E+02 -0.20081096975E+02  0.37944740892E+03  0.38716000809E+03  0.72076389220E+02 0.  0.
        -13    1    3    3    0    0  0.23651099254E+02 -0.44681178706E+02 -0.14653154815E+04  0.14661873149E+04  0.00000000000E+00 0.  1.
         14    1    3    3    0    0 -0.24340982762E+02  0.21348821799E+02 -0.65689498649E+03  0.65769238927E+03  0.00000000000E+00 0. -1.
         11    1    5    5    0    0  0.10644679684E+02  0.92502478372E+01  0.32165889347E+03  0.32196788665E+03  0.00000000000E+00 0. -1.
        -12    1    5    5    0    0  0.70832471957E+01 -0.29331344812E+02  0.57788515456E+02  0.65192121440E+02  0.00000000000E+00 0.  1.
          5    1    4    4  501    0 -0.42679304004E+02 -0.31479623220E+02 -0.27297328290E+03  0.27810856737E+03  0.41800000000E+01 0. -1.
         -5    1    4    4    0  501  0.25641260634E+02  0.74893077101E+02 -0.52680069925E+03  0.53273154250E+03  0.41800000000E+01 0. -1.
</event>
<event>
11    1  0.7577197E-009  0.1392721E+03  0.7561462E-02  0.1108374E+00
         22   -1    0    0    0    0  0.00000000000E+00  0.00000000000E+00  0.30149431338E+03  0.30149431338E+03  0.00000000000E+00 0.  1.
         22   -1    0    0    0    0 -0.00000000000E+00 -0.00000000000E+00 -0.42333763900E+03  0.42333763900E+03  0.00000000000E+00 0. -1.
         24    2    1    2    0    0  0.25149707997E+02 -0.54458139964E+02 -0.36112907906E+03  0.37486337725E+03  0.80685457427E+02 0.  0.
         25    2    1    2    0    0 -0.37230393327E+02  0.75538544341E+02  0.80025114721E+02  0.17071122371E+03  0.12508448763E+03 0.  0.
        -24    2    1    2    0    0  0.12080685331E+02 -0.21080404377E+02  0.15926063872E+03  0.17925735143E+03  0.78606110390E+02 0.  0.
        -11    1    3    3    0    0 -0.17090355627E+02  0.80541449463E+01 -0.31679365180E+02  0.36885385784E+02  0.00000000000E+00 0.  1.
         12    1    3    3    0    0  0.42240063624E+02 -0.62512284910E+02 -0.32944971388E+03  0.33797799146E+03  0.00000000000E+00 0. -1.
         11    1    5    5    0    0 -0.30642391048E+02  0.62961368460E+01  0.54056405027E+02  0.62455523316E+02  0.00000000000E+00 0. -1.
        -12    1    5    5    0    0  0.42723076378E+02 -0.27376541223E+02  0.10520423369E+03  0.11680182811E+03  0.00000000000E+00 0.  1.
          5    1    4    4  501    0 -0.79852026294E+02  0.26263443158E+02  0.56256034329E+02  0.10123402762E+03  0.41800000000E+01 0.  1.
         -5    1    4    4    0  501  0.42621632966E+02  0.49275101182E+02  0.23769080392E+02  0.69477196086E+02  0.41800000000E+01 0.  1.
</event>
<event>
11    1  0.7577197E-009  0.1278138E+03  0.7561462E-02  0.1121985E+00
         22   -1    0    0    0    0  0.00000000000E+00  0.00000000000E+00  0.36852335596E+03  0.36852335596E+03  0.00000000000E+00 0. -1.
         22   -1    0    0    0    0 -0.00000000000E+00 -0.00000000000E+00 -0.54775257168E+03  0.54775257168E+03  0.00000000000E+00 0. -1.
         24    2    1    2    0    0  0.25665808118E+02  0.88736488621E+01 -0.47522140868E+03  0.48272442629E+03  0.80311948834E+02 0.  0.
         25    2    1    2    0    0 -0.79464463582E+01 -0.10437008577E+02 -0.12538695598E+01  0.12578408613E+03  0.12509191411E+03 0.  0.
        -24    2    1    2    0    0 -0.17719361760E+02  0.15633597147E+01  0.29724606252E+03  0.30776741522E+03  0.77776219455E+02 0.  0.
        -11    1    3    3    0    0 -0.11763870442E+02  0.14845388973E+02 -0.27445075167E+02  0.33346759550E+02  0.00000000000E+00 0.  1.
         12    1    3    3    0    0  0.37429678561E+02 -0.59717401108E+01 -0.44777633351E+03  0.44937766674E+03  0.00000000000E+00 0. -1.
         11    1    5    5    0    0 -0.34263383965E+02 -0.64275918865E+01  0.28126377724E+03  0.28341595898E+03  0.00000000000E+00 0. -1.
        -12    1    5    5    0    0  0.16544022205E+02  0.79909516012E+01  0.15982285284E+02  0.24351456242E+02  0.00000000000E+00 0.  1.
          5    1    4    4  501    0 -0.15900483762E+02  0.88211483256E+01 -0.60252318780E+02  0.63074974118E+02  0.41800000000E+01 0.  1.
         -5    1    4    4    0  501  0.79540374037E+01 -0.19258156902E+02  0.58998449220E+02  0.62709112007E+02  0.41800000000E+01 0.  1.
</event>
<event>
11    1  0.7577197E-009  0.1325794E+03  0.7561462E-02  0.1116140E+00
         22   -1    0    0    0    0  0.00000000000E+00  0.00000000000E+00  0.43026080212E+03  0.43026080212E+03  0.00000000000E+00 0. -1.
         22   -1    0    0    0    0 -0.00000000000E+00 -0.00000000000E+00 -0.40500503040E+03  0.40500503040E+03  0.00000000000E+00 0. -1.
         24    2    1    2    0    0  0.21549977243E+02 -0.18762458227E+02 -0.18802102157E+03  0.20628091223E+03  0.79896676035E+02 0.  0.
         25    2    1    2    0    0 -0.64868700435E+02  0.20859955637E+02 -0.17768868037E+03  0.22773691209E+03  0.12509095871E+03 0.  0.
        -24    2    1    2    0    0  0.43318723193E+02 -0.20974974098E+01  0.39096547366E+03  0.40124800819E+03  0.79152076491E+02 0.  0.
        -11    1    3    3    0    0 -0.15056558022E+02  0.24125762548E+02 -0.60590051802E+02  0.66932105415E+02  0.00000000000E+00 0.  1.
         12    1    3    3    0    0  0.36606535264E+02 -0.42888220775E+02 -0.12743096977E+03  0.13934880682E+03  0.00000000000E+00 0. -1.
         11    1    5    5    0    0  0.27455234624E+02  0.25304328807E+02  0.33395058303E+03  0.33603138375E+03  0.00000000000E+00 0. -1.
        -12    1    5    5    0    0  0.15863488568E+02 -0.27401826216E+02  0.57014890633E+02  0.65216624440E+02  0.00000000000E+00 0.  1.
          5    1    4    4  501    0  0.34640820705E+02  0.92368501613E+01 -0.79903130555E+02  0.87677183649E+02  0.41800000000E+01 0. -1.
         -5    1    4    4    0  501 -0.99509521140E+02  0.11623105476E+02 -0.97785549819E+02  0.14005972844E+03  0.41800000000E+01 0. -1.
</event>
<event>
11    1  0.7577197E-009  0.1428032E+03  0.7561462E-02  0.1104468E+00
         22   -1    0    0    0    0  0.00000000000E+00  0.00000000000E+00  0.50448288731E+03  0.50448288731E+03  0.00000000000E+00 0. -1.
         22   -1    0    0    0    0 -0.00000000000E+00 -0.00000000000E+00 -0.45606667687E+03  0.45606667687E+03  0.00000000000E+00 0. -1.
        -24    2    1    2    0    0 -0.56730072054E+02  0.30375123015E+02 -0.28951076309E+03  0.30772362607E+03  0.82075568355E+02 0.  0.
         25    2    1    2    0    0 -0.11719334455E+02 -0.10113755067E+02 -0.12491725419E+03  0.17746008120E+03  0.12509248251E+03 0.  0.
         24    2    1    2    0    0  0.68449406509E+02 -0.20261367948E+02  0.46284422773E+03  0.47536585691E+03  0.81560250690E+02 0.  0.
        -11    1    5    5    0    0  0.56210744972E+02 -0.49932505701E+02  0.29141021622E+03  0.30095318090E+03  0.00000000000E+00 0.  1.
         12    1    5    5    0    0  0.12238661536E+02  0.29671137753E+02  0.17143401150E+03  0.17441267601E+03  0.00000000000E+00 0. -1.
         13    1    3    3    0    0 -0.35141852792E+02  0.56299589264E+02 -0.22923717388E+03  0.23865094900E+03  0.00000000000E+00 0. -1.
        -14    1    3    3    0    0 -0.21588219262E+02 -0.25924466249E+02 -0.60273589212E+02  0.69072677071E+02  0.00000000000E+00 0.  1.
          5    1    4    4  501    0 -0.21253074604E+02  0.26681424553E+02 -0.13384977499E+03  0.13819126695E+03  0.41800000000E+01 0. -1.
         -5    1    4    4    0  501  0.95337401493E+01 -0.36795179620E+02  0.89325207974E+01  0.39268814246E+02  0.41800000000E+01 0. -1.
</event>
<event>
11    1  0.7577197E-009  0.1329828E+03  0.7561462E-02  0.1115657E+00
         22   -1    0    0    0    0  0.00000000000E+00  0.00000000000E+00  0.92070732210E+03  0.92070732210E+03  0.00000000000E+00 0.  1.
         22   -1    0    0    0    0 -0.00000000000E+00 -0.00000000000E+00 -0.47148455196E+03  0.47148455196E+03  0.00000000000E+00 0.  1.
        -24    2    1    2    0    0  0.36094478958E+02 -0.28507370302E+02 -0.42984083822E+03  0.43998102463E+03  0.81882075336E+02 0.  0.
         25    2    1    2    0    0 -0.22691869552E+02  0.10987215807E+02  0.83188980217E+02  0.15233296970E+03  0.12509711177E+03 0.  0.
         24    2    1    2    0    0 -0.13402609406E+02  0.17520154494E+02  0.79587462815E+03  0.79987787973E+03  0.76821956544E+02 0.  0.
        -11    1    5    5    0    0 -0.15934218476E+02 -0.24342423910E+02  0.52205977326E+03  0.52286983062E+03  0.00000000000E+00 0.  1.
         12    1    5    5    0    0  0.25316090700E+01  0.41862578404E+02  0.27381485489E+03  0.27700804911E+03  0.00000000000E+00 0. -1.
         11    1    3    3    0    0  0.13320263141E+02  0.24503080382E+01 -0.67216257883E+01  0.15119975954E+02  0.00000000000E+00 0. -1.
        -12    1    3    3    0    0  0.22774215817E+02 -0.30957678340E+02 -0.42311921243E+03  0.42486104867E+03  0.00000000000E+00 0.  1.
          5    1    4    4  501    0 -0.56897336878E+02  0.40650606469E+02  0.17091705829E+02  0.72106709523E+02  0.41800000000E+01 0. -1.
         -5    1    4    4    0  501  0.34205467326E+02 -0.29663390661E+02  0.66097274388E+02  0.80226260177E+02  0.41800000000E+01 0. -1.
</event>
<event>
11    1  0.7577197E-009  0.1360128E+03  0.7561462E-02  0.1112094E+00
         22   -1    0    0    0    0  0.00000000000E+00  0.00000000000E+00  0.27289821448E+03  0.27289821448E+03  0.00000000000E+00 0. -1.
         22   -1    0    0    0    0 -0.00000000000E+00 -0.00000000000E+00 -0.37845508320E+03  0.37845508320E+03  0.00000000000E+00 0.  1.
         24    2    1    2    0    0 -0.25086922116E+01  0.45567472768E+02 -0.30127967718E+03  0.31522266288E+03  0.80704369156E+02 0.  0.
         25    2    1    2    0    0  0.55425178160E+02 -0.38295916003E+02  0.31259032834E+02  0.14547759055E+03  0.12509226459E+03 0.  0.
        -24    2    1    2    0    0 -0.52916485949E+02 -0.72715567649E+01  0.16446377562E+03  0.19065304426E+03  0.80294581197E+02 0.  0.
        -11    1    3    3    0    0  0.11484662591E+02  0.44920074163E+02 -0.29696822984E+03  0.30056586644E+03  0.00000000000E+00 0.  1.
         12    1    3    3    0    0 -0.13993354803E+02  0.64739860509E+00 -0.43114473402E+01  0.14656796436E+02  0.00000000000E+00 0. -1.
         11    1    5    5    0    0 -0.13127579978E+02  0.31178345483E+02  0.10069385354E+03  0.10622464274E+03  0.00000000000E+00 0. -1.
        -12    1    5    5    0    0 -0.39788905971E+02 -0.38449902248E+02  0.63769922077E+02  0.84428401518E+02  0.00000000000E+00 0.  1.
          5    1    4    4  501    0  0.48433767283E+01  0.40453811683E+02  0.31695058122E+02  0.51788206063E+02  0.41800000000E+01 0. -1.
         -5    1    4    4    0  501  0.50581801432E+02 -0.78749727687E+02 -0.43602528868E+00  0.93689384484E+02  0.41800000000E+01 0. -1.
</event>
<event>
11    1  0.7577197E-009  0.2054275E+04  0.7561462E-02  0.8045091E-01
         22   -1    0    0    0    0  0.00000000000E+00  0.00000000000E+00  0.14669523814E+04  0.14669523814E+04  0.00000000000E+00 0. -1.
         22   -1    0    0    0    0 -0.00000000000E+00 -0.00000000000E+00 -0.71918606752E+03  0.71918606752E+03  0.00000000000E+00 0. -1.
         24    2    1    2    0    0  0.89977810608E+01 -0.73199037459E+02  0.20456054998E+01  0.10995232060E+03  0.81524653657E+02 0.  0.
         25    2    1    2    0    0 -0.25176066873E+03  0.96203607493E+03  0.27860658774E+03  0.10402720720E+04  0.12509000501E+03 0.  0.
        -24    2    1    2    0    0  0.24276288767E+03 -0.88883703747E+03  0.46711412065E+03  0.10359140563E+04  0.77183103863E+02 0.  0.
        -13    1    3    3    0    0  0.27304415888E+02 -0.17898991471E+02 -0.29242819758E+02  0.43829756218E+02  0.00000000000E+00 0.  1.
         14    1    3    3    0    0 -0.18306634827E+02 -0.55300045988E+02  0.31288425258E+02  0.66122564379E+02  0.00000000000E+00 0. -1.
         11    1    5    5    0    0  0.14806751002E+03 -0.41860445452E+03  0.24773696106E+03  0.50845577855E+03  0.00000000000E+00 0. -1.
        -12    1    5    5    0    0  0.94695377653E+02 -0.47023258295E+03  0.21937715959E+03  0.52745827775E+03  0.00000000000E+00 0.  1.
          5    1    4    4  501    0 -0.51168104485E+02  0.35116175454E+03  0.52831487477E+02  0.35880550614E+03  0.41800000000E+01 0.  1.
         -5    1    4    4    0  501 -0.20059256425E+03  0.61087432039E+03  0.22577510027E+03  0.68146656590E+03  0.41800000000E+01 0.  1.
</event>
<event>
11    1  0.7577197E-009  0.1654210E+03  0.7561462E-02  0.1082087E+00
         22   -1    0    0    0    0  0.00000000000E+00  0.00000000000E+00  0.12488099342E+04  0.12488099342E+04  0.00000000000E+00 0.  1.
         22   -1    0    0    0    0 -0.00000000000E+00 -0.00000000000E+00 -0.14684539921E+03  0.14684539921E+03  0.00000000000E+00 0. -1.
         24    2    1    2    0    0  0.20841913153E+02  0.12152412832E+02 -0.10750459008E+03  0.13475175380E+03  0.77580485832E+02 0.  0.
         25    2    1    2    0    0  0.64444697271E+02 -0.81349441911E+02  0.29808581523E+03  0.33951502276E+03  0.12507776274E+03 0.  0.
        -24    2    1    2    0    0 -0.85286610423E+02  0.69197029079E+02  0.91138330987E+03  0.92138855688E+03  0.79216794329E+02 0.  0.
        -11    1    3    3    0    0  0.12540170879E+02  0.40171926240E+02 -0.29337062525E+02  0.51300124572E+02  0.00000000000E+00 0.  1.
         12    1    3    3    0    0  0.83017422734E+01 -0.28019513408E+02 -0.78167527557E+02  0.83451629227E+02  0.00000000000E+00 0. -1.
         13    1    5    5    0    0  0.47043743601E+00 -0.98394715014E+01  0.22136573184E+03  0.22158480034E+03  0.00000000000E+00 0. -1.
        -14    1    5    5    0    0 -0.85757047859E+02  0.79036500580E+02  0.69001757803E+03  0.69980375654E+03  0.00000000000E+00 0.  1.
          5    1    4    4  501    0  0.17565932438E+02  0.33532419328E+02  0.61602929681E+02  0.72424985148E+02  0.41800000000E+01 0. -1.
         -5    1    4    4    0  501  0.46878764832E+02 -0.11488186124E+03  0.23648288555E+03  0.26709003761E+03  0.41800000000E+01 0. -1.
</event>
<event>
11    1  0.7577197E-009  0.1347312E+03  0.7561462E-02  0.1113589E+00
         22   -1    0    0    0    0  0.00000000000E+00  0.00000000000E+00  0.21793640940E+04  0.21793640940E+04  0.00000000000E+00 0.  1.
         22   -1    0    0    0    0 -0.00000000000E+00 -0.00000000000E+00 -0.48279193460E+02  0.48279193460E+02  0.00000000000E+00 0.  1.
         24    2    1    2    0    0  0.16387985867E+02 -0.74176502360E+01  0.28118918094E+02  0.86626480126E+02  0.79936761808E+02 0.  0.
         25    2    1    2    0    0 -0.61356284701E+02 -0.12781923641E+02  0.25685820632E+03  0.29249013089E+03  0.12508543987E+03 0.  0.
        -24    2    1    2    0    0  0.44968298834E+02  0.20199573877E+02  0.18461077761E+04  0.18485266765E+04  0.80664625330E+02 0.  0.
        -11    1    3    3    0    0  0.29690290529E+02  0.18623989036E+00 -0.20216838332E+02  0.35920308868E+02  0.00000000000E+00 0.  1.
         12    1    3    3    0    0 -0.13302304662E+02 -0.76038901264E+01  0.48335756426E+02  0.50706171258E+02  0.00000000000E+00 0. -1.
         11    1    5    5    0    0 -0.10477633059E+02 -0.14933391598E+02  0.14361148182E+03  0.14476548169E+03  0.00000000000E+00 0. -1.
        -12    1    5    5    0    0  0.55445931893E+02  0.35132965475E+02  0.17024962943E+04  0.17037611948E+04  0.00000000000E+00 0.  1.
          5    1    4    4  501    0 -0.37240618291E+02  0.55600908403E+02  0.11499965919E+03  0.13311918975E+03  0.41800000000E+01 0.  1.
         -5    1    4    4    0  501 -0.24115666410E+02 -0.68382832044E+02  0.14185854714E+03  0.15937094114E+03  0.41800000000E+01 0.  1.
</event>
<event>
11    1  0.7577197E-009  0.1750225E+03  0.7561462E-02  0.1073742E+00
         22   -1    0    0    0    0  0.00000000000E+00  0.00000000000E+00  0.19511412327E+04  0.19511412327E+04  0.00000000000E+00 0. -1.
         22   -1    0    0    0    0 -0.00000000000E+00 -0.00000000000E+00 -0.60632974319E+03  0.60632974319E+03  0.00000000000E+00 0.  1.
        -24    2    1    2    0    0  0.12544204875E+03  0.15372495412E+02 -0.53639246991E+03  0.55703035666E+03  0.81202926451E+02 0.  0.
         25    2    1    2    0    0 -0.86326233378E+02  0.36937564401E+02  0.46960671653E+02  0.16330811909E+03  0.12509050662E+03 0.  0.
         24    2    1    2    0    0 -0.39115815367E+02 -0.52310059813E+02  0.18342432878E+04  0.18371325001E+04  0.79630364880E+02 0.  0.
        -13    1    5    5    0    0  0.17900848348E+02 -0.31594260144E+02  0.41238604979E+03  0.41398175286E+03  0.00000000000E+00 0.  1.
         14    1    5    5    0    0 -0.57016663716E+02 -0.20715799670E+02  0.14218572380E+04  0.14231507473E+04  0.00000000000E+00 0. -1.
         13    1    3    3    0    0  0.82406686404E+02  0.23344189822E+02 -0.19681282759E+03  0.21464179991E+03  0.00000000000E+00 0. -1.
        -14    1    3    3    0    0  0.43035362341E+02 -0.79716944104E+01 -0.33957964232E+03  0.34238855676E+03  0.00000000000E+00 0.  1.
          5    1    4    4  501    0 -0.11503866348E+03  0.12907964960E+02  0.48554987639E+02  0.12560083153E+03  0.41800000000E+01 0.  1.
         -5    1    4    4    0  501  0.28712430106E+02  0.24029599441E+02 -0.15943159861E+01  0.37707287563E+02  0.41800000000E+01 0.  1.
</event>
<event>
11    1  0.7577197E-009  0.1484347E+03  0.7561462E-02  0.1098489E+00
         22   -1    0    0    0    0  0.00000000000E+00  0.00000000000E+00  0.17801827956E+03  0.17801827956E+03  0.00000000000E+00 0. -1.
         22   -1    0    0    0    0 -0.00000000000E+00 -0.00000000000E+00 -0.20803299853E+03  0.20803299853E+03  0.00000000000E+00 0.  1.
        -24    2    1    2    0    0 -0.45091760731E+02  0.34564364498E+02 -0.48663015011E+02  0.11345253197E+03  0.85296106604E+02 0.  0.
         25    2    1    2    0    0 -0.53975135194E+02 -0.25857775511E+02 -0.59433578930E+01  0.13879516714E+03  0.12508731009E+03 0.  0.
         24    2    1    2    0    0  0.99066895925E+02 -0.87065889873E+01  0.24591653939E+02  0.13380357898E+03  0.86073188296E+02 0.  0.
        -13    1    5    5    0    0  0.29663967605E+02  0.18660102382E+02 -0.26023344516E+02  0.43650485161E+02  0.00000000000E+00 0.  1.
         14    1    5    5    0    0  0.69402928320E+02 -0.27366691369E+02  0.50614998455E+02  0.90153093816E+02  0.00000000000E+00 0. -1.
         11    1    3    3    0    0  0.23017637446E+02 -0.31403143608E+01 -0.36194722580E+01  0.23511141769E+02  0.00000000000E+00 0. -1.
        -12    1    3    3    0    0 -0.68109398176E+02  0.37704678859E+02 -0.45043542753E+02  0.89941390203E+02  0.00000000000E+00 0.  1.
          5    1    4    4  501    0  0.22873958464E+02  0.33718390220E+02  0.29357152560E+01  0.41063836144E+02  0.41800000000E+01 0.  1.
         -5    1    4    4    0  501 -0.76849093658E+02 -0.59576165731E+02 -0.88790731490E+01  0.97731331001E+02  0.41800000000E+01 0.  1.
</event>
<event>
11    1  0.7577197E-009  0.1330373E+03  0.7561462E-02  0.1115592E+00
         22   -1    0    0    0    0  0.00000000000E+00  0.00000000000E+00  0.61613189833E+03  0.61613189833E+03  0.00000000000E+00 0. -1.
         22   -1    0    0    0    0 -0.00000000000E+00 -0.00000000000E+00 -0.21936106531E+03  0.21936106531E+03  0.00000000000E+00 0.  1.
         24    2    1    2    0    0  0.95436343861E+01  0.38524696840E+02 -0.83755529152E+02  0.12231126501E+03  0.79811175040E+02 0.  0.
         25    2    1    2    0    0 -0.64789520567E+02 -0.34204913042E+02 -0.66299556465E+02  0.15941252874E+03  0.12509622328E+03 0.  0.
        -24    2    1    2    0    0  0.55245886181E+02 -0.43197837978E+01  0.54682591864E+03  0.55376916989E+03  0.67608725427E+02 0.  0.
        -11    1    3    3    0    0 -0.23272060330E+02  0.49005305156E+02 -0.57025511522E+02  0.78708434680E+02  0.00000000000E+00 0.  1.
         12    1    3    3    0    0  0.32815694717E+02 -0.10480608316E+02 -0.26730017630E+02  0.43602830331E+02  0.00000000000E+00 0. -1.
         13    1    5    5    0    0  0.45701464276E+02  0.16407165792E+02  0.49191329853E+03  0.49430406856E+03  0.00000000000E+00 0. -1.
        -14    1    5    5    0    0  0.95444219044E+01 -0.20726949590E+02  0.54912620112E+02  0.59465101331E+02  0.00000000000E+00 0.  1.
          5    1    4    4  501    0  0.10494042666E+02  0.23638899898E+02 -0.58455143399E+02  0.64057776340E+02  0.41800000000E+01 0. -1.
         -5    1    4    4    0  501 -0.75283563232E+02 -0.57843812941E+02 -0.78444130656E+01  0.95354752398E+02  0.41800000000E+01 0. -1.
</event>
<event>
11    1  0.7577197E-009  0.2182418E+03  0.7561462E-02  0.1042324E+00
         22   -1    0    0    0    0  0.00000000000E+00  0.00000000000E+00  0.18469237443E+04  0.18469237443E+04  0.00000000000E+00 0. -1.
         22   -1    0    0    0    0 -0.00000000000E+00 -0.00000000000E+00 -0.29534159206E+03  0.29534159206E+03  0.00000000000E+00 0. -1.
         24    2    1    2    0    0  0.17854819647E+03  0.57550721073E+01 -0.23180951215E+03  0.30346630023E+03  0.80271826515E+02 0.  0.
         25    2    1    2    0    0 -0.18215392152E+03  0.27896309854E+02  0.44624592119E+03  0.49873986850E+03  0.12509108292E+03 0.  0.
        -24    2    1    2    0    0  0.36057250487E+01 -0.33651381961E+02  0.13371457432E+04  0.13400591677E+04  0.81574612619E+02 0.  0.
        -13    1    3    3    0    0 -0.97086608873E+00  0.14534679296E+02 -0.87023376450E+01  0.16968505051E+02  0.00000000000E+00 0.  1.
         14    1    3    3    0    0  0.17951906256E+03 -0.87796071884E+01 -0.22310717451E+03  0.28649779518E+03  0.00000000000E+00 0. -1.
         11    1    5    5    0    0  0.16123363994E+02 -0.55793399685E+02  0.11047841471E+04  0.11063095760E+04  0.00000000000E+00 0. -1.
        -12    1    5    5    0    0 -0.12517638945E+02  0.22142017724E+02  0.23236159614E+03  0.23374959164E+03  0.00000000000E+00 0.  1.
          5    1    4    4  501    0 -0.95653449045E+02 -0.22298391314E+02  0.10821906460E+03  0.14620410019E+03  0.41800000000E+01 0.  1.
         -5    1    4    4    0  501 -0.86500472476E+02  0.50194701168E+02  0.33802685659E+03  0.35253576831E+03  0.41800000000E+01 0.  1.
</event>
<event>
11    1  0.7577197E-009  0.1349644E+03  0.7561462E-02  0.1113315E+00
         22   -1    0    0    0    0  0.00000000000E+00  0.00000000000E+00  0.27278345288E+04  0.27278345288E+04  0.00000000000E+00 0. -1.
         22   -1    0    0    0    0 -0.00000000000E+00 -0.00000000000E+00 -0.24818451287E+03  0.24818451287E+03  0.00000000000E+00 0.  1.
        -24    2    1    2    0    0 -0.24478001589E+02 -0.47395066253E+02 -0.20971892686E+03  0.22991324125E+03  0.77669848396E+02 0.  0.
         25    2    1    2    0    0  0.18940398902E+02  0.41282950296E+01  0.11753235641E+03  0.17273080333E+03  0.12508514734E+03 0.  0.
         24    2    1    2    0    0  0.55376026872E+01  0.43266771223E+02  0.25718365864E+04  0.25733749971E+04  0.77542053584E+02 0.  0.
        -11    1    5    5    0    0 -0.30640108119E+02 -0.92981049779E+00  0.11096355890E+04  0.11100589268E+04  0.00000000000E+00 0.  1.
         12    1    5    5    0    0  0.36177710806E+02  0.44196581721E+02  0.14622009974E+04  0.14633160703E+04  0.00000000000E+00 0. -1.
         13    1    3    3    0    0 -0.20930051356E+02 -0.32509929320E+02 -0.28460451729E+02  0.48009997571E+02  0.00000000000E+00 0. -1.
        -14    1    3    3    0    0 -0.35479502332E+01 -0.14885136932E+02 -0.18125847513E+03  0.18190324367E+03  0.00000000000E+00 0.  1.
          5    1    4    4  501    0  0.46856530167E+02  0.33100681088E+02  0.10714075592E+02  0.58510283913E+02  0.41800000000E+01 0.  1.
         -5    1    4    4    0  501 -0.27916131264E+02 -0.28972386058E+02  0.10681828082E+03  0.11422051942E+03  0.41800000000E+01 0.  1.
</event>
<event>
11    1  0.7577197E-009  0.1333748E+03  0.7561462E-02  0.1115191E+00
         22   -1    0    0    0    0  0.00000000000E+00  0.00000000000E+00  0.49946867839E+03  0.49946867839E+03  0.00000000000E+00 0. -1.
         22   -1    0    0    0    0 -0.00000000000E+00 -0.00000000000E+00 -0.38505639389E+04  0.38505639389E+04  0.00000000000E+00 0. -1.
        -24    2    1    2    0    0 -0.97543991151E+01  0.40497962778E+02 -0.37828177360E+04  0.37839109563E+04  0.80850901880E+02 0.  0.
         25    2    1    2    0    0  0.19954506811E+02  0.75296337870E+01  0.26824621076E+01  0.12692249464E+03  0.12508895361E+03 0.  0.
         24    2    1    2    0    0 -0.10200107696E+02 -0.48027596565E+02  0.42904001336E+03  0.43919916633E+03  0.80061741244E+02 0.  0.
        -13    1    5    5    0    0 -0.43666831341E+02 -0.17983729234E+02  0.26137747189E+03  0.26560946799E+03  0.00000000000E+00 0.  1.
         14    1    5    5    0    0  0.33466723645E+02 -0.30043867331E+02  0.16766254148E+03  0.17358969834E+03  0.00000000000E+00 0. -1.
         13    1    3    3    0    0  0.15210919851E+02  0.55599305136E+01 -0.29036496101E+04  0.29036947744E+04  0.00000000000E+00 0. -1.
        -14    1    3    3    0    0 -0.24965318966E+02  0.34938032264E+02 -0.87916812595E+03  0.88021618193E+03  0.00000000000E+00 0.  1.
          5    1    4    4  501    0  0.32657007590E+02  0.21067430652E+02  0.57143540178E+02  0.69232747765E+02  0.41800000000E+01 0.  1.
         -5    1    4    4    0  501 -0.12702500778E+02 -0.13537796865E+02 -0.54461078070E+02  0.57689746876E+02  0.41800000000E+01 0.  1.
</event>
<event>
11    1  0.7577197E-009  0.2039701E+03  0.7561462E-02  0.1051751E+00
         22   -1    0    0    0    0  0.00000000000E+00  0.00000000000E+00  0.42369201082E+03  0.42369201082E+03  0.00000000000E+00 0.  1.
         22   -1    0    0    0    0 -0.00000000000E+00 -0.00000000000E+00 -0.46251047333E+03  0.46251047333E+03  0.00000000000E+00 0. -1.
         24    2    1    2    0    0  0.82947218908E+02 -0.12972859886E+03 -0.31831648387E+03  0.36250224555E+03  0.79829465971E+02 0.  0.
         25    2    1    2    0    0 -0.11592246484E+03  0.16393038429E+03  0.80734752213E+01  0.23669425871E+03  0.12509117617E+03 0.  0.
        -24    2    1    2    0    0  0.32975245934E+02 -0.34201785424E+02  0.27142454614E+03  0.28700597989E+03  0.80274648985E+02 0.  0.
        -11    1    3    3    0    0 -0.36964453275E+01 -0.10247991920E+02  0.78472695880E+00  0.10922492520E+02  0.00000000000E+00 0.  1.
         12    1    3    3    0    0  0.86643664235E+02 -0.11948060694E+03 -0.31910121083E+03  0.35157975303E+03  0.00000000000E+00 0. -1.
         13    1    5    5    0    0 -0.26653587584E+02 -0.77658892461E+01  0.91764506661E+02  0.95872036849E+02  0.00000000000E+00 0. -1.
        -14    1    5    5    0    0  0.59628833517E+02 -0.26435896178E+02  0.17966003948E+03  0.19113394304E+03  0.00000000000E+00 0.  1.
          5    1    4    4  501    0 -0.25457731010E+01  0.92152647201E+02 -0.30189889049E+02  0.97095278709E+02  0.41800000000E+01 0.  1.
         -5    1    4    4    0  501 -0.11337669174E+03  0.71777737087E+02  0.38263364271E+02  0.13959898000E+03  0.41800000000E+01 0.  1.
</event>
<event>
11    1  0.7577197E-009  0.1367516E+03  0.7561462E-02  0.1111241E+00
         22   -1    0    0    0    0  0.00000000000E+00  0.00000000000E+00  0.65434926345E+03  0.65434926345E+03  0.00000000000E+00 0. -1.
         22   -1    0    0    0    0 -0.00000000000E+00 -0.00000000000E+00 -0.29385306579E+03  0.29385306579E+03  0.00000000000E+00 0.  1.
         24    2    1    2    0    0 -0.19183835827E+02  0.55056853000E+01 -0.26344875751E+03  0.27734129877E+03  0.84348183368E+02 0.  0.
         25    2    1    2    0    0 -0.27317744319E+02  0.32945746992E+02  0.24259002231E+03  0.27628290912E+03  0.12510254015E+03 0.  0.
        -24    2    1    2    0    0  0.46501580146E+02 -0.38451432292E+02  0.38135493286E+03  0.39457812135E+03  0.81359691665E+02 0.  0.
        -11    1    3    3    0    0  0.61256534916E+01  0.18156969301E+02 -0.23951752979E+03  0.24028284633E+03  0.00000000000E+00 0.  1.
         12    1    3    3    0    0 -0.25309489318E+02 -0.12651284001E+02 -0.23931227727E+02  0.37058452436E+02  0.00000000000E+00 0. -1.
         11    1    5    5    0    0 -0.37619206350E+01 -0.18182383893E+02  0.27097827381E+03  0.27161365210E+03  0.00000000000E+00 0. -1.
        -12    1    5    5    0    0  0.50263500781E+02 -0.20269048399E+02  0.11037665905E+03  0.12296446924E+03  0.00000000000E+00 0.  1.
          5    1    4    4  501    0 -0.33339897356E+02 -0.40072300172E+02  0.60545427025E+02  0.80003494489E+02  0.41800000000E+01 0.  1.
         -5    1    4    4    0  501  0.60221530367E+01  0.73018047164E+02  0.18204459528E+03  0.19627941464E+03  0.41800000000E+01 0.  1.
</event>
<event>
11    1  0.7577197E-009  0.1699590E+03  0.7561462E-02  0.1078067E+00
         22   -1    0    0    0    0  0.00000000000E+00  0.00000000000E+00  0.68179754879E+03  0.68179754879E+03  0.00000000000E+00 0. -1.
         22   -1    0    0    0    0 -0.00000000000E+00 -0.00000000000E+00 -0.47242872086E+03  0.47242872086E+03  0.00000000000E+00 0. -1.
         24    2    1    2    0    0 -0.21712835835E+02 -0.10895754301E+03 -0.38272541748E+03  0.40677164903E+03  0.81493778007E+02 0.  0.
         25    2    1    2    0    0  0.48096078159E+02  0.15584739270E+03  0.70078298932E+02  0.21716444178E+03  0.12509110379E+03 0.  0.
        -24    2    1    2    0    0 -0.26383242324E+02 -0.46889849690E+02  0.52201594647E+03  0.53029017884E+03  0.76238388787E+02 0.  0.
        -13    1    3    3    0    0 -0.22484253370E+02 -0.44726199704E+01 -0.24216208289E+02  0.33346225017E+02  0.00000000000E+00 0.  1.
         14    1    3    3    0    0  0.77141753514E+00 -0.10448492304E+03 -0.35850920919E+03  0.37342542402E+03  0.00000000000E+00 0. -1.
         13    1    5    5    0    0 -0.22917487982E+01 -0.63695353786E+02  0.37309029305E+03  0.37849533283E+03  0.00000000000E+00 0. -1.
        -14    1    5    5    0    0 -0.24091493526E+02  0.16805504096E+02  0.14892565343E+03  0.15179484601E+03  0.00000000000E+00 0.  1.
          5    1    4    4  501    0 -0.34612579551E+02  0.76602930255E+01  0.97146690231E+01  0.36994025824E+02  0.41800000000E+01 0. -1.
         -5    1    4    4    0  501  0.82708657710E+02  0.14818709967E+03  0.60363629909E+02  0.18017041595E+03  0.41800000000E+01 0. -1.
</event>
<event>
11    1  0.7577197E-009  0.1448617E+03  0.7561462E-02  0.1102248E+00
         22   -1    0    0    0    0  0.00000000000E+00  0.00000000000E+00  0.77883939475E+03  0.77883939475E+03  0.00000000000E+00 0. -1.
         22   -1    0    0    0    0 -0.00000000000E+00 -0.00000000000E+00 -0.41075173640E+03  0.41075173640E+03  0.00000000000E+00 0. -1.
         24    2    1    2    0    0  0.11840927165E+02  0.62521460845E+00 -0.33657250463E+03  0.34619896180E+03  0.80200198422E+02 0.  0.
         25    2    1    2    0    0  0.59837245638E+02  0.16927034964E+02  0.10083791473E+02  0.14005637961E+03  0.12508831337E+03 0.  0.
        -24    2    1    2    0    0 -0.71678172803E+02 -0.17552249573E+02  0.69457637150E+03  0.70333578974E+03  0.82456384591E+02 0.  0.
        -13    1    3    3    0    0  0.30991700735E+02  0.26084541492E+02 -0.26190553531E+03  0.26501961860E+03  0.00000000000E+00 0.  1.
         14    1    3    3    0    0 -0.19150773571E+02 -0.25459326884E+02 -0.74666969323E+02  0.81179343195E+02  0.00000000000E+00 0. -1.
         13    1    5    5    0    0 -0.29972683732E+02  0.25790413469E+02  0.43898452632E+03  0.44076175146E+03  0.00000000000E+00 0. -1.
        -14    1    5    5    0    0 -0.41705489071E+02 -0.43342663042E+02  0.25559184518E+03  0.26257403828E+03  0.00000000000E+00 0.  1.
          5    1    4    4  501    0  0.69827074847E+02  0.61848622345E+02  0.41117083284E+01  0.93463634710E+02  0.41800000000E+01 0.  1.
         -5    1    4    4    0  501 -0.99898292090E+01 -0.44921587381E+02  0.59720831449E+01  0.46592744903E+02  0.41800000000E+01 0.  1.
</event>
<event>
11    1  0.7577197E-009  0.1455865E+03  0.7561462E-02  0.1101476E+00
         22   -1    0    0    0    0  0.00000000000E+00  0.00000000000E+00  0.36190636520E+03  0.36190636520E+03  0.00000000000E+00 0. -1.
         22   -1    0    0    0    0 -0.00000000000E+00 -0.00000000000E+00 -0.33288703216E+03  0.33288703216E+03  0.00000000000E+00 0.  1.
         24    2    1    2    0    0 -0.19894717122E+02  0.26426261719E+02 -0.19461258502E+03  0.21070079568E+03  0.73665595595E+02 0.  0.
         25    2    1    2    0    0 -0.55928444133E+02 -0.19527771468E+02 -0.80667300261E+02  0.16019816417E+03  0.12508762429E+03 0.  0.
        -24    2    1    2    0    0  0.75823161255E+02 -0.68984902511E+01  0.30429921832E+03  0.32389443750E+03  0.80702239295E+02 0.  0.
        -13    1    3    3    0    0 -0.76626712293E+01  0.26959756094E+01 -0.18015895965E+03  0.18034199610E+03  0.00000000000E+00 0.  1.
         14    1    3    3    0    0 -0.12232045892E+02  0.23730286110E+02 -0.14453625366E+02  0.30358799578E+02  0.00000000000E+00 0. -1.
         11    1    5    5    0    0  0.45029206649E+02 -0.38318110160E+01  0.28237619877E+03  0.28596963100E+03  0.00000000000E+00 0. -1.
        -12    1    5    5    0    0  0.30793954606E+02 -0.30666792352E+01  0.21923019551E+02  0.37924806499E+02  0.00000000000E+00 0.  1.
          5    1    4    4  501    0 -0.20416344469E+02 -0.49818548002E+02 -0.96626372258E+02  0.11069256101E+03  0.41800000000E+01 0. -1.
         -5    1    4    4    0  501 -0.35512099664E+02  0.30290776534E+02  0.15959071997E+02  0.49505603164E+02  0.41800000000E+01 0. -1.
</event>
<event>
11    1  0.7577197E-009  0.1358034E+03  0.7561462E-02  0.1112337E+00
         22   -1    0    0    0    0  0.00000000000E+00  0.00000000000E+00  0.27539405602E+03  0.27539405602E+03  0.00000000000E+00 0. -1.
         22   -1    0    0    0    0 -0.00000000000E+00 -0.00000000000E+00 -0.44213718016E+03  0.44213718016E+03  0.00000000000E+00 0. -1.
        -24    2    1    2    0    0  0.22317265138E+01  0.35976635053E+02 -0.33378748332E+03  0.34525530474E+03  0.80547144937E+02 0.  0.
         25    2    1    2    0    0 -0.39389658179E+02 -0.69506876905E+02 -0.31588277757E+02  0.15175077406E+03  0.12509087508E+03 0.  0.
         24    2    1    2    0    0  0.37157931665E+02  0.33530241852E+02  0.19863263693E+03  0.22052515738E+03  0.81678831897E+02 0.  0.
        -11    1    5    5    0    0  0.23385425815E+02  0.15600036843E+02  0.89525072821E+01  0.29502316463E+02  0.00000000000E+00 0.  1.
         12    1    5    5    0    0  0.13772505850E+02  0.17930205009E+02  0.18968012965E+03  0.19102284092E+03  0.00000000000E+00 0. -1.
         11    1    3    3    0    0 -0.13326545552E+02  0.19654506468E+02 -0.31503128332E+03  0.31592500045E+03  0.00000000000E+00 0. -1.
        -12    1    3    3    0    0  0.15558272066E+02  0.16322128585E+02 -0.18756200002E+02  0.29330304290E+02  0.00000000000E+00 0.  1.
          5    1    4    4  501    0  0.12964754836E+02 -0.29791030463E+02 -0.68739948721E+02  0.76146196978E+02  0.41800000000E+01 0.  1.
         -5    1    4    4    0  501 -0.52354413015E+02 -0.39715846442E+02  0.37151670964E+02  0.75604577085E+02  0.41800000000E+01 0.  1.
</event>
<event>
11    1  0.7577197E-009  0.1376940E+03  0.7561462E-02  0.1110161E+00
         22   -1    0    0    0    0  0.00000000000E+00  0.00000000000E+00  0.44097134087E+03  0.44097134087E+03  0.00000000000E+00 0. -1.
         22   -1    0    0    0    0 -0.00000000000E+00 -0.00000000000E+00 -0.19902208658E+04  0.19902208658E+04  0.00000000000E+00 0.  1.
        -24    2    1    2    0    0  0.13005127727E+02  0.43807566201E+02 -0.16158412112E+04  0.16184494188E+04  0.79670980908E+02 0.  0.
         25    2    1    2    0    0  0.28098100708E+02 -0.27227968284E+01 -0.35658737997E+03  0.37894552392E+03  0.12509290011E+03 0.  0.
         24    2    1    2    0    0 -0.41103228436E+02 -0.41084769373E+02  0.42317906618E+03  0.43379726402E+03  0.75644633303E+02 0.  0.
        -13    1    5    5    0    0 -0.43966161058E+02 -0.51441574819E+02  0.21627812846E+03  0.22661749224E+03  0.00000000000E+00 0.  1.
         14    1    5    5    0    0  0.28629326222E+01  0.10356805446E+02  0.20690093772E+03  0.20717977177E+03  0.00000000000E+00 0. -1.
         13    1    3    3    0    0  0.33724012870E+02 -0.60051905584E+01 -0.42117811398E+03  0.42256878144E+03  0.00000000000E+00 0. -1.
        -14    1    3    3    0    0 -0.20718885143E+02  0.49812756760E+02 -0.11946630972E+04  0.11958806373E+04  0.00000000000E+00 0.  1.
          5    1    4    4  501    0  0.34870043066E+02  0.41841552839E+01 -0.17082869583E+02  0.39277524006E+02  0.41800000000E+01 0. -1.
         -5    1    4    4    0  501 -0.67719423572E+01 -0.69069521123E+01 -0.33950451039E+03  0.33966799991E+03  0.41800000000E+01 0. -1.
</event>
<event>
11    1  0.7577197E-009  0.6851148E+03  0.7561462E-02  0.9054532E-01
         22   -1    0    0    0    0  0.00000000000E+00  0.00000000000E+00  0.97711395146E+03  0.97711395146E+03  0.00000000000E+00 0. -1.
         22   -1    0    0    0    0 -0.00000000000E+00 -0.00000000000E+00 -0.15097210984E+04  0.15097210984E+04  0.00000000000E+00 0. -1.
         24    2    1    2    0    0 -0.67896520079E+02  0.61280421393E+02 -0.43226079771E+03  0.44899216244E+03  0.79870753169E+02 0.  0.
         25    2    1    2    0    0 -0.17693955480E+02 -0.72263401896E+03 -0.78800575134E+03  0.10766214673E+04  0.12509084023E+03 0.  0.
        -24    2    1    2    0    0  0.85590475559E+02  0.66135359757E+03  0.68765940208E+03  0.96122142014E+03  0.79729886162E+02 0.  0.
        -13    1    3    3    0    0 -0.72259547841E+02  0.74378079282E+02 -0.33291498766E+03  0.34869174057E+03  0.00000000000E+00 0.  1.
         14    1    3    3    0    0  0.43630277619E+01 -0.13097657889E+02 -0.99345810046E+02  0.10030042187E+03  0.00000000000E+00 0. -1.
         11    1    5    5    0    0  0.93569956815E+02  0.44677949606E+03  0.45159688699E+03  0.64211136359E+03  0.00000000000E+00 0. -1.
        -12    1    5    5    0    0 -0.79794812556E+01  0.21457410151E+03  0.23606251509E+03  0.31911005655E+03  0.00000000000E+00 0.  1.
          5    1    4    4  501    0  0.44587278378E+02 -0.12807341723E+03 -0.13931180540E+03  0.19446356245E+03  0.41800000000E+01 0.  1.
         -5    1    4    4    0  501 -0.62281233858E+02 -0.59456060173E+03 -0.64869394594E+03  0.88215790486E+03  0.41800000000E+01 0.  1.
</event>
<event>
11    1  0.7577197E-009  0.1639091E+03  0.7561462E-02  0.1083457E+00
         22   -1    0    0    0    0  0.00000000000E+00  0.00000000000E+00  0.30521554090E+03  0.30521554090E+03  0.00000000000E+00 0. -1.
         22   -1    0    0    0    0 -0.00000000000E+00 -0.00000000000E+00 -0.88514872113E+03  0.88514872113E+03  0.00000000000E+00 0. -1.
        -24    2    1    2    0    0  0.94010022252E+02  0.29612028708E+02 -0.58221497923E+03  0.59615964991E+03  0.81959072758E+02 0.  0.
         25    2    1    2    0    0 -0.12527493596E+03 -0.58597898578E+02 -0.25815227613E+03  0.31848323657E+03  0.12514571909E+03 0.  0.
         24    2    1    2    0    0  0.31264913708E+02  0.28985869870E+02  0.26043407514E+03  0.27572137555E+03  0.79866726257E+02 0.  0.
        -11    1    5    5    0    0  0.58553832328E+01 -0.10198626538E+02  0.65550743423E+00  0.11778250552E+02  0.00000000000E+00 0.  1.
         12    1    5    5    0    0  0.25409530476E+02  0.39184496407E+02  0.25977856770E+03  0.26394312500E+03  0.00000000000E+00 0. -1.
         11    1    3    3    0    0  0.93395124078E+02  0.43291794066E+02 -0.38674470252E+03  0.40021031166E+03  0.00000000000E+00 0. -1.
        -12    1    3    3    0    0  0.61489817424E+00 -0.13679765358E+02 -0.19547027671E+03  0.19594933825E+03  0.00000000000E+00 0.  1.
          5    1    4    4  501    0  0.25517996613E+02 -0.48304494245E+01 -0.39438699999E+02  0.47406590790E+02  0.41800000000E+01 0. -1.
         -5    1    4    4    0  501 -0.15079293257E+03 -0.53767449153E+02 -0.21871357614E+03  0.27107664578E+03  0.41800000000E+01 0. -1.
</event>
<event>
11    1  0.7577197E-009  0.1641005E+03  0.7561462E-02  0.1083283E+00
         22   -1    0    0    0    0  0.00000000000E+00  0.00000000000E+00  0.19214505289E+03  0.19214505289E+03  0.00000000000E+00 0.  1.
         22   -1    0    0    0    0 -0.00000000000E+00 -0.00000000000E+00 -0.11603230218E+04  0.11603230218E+04  0.00000000000E+00 0. -1.
         24    2    1    2    0    0 -0.95399626508E+02  0.44020698926E+01 -0.59876433997E+03  0.61155474088E+03  0.79749603862E+02 0.  0.
         25    2    1    2    0    0  0.13211073047E+03  0.67143601543E+02 -0.51721610703E+03  0.55237867745E+03  0.12509273999E+03 0.  0.
        -24    2    1    2    0    0 -0.36711103966E+02 -0.71545671436E+02  0.14780247811E+03  0.18853465634E+03  0.85048549963E+02 0.  0.
        -13    1    3    3    0    0 -0.23488239450E+02  0.26164600933E+02 -0.80106227677E+02  0.87483092350E+02  0.00000000000E+00 0.  1.
         14    1    3    3    0    0 -0.71911387059E+02 -0.21762531041E+02 -0.51865811229E+03  0.52407164853E+03  0.00000000000E+00 0. -1.
         13    1    5    5    0    0 -0.29575048748E+02 -0.22008827701E+01  0.56233221366E+01  0.30185247146E+02  0.00000000000E+00 0. -1.
        -14    1    5    5    0    0 -0.71360552181E+01 -0.69344788666E+02  0.14217915597E+03  0.15834940920E+03  0.00000000000E+00 0.  1.
          5    1    4    4  501    0  0.14116133966E+03  0.71286589129E+02 -0.34183443444E+03  0.37666504295E+03  0.41800000000E+01 0. -1.
         -5    1    4    4    0  501 -0.90506091892E+01 -0.41429875861E+01 -0.17538167258E+03  0.17571363451E+03  0.41800000000E+01 0. -1.
</event>
<event>
11    1  0.7577197E-009  0.6026293E+03  0.7561462E-02  0.9189545E-01
         22   -1    0    0    0    0  0.00000000000E+00  0.00000000000E+00  0.27145141612E+04  0.27145141612E+04  0.00000000000E+00 0. -1.
         22   -1    0    0    0    0 -0.00000000000E+00 -0.00000000000E+00 -0.92720739838E+03  0.92720739838E+03  0.00000000000E+00 0.  1.
         24    2    1    2    0    0  0.90181632505E+02 -0.57683409394E+03 -0.69060670792E+03  0.90782787678E+03  0.79646280888E+02 0.  0.
         25    2    1    2    0    0 -0.79109940720E+02  0.62755374744E+03  0.69364995749E+03  0.94703724045E+03  0.12508869904E+03 0.  0.
        -24    2    1    2    0    0 -0.11071691785E+02 -0.50719653503E+02  0.17842635133E+04  0.17868564424E+04  0.81022189942E+02 0.  0.
        -11    1    3    3    0    0  0.11675036921E+02 -0.21807624140E+03 -0.21004642415E+03  0.30300668944E+03  0.00000000000E+00 0.  1.
         12    1    3    3    0    0  0.78506595584E+02 -0.35875785253E+03 -0.48056028377E+03  0.60482118733E+03  0.00000000000E+00 0. -1.
         13    1    5    5    0    0  0.48747746835E+01 -0.14326836905E+02  0.14716739980E+04  0.14717518058E+04  0.00000000000E+00 0. -1.
        -14    1    5    5    0    0 -0.15946466469E+02 -0.36392816599E+02  0.31258951533E+03  0.31510463657E+03  0.00000000000E+00 0.  1.
          5    1    4    4  501    0 -0.11179639961E+03  0.50543186481E+03  0.57348714124E+03  0.77257024179E+03  0.41800000000E+01 0.  1.
         -5    1    4    4    0  501  0.32686458894E+02  0.12212188263E+03  0.12016281625E+03  0.17446699866E+03  0.41800000000E+01 0.  1.
</event>
<event>
11    1  0.7577197E-009  0.1295193E+03  0.7561462E-02  0.1119861E+00
         22   -1    0    0    0    0  0.00000000000E+00  0.00000000000E+00  0.31713870611E+02  0.31713870611E+02  0.00000000000E+00 0.  1.
         22   -1    0    0    0    0 -0.00000000000E+00 -0.00000000000E+00 -0.41195863455E+04  0.41195863455E+04  0.00000000000E+00 0. -1.
         24    2    1    2    0    0 -0.31376592910E+02  0.12062413496E+02 -0.36583559662E+04  0.36593772714E+04  0.79647011867E+02 0.  0.
         25    2    1    2    0    0  0.19454238130E+02 -0.40933909829E+02 -0.35114220841E+03  0.37550054068E+03  0.12508298511E+03 0.  0.
        -24    2    1    2    0    0  0.11922354780E+02  0.28871496334E+02 -0.78374300317E+02  0.11642240409E+03  0.80224306667E+02 0.  0.
        -11    1    3    3    0    0 -0.89132701822E+01  0.35018797803E+02 -0.77455805905E+03  0.77540050905E+03  0.00000000000E+00 0.  1.
         12    1    3    3    0    0 -0.22463322728E+02 -0.22956384307E+02 -0.28837979071E+04  0.28839767623E+04  0.00000000000E+00 0. -1.
         13    1    5    5    0    0 -0.14387491467E+02 -0.23191871535E+02 -0.30770756594E+02  0.41130308501E+02  0.00000000000E+00 0. -1.
        -14    1    5    5    0    0  0.26309846247E+02  0.52063367869E+02 -0.47603543722E+02  0.75292095590E+02  0.00000000000E+00 0.  1.
          5    1    4    4  501    0 -0.32076300583E+01 -0.73790557893E+02 -0.12052993251E+03  0.14142231915E+03  0.41800000000E+01 0.  1.
         -5    1    4    4    0  501  0.22661868188E+02  0.32856648064E+02 -0.23061227591E+03  0.23407822152E+03  0.41800000000E+01 0.  1.
</event>
<event>
11    1  0.7577197E-009  0.1756234E+03  0.7561462E-02  0.1073239E+00
         22   -1    0    0    0    0  0.00000000000E+00  0.00000000000E+00  0.14349888941E+03  0.14349888941E+03  0.00000000000E+00 0. -1.
         22   -1    0    0    0    0 -0.00000000000E+00 -0.00000000000E+00 -0.80524070128E+03  0.80524070128E+03  0.00000000000E+00 0. -1.
        -24    2    1    2    0    0 -0.18672883854E+02 -0.10660958685E+03 -0.38863737726E+03  0.41116416713E+03  0.79389424534E+02 0.  0.
         25    2    1    2    0    0  0.82544725016E+02  0.14712189539E+03 -0.34390704763E+03  0.40296392172E+03  0.12509748625E+03 0.  0.
         24    2    1    2    0    0 -0.63871841162E+02 -0.40512308543E+02  0.70802613016E+02  0.13461150184E+03  0.85944093352E+02 0.  0.
        -11    1    5    5    0    0  0.44686454153E+01  0.19360473585E+02  0.27592054857E+02  0.34001738493E+02  0.00000000000E+00 0.  1.
         12    1    5    5    0    0 -0.68340486577E+02 -0.59872782127E+02  0.43210558159E+02  0.10060976335E+03  0.00000000000E+00 0. -1.
         11    1    3    3    0    0  0.30094576080E+02 -0.49219707082E+02 -0.19650685756E+03  0.20480041050E+03  0.00000000000E+00 0. -1.
        -12    1    3    3    0    0 -0.48767459934E+02 -0.57389879765E+02 -0.19213051971E+03  0.20636375663E+03  0.00000000000E+00 0.  1.
          5    1    4    4  501    0 -0.14653381999E+02  0.80331804505E+02 -0.82493978467E+02  0.11614925442E+03  0.41800000000E+01 0. -1.
         -5    1    4    4    0  501  0.97198107015E+02  0.66790090884E+02 -0.26141306916E+03  0.28681466730E+03  0.41800000000E+01 0. -1.
</event>
<event>
11    1  0.7577197E-009  0.1286625E+03  0.7561462E-02  0.1120923E+00
         22   -1    0    0    0    0  0.00000000000E+00  0.00000000000E+00  0.11509350396E+04  0.11509350396E+04  0.00000000000E+00 0. -1.
         22   -1    0    0    0    0 -0.00000000000E+00 -0.00000000000E+00 -0.12498002830E+03  0.12498002830E+03  0.00000000000E+00 0. -1.
         24    2    1    2    0    0 -0.28831471357E+02  0.34295987468E+01 -0.92435959819E+02  0.12555967730E+03  0.79861192134E+02 0.  0.
         25    2    1    2    0    0  0.28817845971E+02 -0.32875699611E+02  0.30606447444E+03  0.33350922548E+03  0.12506662665E+03 0.  0.
        -24    2    1    2    0    0  0.13625386489E-01  0.29446100864E+02  0.81232649669E+03  0.81684616511E+03  0.80599300176E+02 0.  0.
        -13    1    3    3    0    0 -0.39092447471E+02 -0.33519660495E+01 -0.77610059221E+01  0.39996104043E+02  0.00000000000E+00 0.  1.
         14    1    3    3    0    0  0.10260976114E+02  0.67815647963E+01 -0.84674953897E+02  0.85563573262E+02  0.00000000000E+00 0. -1.
         11    1    5    5    0    0 -0.11636600012E+01  0.56776501809E+02  0.61799523100E+03  0.62059892910E+03  0.00000000000E+00 0. -1.
        -12    1    5    5    0    0  0.11772853876E+01 -0.27330400945E+02  0.19433126569E+03  0.19624723601E+03  0.00000000000E+00 0.  1.
          5    1    4    4  501    0 -0.32934543143E+02  0.29441611270E+02  0.92642291708E+02  0.10272078280E+03  0.41800000000E+01 0.  1.
         -5    1    4    4    0  501  0.61752389114E+02 -0.62317310881E+02  0.21342218273E+03  0.23078844268E+03  0.41800000000E+01 0.  1.
</event>
<event>
11    1  0.7577197E-009  0.1328786E+03  0.7561462E-02  0.1115782E+00
         22   -1    0    0    0    0  0.00000000000E+00  0.00000000000E+00  0.37370372201E+03  0.37370372201E+03  0.00000000000E+00 0.  1.
         22   -1    0    0    0    0 -0.00000000000E+00 -0.00000000000E+00 -0.12807949119E+04  0.12807949119E+04  0.00000000000E+00 0. -1.
        -24    2    1    2    0    0 -0.43322709301E+02 -0.11180800578E+01 -0.99192402260E+03  0.99611834302E+03  0.80376485628E+02 0.  0.
         25    2    1    2    0    0  0.56117306409E+02 -0.42188338093E+02 -0.26273295758E+03  0.29935049843E+03  0.12511237333E+03 0.  0.
         24    2    1    2    0    0 -0.12794597108E+02  0.43306418151E+02  0.34756579025E+03  0.35902979250E+03  0.77854131433E+02 0.  0.
        -13    1    5    5    0    0 -0.54063004978E+01  0.58904750756E+02  0.32641054073E+03  0.33172705474E+03  0.00000000000E+00 0.  1.
         14    1    5    5    0    0 -0.73882966103E+01 -0.15598332605E+02  0.21155249520E+02  0.27302737758E+02  0.00000000000E+00 0. -1.
         13    1    3    3    0    0  0.13679567783E+02 -0.19745587951E+02 -0.49605713006E+03  0.49663839471E+03  0.00000000000E+00 0. -1.
        -14    1    3    3    0    0 -0.57002277084E+02  0.18627507893E+02 -0.49586689254E+03  0.49947994831E+03  0.00000000000E+00 0.  1.
          5    1    4    4  501    0  0.44779445276E+02 -0.16557110581E+02 -0.26649049228E+03  0.27076556558E+03  0.41800000000E+01 0. -1.
         -5    1    4    4    0  501  0.11337861133E+02 -0.25631227513E+02  0.37575346954E+01  0.28584932847E+02  0.41800000000E+01 0. -1.
</event>
<event>
11    1  0.7577197E-009  0.1271894E+03  0.7561462E-02  0.1122771E+00
         22   -1    0    0    0    0  0.00000000000E+00  0.00000000000E+00  0.18280780553E+02  0.18280780553E+02  0.00000000000E+00 0. -1.
         22   -1    0    0    0    0 -0.00000000000E+00 -0.00000000000E+00 -0.25455504737E+04  0.25455504737E+04  0.00000000000E+00 0. -1.
        -24    2    1    2    0    0 -0.56514565656E+01  0.15419513271E+02 -0.12664881312E+04  0.12690981020E+04  0.79675000473E+02 0.  0.
         25    2    1    2    0    0 -0.10741539172E+02 -0.30596123722E+02 -0.11390933654E+04  0.11463988777E+04  0.12508072715E+03 0.  0.
         24    2    1    2    0    0  0.16392995737E+02  0.15176610451E+02 -0.12168819659E+03  0.14833427456E+03  0.81828968013E+02 0.  0.
        -11    1    5    5    0    0 -0.30086035004E+02 -0.10107250264E+02 -0.41087942918E+02  0.51918638883E+02  0.00000000000E+00 0.  1.
         12    1    5    5    0    0  0.46479030741E+02  0.25283860715E+02 -0.80600253676E+02  0.96415635681E+02  0.00000000000E+00 0. -1.
         11    1    3    3    0    0  0.83190406375E+01 -0.13841042158E+02 -0.10563221848E+04  0.10564456157E+04  0.00000000000E+00 0. -1.
        -12    1    3    3    0    0 -0.13970497203E+02  0.29260555429E+02 -0.21016594640E+03  0.21265248628E+03  0.00000000000E+00 0.  1.
          5    1    4    4  501    0 -0.35550370684E+02  0.40332979021E+02 -0.46325306848E+03  0.46638123452E+03  0.41800000000E+01 0. -1.
         -5    1    4    4    0  501  0.24808831512E+02 -0.70929102743E+02 -0.67584029690E+03  0.68001764319E+03  0.41800000000E+01 0. -1.
</event>
<event>
11    1  0.7577197E-009  0.2503170E+03  0.7561462E-02  0.1023730E+00
         22   -1    0    0    0    0  0.00000000000E+00  0.00000000000E+00  0.14854255284E+04  0.14854255284E+04  0.00000000000E+00 0.  1.
         22   -1    0    0    0    0 -0.00000000000E+00 -0.00000000000E+00 -0.74568422815E+02  0.74568422815E+02  0.00000000000E+00 0.  1.
        -24    2    1    2    0    0  0.19746358007E+03  0.12203778661E+03  0.22411604118E+03  0.33174842924E+03  0.77096910255E+02 0.  0.
         25    2    1    2    0    0 -0.13461339416E+03 -0.10821193555E+03  0.80589765754E+03  0.83363581930E+03  0.12508819251E+03 0.  0.
         24    2    1    2    0    0 -0.62850185916E+02 -0.13825851059E+02  0.38084340687E+03  0.39460970268E+03  0.80832028728E+02 0.  0.
        -13    1    5    5    0    0 -0.65532346846E+02  0.18188991568E+02  0.20893982041E+03  0.21972978053E+03  0.00000000000E+00 0.  1.
         14    1    5    5    0    0  0.26821609300E+01 -0.32014842627E+02  0.17190358645E+03  0.17487992215E+03  0.00000000000E+00 0. -1.
         11    1    3    3    0    0  0.45084303607E+02  0.28053328713E+02  0.10212610533E+03  0.11510571260E+03  0.00000000000E+00 0. -1.
        -12    1    3    3    0    0  0.15237927647E+03  0.93984457899E+02  0.12198993585E+03  0.21664271664E+03  0.00000000000E+00 0.  1.
          5    1    4    4  501    0 -0.92385315399E+01 -0.84516068365E+02  0.29564927763E+03  0.30765936365E+03  0.41800000000E+01 0.  1.
         -5    1    4    4    0  501 -0.12537486262E+03 -0.23695867187E+02  0.51024837991E+03  0.52597645565E+03  0.41800000000E+01 0.  1.
</event>
<event>
11    1  0.7577197E-009  0.1582533E+03  0.7561462E-02  0.1088732E+00
         22   -1    0    0    0    0  0.00000000000E+00  0.00000000000E+00  0.23107894415E+03  0.23107894415E+03  0.00000000000E+00 0.  1.
         22   -1    0    0    0    0 -0.00000000000E+00 -0.00000000000E+00 -0.67334896099E+03  0.67334896099E+03  0.00000000000E+00 0.  1.
         24    2    1    2    0    0 -0.55698322100E+01 -0.72363259185E+02 -0.57091051796E+03  0.58121309900E+03  0.81255046768E+02 0.  0.
         25    2    1    2    0    0 -0.57970258417E+02  0.11718806443E+03  0.88461695465E+02  0.20140710940E+03  0.12508300782E+03 0.  0.
        -24    2    1    2    0    0  0.63540090627E+02 -0.44824805245E+02  0.40178805655E+02  0.12180769674E+03  0.84712291198E+02 0.  0.
        -11    1    3    3    0    0 -0.21175339226E+02 -0.80926607951E+02 -0.53051411937E+03  0.53706865642E+03  0.00000000000E+00 0.  1.
         12    1    3    3    0    0  0.15605507016E+02  0.85633487663E+01 -0.40396398592E+02  0.44144442579E+02  0.00000000000E+00 0. -1.
         11    1    5    5    0    0 -0.84389228239E+00  0.10108936090E+02 -0.16909638963E+02  0.19718991681E+02  0.00000000000E+00 0. -1.
        -12    1    5    5    0    0  0.64383982910E+02 -0.54933741335E+02  0.57088444618E+02  0.10208870506E+03  0.00000000000E+00 0.  1.
          5    1    4    4  501    0 -0.69387345229E+02  0.73740710557E+01  0.26680846180E+02  0.74821925628E+02  0.41800000000E+01 0.  1.
         -5    1    4    4    0  501  0.11417086812E+02  0.10981399337E+03  0.61780849284E+02  0.12658518377E+03  0.41800000000E+01 0.  1.
</event>
<event>
11    1  0.7577197E-009  0.1532788E+03  0.7561462E-02  0.1093575E+00
         22   -1    0    0    0    0  0.00000000000E+00  0.00000000000E+00  0.44818626293E+03  0.44818626293E+03  0.00000000000E+00 0.  1.
         22   -1    0    0    0    0 -0.00000000000E+00 -0.00000000000E+00 -0.67838713860E+03  0.67838713860E+03  0.00000000000E+00 0. -1.
         24    2    1    2    0    0  0.68948778992E+02 -0.58305473560E+02 -0.53680519139E+03  0.55063688455E+03  0.82992184868E+02 0.  0.
         25    2    1    2    0    0 -0.16228728967E+02  0.95083051222E+02 -0.79031756883E+02  0.17662818477E+03  0.12508932322E+03 0.  0.
        -24    2    1    2    0    0 -0.52720050025E+02 -0.36777577662E+02  0.38563607260E+03  0.39930833222E+03  0.81240198151E+02 0.  0.
        -13    1    3    3    0    0  0.60224482166E+02 -0.74575579030E+02 -0.34894342469E+03  0.36187016853E+03  0.00000000000E+00 0.  1.
         14    1    3    3    0    0  0.87242968267E+01  0.16270105470E+02 -0.18786176670E+03  0.18876671602E+03  0.00000000000E+00 0. -1.
         11    1    5    5    0    0 -0.16442779340E+02 -0.45674780165E+02  0.99133798536E+02  0.11038143208E+03  0.00000000000E+00 0. -1.
        -12    1    5    5    0    0 -0.36277270685E+02  0.88972025031E+01  0.28650227406E+03  0.28892690014E+03  0.00000000000E+00 0.  1.
          5    1    4    4  501    0  0.32544713242E+02  0.88519959668E+02 -0.14730834752E+02  0.95547953992E+02  0.41800000000E+01 0.  1.
         -5    1    4    4    0  501 -0.48773442209E+02  0.65630915539E+01 -0.64300922131E+02  0.81080230775E+02  0.41800000000E+01 0.  1.
</event>
<event>
11    1  0.7577197E-009  0.1627995E+03  0.7561462E-02  0.1084473E+00
         22   -1    0    0    0    0  0.00000000000E+00  0.00000000000E+00  0.14529743773E+03  0.14529743773E+03  0.00000000000E+00 0.  1.
         22   -1    0    0    0    0 -0.00000000000E+00 -0.00000000000E+00 -0.20292997440E+04  0.20292997440E+04  0.00000000000E+00 0.  1.
         24    2    1    2    0    0 -0.92658560919E+02  0.42527037247E+02 -0.17502711068E+04  0.17550683291E+04  0.80135726693E+02 0.  0.
         25    2    1    2    0    0  0.10912009624E+03 -0.93009375319E+02 -0.21673731795E+03  0.28839313578E+03  0.12505037573E+03 0.  0.
        -24    2    1    2    0    0 -0.16461535319E+02  0.50482338072E+02  0.83006118556E+02  0.13113571678E+03  0.86528098881E+02 0.  0.
        -11    1    3    3    0    0 -0.10005252944E+03  0.41735259355E+02 -0.17313163806E+04  0.17347071080E+04  0.00000000000E+00 0.  1.
         12    1    3    3    0    0  0.73939685167E+01  0.79177789139E+00 -0.18954726191E+02  0.20361221173E+02  0.00000000000E+00 0. -1.
         11    1    5    5    0    0 -0.25099779238E+01 -0.70817924032E+01 -0.14911458513E+02  0.16697406020E+02  0.00000000000E+00 0. -1.
        -12    1    5    5    0    0 -0.13951557395E+02  0.57564130475E+02  0.97917577068E+02  0.11443831076E+03  0.00000000000E+00 0.  1.
          5    1    4    4  501    0  0.11908909852E+03 -0.79154840903E+02 -0.22679634980E+03  0.26814503335E+03  0.41800000000E+01 0. -1.
         -5    1    4    4    0  501 -0.99690022827E+01 -0.13854534416E+02  0.10059031848E+02  0.20248102433E+02  0.41800000000E+01 0. -1.
</event>
<event>
11    1  0.7577197E-009  0.2843442E+03  0.7561462E-02  0.1007044E+00
         22   -1    0    0    0    0  0.00000000000E+00  0.00000000000E+00  0.33683831451E+04  0.33683831451E+04  0.00000000000E+00 0.  1.
         22   -1    0    0    0    0 -0.00000000000E+00 -0.00000000000E+00 -0.12954704381E+04  0.12954704381E+04  0.00000000000E+00 0.  1.
         24    2    1    2    0    0  0.20138966245E+03 -0.15635344873E+03 -0.12631632948E+04  0.12912679363E+04  0.82384323735E+02 0.  0.
         25    2    1    2    0    0 -0.19995121519E+03  0.23675344718E+03  0.16998073936E+04  0.17323467778E+04  0.12508996866E+03 0.  0.
        -24    2    1    2    0    0 -0.14384472558E+01 -0.80399998454E+02  0.16362686083E+04  0.16402388691E+04  0.80884856870E+02 0.  0.
        -11    1    3    3    0    0  0.13286721120E+03 -0.14739859498E+03 -0.96650872500E+03  0.98667074403E+03  0.00000000000E+00 0.  1.
         12    1    3    3    0    0  0.68522451250E+02 -0.89548537536E+01 -0.29665456983E+03  0.30459719226E+03  0.00000000000E+00 0. -1.
         13    1    5    5    0    0  0.32276816766E+02 -0.70128602766E+01  0.42589299497E+03  0.42717188142E+03  0.00000000000E+00 0. -1.
        -14    1    5    5    0    0 -0.33715264022E+02 -0.73387138177E+02  0.12103756134E+04  0.12130669876E+04  0.00000000000E+00 0.  1.
          5    1    4    4  501    0 -0.96719230139E+02  0.59365374852E+02  0.87681423554E+03  0.88413773432E+03  0.41800000000E+01 0.  1.
         -5    1    4    4    0  501 -0.10323198505E+03  0.17738807233E+03  0.82299315801E+03  0.84820904350E+03  0.41800000000E+01 0.  1.
</event>
<event>
11    1  0.7577197E-009  0.1481387E+03  0.7561462E-02  0.1098796E+00
         22   -1    0    0    0    0  0.00000000000E+00  0.00000000000E+00  0.19225928323E+03  0.19225928323E+03  0.00000000000E+00 0. -1.
         22   -1    0    0    0    0 -0.00000000000E+00 -0.00000000000E+00 -0.35844414283E+03  0.35844414283E+03  0.00000000000E+00 0. -1.
         24    2    1    2    0    0  0.74356032110E+01 -0.43298521122E+00 -0.23344366148E+03  0.24709116371E+03  0.80638851852E+02 0.  0.
         25    2    1    2    0    0  0.16386968447E+02 -0.75824256037E+02 -0.35876427394E+02  0.15149940216E+03  0.12508836985E+03 0.  0.
        -24    2    1    2    0    0 -0.23822571658E+02  0.76257241248E+02  0.10313522927E+03  0.15211286019E+03  0.78222534844E+02 0.  0.
        -13    1    3    3    0    0  0.31214383019E+02  0.14258308277E+01 -0.33810608341E+02  0.46038331173E+02  0.00000000000E+00 0.  1.
         14    1    3    3    0    0 -0.23778779808E+02 -0.18588160389E+01 -0.19963305313E+03  0.20105283253E+03  0.00000000000E+00 0. -1.
         13    1    5    5    0    0 -0.72072020651E+01  0.86123854858E+02  0.61079252658E+02  0.10582975594E+03  0.00000000000E+00 0. -1.
        -14    1    5    5    0    0 -0.16615369593E+02 -0.98666136093E+01  0.42055976610E+02  0.46283104254E+02  0.00000000000E+00 0.  1.
          5    1    4    4  501    0 -0.15795145714E+02  0.23107024374E+02 -0.37974987171E+02  0.47360249727E+02  0.41800000000E+01 0.  1.
         -5    1    4    4    0  501  0.32182114161E+02 -0.98931280411E+02  0.20985597772E+01  0.10413915243E+03  0.41800000000E+01 0.  1.
</event>
<event>
11    1  0.7577197E-009  0.1714118E+03  0.7561462E-02  0.1076810E+00
         22   -1    0    0    0    0  0.00000000000E+00  0.00000000000E+00  0.99778783631E+02  0.99778783631E+02  0.00000000000E+00 0.  1.
         22   -1    0    0    0    0 -0.00000000000E+00 -0.00000000000E+00 -0.15294805119E+04  0.15294805119E+04  0.00000000000E+00 0. -1.
         24    2    1    2    0    0 -0.13997405234E+02 -0.28936424891E+01 -0.10704820025E+04  0.10736690750E+04  0.81420294888E+02 0.  0.
         25    2    1    2    0    0  0.25944182391E+02 -0.11387661791E+03 -0.37531484882E+03  0.41249200564E+03  0.12508970488E+03 0.  0.
        -24    2    1    2    0    0 -0.11946777158E+02  0.11677026040E+03  0.16095123015E+02  0.14309821492E+03  0.80249778382E+02 0.  0.
        -11    1    3    3    0    0 -0.34407098998E+02  0.53498129013E+01 -0.20712404624E+03  0.21003056799E+03  0.00000000000E+00 0.  1.
         12    1    3    3    0    0  0.20409693764E+02 -0.82434553904E+01 -0.86335795624E+03  0.86363850699E+03  0.00000000000E+00 0. -1.
         11    1    5    5    0    0  0.15646127731E+02 -0.49298977459E+01 -0.35177174487E+01  0.16777352020E+02  0.00000000000E+00 0. -1.
        -12    1    5    5    0    0 -0.27592904889E+02  0.12170015815E+03  0.19612840464E+02  0.12632086290E+03  0.00000000000E+00 0.  1.
          5    1    4    4  501    0 -0.29042118657E+02 -0.70880156901E+01 -0.18470122283E+03  0.18715153950E+03  0.41800000000E+01 0. -1.
         -5    1    4    4    0  501  0.54986301048E+02 -0.10678860222E+03 -0.19061362599E+03  0.22534046614E+03  0.41800000000E+01 0. -1.
</event>
<event>
11    1  0.7577197E-009  0.1571153E+03  0.7561462E-02  0.1089822E+00
         22   -1    0    0    0    0  0.00000000000E+00  0.00000000000E+00  0.22982726636E+03  0.22982726636E+03  0.00000000000E+00 0. -1.
         22   -1    0    0    0    0 -0.00000000000E+00 -0.00000000000E+00 -0.36225606770E+03  0.36225606770E+03  0.00000000000E+00 0. -1.
        -24    2    1    2    0    0 -0.44847589042E+02  0.81810530213E+02 -0.13675618094E+03  0.18359728666E+03  0.79381619700E+02 0.  0.
         25    2    1    2    0    0  0.70596097114E+02 -0.70720724415E+02 -0.15826778657E+03  0.22511664188E+03  0.12507429951E+03 0.  0.
         24    2    1    2    0    0 -0.25748508072E+02 -0.11089805798E+02  0.16259516616E+03  0.18336940551E+03  0.80007383148E+02 0.  0.
        -11    1    5    5    0    0 -0.26420144859E+01 -0.42001237021E+02  0.11262630134E+03  0.12023214174E+03  0.00000000000E+00 0.  1.
         12    1    5    5    0    0 -0.23106493586E+02  0.30911431223E+02  0.49968864820E+02  0.63137263779E+02  0.00000000000E+00 0. -1.
         11    1    3    3    0    0 -0.53302375407E+02  0.89615067536E+02 -0.97727765280E+02  0.14290808116E+03  0.00000000000E+00 0. -1.
        -12    1    3    3    0    0  0.84547863656E+01 -0.78045373230E+01 -0.39028415658E+02  0.40689205499E+02  0.00000000000E+00 0.  1.
          5    1    4    4  501    0 -0.59536705031E+01 -0.67822932572E+02 -0.12306982813E+03  0.14070910195E+03  0.41800000000E+01 0.  1.
         -5    1    4    4    0  501  0.76549767617E+02 -0.28977918438E+01 -0.35197958437E+02  0.84407539935E+02  0.41800000000E+01 0.  1.
</event>
<event>
11    1  0.7577197E-009  0.2357462E+03  0.7561462E-02  0.1031779E+00
         22   -1    0    0    0    0  0.00000000000E+00  0.00000000000E+00  0.51876096934E+02  0.51876096934E+02  0.00000000000E+00 0. -1.
         22   -1    0    0    0    0 -0.00000000000E+00 -0.00000000000E+00 -0.25269118952E+04  0.25269118952E+04  0.00000000000E+00 0. -1.
        -24    2    1    2    0    0 -0.19246137109E+03  0.33070850537E+02 -0.18351782732E+04  0.18472757142E+04  0.80082516561E+02 0.  0.
         25    2    1    2    0    0  0.21828325807E+03 -0.66409807034E+02 -0.43729507455E+03  0.50885424988E+03  0.12509125535E+03 0.  0.
         24    2    1    2    0    0 -0.25821886982E+02  0.33338956498E+02 -0.20256245049E+03  0.22265802800E+03  0.82260532555E+02 0.  0.
        -11    1    5    5    0    0 -0.20901407877E+01  0.57478911619E+02 -0.11057578219E+03  0.12464027269E+03  0.00000000000E+00 0.  1.
         12    1    5    5    0    0 -0.23731746194E+02 -0.24139955122E+02 -0.91986668301E+02  0.98017755309E+02  0.00000000000E+00 0. -1.
         11    1    3    3    0    0 -0.26859614234E+02  0.21291565561E+02 -0.14649990673E+03  0.15045594808E+03  0.00000000000E+00 0. -1.
        -12    1    3    3    0    0 -0.16560175686E+03  0.11779284976E+02 -0.16886783665E+04  0.16968197661E+04  0.00000000000E+00 0.  1.
          5    1    4    4  501    0  0.21407455304E+03 -0.80258463045E+02 -0.33588871080E+03  0.40633487863E+03  0.41800000000E+01 0. -1.
         -5    1    4    4    0  501  0.42087050329E+01  0.13848656011E+02 -0.10140636375E+03  0.10251937125E+03  0.41800000000E+01 0. -1.
</event>
<event>
11    1  0.7577197E-009  0.1519056E+03  0.7561462E-02  0.1094947E+00
         22   -1    0    0    0    0  0.00000000000E+00  0.00000000000E+00  0.14580008885E+04  0.14580008885E+04  0.00000000000E+00 0. -1.
         22   -1    0    0    0    0 -0.00000000000E+00 -0.00000000000E+00 -0.22746360673E+04  0.22746360673E+04  0.00000000000E+00 0.  1.
         24    2    1    2    0    0 -0.46581545010E+02  0.71820716443E+02 -0.22000604311E+04  0.22031956272E+04  0.80479907584E+02 0.  0.
         25    2    1    2    0    0  0.63849802884E+02 -0.11071188762E+03  0.40446605803E+02  0.18335033550E+03  0.12508996050E+03 0.  0.
        -24    2    1    2    0    0 -0.17268257874E+02  0.38891171179E+02  0.13429786465E+04  0.13460909931E+04  0.80985188589E+02 0.  0.
        -11    1    3    3    0    0 -0.58537682867E+02  0.18585979646E+02 -0.13395253870E+04  0.13409326461E+04  0.00000000000E+00 0.  1.
         12    1    3    3    0    0  0.11956137857E+02  0.53234736798E+02 -0.86053504410E+03  0.86226298109E+03  0.00000000000E+00 0. -1.
         13    1    5    5    0    0  0.25473001969E+01  0.50474597333E+02  0.45198120708E+03  0.45479796094E+03  0.00000000000E+00 0. -1.
        -14    1    5    5    0    0 -0.19815558071E+02 -0.11583426154E+02  0.89099743944E+03  0.89129303216E+03  0.00000000000E+00 0.  1.
          5    1    4    4  501    0  0.20227471704E+02  0.22884262784E+02  0.28936078062E+02  0.42280126635E+02  0.41800000000E+01 0. -1.
         -5    1    4    4    0  501  0.43622331180E+02 -0.13359615041E+03  0.11510527741E+02  0.14107020887E+03  0.41800000000E+01 0. -1.
</event>
<event>
11    1  0.7577197E-009  0.2206734E+03  0.7561462E-02  0.1040796E+00
         22   -1    0    0    0    0  0.00000000000E+00  0.00000000000E+00  0.49427330571E+03  0.49427330571E+03  0.00000000000E+00 0. -1.
         22   -1    0    0    0    0 -0.00000000000E+00 -0.00000000000E+00 -0.60711841482E+03  0.60711841482E+03  0.00000000000E+00 0.  1.
        -24    2    1    2    0    0  0.29385330376E+02  0.11748278267E+02 -0.31232264468E+03  0.32395571109E+03  0.80002179243E+02 0.  0.
         25    2    1    2    0    0  0.15274407537E+03  0.15740548338E+02 -0.22969652253E+03  0.30329204773E+03  0.12508819422E+03 0.  0.
         24    2    1    2    0    0 -0.18212940575E+03 -0.27488826605E+02  0.42917405810E+03  0.47414396170E+03  0.81825229877E+02 0.  0.
        -13    1    5    5    0    0 -0.13260694577E+03 -0.46312063861E+02  0.24401014476E+03  0.28154992466E+03  0.00000000000E+00 0.  1.
         14    1    5    5    0    0 -0.49522459975E+02  0.18823237257E+02  0.18516391333E+03  0.19259403704E+03  0.00000000000E+00 0. -1.
         11    1    3    3    0    0  0.51235672410E+02 -0.50372906104E+01 -0.13459856019E+03  0.14410843427E+03  0.00000000000E+00 0. -1.
        -12    1    3    3    0    0 -0.21850342033E+02  0.16785568877E+02 -0.17772408449E+03  0.17984727682E+03  0.00000000000E+00 0.  1.
          5    1    4    4  501    0 -0.11460788286E+02  0.30435800193E+02 -0.31647065436E+02  0.45570788365E+02  0.41800000000E+01 0.  1.
         -5    1    4    4    0  501  0.16420486366E+03 -0.14695251855E+02 -0.19804945709E+03  0.25772125937E+03  0.41800000000E+01 0.  1.
</event>
<event>
11    1  0.7577197E-009  0.1946078E+03  0.7561462E-02  0.1058404E+00
         22   -1    0    0    0    0  0.00000000000E+00  0.00000000000E+00  0.18688213322E+04  0.18688213322E+04  0.00000000000E+00 0. -1.
         22   -1    0    0    0    0 -0.00000000000E+00 -0.00000000000E+00 -0.46094207693E+03  0.46094207693E+03  0.00000000000E+00 0. -1.
        -24    2    1    2    0    0  0.25295187469E+02  0.14796704512E+03 -0.38761520881E+03  0.42361822832E+03  0.81686965398E+02 0.  0.
         25    2    1    2    0    0 -0.53184565363E+02 -0.13216382992E+03  0.11154817763E+03  0.21997055682E+03  0.12509266167E+03 0.  0.
         24    2    1    2    0    0  0.27889377894E+02 -0.15803215205E+02  0.16839462864E+04  0.16861746240E+04  0.80512160126E+02 0.  0.
        -13    1    5    5    0    0  0.27568479080E+02  0.98155778688E+01  0.21252355016E+03  0.21452884650E+03  0.00000000000E+00 0.  1.
         14    1    5    5    0    0  0.32089881344E+00 -0.25618793074E+02  0.14714227363E+04  0.14716457775E+04  0.00000000000E+00 0. -1.
         11    1    3    3    0    0  0.20176841297E+02  0.65143811920E+02 -0.27738361024E+03  0.28564398889E+03  0.00000000000E+00 0. -1.
        -12    1    3    3    0    0  0.51183461725E+01  0.82823233200E+02 -0.11023159857E+03  0.13797423944E+03  0.00000000000E+00 0.  1.
          5    1    4    4  501    0 -0.84695641599E+02 -0.53462225715E+02  0.83841202648E+02  0.13068427964E+03  0.41800000000E+01 0. -1.
         -5    1    4    4    0  501  0.31511076236E+02 -0.78701604200E+02  0.27706974978E+02  0.89286277175E+02  0.41800000000E+01 0. -1.
</event>
<event>
11    1  0.7577197E-009  0.1595858E+03  0.7561462E-02  0.1087468E+00
         22   -1    0    0    0    0  0.00000000000E+00  0.00000000000E+00  0.14196098432E+04  0.14196098432E+04  0.00000000000E+00 0. -1.
         22   -1    0    0    0    0 -0.00000000000E+00 -0.00000000000E+00 -0.80824472238E+03  0.80824472238E+03  0.00000000000E+00 0.  1.
        -24    2    1    2    0    0  0.33854598858E+02  0.47295708375E+02 -0.74987403941E+03  0.75634772466E+03  0.79798419231E+02 0.  0.
         25    2    1    2    0    0 -0.70826817378E+02  0.46589247778E+02  0.58065563740E+02  0.16188370691E+03  0.12509088218E+03 0.  0.
         24    2    1    2    0    0  0.36972218521E+02 -0.93884956153E+02  0.13031735965E+04  0.13096231340E+04  0.81670071745E+02 0.  0.
        -13    1    5    5    0    0  0.17315498861E+02 -0.32089603937E+02  0.93991181749E+03  0.94061883558E+03  0.00000000000E+00 0.  1.
         14    1    5    5    0    0  0.19656719660E+02 -0.61795352216E+02  0.36326177901E+03  0.36900429845E+03  0.00000000000E+00 0. -1.
         13    1    3    3    0    0  0.37185973585E+02  0.31294122877E+02 -0.18625284412E+03  0.19248958595E+03  0.00000000000E+00 0. -1.
        -14    1    3    3    0    0 -0.33313747275E+01  0.16001585498E+02 -0.56362119529E+03  0.56385813870E+03  0.00000000000E+00 0.  1.
          5    1    4    4  501    0 -0.65889038686E+01  0.12358649222E+02 -0.38329312068E+02  0.41021438644E+02  0.41800000000E+01 0.  1.
         -5    1    4    4    0  501 -0.64237913510E+02  0.34230598556E+02  0.96394875808E+02  0.12086226827E+03  0.41800000000E+01 0.  1.
</event>
<event>
11    1  0.7577197E-009  0.1333288E+03  0.7561462E-02  0.1115245E+00
         22   -1    0    0    0    0  0.00000000000E+00  0.00000000000E+00  0.47957431408E+03  0.47957431408E+03  0.00000000000E+00 0.  1.
         22   -1    0    0    0    0 -0.00000000000E+00 -0.00000000000E+00 -0.24852276464E+03  0.24852276464E+03  0.00000000000E+00 0.  1.
         24    2    1    2    0    0 -0.27152371787E+02 -0.10476843675E+02 -0.20414334119E+03  0.22191457544E+03  0.82003411483E+02 0.  0.
         25    2    1    2    0    0  0.65179578956E+02 -0.75977815268E+01  0.14523090050E+03  0.20260127899E+03  0.12509660264E+03 0.  0.
        -24    2    1    2    0    0 -0.38027207169E+02  0.18074625201E+02  0.28996399012E+03  0.30358122429E+03  0.79433516945E+02 0.  0.
        -11    1    3    3    0    0 -0.15555734116E+02  0.25874200625E+02 -0.16311734108E+03  0.16588767911E+03  0.00000000000E+00 0.  1.
         12    1    3    3    0    0 -0.11596637671E+02 -0.36351044299E+02 -0.41026000109E+02  0.56026896326E+02  0.00000000000E+00 0. -1.
         11    1    5    5    0    0  0.36602448257E+01 -0.11090744831E+02  0.28868370242E+01  0.12030620977E+02  0.00000000000E+00 0. -1.
        -12    1    5    5    0    0 -0.41687451995E+02  0.29165370032E+02  0.28707715310E+03  0.29155060331E+03  0.00000000000E+00 0.  1.
          5    1    4    4  501    0  0.29495771131E+02 -0.55068774650E+02  0.12486014240E+03  0.13967855246E+03  0.41800000000E+01 0.  1.
         -5    1    4    4    0  501  0.35683807825E+02  0.47470993123E+02  0.20370758098E+02  0.62922726534E+02  0.41800000000E+01 0.  1.
</event>
<event>
11    1  0.7577197E-009  0.1438537E+03  0.7561462E-02  0.1103330E+00
         22   -1    0    0    0    0  0.00000000000E+00  0.00000000000E+00  0.51342805165E+03  0.51342805165E+03  0.00000000000E+00 0. -1.
         22   -1    0    0    0    0 -0.00000000000E+00 -0.00000000000E+00 -0.73210192814E+03  0.73210192814E+03  0.00000000000E+00 0.  1.
         24    2    1    2    0    0  0.27873479694E+02 -0.30208975061E+02 -0.64820018922E+03  0.65444639820E+03  0.80293771706E+02 0.  0.
         25    2    1    2    0    0  0.22615138349E+02 -0.24472276204E+02 -0.17674829365E+02  0.13064275187E+03  0.12507914390E+03 0.  0.
        -24    2    1    2    0    0 -0.50488618043E+02  0.54681251265E+02  0.44720114210E+03  0.46044082972E+03  0.80484510225E+02 0.  0.
        -13    1    3    3    0    0  0.21524002961E+02  0.13529842851E+02 -0.47554272278E+03  0.47622181863E+03  0.00000000000E+00 0.  1.
         14    1    3    3    0    0  0.63494767330E+01 -0.43738817912E+02 -0.17265746644E+03  0.17822457958E+03  0.00000000000E+00 0. -1.
         11    1    5    5    0    0  0.12233324030E+02  0.29515162541E+02  0.24884421829E+03  0.25088691479E+03  0.00000000000E+00 0. -1.
        -12    1    5    5    0    0 -0.62721942073E+02  0.25166088723E+02  0.19835692381E+03  0.20955391493E+03  0.00000000000E+00 0.  1.
          5    1    4    4  501    0 -0.25593655166E+02  0.30821746979E+02 -0.36969487010E+02  0.54673857019E+02  0.41800000000E+01 0.  1.
         -5    1    4    4    0  501  0.48208793514E+02 -0.55294023183E+02  0.19294657644E+02  0.75968894855E+02  0.41800000000E+01 0.  1.
</event>
<event>
11    1  0.7577197E-009  0.8060181E+03  0.7561462E-02  0.8889175E-01
         22   -1    0    0    0    0  0.00000000000E+00  0.00000000000E+00  0.74285147534E+03  0.74285147534E+03  0.00000000000E+00 0.  1.
         22   -1    0    0    0    0 -0.00000000000E+00 -0.00000000000E+00 -0.15213739835E+04  0.15213739835E+04  0.00000000000E+00 0.  1.
         24    2    1    2    0    0  0.39693256596E+01  0.14467872036E+03 -0.52330848033E+03  0.54972650489E+03  0.86021956048E+02 0.  0.
         25    2    1    2    0    0  0.79085492836E+03 -0.28364888477E+02 -0.39841412712E+03  0.89478282462E+03  0.12508557840E+03 0.  0.
        -24    2    1    2    0    0 -0.79482425402E+03 -0.11631383189E+03  0.14320009932E+03  0.81971612931E+03  0.78445917271E+02 0.  0.
        -11    1    3    3    0    0  0.33829479879E+02  0.64228718138E+02 -0.33517817576E+03  0.34294922575E+03  0.00000000000E+00 0.  1.
         12    1    3    3    0    0 -0.29860154220E+02  0.80450002225E+02 -0.18813030458E+03  0.20677727914E+03  0.00000000000E+00 0. -1.
         13    1    5    5    0    0 -0.19420790764E+03 -0.42148713775E+02  0.41667231716E+01  0.19877270197E+03  0.00000000000E+00 0. -1.
        -14    1    5    5    0    0 -0.60061634638E+03 -0.74165118113E+02  0.13903337614E+03  0.62094342734E+03  0.00000000000E+00 0.  1.
          5    1    4    4  501    0  0.13644737206E+03 -0.50660813407E+02 -0.87952493883E+02  0.17011030814E+03  0.41800000000E+01 0. -1.
         -5    1    4    4    0  501  0.65440755630E+03  0.22295924931E+02 -0.31046163324E+03  0.72467251647E+03  0.41800000000E+01 0. -1.
</event>
<event>
11    1  0.7577197E-009  0.1436546E+03  0.7561462E-02  0.1103545E+00
         22   -1    0    0    0    0  0.00000000000E+00  0.00000000000E+00  0.96608005104E+02  0.96608005104E+02  0.00000000000E+00 0. -1.
         22   -1    0    0    0    0 -0.00000000000E+00 -0.00000000000E+00 -0.18269996790E+04  0.18269996790E+04  0.00000000000E+00 0. -1.
         24    2    1    2    0    0  0.49453128917E+02  0.61747027310E+02 -0.12897521924E+04  0.12946307595E+04  0.79685495613E+02 0.  0.
         25    2    1    2    0    0 -0.30893404781E+00 -0.49071321215E+02 -0.50107863342E+03  0.51878154680E+03  0.12508559640E+03 0.  0.
        -24    2    1    2    0    0 -0.49144194869E+02 -0.12675706095E+02  0.60439151931E+02  0.11019537783E+03  0.76904517387E+02 0.  0.
        -11    1    3    3    0    0 -0.18609104514E+02  0.33981889200E+02 -0.43002578266E+03  0.43176757789E+03  0.00000000000E+00 0.  1.
         12    1    3    3    0    0  0.68062233431E+02  0.27765138110E+02 -0.85972640973E+03  0.86286318156E+03  0.00000000000E+00 0. -1.
         11    1    5    5    0    0  0.71766408659E+01  0.18797816688E+02  0.35926453058E+02  0.41177325262E+02  0.00000000000E+00 0. -1.
        -12    1    5    5    0    0 -0.56320835735E+02 -0.31473522783E+02  0.24512698873E+02  0.69018052568E+02  0.00000000000E+00 0.  1.
          5    1    4    4  501    0 -0.54477752786E+02 -0.15293657859E+02 -0.35218541021E+03  0.35672644573E+03  0.41800000000E+01 0. -1.
         -5    1    4    4    0  501  0.54168818739E+02 -0.33777663356E+02 -0.14889322321E+03  0.16205510107E+03  0.41800000000E+01 0. -1.
</event>
<event>
11    1  0.7577197E-009  0.1741300E+03  0.7561462E-02  0.1074493E+00
         22   -1    0    0    0    0  0.00000000000E+00  0.00000000000E+00  0.76856034805E+03  0.76856034805E+03  0.00000000000E+00 0. -1.
         22   -1    0    0    0    0 -0.00000000000E+00 -0.00000000000E+00 -0.95517489716E+03  0.95517489716E+03  0.00000000000E+00 0.  1.
        -24    2    1    2    0    0 -0.11883640621E+03  0.21075761305E+02 -0.80812157862E+03  0.82110655868E+03  0.81173984288E+02 0.  0.
         25    2    1    2    0    0  0.12654844258E+03 -0.80647640380E+00 -0.80830593593E+02  0.19544629326E+03  0.12510199825E+03 0.  0.
         24    2    1    2    0    0 -0.77120363674E+01 -0.20269284901E+02  0.70233762310E+03  0.70718239326E+03  0.79740084655E+02 0.  0.
        -13    1    5    5    0    0  0.25778600160E+02  0.17523063983E+02  0.32251962111E+03  0.32402237577E+03  0.00000000000E+00 0.  1.
         14    1    5    5    0    0 -0.33490636527E+02 -0.37792348883E+02  0.37981800200E+03  0.38316001750E+03  0.00000000000E+00 0. -1.
         13    1    3    3    0    0 -0.20072834648E+02  0.38895618573E+02 -0.29914678913E+03  0.30233191906E+03  0.00000000000E+00 0. -1.
        -14    1    3    3    0    0 -0.98763571561E+02 -0.17819857268E+02 -0.50897478949E+03  0.51877463962E+03  0.00000000000E+00 0.  1.
          5    1    4    4  501    0  0.64403355318E+02  0.32362487304E+02  0.17620203197E+02  0.74317337960E+02  0.41800000000E+01 0. -1.
         -5    1    4    4    0  501  0.62145087259E+02 -0.33168963708E+02 -0.98450796790E+02  0.12112895530E+03  0.41800000000E+01 0. -1.
</event>
<event>
11    1  0.7577197E-009  0.1277241E+03  0.7561462E-02  0.1122097E+00
         22   -1    0    0    0    0  0.00000000000E+00  0.00000000000E+00  0.73304056887E+02  0.73304056887E+02  0.00000000000E+00 0. -1.
         22   -1    0    0    0    0 -0.00000000000E+00 -0.00000000000E+00 -0.30238218331E+04  0.30238218331E+04  0.00000000000E+00 0.  1.
         24    2    1    2    0    0  0.67312735877E+01  0.66956731365E+01 -0.28422978359E+04  0.28434399786E+04  0.80023632803E+02 0.  0.
         25    2    1    2    0    0 -0.24502821312E+02 -0.22330658249E+02 -0.10986868750E+03  0.16975473535E+03  0.12508595097E+03 0.  0.
        -24    2    1    2    0    0  0.17771547725E+02  0.15634985113E+02  0.16487472285E+01  0.83931176007E+02  0.80507411277E+02 0.  0.
        -13    1    3    3    0    0 -0.16203543602E+02  0.83277462126E+01 -0.25976872710E+04  0.25977511551E+04  0.00000000000E+00 0.  1.
         14    1    3    3    0    0  0.22934817189E+02 -0.16320730761E+01 -0.24461056495E+03  0.24568882349E+03  0.00000000000E+00 0. -1.
         11    1    5    5    0    0  0.40893212945E+01  0.41648488888E+02  0.22859122359E+02  0.47684993974E+02  0.00000000000E+00 0. -1.
        -12    1    5    5    0    0  0.13682226430E+02 -0.26013503775E+02 -0.21210375131E+02  0.36246182033E+02  0.00000000000E+00 0.  1.
          5    1    4    4  501    0 -0.17205507533E+01 -0.54005362282E+02 -0.11882624302E+01  0.54207230308E+02  0.41800000000E+01 0. -1.
         -5    1    4    4    0  501 -0.22782270559E+02  0.31674704033E+02 -0.10868042507E+03  0.11554750504E+03  0.41800000000E+01 0. -1.
</event>
<event>
11    1  0.7577197E-009  0.2048653E+03  0.7561462E-02  0.1051135E+00
         22   -1    0    0    0    0  0.00000000000E+00  0.00000000000E+00  0.45456137243E+03  0.45456137243E+03  0.00000000000E+00 0.  1.
         22   -1    0    0    0    0 -0.00000000000E+00 -0.00000000000E+00 -0.55713330070E+03  0.55713330070E+03  0.00000000000E+00 0. -1.
         24    2    1    2    0    0 -0.69731074165E+02 -0.18432062488E+02 -0.45618355077E+03  0.46940221930E+03  0.83862076407E+02 0.  0.
         25    2    1    2    0    0  0.31127822254E+02 -0.14947280486E+03  0.95231540570E+02  0.21915098166E+03  0.12508815184E+03 0.  0.
        -24    2    1    2    0    0  0.38603251911E+02  0.16790486735E+03  0.25838008192E+03  0.32314147217E+03  0.89319028008E+02 0.  0.
        -13    1    3    3    0    0 -0.31095466159E+02 -0.39507096487E+02 -0.11658414207E+03  0.12696299016E+03  0.00000000000E+00 0.  1.
         14    1    3    3    0    0 -0.38635608006E+02  0.21075033999E+02 -0.33959940870E+03  0.34243922914E+03  0.00000000000E+00 0. -1.
         13    1    5    5    0    0  0.59286843897E+02  0.61414604162E+02  0.12145012625E+03  0.14844802670E+03  0.00000000000E+00 0. -1.
        -14    1    5    5    0    0 -0.20683591987E+02  0.10649026319E+03  0.13692995567E+03  0.17469344547E+03  0.00000000000E+00 0.  1.
          5    1    4    4  501    0 -0.27615024749E+02 -0.85041544172E+02  0.96805946913E+02  0.13184656835E+03  0.41800000000E+01 0.  1.
         -5    1    4    4    0  501  0.58742847003E+02 -0.64431260690E+02 -0.15744063432E+01  0.87304413310E+02  0.41800000000E+01 0.  1.
</event>
<event>
11    1  0.7577197E-009  0.1422810E+03  0.7561462E-02  0.1105038E+00
         22   -1    0    0    0    0  0.00000000000E+00  0.00000000000E+00  0.71355122399E+03  0.71355122399E+03  0.00000000000E+00 0. -1.
         22   -1    0    0    0    0 -0.00000000000E+00 -0.00000000000E+00 -0.37500176798E+03  0.37500176798E+03  0.00000000000E+00 0.  1.
         24    2    1    2    0    0  0.23820949378E+02 -0.16919831366E+02 -0.28799283494E+03  0.30040580692E+03  0.80312250177E+02 0.  0.
         25    2    1    2    0    0  0.13757186888E+02 -0.41396212750E+02 -0.18437824260E+02  0.13375421237E+03  0.12508928548E+03 0.  0.
        -24    2    1    2    0    0 -0.37578136266E+02  0.58316044116E+02  0.64498011521E+03  0.65439297268E+03  0.86127442535E+02 0.  0.
        -11    1    3    3    0    0  0.16165663908E+01  0.19912543482E+02 -0.21316401626E+03  0.21409815624E+03  0.00000000000E+00 0.  1.
         12    1    3    3    0    0  0.22204382988E+02 -0.36832374849E+02 -0.74828818677E+02  0.86307650677E+02  0.00000000000E+00 0. -1.
         13    1    5    5    0    0  0.72047825146E+01  0.56105239871E+02  0.48369726914E+03  0.48699358826E+03  0.00000000000E+00 0. -1.
        -14    1    5    5    0    0 -0.44782918781E+02  0.22108042451E+01  0.16128284607E+03  0.16739938442E+03  0.00000000000E+00 0.  1.
          5    1    4    4  501    0  0.10438367909E+02  0.38842950165E+02  0.19435109406E+02  0.44865690452E+02  0.41800000000E+01 0. -1.
         -5    1    4    4    0  501  0.33188189792E+01 -0.80239162915E+02 -0.37872933666E+02  0.88888521920E+02  0.41800000000E+01 0. -1.
</event>
<event>
11    1  0.7577197E-009  0.1325216E+03  0.7561462E-02  0.1116209E+00
         22   -1    0    0    0    0  0.00000000000E+00  0.00000000000E+00  0.53806523548E+03  0.53806523548E+03  0.00000000000E+00 0.  1.
         22   -1    0    0    0    0 -0.00000000000E+00 -0.00000000000E+00 -0.60397178280E+02  0.60397178280E+02  0.00000000000E+00 0.  1.
         24    2    1    2    0    0  0.33218684467E+02 -0.12108895831E+02  0.27355792995E+02  0.93828687215E+02  0.82494707576E+02 0.  0.
         25    2    1    2    0    0  0.57188978108E+00 -0.31559301381E+02  0.24123811629E+03  0.27356468175E+03  0.12508193231E+03 0.  0.
        -24    2    1    2    0    0 -0.33790574248E+02  0.43668197212E+02  0.20907414791E+03  0.23106904479E+03  0.81438257467E+02 0.  0.
        -11    1    3    3    0    0 -0.40597211114E+00 -0.22019606933E+02 -0.23406562074E+02  0.32138684648E+02  0.00000000000E+00 0.  1.
         12    1    3    3    0    0  0.33624656578E+02  0.99107111014E+01  0.50762355069E+02  0.61690002566E+02  0.00000000000E+00 0. -1.
         11    1    5    5    0    0 -0.15011278395E+02  0.10531220095E+02 -0.21906903681E+00  0.18338295095E+02  0.00000000000E+00 0. -1.
        -12    1    5    5    0    0 -0.18779295853E+02  0.33136977117E+02  0.20929321695E+03  0.21273074969E+03  0.00000000000E+00 0.  1.
          5    1    4    4  501    0  0.10040650291E+02 -0.45999167311E+02  0.24952381505E+03  0.25396130557E+03  0.41800000000E+01 0. -1.
         -5    1    4    4    0  501 -0.94687605104E+01  0.14439865930E+02 -0.82856987593E+01  0.19603376179E+02  0.41800000000E+01 0. -1.
</event>
<event>
11    1  0.7577197E-009  0.1701257E+03  0.7561462E-02  0.1077922E+00
         22   -1    0    0    0    0  0.00000000000E+00  0.00000000000E+00  0.46871848410E+03  0.46871848410E+03  0.00000000000E+00 0. -1.
         22   -1    0    0    0    0 -0.00000000000E+00 -0.00000000000E+00 -0.10912936346E+04  0.10912936346E+04  0.00000000000E+00 0.  1.
        -24    2    1    2    0    0 -0.43209367568E+02  0.28946889531E+02 -0.87017691797E+03  0.87569520718E+03  0.83242149531E+02 0.  0.
         25    2    1    2    0    0  0.41381755839E+02 -0.14240767936E+03 -0.15838911036E+03  0.25045026525E+03  0.12508328515E+03 0.  0.
         24    2    1    2    0    0  0.18276117285E+01  0.11346078983E+03  0.40599087781E+03  0.43386664630E+03  0.10264006485E+03 0.  0.
        -11    1    5    5    0    0 -0.29641714609E+02  0.81637678634E+02  0.14465243598E+03  0.16872364699E+03  0.00000000000E+00 0.  1.
         12    1    5    5    0    0  0.31469326338E+02  0.31823111192E+02  0.26133844183E+03  0.26514299931E+03  0.00000000000E+00 0. -1.
         11    1    3    3    0    0 -0.66701293002E+02  0.16774323988E+02 -0.52149820497E+03  0.52601408557E+03  0.00000000000E+00 0. -1.
        -12    1    3    3    0    0  0.23491925434E+02  0.12172565543E+02 -0.34867871300E+03  0.34968112162E+03  0.00000000000E+00 0.  1.
          5    1    4    4  501    0 -0.29432333850E+01 -0.10140711898E+03 -0.25894025550E+02  0.10478568300E+03  0.41800000000E+01 0.  1.
         -5    1    4    4    0  501  0.44324989224E+02 -0.41000560373E+02 -0.13249508481E+03  0.14566458224E+03  0.41800000000E+01 0.  1.
</event>
<event>
11    1  0.7577197E-009  0.2534251E+03  0.7561462E-02  0.1022090E+00
         22   -1    0    0    0    0  0.00000000000E+00  0.00000000000E+00  0.23891570512E+04  0.23891570512E+04  0.00000000000E+00 0.  1.
         22   -1    0    0    0    0 -0.00000000000E+00 -0.00000000000E+00 -0.13760902153E+03  0.13760902153E+03  0.00000000000E+00 0.  1.
        -24    2    1    2    0    0  0.79019168536E+02  0.12349957215E+02 -0.40551482756E+02  0.11759878625E+03  0.76082201165E+02 0.  0.
         25    2    1    2    0    0 -0.91801724294E+02 -0.23020103462E+03  0.32112488709E+03  0.42448664532E+03  0.12509055129E+03 0.  0.
         24    2    1    2    0    0  0.12782555757E+02  0.21785107740E+03  0.19709746253E+04  0.19846806411E+04  0.81202142885E+02 0.  0.
        -11    1    5    5    0    0 -0.32471838143E+02  0.96118641235E+02  0.75377818266E+03  0.76057528367E+03  0.00000000000E+00 0.  1.
         12    1    5    5    0    0  0.45254393900E+02  0.12173243617E+03  0.12171964427E+04  0.12241053575E+04  0.00000000000E+00 0. -1.
         13    1    3    3    0    0 -0.45806103930E+01  0.12095053547E+02  0.12983889980E+02  0.18326311983E+02  0.00000000000E+00 0. -1.
        -14    1    3    3    0    0  0.83599778929E+02  0.25490366768E+00 -0.53535372736E+02  0.99272474266E+02  0.00000000000E+00 0.  1.
          5    1    4    4  501    0 -0.56476833934E+02 -0.81612437629E+02  0.45312319206E+02  0.10918288061E+03  0.41800000000E+01 0. -1.
         -5    1    4    4    0  501 -0.35324890360E+02 -0.14858859699E+03  0.27581256789E+03  0.31530376471E+03  0.41800000000E+01 0. -1.
</event>
<event>
11    1  0.7577197E-009  0.1305581E+03  0.7561462E-02  0.1118585E+00
         22   -1    0    0    0    0  0.00000000000E+00  0.00000000000E+00  0.62519762511E+03  0.62519762511E+03  0.00000000000E+00 0. -1.
         22   -1    0    0    0    0 -0.00000000000E+00 -0.00000000000E+00 -0.17608694571E+04  0.17608694571E+04  0.00000000000E+00 0. -1.
        -24    2    1    2    0    0 -0.32801036716E+02  0.18761395944E+02 -0.16531006351E+04  0.16558380945E+04  0.87350942856E+02 0.  0.
         25    2    1    2    0    0 -0.94273216273E-01 -0.48452422135E+02 -0.58970296529E+02  0.14653497672E+03  0.12508939776E+03 0.  0.
         24    2    1    2    0    0  0.32895309933E+02  0.29691026191E+02  0.57639909965E+03  0.58369401105E+03  0.80617107459E+02 0.  0.
        -11    1    5    5    0    0 -0.98378287416E+01  0.14072289401E+02  0.24471358744E+02  0.29894139929E+02  0.00000000000E+00 0.  1.
         12    1    5    5    0    0  0.42733138674E+02  0.15618736790E+02  0.55192774090E+03  0.55379987113E+03  0.00000000000E+00 0. -1.
         13    1    3    3    0    0 -0.32325880610E+02 -0.29603140803E+02 -0.99353303989E+03  0.99449947705E+03  0.00000000000E+00 0. -1.
        -14    1    3    3    0    0 -0.47515610617E+00  0.48364536747E+02 -0.65956759523E+03  0.66133861740E+03  0.00000000000E+00 0.  1.
          5    1    4    4  501    0  0.39705044006E+01  0.41178636596E+02 -0.32857765518E+02  0.52995756169E+02  0.41800000000E+01 0. -1.
         -5    1    4    4    0  501 -0.40647776169E+01 -0.89631058731E+02 -0.26112531011E+02  0.93539220556E+02  0.41800000000E+01 0. -1.
</event>
<event>
11    1  0.7577197E-009  0.1417386E+03  0.7561462E-02  0.1105632E+00
         22   -1    0    0    0    0  0.00000000000E+00  0.00000000000E+00  0.58818362594E+02  0.58818362594E+02  0.00000000000E+00 0. -1.
         22   -1    0    0    0    0 -0.00000000000E+00 -0.00000000000E+00 -0.32946412793E+04  0.32946412793E+04  0.00000000000E+00 0.  1.
        -24    2    1    2    0    0  0.93888057611E+01  0.26968419224E+01 -0.24152293103E+04  0.24166196995E+04  0.81380145747E+02 0.  0.
         25    2    1    2    0    0  0.21734143747E+02  0.56706305403E+02 -0.81963431662E+03  0.83134548558E+03  0.12508767057E+03 0.  0.
         24    2    1    2    0    0 -0.31122949508E+02 -0.59403147326E+02 -0.95928974937E+00  0.10549445677E+03  0.81429652297E+02 0.  0.
        -11    1    5    5    0    0 -0.21069488655E+02  0.27310888038E+01 -0.29523975174E+02  0.36373717274E+02  0.00000000000E+00 0.  1.
         12    1    5    5    0    0 -0.10053460853E+02 -0.62134236129E+02  0.28564685424E+02  0.69120739492E+02  0.00000000000E+00 0. -1.
         11    1    3    3    0    0 -0.21592236853E+02 -0.27497828947E+02 -0.73190573794E+03  0.73274031179E+03  0.00000000000E+00 0. -1.
        -12    1    3    3    0    0  0.30981042614E+02  0.30194670869E+02 -0.16833235724E+04  0.16838793877E+04  0.00000000000E+00 0.  1.
          5    1    4    4  501    0 -0.37637234852E+02  0.52637953223E+02 -0.23852780288E+03  0.24718475016E+03  0.41800000000E+01 0.  1.
         -5    1    4    4    0  501  0.59371378599E+02  0.40683521802E+01 -0.58110651375E+03  0.58416073542E+03  0.41800000000E+01 0.  1.
</event>
<event>
11    1  0.7577197E-009  0.1300653E+03  0.7561462E-02  0.1119189E+00
         22   -1    0    0    0    0  0.00000000000E+00  0.00000000000E+00  0.52112645268E+03  0.52112645268E+03  0.00000000000E+00 0.  1.
         22   -1    0    0    0    0 -0.00000000000E+00 -0.00000000000E+00 -0.81100884462E+03  0.81100884462E+03  0.00000000000E+00 0. -1.
        -24    2    1    2    0    0 -0.27145298726E+02 -0.22030235377E+02 -0.75239769359E+03  0.75739742215E+03  0.79538463912E+02 0.  0.
         25    2    1    2    0    0  0.46546040589E+02  0.39070745422E+02  0.40958720747E+02  0.14497504520E+03  0.12508832832E+03 0.  0.
         24    2    1    2    0    0 -0.19400741864E+02 -0.17040510045E+02  0.42155658091E+03  0.42976282995E+03  0.79494473616E+02 0.  0.
        -13    1    5    5    0    0 -0.90681704715E+01 -0.18625770364E+02  0.41830168635E+03  0.41881434054E+03  0.00000000000E+00 0.  1.
         14    1    5    5    0    0 -0.10332571392E+02  0.15852603194E+01  0.32548945553E+01  0.10948489413E+02  0.00000000000E+00 0. -1.
         13    1    3    3    0    0  0.12254285594E+02  0.19573912480E+02 -0.37116231400E+03  0.37188004638E+03  0.00000000000E+00 0. -1.
        -14    1    3    3    0    0 -0.39399584319E+02 -0.41604147857E+02 -0.38123537959E+03  0.38551737577E+03  0.00000000000E+00 0.  1.
          5    1    4    4  501    0  0.79641629567E+02  0.93877155056E+01  0.55951798301E+02  0.97872337745E+02  0.41800000000E+01 0.  1.
         -5    1    4    4    0  501 -0.33095588978E+02  0.29683029916E+02 -0.14993077554E+02  0.47102707452E+02  0.41800000000E+01 0.  1.
</event>
<event>
11    1  0.7577197E-009  0.1381512E+03  0.7561462E-02  0.1109641E+00
         22   -1    0    0    0    0  0.00000000000E+00  0.00000000000E+00  0.45557154873E+03  0.45557154873E+03  0.00000000000E+00 0.  1.
         22   -1    0    0    0    0 -0.00000000000E+00 -0.00000000000E+00 -0.23825711140E+04  0.23825711140E+04  0.00000000000E+00 0.  1.
        -24    2    1    2    0    0  0.21126573970E+02  0.18412156192E+02 -0.22160013540E+04  0.22177303901E+04  0.82950242127E+02 0.  0.
         25    2    1    2    0    0 -0.23153844345E+01 -0.73564573549E+02 -0.12718108468E+03  0.19297498892E+03  0.12508881070E+03 0.  0.
         24    2    1    2    0    0 -0.18811189535E+02  0.55152417357E+02  0.41618287334E+03  0.42743728378E+03  0.78094798231E+02 0.  0.
        -11    1    5    5    0    0  0.13659104781E+02  0.62501716345E+02  0.26149579556E+03  0.26920825914E+03  0.00000000000E+00 0.  1.
         12    1    5    5    0    0 -0.32470294316E+02 -0.73492989876E+01  0.15468707777E+03  0.15822902464E+03  0.00000000000E+00 0. -1.
         13    1    3    3    0    0  0.10581542668E+02  0.45209162362E+02 -0.74401603278E+03  0.74546340919E+03  0.00000000000E+00 0. -1.
        -14    1    3    3    0    0  0.10545031302E+02 -0.26797006170E+02 -0.14719853212E+04  0.14722669809E+04  0.00000000000E+00 0.  1.
          5    1    4    4  501    0 -0.48210087007E+02 -0.62388555168E+02 -0.29309251178E+02  0.84220240499E+02  0.41800000000E+01 0.  1.
         -5    1    4    4    0  501  0.45894702572E+02 -0.11176018381E+02 -0.97871833506E+02  0.10875474842E+03  0.41800000000E+01 0.  1.
</event>
<event>
11    1  0.7577197E-009  0.5330649E+03  0.7561462E-02  0.9322528E-01
         22   -1    0    0    0    0  0.00000000000E+00  0.00000000000E+00  0.22458610100E+04  0.22458610100E+04  0.00000000000E+00 0. -1.
         22   -1    0    0    0    0 -0.00000000000E+00 -0.00000000000E+00 -0.16349992658E+04  0.16349992658E+04  0.00000000000E+00 0. -1.
        -24    2    1    2    0    0  0.29569721770E+03  0.42244239105E+03 -0.14542986618E+04  0.15450952800E+04  0.80252153445E+02 0.  0.
         25    2    1    2    0    0 -0.63623824067E+03 -0.27029940358E+03  0.12046384778E+04  0.13945110244E+04  0.12508504517E+03 0.  0.
         24    2    1    2    0    0  0.34054102297E+03 -0.15214298747E+03  0.86052192818E+03  0.94125397143E+03  0.79657848861E+02 0.  0.
        -11    1    5    5    0    0  0.15543045406E+02  0.95704519783E+01  0.46766702321E+02  0.50202631978E+02  0.00000000000E+00 0.  1.
         12    1    5    5    0    0  0.32499797757E+03 -0.16171343945E+03  0.81375522586E+03  0.89105133945E+03  0.00000000000E+00 0. -1.
         11    1    3    3    0    0  0.28349622927E+03  0.41840732121E+03 -0.13788035191E+04  0.14685141956E+04  0.00000000000E+00 0. -1.
        -12    1    3    3    0    0  0.12200988430E+02  0.40350698398E+01 -0.75495142752E+02  0.76581084391E+02  0.00000000000E+00 0.  1.
          5    1    4    4  501    0 -0.50217183006E+03 -0.21263001744E+03  0.83749297278E+03  0.99939983143E+03  0.41800000000E+01 0.  1.
         -5    1    4    4    0  501 -0.13406641062E+03 -0.57669386133E+02  0.36714550503E+03  0.39511119297E+03  0.41800000000E+01 0.  1.
</event>
<event>
11    1  0.7577197E-009  0.1933608E+03  0.7561462E-02  0.1059320E+00
         22   -1    0    0    0    0  0.00000000000E+00  0.00000000000E+00  0.14645361340E+04  0.14645361340E+04  0.00000000000E+00 0. -1.
         22   -1    0    0    0    0 -0.00000000000E+00 -0.00000000000E+00 -0.25562008975E+03  0.25562008975E+03  0.00000000000E+00 0.  1.
         24    2    1    2    0    0  0.14851244749E+02 -0.25232815315E+02 -0.21134606471E+03  0.22809125780E+03  0.80630071183E+02 0.  0.
         25    2    1    2    0    0  0.12589940071E+01  0.16773288042E+03  0.33811004902E+03  0.39762121125E+03  0.12509323780E+03 0.  0.
        -24    2    1    2    0    0 -0.16110238756E+02 -0.14250006510E+03  0.10821520599E+04  0.10944437547E+04  0.78665386644E+02 0.  0.
        -13    1    3    3    0    0  0.41175789844E+02 -0.59649724292E+01 -0.17209695125E+03  0.17705475761E+03  0.00000000000E+00 0.  1.
         14    1    3    3    0    0 -0.26324545095E+02 -0.19267842886E+02 -0.39249113460E+02  0.51036500187E+02  0.00000000000E+00 0. -1.
         11    1    5    5    0    0  0.23287035004E+02 -0.86758498653E+02  0.74925487103E+03  0.75462055687E+03  0.00000000000E+00 0. -1.
        -12    1    5    5    0    0 -0.39397273760E+02 -0.55741566449E+02  0.33289718891E+03  0.33982319785E+03  0.00000000000E+00 0.  1.
          5    1    4    4  501    0 -0.18359151310E+00  0.13777880359E+03  0.34040587963E+03  0.36725558908E+03  0.41800000000E+01 0. -1.
         -5    1    4    4    0  501  0.14425855202E+01  0.29954076825E+02 -0.22958306027E+01  0.30365622167E+02  0.41800000000E+01 0. -1.
</event>
<event>
11    1  0.7577197E-009  0.1699606E+03  0.7561462E-02  0.1078066E+00
         22   -1    0    0    0    0  0.00000000000E+00  0.00000000000E+00  0.25085629007E+03  0.25085629007E+03  0.00000000000E+00 0.  1.
         22   -1    0    0    0    0 -0.00000000000E+00 -0.00000000000E+00 -0.88370292533E+03  0.88370292533E+03  0.00000000000E+00 0. -1.
         24    2    1    2    0    0 -0.97702200408E+02  0.40292072566E+02 -0.59004647830E+03  0.60438296783E+03  0.77167053732E+02 0.  0.
         25    2    1    2    0    0  0.13740771562E+03 -0.11942868376E+03 -0.22272710267E+03  0.31368598975E+03  0.12508975613E+03 0.  0.
        -24    2    1    2    0    0 -0.39705515212E+02  0.79136611190E+02  0.17992694571E+03  0.21649025781E+03  0.81579377096E+02 0.  0.
        -13    1    3    3    0    0 -0.43115031272E+02  0.33886621369E+01 -0.88234174826E+02  0.98263210612E+02  0.00000000000E+00 0.  1.
         14    1    3    3    0    0 -0.54587169136E+02  0.36903410429E+02 -0.50181230347E+03  0.50611975722E+03  0.00000000000E+00 0. -1.
         13    1    5    5    0    0  0.21730189334E+01  0.52040416510E+02  0.33817359192E+02  0.62101052685E+02  0.00000000000E+00 0. -1.
        -14    1    5    5    0    0 -0.41878534145E+02  0.27096194679E+02  0.14610958652E+03  0.15438920513E+03  0.00000000000E+00 0.  1.
          5    1    4    4  501    0  0.17784133184E+02 -0.66956975994E+02 -0.19551095786E+02  0.72105684754E+02  0.41800000000E+01 0.  1.
         -5    1    4    4    0  501  0.11962358244E+03 -0.52471707761E+02 -0.20317600688E+03  0.24158030500E+03  0.41800000000E+01 0.  1.
</event>
<event>
11    1  0.7577197E-009  0.1364950E+03  0.7561462E-02  0.1111537E+00
         22   -1    0    0    0    0  0.00000000000E+00  0.00000000000E+00  0.65544844664E+03  0.65544844664E+03  0.00000000000E+00 0.  1.
         22   -1    0    0    0    0 -0.00000000000E+00 -0.00000000000E+00 -0.97622542350E+03  0.97622542350E+03  0.00000000000E+00 0.  1.
         24    2    1    2    0    0  0.44600268960E+02  0.32361538418E+02 -0.95318635761E+03  0.95856903822E+03  0.85169921564E+02 0.  0.
         25    2    1    2    0    0 -0.11952651465E+02  0.14593224440E+02  0.29421030229E+03  0.32025207941E+03  0.12508342943E+03 0.  0.
        -24    2    1    2    0    0 -0.32647617496E+02 -0.46954762858E+02  0.33819907846E+03  0.35285275251E+03  0.82799949279E+02 0.  0.
        -13    1    3    3    0    0  0.75127275779E+01 -0.22257384689E+01 -0.71504299236E+03  0.71508592205E+03  0.00000000000E+00 0.  1.
         14    1    3    3    0    0  0.37087541383E+02  0.34587276887E+02 -0.23814336525E+03  0.24348311617E+03  0.00000000000E+00 0. -1.
         13    1    5    5    0    0 -0.29024625915E+02 -0.70781680297E+02  0.26068188494E+03  0.27167539512E+03  0.00000000000E+00 0. -1.
        -14    1    5    5    0    0 -0.36229915807E+01  0.23826917439E+02  0.77517193511E+02  0.81177357388E+02  0.00000000000E+00 0.  1.
          5    1    4    4  501    0  0.42758208787E+02  0.31097231837E+01  0.23421134806E+03  0.23813937674E+03  0.41800000000E+01 0.  1.
         -5    1    4    4    0  501 -0.54710860251E+02  0.11483501256E+02  0.59998954231E+02  0.82112702667E+02  0.41800000000E+01 0.  1.
</event>
<event>
11    1  0.7577197E-009  0.2150888E+03  0.7561462E-02  0.1044338E+00
         22   -1    0    0    0    0  0.00000000000E+00  0.00000000000E+00  0.57928999053E+03  0.57928999053E+03  0.00000000000E+00 0.  1.
         22   -1    0    0    0    0 -0.00000000000E+00 -0.00000000000E+00 -0.41945002566E+03  0.41945002566E+03  0.00000000000E+00 0. -1.
        -24    2    1    2    0    0  0.78133051004E+02  0.11997349104E+03 -0.95487040483E+02  0.19094929974E+03  0.82737222352E+02 0.  0.
         25    2    1    2    0    0 -0.17787535774E+03 -0.13205434642E+03 -0.20700714280E+03  0.32799155378E+03  0.12509400019E+03 0.  0.
         24    2    1    2    0    0  0.99742306734E+02  0.12080855383E+02  0.46233414815E+03  0.47979916266E+03  0.79748963145E+02 0.  0.
        -13    1    5    5    0    0  0.81460799917E+02  0.24879054814E+02  0.44021145580E+03  0.44837590826E+03  0.00000000000E+00 0.  1.
         14    1    5    5    0    0  0.18281506817E+02 -0.12798199431E+02  0.22122692354E+02  0.31423254401E+02  0.00000000000E+00 0. -1.
         13    1    3    3    0    0  0.74914164697E+02  0.39603279450E+02 -0.44446808131E+02  0.95687358457E+02  0.00000000000E+00 0. -1.
        -14    1    3    3    0    0  0.32188863062E+01  0.80370211585E+02 -0.51040232352E+02  0.95261941288E+02  0.00000000000E+00 0.  1.
          5    1    4    4  501    0 -0.62476350138E+02 -0.11804414002E+03 -0.79885655228E+02  0.15568205944E+03  0.41800000000E+01 0.  1.
         -5    1    4    4    0  501 -0.11539900760E+03 -0.14010206398E+02 -0.12712148758E+03  0.17230949435E+03  0.41800000000E+01 0.  1.
</event>
<event>
11    1  0.7577197E-009  0.1632954E+03  0.7561462E-02  0.1084018E+00
         22   -1    0    0    0    0  0.00000000000E+00  0.00000000000E+00  0.69285507934E+02  0.69285507934E+02  0.00000000000E+00 0. -1.
         22   -1    0    0    0    0 -0.00000000000E+00 -0.00000000000E+00 -0.14509008627E+04  0.14509008627E+04  0.00000000000E+00 0.  1.
         24    2    1    2    0    0 -0.87548107316E+02 -0.66598306210E+02 -0.11537903260E+04  0.11618065431E+04  0.80388568001E+02 0.  0.
         25    2    1    2    0    0  0.52682866615E+02  0.58238920879E+02 -0.22597035669E+03  0.26995809384E+03  0.12509002352E+03 0.  0.
        -24    2    1    2    0    0  0.34865240701E+02  0.83593853310E+01 -0.18546720579E+01  0.88421733623E+02  0.80805314406E+02 0.  0.
        -11    1    3    3    0    0 -0.98456245759E+02 -0.73288393841E+02 -0.10050588584E+04  0.10125256194E+04  0.00000000000E+00 0.  1.
         12    1    3    3    0    0  0.10908138443E+02  0.66900876307E+01 -0.14873146756E+03  0.14928092376E+03  0.00000000000E+00 0. -1.
         11    1    5    5    0    0 -0.23292897039E+02 -0.11791291803E+02  0.46877480188E+01  0.26524867509E+02  0.00000000000E+00 0. -1.
        -12    1    5    5    0    0  0.58158137740E+02  0.20150677134E+02 -0.65424200767E+01  0.61896866115E+02  0.00000000000E+00 0.  1.
          5    1    4    4  501    0  0.18772578081E+02 -0.61315336799E+01 -0.18550713466E+03  0.18660218328E+03  0.41800000000E+01 0.  1.
         -5    1    4    4    0  501  0.33910288534E+02  0.64370454559E+02 -0.40463222032E+02  0.83355910563E+02  0.41800000000E+01 0.  1.
</event>
<event>
11    1  0.7577197E-009  0.1362512E+03  0.7561462E-02  0.1111818E+00
         22   -1    0    0    0    0  0.00000000000E+00  0.00000000000E+00  0.50892376400E+03  0.50892376400E+03  0.00000000000E+00 0.  1.
         22   -1    0    0    0    0 -0.00000000000E+00 -0.00000000000E+00 -0.86680459802E+03  0.86680459802E+03  0.00000000000E+00 0. -1.
        -24    2    1    2    0    0  0.22756174828E+02 -0.37788438642E+02 -0.80990820490E+03  0.81505464294E+03  0.80105936219E+02 0.  0.
         25    2    1    2    0    0  0.29697348241E+02  0.54261870057E+02  0.51590623786E+02  0.14875646457E+03  0.12506242543E+03 0.  0.
         24    2    1    2    0    0 -0.52453523069E+02 -0.16473431415E+02  0.40043674710E+03  0.41191725451E+03  0.79394521937E+02 0.  0.
        -11    1    5    5    0    0 -0.50272497221E+02  0.20881745029E+02  0.29636308330E+03  0.30132117150E+03  0.00000000000E+00 0.  1.
         12    1    5    5    0    0 -0.21810258477E+01 -0.37355176444E+02  0.10407366380E+03  0.11059608301E+03  0.00000000000E+00 0. -1.
         13    1    3    3    0    0 -0.16390951697E+02  0.39370508799E+01 -0.47466113319E+03  0.47496037206E+03  0.00000000000E+00 0. -1.
        -14    1    3    3    0    0  0.39147126525E+02 -0.41725489522E+02 -0.33524707171E+03  0.34009427087E+03  0.00000000000E+00 0.  1.
          5    1    4    4  501    0 -0.46133638857E+02  0.35630041517E+00  0.14965627387E+02  0.48681433702E+02  0.41800000000E+01 0.  1.
         -5    1    4    4    0  501  0.75830987097E+02  0.53905569642E+02  0.36624996399E+02  0.10007503087E+03  0.41800000000E+01 0.  1.
</event>
<event>
11    1  0.7577197E-009  0.1395223E+03  0.7561462E-02  0.1108093E+00
         22   -1    0    0    0    0  0.00000000000E+00  0.00000000000E+00  0.12744818317E+04  0.12744818317E+04  0.00000000000E+00 0.  1.
         22   -1    0    0    0    0 -0.00000000000E+00 -0.00000000000E+00 -0.34864529286E+03  0.34864529286E+03  0.00000000000E+00 0.  1.
        -24    2    1    2    0    0 -0.40061054995E+02  0.56452030322E+01 -0.32673792489E+03  0.33928425191E+03  0.81971797512E+02 0.  0.
         25    2    1    2    0    0  0.58827066919E+02 -0.60292213056E+02  0.44020618476E+03  0.46532210325E+03  0.12508956756E+03 0.  0.
         24    2    1    2    0    0 -0.18766011924E+02  0.54647010024E+02  0.81236827894E+03  0.81852076937E+03  0.81826464936E+02 0.  0.
        -11    1    5    5    0    0  0.20810749564E+02 -0.66686388830E+01  0.32327314070E+03  0.32401092812E+03  0.00000000000E+00 0.  1.
         12    1    5    5    0    0 -0.39576761488E+02  0.61315648907E+02  0.48909513823E+03  0.49450984125E+03  0.00000000000E+00 0. -1.
         11    1    3    3    0    0 -0.11197005908E+01 -0.16249751603E+02 -0.93774629455E+01  0.18794812259E+02  0.00000000000E+00 0. -1.
        -12    1    3    3    0    0 -0.38941354404E+02  0.21894954635E+02 -0.31736046194E+03  0.32048943965E+03  0.00000000000E+00 0.  1.
          5    1    4    4  501    0 -0.27663754366E+02 -0.48536171933E+01  0.22534493981E+03  0.22712695834E+03  0.41800000000E+01 0.  1.
         -5    1    4    4    0  501  0.86490821285E+02 -0.55438595863E+02  0.21486124495E+03  0.23819514491E+03  0.41800000000E+01 0.  1.
</event>
<event>
11    1  0.7577197E-009  0.2586709E+03  0.7561462E-02  0.1019379E+00
         22   -1    0    0    0    0  0.00000000000E+00  0.00000000000E+00  0.41042476067E+03  0.41042476067E+03  0.00000000000E+00 0. -1.
         22   -1    0    0    0    0 -0.00000000000E+00 -0.00000000000E+00 -0.37238579640E+03  0.37238579640E+03  0.00000000000E+00 0. -1.
        -24    2    1    2    0    0  0.22803353689E+03  0.45501608434E+02 -0.17923846118E+03  0.30422862716E+03  0.79742970203E+02 0.  0.
         25    2    1    2    0    0 -0.19077120879E+03 -0.11281475241E+03  0.21662080500E+02  0.25541655468E+03  0.12509016032E+03 0.  0.
         24    2    1    2    0    0 -0.37262328106E+02  0.67313143973E+02  0.19561534496E+03  0.22316537523E+03  0.74952525454E+02 0.  0.
        -11    1    5    5    0    0  0.20006030912E+02  0.13996550057E+01  0.38971698609E+02  0.43829140985E+02  0.00000000000E+00 0.  1.
         12    1    5    5    0    0 -0.57268359017E+02  0.65913488968E+02  0.15664364635E+03  0.17933623425E+03  0.00000000000E+00 0. -1.
         11    1    3    3    0    0  0.21628055523E+03  0.20031742859E+02 -0.16500584238E+03  0.27277367415E+03  0.00000000000E+00 0. -1.
        -12    1    3    3    0    0  0.11752981663E+02  0.25469865576E+02 -0.14232618806E+02  0.31454953004E+02  0.00000000000E+00 0.  1.
          5    1    4    4  501    0 -0.88093397699E+02 -0.10297199646E+03  0.55906848923E+02  0.14665171983E+03  0.41800000000E+01 0. -1.
         -5    1    4    4    0  501 -0.10267781109E+03 -0.98427559471E+01 -0.34244768424E+02  0.10876483485E+03  0.41800000000E+01 0. -1.
</event>
<event>
11    1  0.7577197E-009  0.3343650E+03  0.7561462E-02  0.9866122E-01
         22   -1    0    0    0    0  0.00000000000E+00  0.00000000000E+00  0.18218591857E+04  0.18218591857E+04  0.00000000000E+00 0. -1.
         22   -1    0    0    0    0 -0.00000000000E+00 -0.00000000000E+00 -0.96324637924E+02  0.96324637924E+02  0.00000000000E+00 0. -1.
         24    2    1    2    0    0 -0.20980944345E+02 -0.31742773271E+03  0.33744387246E+03  0.47060849143E+03  0.80021369785E+02 0.  0.
         25    2    1    2    0    0  0.61086126343E+01  0.29081562638E+03  0.95037539075E+03  0.10017349426E+04  0.12509383747E+03 0.  0.
        -24    2    1    2    0    0  0.14872331711E+02  0.26612106331E+02  0.43771528451E+03  0.44584038955E+03  0.79054362335E+02 0.  0.
        -11    1    3    3    0    0 -0.29170920769E+02 -0.62215879158E+02  0.43869207864E+02  0.81524632084E+02  0.00000000000E+00 0.  1.
         12    1    3    3    0    0  0.81899764240E+01 -0.25521185356E+03  0.29357466460E+03  0.38908385934E+03  0.00000000000E+00 0. -1.
         13    1    5    5    0    0  0.46754153794E+02  0.14393093314E+02  0.29959289521E+03  0.30356056214E+03  0.00000000000E+00 0. -1.
        -14    1    5    5    0    0 -0.31881822084E+02  0.12219013016E+02  0.13812238931E+03  0.14227982741E+03  0.00000000000E+00 0.  1.
          5    1    4    4  501    0  0.33807833997E+02  0.28548128588E+03  0.88105890617E+03  0.92678196075E+03  0.41800000000E+01 0.  1.
         -5    1    4    4    0  501 -0.27699221363E+02  0.53343404980E+01  0.69316484579E+02  0.74952981842E+02  0.41800000000E+01 0.  1.
</event>
<event>
11    1  0.7577197E-009  0.1547079E+03  0.7561462E-02  0.1092163E+00
         22   -1    0    0    0    0  0.00000000000E+00  0.00000000000E+00  0.15690557456E+03  0.15690557456E+03  0.00000000000E+00 0. -1.
         22   -1    0    0    0    0 -0.00000000000E+00 -0.00000000000E+00 -0.59428105158E+03  0.59428105158E+03  0.00000000000E+00 0. -1.
        -24    2    1    2    0    0  0.16411777305E+02  0.86470635781E+02 -0.45942681122E+03  0.47462722334E+03  0.80321161479E+02 0.  0.
         25    2    1    2    0    0  0.17749993132E+01 -0.12729239134E+03 -0.76477392522E+01  0.17863954405E+03  0.12508834984E+03 0.  0.
         24    2    1    2    0    0 -0.18186776618E+02  0.40821755560E+02  0.29699073460E+02  0.97919858746E+02  0.81909030038E+02 0.  0.
        -13    1    5    5    0    0 -0.64242222486E+01 -0.12661330381E+02 -0.19623466363E+02  0.24221072450E+02  0.00000000000E+00 0.  1.
         14    1    5    5    0    0 -0.11762554369E+02  0.53483085941E+02  0.49322539823E+02  0.73698786297E+02  0.00000000000E+00 0. -1.
         13    1    3    3    0    0  0.21169991117E+02 -0.32935336009E+01 -0.17569843371E+03  0.17699987428E+03  0.00000000000E+00 0. -1.
        -14    1    3    3    0    0 -0.47582138123E+01  0.89764169382E+02 -0.28372837752E+03  0.29762734906E+03  0.00000000000E+00 0.  1.
          5    1    4    4  501    0 -0.17948665002E+02 -0.10000259665E+03  0.48791673816E+02  0.11278640763E+03  0.41800000000E+01 0.  1.
         -5    1    4    4    0  501  0.19723664315E+02 -0.27289794687E+02 -0.56439413068E+02  0.65853136414E+02  0.41800000000E+01 0.  1.
</event>
<event>
11    1  0.7577197E-009  0.1541895E+03  0.7561462E-02  0.1092673E+00
         22   -1    0    0    0    0  0.00000000000E+00  0.00000000000E+00  0.25354537633E+04  0.25354537633E+04  0.00000000000E+00 0.  1.
         22   -1    0    0    0    0 -0.00000000000E+00 -0.00000000000E+00 -0.49798802827E+02  0.49798802827E+02  0.00000000000E+00 0.  1.
         24    2    1    2    0    0  0.21024079306E+02  0.39213246007E+01  0.70281820501E+01  0.83942208302E+02  0.80867238697E+02 0.  0.
         25    2    1    2    0    0  0.65528129949E+02  0.31940565440E+02  0.54692684469E+03  0.56576623641E+03  0.12509326631E+03 0.  0.
        -24    2    1    2    0    0 -0.86552209255E+02 -0.35861890041E+02  0.19316999337E+04  0.19355441214E+04  0.78032377241E+02 0.  0.
        -13    1    3    3    0    0 -0.17686498204E+02 -0.19543169061E+02  0.23951879439E+02  0.35615168177E+02  0.00000000000E+00 0.  1.
         14    1    3    3    0    0  0.38710577510E+02  0.23464493661E+02 -0.16923697389E+02  0.48327040125E+02  0.00000000000E+00 0. -1.
         11    1    5    5    0    0 -0.39716129176E+02  0.52060452868E+01  0.30083201535E+03  0.30348702655E+03  0.00000000000E+00 0. -1.
        -12    1    5    5    0    0 -0.46836080080E+02 -0.41067935327E+02  0.16308679183E+04  0.16320570948E+04  0.00000000000E+00 0.  1.
          5    1    4    4  501    0  0.19073612060E+02  0.22075987011E+02  0.49262696012E+03  0.49350779742E+03  0.41800000000E+01 0.  1.
         -5    1    4    4    0  501  0.46454517889E+02  0.98645784291E+01  0.54299884575E+02  0.72258438986E+02  0.41800000000E+01 0.  1.
</event>
<event>
11    1  0.1510684E-008  0.2115372E+03  0.7561462E-02  0.1046652E+00
         22   -1    0    0    0    0  0.00000000000E+00  0.00000000000E+00  0.81626696300E+03  0.81626696300E+03  0.00000000000E+00 0.  1.
         22   -1    0    0    0    0 -0.00000000000E+00 -0.00000000000E+00 -0.94040331803E+03  0.94040331803E+03  0.00000000000E+00 0. -1.
        -24    2    1    2    0    0  0.65096344239E+02  0.39707075260E+02 -0.56782572290E+03  0.57849938816E+03  0.80133043419E+02 0.  0.
         25    2    1    2    0    0  0.34504991337E+02 -0.17840209695E+03 -0.32136602836E+03  0.38979664736E+03  0.12508956587E+03 0.  0.
         24    2    1    2    0    0 -0.99601335576E+02  0.13869502169E+03  0.76505539624E+03  0.78837424552E+03  0.84068166355E+02 0.  0.
        -11    1    5    5    0    0 -0.81191038669E+02  0.12977292906E+03  0.74167149849E+03  0.75730417241E+03  0.00000000000E+00 0.  1.
         12    1    5    5    0    0 -0.18410296906E+02  0.89220926322E+01  0.23383897748E+02  0.31070073109E+02  0.00000000000E+00 0. -1.
         13    1    3    3    0    0  0.58246212525E+02  0.34847721324E+02 -0.56580422465E+03  0.56986086512E+03  0.00000000000E+00 0. -1.
        -14    1    3    3    0    0  0.68501317133E+01  0.48593539360E+01 -0.20214982514E+01  0.86385230419E+01  0.00000000000E+00 0.  1.
          5    1    4    4  501    0 -0.11281457009E+02 -0.14029440001E+03 -0.28992217773E+03  0.32230751075E+03  0.41800000000E+01 0. -1.
         -5    1    4    4    0  501  0.45786448346E+02 -0.38107696940E+02 -0.31443850626E+02  0.67489136611E+02  0.41800000000E+01 0. -1.
</event>
<event>
11    1  0.7577197E-009  0.1878659E+03  0.7561462E-02  0.1063452E+00
         22   -1    0    0    0    0  0.00000000000E+00  0.00000000000E+00  0.14380153649E+04  0.14380153649E+04  0.00000000000E+00 0. -1.
         22   -1    0    0    0    0 -0.00000000000E+00 -0.00000000000E+00 -0.16082825365E+03  0.16082825365E+03  0.00000000000E+00 0.  1.
         24    2    1    2    0    0  0.12398912243E+03 -0.60655666814E+02 -0.70010700475E+02  0.17396241180E+03  0.79429277607E+02 0.  0.
         25    2    1    2    0    0 -0.11306817316E+03  0.11050829216E+03  0.23957867779E+03  0.31311608832E+03  0.12508895832E+03 0.  0.
        -24    2    1    2    0    0 -0.10920949272E+02 -0.49852625351E+02  0.11076191339E+04  0.11117651184E+04  0.81221803129E+02 0.  0.
        -11    1    3    3    0    0  0.12977836751E+03 -0.67768670548E+02 -0.55050354667E+02  0.15641470177E+03  0.00000000000E+00 0.  1.
         12    1    3    3    0    0 -0.57892450767E+01  0.71130037344E+01 -0.14960345808E+02  0.17547710032E+02  0.00000000000E+00 0. -1.
         13    1    5    5    0    0 -0.74789808240E+01 -0.64042995851E+02  0.10599592403E+04  0.10619185616E+04  0.00000000000E+00 0. -1.
        -14    1    5    5    0    0 -0.34419684483E+01  0.14190370500E+02  0.47659893679E+02  0.49846556824E+02  0.00000000000E+00 0.  1.
          5    1    4    4  501    0  0.21456454065E+02 -0.63621562776E+01  0.35266030778E+02  0.41976443160E+02  0.41800000000E+01 0.  1.
         -5    1    4    4    0  501 -0.13452462722E+03  0.11687044844E+03  0.20431264702E+03  0.27113964516E+03  0.41800000000E+01 0.  1.
</event>
<event>
11    1  0.7577197E-009  0.1583086E+03  0.7561462E-02  0.1088679E+00
         22   -1    0    0    0    0  0.00000000000E+00  0.00000000000E+00  0.33934449249E+03  0.33934449249E+03  0.00000000000E+00 0.  1.
         22   -1    0    0    0    0 -0.00000000000E+00 -0.00000000000E+00 -0.18836125115E+04  0.18836125115E+04  0.00000000000E+00 0.  1.
        -24    2    1    2    0    0  0.70068733843E+02  0.77020655674E+02 -0.16173825841E+04  0.16227026821E+04  0.79973509258E+02 0.  0.
         25    2    1    2    0    0 -0.95211233768E+01 -0.55537615883E+02 -0.23849239164E+03  0.27514045536E+03  0.12509424741E+03 0.  0.
         24    2    1    2    0    0 -0.60547610466E+02 -0.21483039791E+02  0.31160695681E+03  0.32511386648E+03  0.66877473857E+02 0.  0.
        -13    1    5    5    0    0 -0.51375402390E+02  0.13480421897E+02  0.22658533556E+03  0.23272745441E+03  0.00000000000E+00 0.  1.
         14    1    5    5    0    0 -0.91722080762E+01 -0.34963461688E+02  0.85021621258E+02  0.92386412072E+02  0.00000000000E+00 0. -1.
         11    1    3    3    0    0  0.17274457971E+02 -0.22026238253E+01 -0.73369391422E+03  0.73390055063E+03  0.00000000000E+00 0. -1.
        -12    1    3    3    0    0  0.52794275871E+02  0.79223279500E+02 -0.88368866992E+03  0.88880213148E+03  0.00000000000E+00 0.  1.
          5    1    4    4  501    0 -0.25004939686E+02  0.18003207886E+02 -0.72108930318E+01  0.31919145998E+02  0.41800000000E+01 0. -1.
         -5    1    4    4    0  501  0.15483816309E+02 -0.73540823769E+02 -0.23128149861E+03  0.24322130936E+03  0.41800000000E+01 0. -1.
</event>
<event>
11    1  0.7577197E-009  0.1364979E+03  0.7561462E-02  0.1111533E+00
         22   -1    0    0    0    0  0.00000000000E+00  0.00000000000E+00  0.60714492005E+03  0.60714492005E+03  0.00000000000E+00 0. -1.
         22   -1    0    0    0    0 -0.00000000000E+00 -0.00000000000E+00 -0.22343128548E+04  0.22343128548E+04  0.00000000000E+00 0. -1.
         24    2    1    2    0    0 -0.47480463887E+02 -0.25485287888E+02 -0.20111687282E+04  0.20134007958E+04  0.77969333515E+02 0.  0.
         25    2    1    2    0    0  0.10115688025E+03  0.25229611289E+02 -0.18710919689E+03  0.24804531882E+03  0.12508949165E+03 0.  0.
        -24    2    1    2    0    0 -0.53676416362E+02  0.25567659907E+00  0.57110999040E+03  0.58001166015E+03  0.85823549942E+02 0.  0.
        -13    1    3    3    0    0 -0.29681153069E+02 -0.26361313982E+01 -0.22123167125E+03  0.22322941652E+03  0.00000000000E+00 0.  1.
         14    1    3    3    0    0 -0.17799310818E+02 -0.22849156490E+02 -0.17899370570E+04  0.17901713793E+04  0.00000000000E+00 0. -1.
         11    1    5    5    0    0 -0.68962651981E+02 -0.18752021581E+02  0.49380643964E+03  0.49895118550E+03  0.00000000000E+00 0. -1.
        -12    1    5    5    0    0  0.15286235620E+02  0.19007698180E+02  0.77303550765E+02  0.81060474649E+02  0.00000000000E+00 0.  1.
          5    1    4    4  501    0 -0.12647039647E+01 -0.40402372736E+02 -0.38825971071E+02  0.56203911149E+02  0.41800000000E+01 0.  1.
         -5    1    4    4    0  501  0.10242158421E+03  0.65631984025E+02 -0.14828322582E+03  0.19184140768E+03  0.41800000000E+01 0.  1.
</event>
<event>
11    1  0.7577197E-009  0.1939891E+03  0.7561462E-02  0.1058858E+00
         22   -1    0    0    0    0  0.00000000000E+00  0.00000000000E+00  0.20060928293E+03  0.20060928293E+03  0.00000000000E+00 0.  1.
         22   -1    0    0    0    0 -0.00000000000E+00 -0.00000000000E+00 -0.96491445317E+03  0.96491445317E+03  0.00000000000E+00 0. -1.
        -24    2    1    2    0    0  0.13750540885E+03  0.11253729358E+03 -0.75617581946E+03  0.78088912898E+03  0.80084841933E+02 0.  0.
         25    2    1    2    0    0  0.21864136689E+02 -0.51799945793E+02 -0.10493962906E+03  0.17269036056E+03  0.12509340521E+03 0.  0.
         24    2    1    2    0    0 -0.15936954554E+03 -0.60737347788E+02  0.96810278277E+02  0.21194424656E+03  0.80376963184E+02 0.  0.
        -11    1    5    5    0    0 -0.14013823395E+03 -0.64359573281E+02  0.51490252190E+02  0.16257959699E+03  0.00000000000E+00 0.  1.
         12    1    5    5    0    0 -0.19231311588E+02  0.36222254928E+01  0.45320026087E+02  0.49364649573E+02  0.00000000000E+00 0. -1.
         11    1    3    3    0    0  0.37948603949E+02  0.79982020940E+02 -0.39706757079E+03  0.40681675972E+03  0.00000000000E+00 0. -1.
        -12    1    3    3    0    0  0.99556804899E+02  0.32555272641E+02 -0.35910824867E+03  0.37407236926E+03  0.00000000000E+00 0.  1.
          5    1    4    4  501    0 -0.14879589330E+02 -0.11637378537E+01 -0.10877215014E+03  0.10987087653E+03  0.41800000000E+01 0. -1.
         -5    1    4    4    0  501  0.36743726020E+02 -0.50636207939E+02  0.38325210772E+01  0.62819484032E+02  0.41800000000E+01 0. -1.
</event>
<event>
11    1  0.7577197E-009  0.1468077E+03  0.7561462E-02  0.1100186E+00
         22   -1    0    0    0    0  0.00000000000E+00  0.00000000000E+00  0.65215946756E+03  0.65215946756E+03  0.00000000000E+00 0.  1.
         22   -1    0    0    0    0 -0.00000000000E+00 -0.00000000000E+00 -0.18156663299E+04  0.18156663299E+04  0.00000000000E+00 0. -1.
         24    2    1    2    0    0  0.64313492321E+02 -0.43847893025E+02 -0.17564087220E+04  0.17600217144E+04  0.81522840034E+02 0.  0.
         25    2    1    2    0    0 -0.34740981984E+02  0.84097762197E+01  0.25222736661E+02  0.13251861587E+03  0.12508931585E+03 0.  0.
        -24    2    1    2    0    0 -0.29572510337E+02  0.35438116805E+02  0.56767912300E+03  0.57528546718E+03  0.81014742907E+02 0.  0.
        -11    1    3    3    0    0  0.56547230051E+02 -0.10890729629E+02 -0.52522916882E+03  0.52837664312E+03  0.00000000000E+00 0.  1.
         12    1    3    3    0    0  0.77662622699E+01 -0.32957163396E+02 -0.12311795532E+04  0.12316450713E+04  0.00000000000E+00 0. -1.
         11    1    5    5    0    0 -0.31583423818E+02  0.19554658053E+02  0.90356222355E+02  0.97694136108E+02  0.00000000000E+00 0. -1.
        -12    1    5    5    0    0  0.20109134812E+01  0.15883458753E+02  0.47732290065E+03  0.47759133107E+03  0.00000000000E+00 0.  1.
          5    1    4    4  501    0 -0.49467509711E+02 -0.26796416690E+02  0.58821726372E+02  0.81501842665E+02  0.41800000000E+01 0.  1.
         -5    1    4    4    0  501  0.14726527727E+02  0.35206192909E+02 -0.33598989712E+02  0.51016773200E+02  0.41800000000E+01 0.  1.
</event>
<event>
11    1  0.7577197E-009  0.1396538E+03  0.7561462E-02  0.1107946E+00
         22   -1    0    0    0    0  0.00000000000E+00  0.00000000000E+00  0.97114879845E+02  0.97114879845E+02  0.00000000000E+00 0.  1.
         22   -1    0    0    0    0 -0.00000000000E+00 -0.00000000000E+00 -0.16699595502E+04  0.16699595502E+04  0.00000000000E+00 0.  1.
         24    2    1    2    0    0 -0.10487033798E+02 -0.32112779597E+02 -0.14353225989E+04  0.14379942900E+04  0.80841862309E+02 0.  0.
         25    2    1    2    0    0 -0.18387281295E+02  0.82766138172E+02 -0.16639256155E+03  0.22476785220E+03  0.12508308080E+03 0.  0.
        -24    2    1    2    0    0  0.28874315093E+02 -0.50653358575E+02  0.28870490090E+02  0.10431228784E+03  0.81535632631E+02 0.  0.
        -13    1    3    3    0    0  0.15484580490E+02 -0.47869213203E+02 -0.59517131493E+03  0.59729400459E+03  0.00000000000E+00 0.  1.
         14    1    3    3    0    0 -0.25971614289E+02  0.15756433606E+02 -0.84015128397E+03  0.84070028542E+03  0.00000000000E+00 0. -1.
         11    1    5    5    0    0  0.85353331655E+00  0.21616108898E+02  0.99069324910E-01  0.21633180481E+02  0.00000000000E+00 0. -1.
        -12    1    5    5    0    0  0.28020781777E+02 -0.72269467473E+02  0.28771420765E+02  0.82679107355E+02  0.00000000000E+00 0.  1.
          5    1    4    4  501    0  0.31403795852E+02  0.28469801058E+02  0.16878420791E+00  0.42593765440E+02  0.41800000000E+01 0. -1.
         -5    1    4    4    0  501 -0.49791077147E+02  0.54296337113E+02 -0.16656134576E+03  0.18217408676E+03  0.41800000000E+01 0. -1.
</event>
<event>
11    1  0.7577197E-009  0.1388032E+03  0.7561462E-02  0.1108902E+00
         22   -1    0    0    0    0  0.00000000000E+00  0.00000000000E+00  0.19362152232E+03  0.19362152232E+03  0.00000000000E+00 0.  1.
         22   -1    0    0    0    0 -0.00000000000E+00 -0.00000000000E+00 -0.59225283250E+03  0.59225283250E+03  0.00000000000E+00 0. -1.
         24    2    1    2    0    0 -0.36566700492E+02 -0.45345956037E+02 -0.47114497048E+03  0.48158204359E+03  0.80933937152E+02 0.  0.
         25    2    1    2    0    0  0.47454984466E+02  0.94371016754E+02 -0.23154562228E+02  0.16535199537E+03  0.12508910531E+03 0.  0.
        -24    2    1    2    0    0 -0.10888283975E+02 -0.49025060717E+02  0.95668222521E+02  0.13894031586E+03  0.87349821208E+02 0.  0.
        -13    1    3    3    0    0 -0.45390327196E+01  0.44729518291E+00  0.21197526698E+01  0.50295369957E+01  0.00000000000E+00 0.  1.
         14    1    3    3    0    0 -0.32027667772E+02 -0.45793251220E+02 -0.47326472315E+03  0.47655250659E+03  0.00000000000E+00 0. -1.
         11    1    5    5    0    0 -0.27521594839E+02  0.10419327556E+02  0.59262550588E+01  0.30018678656E+02  0.00000000000E+00 0. -1.
        -12    1    5    5    0    0  0.16633310865E+02 -0.59444388273E+02  0.89741967463E+02  0.10892163721E+03  0.00000000000E+00 0.  1.
          5    1    4    4  501    0 -0.10476715210E+01  0.10806385957E+03 -0.34508147109E+02  0.11352171588E+03  0.41800000000E+01 0. -1.
         -5    1    4    4    0  501  0.48502655987E+02 -0.13692842812E+02  0.11353584881E+02  0.51830279487E+02  0.41800000000E+01 0. -1.
</event>
<event>
11    1  0.7577197E-009  0.2194193E+03  0.7561462E-02  0.1041582E+00
         22   -1    0    0    0    0  0.00000000000E+00  0.00000000000E+00  0.74842879494E+03  0.74842879494E+03  0.00000000000E+00 0.  1.
         22   -1    0    0    0    0 -0.00000000000E+00 -0.00000000000E+00 -0.79387761680E+03  0.79387761680E+03  0.00000000000E+00 0.  1.
         24    2    1    2    0    0  0.21925522963E+02 -0.66957327963E+01 -0.72693491279E+03  0.73158081737E+03  0.79060505340E+02 0.  0.
         25    2    1    2    0    0 -0.15892938342E+03  0.11294022068E+03  0.26180756819E+03  0.34957955899E+03  0.12509445609E+03 0.  0.
        -24    2    1    2    0    0  0.13700386045E+03 -0.10624448788E+03  0.41967852274E+03  0.46114603537E+03  0.80421729046E+02 0.  0.
        -11    1    3    3    0    0  0.34429167511E+02 -0.27732496576E+02 -0.63193402457E+03  0.63347854766E+03  0.00000000000E+00 0.  1.
         12    1    3    3    0    0 -0.12503644548E+02  0.21036763779E+02 -0.95000888224E+02  0.98102269702E+02  0.00000000000E+00 0. -1.
         11    1    5    5    0    0  0.13799102755E+02 -0.28479244305E+01  0.28685429175E+01  0.14378958546E+02  0.00000000000E+00 0. -1.
        -12    1    5    5    0    0  0.12320475770E+03 -0.10339656345E+03  0.41680997983E+03  0.44676707683E+03  0.00000000000E+00 0.  1.
          5    1    4    4  501    0 -0.13022118816E+03  0.49036048857E+02  0.23752981760E+03  0.27531795906E+03  0.41800000000E+01 0.  1.
         -5    1    4    4    0  501 -0.28708195254E+02  0.63904171820E+02  0.24277750593E+02  0.74261599933E+02  0.41800000000E+01 0.  1.
</event>
<event>
11    1  0.7577197E-009  0.3009667E+03  0.7561462E-02  0.9997829E-01
         22   -1    0    0    0    0  0.00000000000E+00  0.00000000000E+00  0.81244098744E+03  0.81244098744E+03  0.00000000000E+00 0.  1.
         22   -1    0    0    0    0 -0.00000000000E+00 -0.00000000000E+00 -0.70343547173E+03  0.70343547173E+03  0.00000000000E+00 0. -1.
        -24    2    1    2    0    0  0.38504256428E+02 -0.81735015243E+01 -0.58560217705E+03  0.59231238212E+03  0.79716148657E+02 0.  0.
         25    2    1    2    0    0 -0.23278002410E+03  0.18323413728E+03  0.27708238965E+03  0.42447867509E+03  0.12508479631E+03 0.  0.
         24    2    1    2    0    0  0.19427576767E+03 -0.17506063576E+03  0.41752530311E+03  0.49908540197E+03  0.79809520902E+02 0.  0.
        -11    1    5    5    0    0  0.15361875953E+03 -0.13967291178E+03  0.38123861770E+03  0.43410843022E+03  0.00000000000E+00 0.  1.
         12    1    5    5    0    0  0.40657008137E+02 -0.35387723983E+02  0.36286685407E+02  0.64976971746E+02  0.00000000000E+00 0. -1.
         13    1    3    3    0    0  0.34809610081E+02  0.30177695403E+02 -0.22570538165E+03  0.23035911434E+03  0.00000000000E+00 0. -1.
        -14    1    3    3    0    0  0.36946463469E+01 -0.38351196927E+02 -0.35989679540E+03  0.36195326778E+03  0.00000000000E+00 0.  1.
          5    1    4    4  501    0 -0.14958198993E+01  0.44559611516E+02  0.75439342865E+02  0.87728919448E+02  0.41800000000E+01 0.  1.
         -5    1    4    4    0  501 -0.23128420420E+03  0.13867452577E+03  0.20164304678E+03  0.33674975564E+03  0.41800000000E+01 0.  1.
</event>
<event>
11    1  0.7577197E-009  0.1403188E+03  0.7561462E-02  0.1107203E+00
         22   -1    0    0    0    0  0.00000000000E+00  0.00000000000E+00  0.45499262646E+03  0.45499262646E+03  0.00000000000E+00 0. -1.
         22   -1    0    0    0    0 -0.00000000000E+00 -0.00000000000E+00 -0.56077119431E+03  0.56077119431E+03  0.00000000000E+00 0.  1.
         24    2    1    2    0    0 -0.11266464075E+02 -0.61920269749E+02 -0.29373136925E+03  0.31093768299E+03  0.80268751102E+02 0.  0.
         25    2    1    2    0    0  0.71973887572E+02  0.42422508340E+02 -0.22956254037E+03  0.27445630759E+03  0.12508954844E+03 0.  0.
        -24    2    1    2    0    0 -0.60707423498E+02  0.19497761408E+02  0.41751534178E+03  0.43036983019E+03  0.82665447127E+02 0.  0.
        -11    1    3    3    0    0 -0.29785585397E+02 -0.23909861616E+02 -0.23766860913E+03  0.24071815541E+03  0.00000000000E+00 0.  1.
         12    1    3    3    0    0  0.18519121322E+02 -0.38010408133E+02 -0.56062760125E+02  0.70219527582E+02  0.00000000000E+00 0. -1.
         11    1    5    5    0    0 -0.38459442960E+02  0.42637940965E+02  0.35957993626E+03  0.36413576221E+03  0.00000000000E+00 0. -1.
        -12    1    5    5    0    0 -0.22247980537E+02 -0.23140179557E+02  0.57935405521E+02  0.66234067977E+02  0.00000000000E+00 0.  1.
          5    1    4    4  501    0  0.92550324046E+02 -0.84176119787E+01 -0.11974736587E+03  0.15163549289E+03  0.41800000000E+01 0.  1.
         -5    1    4    4    0  501 -0.20576436474E+02  0.50840120319E+02 -0.10981517451E+03  0.12282081470E+03  0.41800000000E+01 0.  1.
</event>
<event>
11    1  0.7577197E-009  0.1572457E+03  0.7561462E-02  0.1089697E+00
         22   -1    0    0    0    0  0.00000000000E+00  0.00000000000E+00  0.74154332481E+02  0.74154332481E+02  0.00000000000E+00 0.  1.
         22   -1    0    0    0    0 -0.00000000000E+00 -0.00000000000E+00 -0.17585158235E+04  0.17585158235E+04  0.00000000000E+00 0.  1.
        -24    2    1    2    0    0 -0.54571114238E+00  0.87366645246E-01 -0.14584340605E+04  0.14607167260E+04  0.81628053938E+02 0.  0.
         25    2    1    2    0    0  0.24810051957E+02 -0.92154071493E+02 -0.18815433701E+03  0.24527416934E+03  0.12509776992E+03 0.  0.
         24    2    1    2    0    0 -0.24264340815E+02  0.92066704848E+02 -0.37773093448E+02  0.12667926064E+03  0.74537186091E+02 0.  0.
        -11    1    5    5    0    0 -0.26823394830E+02  0.96897553178E+02 -0.13080800079E+02  0.10138904109E+03  0.00000000000E+00 0.  1.
         12    1    5    5    0    0  0.25590540154E+01 -0.48308483299E+01 -0.24692293369E+02  0.25290219549E+02  0.00000000000E+00 0. -1.
         11    1    3    3    0    0 -0.18813490709E+01 -0.34456871643E+02 -0.33960947242E+03  0.34135818319E+03  0.00000000000E+00 0. -1.
        -12    1    3    3    0    0  0.13356379285E+01  0.34544238288E+02 -0.11188245881E+04  0.11193585428E+04  0.00000000000E+00 0.  1.
          5    1    4    4  501    0 -0.32641021013E+02  0.15841312224E+01 -0.75553613798E+01  0.33800911379E+02  0.41800000000E+01 0.  1.
         -5    1    4    4    0  501  0.57451072970E+02 -0.93738202715E+02 -0.18059897563E+03  0.21147325796E+03  0.41800000000E+01 0.  1.
</event>
<event>
11    1  0.7577197E-009  0.1739056E+03  0.7561462E-02  0.1074682E+00
         22   -1    0    0    0    0  0.00000000000E+00  0.00000000000E+00  0.10471921285E+03  0.10471921285E+03  0.00000000000E+00 0.  1.
         22   -1    0    0    0    0 -0.00000000000E+00 -0.00000000000E+00 -0.14338050614E+04  0.14338050614E+04  0.00000000000E+00 0.  1.
         24    2    1    2    0    0  0.65945652078E+02  0.99959269838E+02 -0.11643875188E+04  0.11731187549E+04  0.77901440819E+02 0.  0.
         25    2    1    2    0    0 -0.41272459301E+02 -0.12723021544E+03 -0.19969010940E+03  0.27094936470E+03  0.12508586980E+03 0.  0.
        -24    2    1    2    0    0 -0.24673192777E+02  0.27270945602E+02  0.34991779631E+02  0.94456154684E+02  0.79655945165E+02 0.  0.
        -13    1    3    3    0    0  0.64474734253E+02  0.11264857838E+03 -0.10366006783E+04  0.10446950080E+04  0.00000000000E+00 0.  1.
         14    1    3    3    0    0  0.14709178252E+01 -0.12689308538E+02 -0.12778684055E+03  0.12842374690E+03  0.00000000000E+00 0. -1.
         11    1    5    5    0    0 -0.25312721216E+01  0.95475691613E+01 -0.25662910091E+02  0.27498152116E+02  0.00000000000E+00 0. -1.
        -12    1    5    5    0    0 -0.22141920655E+02  0.17723376440E+02  0.60654689722E+02  0.66958002569E+02  0.00000000000E+00 0.  1.
          5    1    4    4  501    0 -0.49334935096E+01 -0.61869314243E+02 -0.18425883697E+03  0.19447607257E+03  0.41800000000E+01 0. -1.
         -5    1    4    4    0  501 -0.36338965791E+02 -0.65360901196E+02 -0.15431272431E+02  0.76473292127E+02  0.41800000000E+01 0. -1.
</event>
<event>
11    1  0.7577197E-009  0.1635127E+03  0.7561462E-02  0.1083819E+00
         22   -1    0    0    0    0  0.00000000000E+00  0.00000000000E+00  0.56456389828E+03  0.56456389828E+03  0.00000000000E+00 0.  1.
         22   -1    0    0    0    0 -0.00000000000E+00 -0.00000000000E+00 -0.46815026394E+03  0.46815026394E+03  0.00000000000E+00 0. -1.
        -24    2    1    2    0    0  0.45657759725E+01  0.12147845442E+01 -0.33819392549E+03  0.34900783624E+03  0.86075644088E+02 0.  0.
         25    2    1    2    0    0  0.32611609433E+02  0.97515718604E+02 -0.58997232731E+02  0.17234045672E+03  0.12509087540E+03 0.  0.
         24    2    1    2    0    0 -0.37177385406E+02 -0.98730503148E+02  0.49360479257E+03  0.51136586926E+03  0.81972500011E+02 0.  0.
        -13    1    5    5    0    0 -0.58297396980E+02 -0.95127549667E+02  0.39461022540E+03  0.41007934256E+03  0.00000000000E+00 0.  1.
         14    1    5    5    0    0  0.21120011574E+02 -0.36029534806E+01  0.98994567163E+02  0.10128652670E+03  0.00000000000E+00 0. -1.
         13    1    3    3    0    0  0.44318461494E+02  0.54645847565E+01 -0.21122360931E+03  0.21589210464E+03  0.00000000000E+00 0. -1.
        -14    1    3    3    0    0 -0.39752685522E+02 -0.42498002123E+01 -0.12697031618E+03  0.13311573160E+03  0.00000000000E+00 0.  1.
          5    1    4    4  501    0 -0.30995559273E+02  0.92434923010E+02 -0.29703007667E+02  0.10200333696E+03  0.41800000000E+01 0. -1.
         -5    1    4    4    0  501  0.63607168706E+02  0.50807955940E+01 -0.29294225064E+02  0.70337119765E+02  0.41800000000E+01 0. -1.
</event>
<event>
11    1  0.7577197E-009  0.1413908E+03  0.7561462E-02  0.1106015E+00
         22   -1    0    0    0    0  0.00000000000E+00  0.00000000000E+00  0.24002530342E+03  0.24002530342E+03  0.00000000000E+00 0. -1.
         22   -1    0    0    0    0 -0.00000000000E+00 -0.00000000000E+00 -0.85250000610E+03  0.85250000610E+03  0.00000000000E+00 0. -1.
        -24    2    1    2    0    0 -0.13217774550E+02  0.12819189132E+02 -0.72206156447E+03  0.72662073500E+03  0.79156480981E+02 0.  0.
         25    2    1    2    0    0 -0.19526872203E+02  0.46574414291E+02 -0.74159358288E+02  0.15394930595E+03  0.12510117336E+03 0.  0.
         24    2    1    2    0    0  0.32744646753E+02 -0.59393603423E+02  0.18374622008E+03  0.21195526857E+03  0.81009570188E+02 0.  0.
        -11    1    5    5    0    0 -0.16154971577E+02  0.69545092989E+01  0.11526077303E+02  0.21028522636E+02  0.00000000000E+00 0.  1.
         12    1    5    5    0    0  0.48899618330E+02 -0.66348112722E+02  0.17222014277E+03  0.19092674593E+03  0.00000000000E+00 0. -1.
         13    1    3    3    0    0  0.11146883532E+02  0.40788443112E+02 -0.30576777887E+03  0.30867763881E+03  0.00000000000E+00 0. -1.
        -14    1    3    3    0    0 -0.24364658081E+02 -0.27969253980E+02 -0.41629378559E+03  0.41794309619E+03  0.00000000000E+00 0.  1.
          5    1    4    4  501    0 -0.62512998017E+02  0.20559363529E+01 -0.78890795072E+01  0.63180786406E+02  0.41800000000E+01 0. -1.
         -5    1    4    4    0  501  0.42986125814E+02  0.44518477938E+02 -0.66270278781E+02  0.90768519543E+02  0.41800000000E+01 0. -1.
</event>
<event>
11    1  0.7577197E-009  0.2939696E+03  0.7561462E-02  0.1002776E+00
         22   -1    0    0    0    0  0.00000000000E+00  0.00000000000E+00  0.20900067365E+04  0.20900067365E+04  0.00000000000E+00 0.  1.
         22   -1    0    0    0    0 -0.00000000000E+00 -0.00000000000E+00 -0.33331821318E+03  0.33331821318E+03  0.00000000000E+00 0.  1.
         24    2    1    2    0    0 -0.16967027980E+03 -0.21086847350E+03 -0.22853653894E+03  0.36289694357E+03  0.78814497708E+02 0.  0.
         25    2    1    2    0    0  0.10729177877E+03  0.21051675866E+03  0.46115154028E+03  0.53304483579E+03  0.12508885799E+03 0.  0.
        -24    2    1    2    0    0  0.62378501037E+02  0.35171484451E+00  0.15240735219E+04  0.15273831703E+04  0.78791163534E+02 0.  0.
        -13    1    3    3    0    0 -0.85916744790E+02 -0.14093158966E+03 -0.17767429635E+03  0.24251093910E+03  0.00000000000E+00 0.  1.
         14    1    3    3    0    0 -0.83753535014E+02 -0.69936883847E+02 -0.50862242592E+02  0.12038600447E+03  0.00000000000E+00 0. -1.
         11    1    5    5    0    0  0.27711113907E+02 -0.38638128095E+02  0.82172946706E+03  0.82310395930E+03  0.00000000000E+00 0. -1.
        -12    1    5    5    0    0  0.34667387130E+02  0.38989842940E+02  0.70234405488E+03  0.70427921097E+03  0.00000000000E+00 0.  1.
          5    1    4    4  501    0 -0.15802592718E+02  0.92583867217E+02  0.12834526051E+03  0.15909579724E+03  0.41800000000E+01 0. -1.
         -5    1    4    4    0  501  0.12309437148E+03  0.11793289144E+03  0.33280627978E+03  0.37394903855E+03  0.41800000000E+01 0. -1.
</event>
<event>
11    1  0.7577197E-009  0.1593258E+03  0.7561462E-02  0.1087713E+00
         22   -1    0    0    0    0  0.00000000000E+00  0.00000000000E+00  0.35669218498E+03  0.35669218498E+03  0.00000000000E+00 0. -1.
         22   -1    0    0    0    0 -0.00000000000E+00 -0.00000000000E+00 -0.75107018190E+03  0.75107018190E+03  0.00000000000E+00 0. -1.
         24    2    1    2    0    0 -0.67954141573E+01 -0.96352356031E+01 -0.56893603707E+03  0.57440729576E+03  0.78208130840E+02 0.  0.
         25    2    1    2    0    0 -0.43552040422E+02  0.94093819079E+02 -0.12683433659E+03  0.20611962671E+03  0.12509166464E+03 0.  0.
        -24    2    1    2    0    0  0.50347454579E+02 -0.84458583476E+02  0.30139237674E+03  0.32723544442E+03  0.81102113563E+02 0.  0.
        -11    1    3    3    0    0 -0.13962193866E+02 -0.41546082482E+02 -0.25146913916E+03  0.25526015705E+03  0.00000000000E+00 0.  1.
         12    1    3    3    0    0  0.71667797089E+01  0.31910846879E+02 -0.31746689790E+03  0.31914713871E+03  0.00000000000E+00 0. -1.
         13    1    5    5    0    0  0.72200351874E+01 -0.65077335319E+02  0.24522684767E+03  0.25381764182E+03  0.00000000000E+00 0. -1.
        -14    1    5    5    0    0  0.43127419392E+02 -0.19381248157E+02  0.56165529069E+02  0.73417802603E+02  0.00000000000E+00 0.  1.
          5    1    4    4  501    0  0.22994984158E+02  0.57849619250E+02 -0.50144468069E+01  0.62593648405E+02  0.41800000000E+01 0. -1.
         -5    1    4    4    0  501 -0.66547024580E+02  0.36244199829E+02 -0.12181988978E+03  0.14352597830E+03  0.41800000000E+01 0. -1.
</event>
<event>
11    1  0.7577197E-009  0.1586181E+03  0.7561462E-02  0.1088384E+00
         22   -1    0    0    0    0  0.00000000000E+00  0.00000000000E+00  0.60110904983E+03  0.60110904983E+03  0.00000000000E+00 0. -1.
         22   -1    0    0    0    0 -0.00000000000E+00 -0.00000000000E+00 -0.16651176078E+04  0.16651176078E+04  0.00000000000E+00 0.  1.
        -24    2    1    2    0    0  0.32495540112E+02 -0.35975803250E+02 -0.15837763831E+04  0.15865537569E+04  0.80342847613E+02 0.  0.
         25    2    1    2    0    0 -0.79687488801E+02  0.11587399097E+03  0.51025586077E+02  0.19500836855E+03  0.12509106969E+03 0.  0.
         24    2    1    2    0    0  0.47191948690E+02 -0.79898187720E+02  0.46874223904E+03  0.48466453223E+03  0.81053203000E+02 0.  0.
        -13    1    5    5    0    0  0.66111568847E+01  0.13336249356E+02  0.22458560971E+02  0.26943457520E+02  0.00000000000E+00 0.  1.
         14    1    5    5    0    0  0.40580791805E+02 -0.93234437076E+02  0.44628367807E+03  0.45772107471E+03  0.00000000000E+00 0. -1.
         11    1    3    3    0    0  0.14063479462E+02  0.20566028200E+02 -0.20706996801E+03  0.20856345467E+03  0.00000000000E+00 0. -1.
        -12    1    3    3    0    0  0.18432060650E+02 -0.56541831450E+02 -0.13767064151E+04  0.13779903022E+04  0.00000000000E+00 0.  1.
          5    1    4    4  501    0 -0.20552761728E+02  0.77150120635E+01  0.67008856932E+02  0.70637077609E+02  0.41800000000E+01 0. -1.
         -5    1    4    4    0  501 -0.59134727073E+02  0.10815897891E+03 -0.15983270855E+02  0.12437129094E+03  0.41800000000E+01 0. -1.
</event>
<event>
11    1  0.7577197E-009  0.1198340E+04  0.7561462E-02  0.8510321E-01
         22   -1    0    0    0    0  0.00000000000E+00  0.00000000000E+00  0.25853716756E+04  0.25853716756E+04  0.00000000000E+00 0. -1.
         22   -1    0    0    0    0 -0.00000000000E+00 -0.00000000000E+00 -0.10647005543E+04  0.10647005543E+04  0.00000000000E+00 0. -1.
        -24    2    1    2    0    0 -0.99934316104E+03  0.61695417401E+03 -0.35051056066E+03  0.12282625320E+04  0.80324267816E+02 0.  0.
         25    2    1    2    0    0  0.11070246358E+04 -0.58544059890E+03  0.12089365574E+04  0.17451125474E+04  0.12508382877E+03 0.  0.
         24    2    1    2    0    0 -0.10768147471E+03 -0.31513575108E+02  0.66224512448E+03  0.67669715046E+03  0.82231521525E+02 0.  0.
        -11    1    5    5    0    0 -0.11918158239E+03 -0.38094481663E+02  0.57537959381E+03  0.58882689824E+03  0.00000000000E+00 0.  1.
         12    1    5    5    0    0  0.11500107673E+02  0.65809065540E+01  0.86865530667E+02  0.87870252223E+02  0.00000000000E+00 0. -1.
         13    1    3    3    0    0 -0.77492007672E+03  0.45138402291E+03 -0.29350563369E+03  0.94360702543E+03  0.00000000000E+00 0. -1.
        -14    1    3    3    0    0 -0.22442308432E+03  0.16557015110E+03 -0.57004926973E+02  0.28465550655E+03  0.00000000000E+00 0.  1.
          5    1    4    4  501    0  0.87936266863E+03 -0.50370581451E+03  0.92507426829E+03  0.13721436240E+04  0.41800000000E+01 0.  1.
         -5    1    4    4    0  501  0.22766196712E+03 -0.81734784395E+02  0.28386228914E+03  0.37296892344E+03  0.41800000000E+01 0.  1.
</event>
<event>
11    1  0.7577197E-009  0.1975109E+03  0.7561462E-02  0.1056298E+00
         22   -1    0    0    0    0  0.00000000000E+00  0.00000000000E+00  0.11751140533E+04  0.11751140533E+04  0.00000000000E+00 0. -1.
         22   -1    0    0    0    0 -0.00000000000E+00 -0.00000000000E+00 -0.11415388781E+03  0.11415388781E+03  0.00000000000E+00 0.  1.
        -24    2    1    2    0    0 -0.34402914547E+02  0.10279648556E+02 -0.20526155181E+02  0.99102319713E+02  0.90059508228E+02 0.  0.
         25    2    1    2    0    0 -0.12251000916E+03 -0.26652349291E+02  0.12332508439E+03  0.21581955906E+03  0.12509978244E+03 0.  0.
         24    2    1    2    0    0  0.15691292371E+03  0.16372700736E+02  0.95816123630E+03  0.97434606234E+03  0.79922234111E+02 0.  0.
        -13    1    5    5    0    0  0.40017454581E+02 -0.30045555029E+02  0.22749942945E+03  0.23293802276E+03  0.00000000000E+00 0.  1.
         14    1    5    5    0    0  0.11689546913E+03  0.46418255765E+02  0.73066180685E+03  0.74140803958E+03  0.00000000000E+00 0. -1.
         11    1    3    3    0    0 -0.25327764364E+02  0.42810314916E+02  0.13106584043E+02  0.51439296808E+02  0.00000000000E+00 0. -1.
        -12    1    3    3    0    0 -0.90751501834E+01 -0.32530666360E+02 -0.33632739224E+02  0.47663022904E+02  0.00000000000E+00 0.  1.
          5    1    4    4  501    0  0.17425519559E+02  0.22355491463E+02  0.16936400961E+02  0.33282590163E+02  0.41800000000E+01 0. -1.
         -5    1    4    4    0  501 -0.13993552872E+03 -0.49007840754E+02  0.10638868342E+03  0.18253696890E+03  0.41800000000E+01 0. -1.
</event>
<event>
11    1  0.7577197E-009  0.1467152E+03  0.7561462E-02  0.1100283E+00
         22   -1    0    0    0    0  0.00000000000E+00  0.00000000000E+00  0.11367023110E+03  0.11367023110E+03  0.00000000000E+00 0. -1.
         22   -1    0    0    0    0 -0.00000000000E+00 -0.00000000000E+00 -0.68268283396E+03  0.68268283396E+03  0.00000000000E+00 0.  1.
        -24    2    1    2    0    0 -0.63409649265E+02 -0.61509314852E+02 -0.48889655768E+03  0.50339395257E+03  0.81126123655E+02 0.  0.
         25    2    1    2    0    0  0.39688733286E+02  0.30415367326E+01 -0.12554702634E+03  0.18164426091E+03  0.12509250659E+03 0.  0.
         24    2    1    2    0    0  0.23720915979E+02  0.58467778119E+02  0.45430981157E+02  0.11131485157E+03  0.79660901320E+02 0.  0.
        -11    1    5    5    0    0 -0.24058631900E+02  0.20871538270E+02 -0.51044506184E+01  0.32256693798E+02  0.00000000000E+00 0.  1.
         12    1    5    5    0    0  0.47779547879E+02  0.37596239850E+02  0.50535431775E+02  0.79058157777E+02  0.00000000000E+00 0. -1.
         11    1    3    3    0    0  0.63462829363E+01 -0.75816706922E+01 -0.41986039889E+01  0.10741755585E+02  0.00000000000E+00 0. -1.
        -12    1    3    3    0    0 -0.69755932202E+02 -0.53927644160E+02 -0.48469795369E+03  0.49265219699E+03  0.00000000000E+00 0.  1.
          5    1    4    4  501    0  0.85113140942E+02  0.65208448436E+01 -0.79156091205E+02  0.11649003113E+03  0.41800000000E+01 0.  1.
         -5    1    4    4    0  501 -0.45424407655E+02 -0.34793081110E+01 -0.46390935134E+02  0.65154229781E+02  0.41800000000E+01 0.  1.
</event>
<event>
11    1  0.7577197E-009  0.1294644E+03  0.7561462E-02  0.1119929E+00
         22   -1    0    0    0    0  0.00000000000E+00  0.00000000000E+00  0.58427674959E+02  0.58427674959E+02  0.00000000000E+00 0. -1.
         22   -1    0    0    0    0 -0.00000000000E+00 -0.00000000000E+00 -0.18903954437E+04  0.18903954437E+04  0.00000000000E+00 0.  1.
         24    2    1    2    0    0  0.36768634042E+02  0.51146701407E+01 -0.14168501420E+04  0.14195782029E+04  0.79748712555E+02 0.  0.
         25    2    1    2    0    0 -0.91049322852E+01  0.62277494225E+01 -0.42431065653E+03  0.44250351445E+03  0.12509253536E+03 0.  0.
        -24    2    1    2    0    0 -0.27663701757E+02 -0.11342419563E+02  0.91930297711E+01  0.86741401258E+02  0.80905055586E+02 0.  0.
        -11    1    3    3    0    0  0.45905140683E+02 -0.16027466063E+01 -0.13851387171E+04  0.13859001105E+04  0.00000000000E+00 0.  1.
         12    1    3    3    0    0 -0.91365066403E+01  0.67174167470E+01 -0.31711424858E+02  0.33678092402E+02  0.00000000000E+00 0. -1.
         11    1    5    5    0    0 -0.44467116295E+02 -0.35036540654E+02  0.10868221946E+02  0.57645484306E+02  0.00000000000E+00 0. -1.
        -12    1    5    5    0    0  0.16803414538E+02  0.23694121091E+02 -0.16751921747E+01  0.29095916951E+02  0.00000000000E+00 0.  1.
          5    1    4    4  501    0  0.54794868530E+02 -0.16555056711E+02 -0.18139676663E+03  0.19025984039E+03  0.41800000000E+01 0.  1.
         -5    1    4    4    0  501 -0.63899800815E+02  0.22782806133E+02 -0.24291388990E+03  0.25224367406E+03  0.41800000000E+01 0.  1.
</event>
<event>
11    1  0.8176076E-009  0.2172240E+03  0.7561462E-02  0.1042970E+00
         22   -1    0    0    0    0  0.00000000000E+00  0.00000000000E+00  0.24420603712E+03  0.24420603712E+03  0.00000000000E+00 0. -1.
         22   -1    0    0    0    0 -0.00000000000E+00 -0.00000000000E+00 -0.15752289597E+04  0.15752289597E+04  0.00000000000E+00 0.  1.
         24    2    1    2    0    0  0.75537767771E+01  0.96750765910E-01 -0.77521859127E+03  0.77962481593E+03  0.82425241686E+02 0.  0.
         25    2    1    2    0    0 -0.18452663583E+03  0.88380555767E+01 -0.73933238056E+03  0.77226081542E+03  0.12508480134E+03 0.  0.
        -24    2    1    2    0    0  0.17697285906E+03 -0.89348063426E+01  0.18352804925E+03  0.26754936546E+03  0.80628124667E+02 0.  0.
        -11    1    3    3    0    0  0.28398065459E+02 -0.11567090162E+02 -0.11633052902E+03  0.12030394706E+03  0.00000000000E+00 0.  1.
         12    1    3    3    0    0 -0.20844288682E+02  0.11663840928E+02 -0.65888806225E+03  0.65932086887E+03  0.00000000000E+00 0. -1.
         11    1    5    5    0    0  0.14436080810E+03 -0.24912748761E+02  0.17845197994E+03  0.23088048231E+03  0.00000000000E+00 0. -1.
        -12    1    5    5    0    0  0.32612050960E+02  0.15977942419E+02  0.50760693081E+01  0.36668883148E+02  0.00000000000E+00 0.  1.
          5    1    4    4  501    0  0.18205648157E+02  0.78875382502E+01 -0.62740422852E+02  0.65935513528E+02  0.41800000000E+01 0. -1.
         -5    1    4    4    0  501 -0.20273228399E+03  0.95051732649E+00 -0.67659195771E+03  0.70632530189E+03  0.41800000000E+01 0. -1.
</event>
<event>
11    1  0.7577197E-009  0.2730704E+03  0.7561462E-02  0.1012280E+00
         22   -1    0    0    0    0  0.00000000000E+00  0.00000000000E+00  0.77724868455E+03  0.77724868455E+03  0.00000000000E+00 0.  1.
         22   -1    0    0    0    0 -0.00000000000E+00 -0.00000000000E+00 -0.26182810819E+03  0.26182810819E+03  0.00000000000E+00 0.  1.
        -24    2    1    2    0    0  0.85556700474E+01  0.15363116171E+02 -0.10877098618E+03  0.13631665743E+03  0.80261315898E+02 0.  0.
         25    2    1    2    0    0  0.21593803121E+03  0.83942562033E+02  0.42805327505E+02  0.26675071298E+03  0.12509220507E+03 0.  0.
         24    2    1    2    0    0 -0.22449370126E+03 -0.99305678204E+02  0.58138623503E+03  0.63600942232E+03  0.78987286110E+02 0.  0.
        -13    1    5    5    0    0 -0.21044625978E+03 -0.71114928273E+02  0.54072975978E+03  0.58457987854E+03  0.00000000000E+00 0.  1.
         14    1    5    5    0    0 -0.14047441474E+02 -0.28190749932E+02  0.40656475253E+02  0.51429543782E+02  0.00000000000E+00 0. -1.
         11    1    3    3    0    0 -0.34110240614E+02 -0.95795191809E+00 -0.30897086919E+02  0.46033207217E+02  0.00000000000E+00 0. -1.
        -12    1    3    3    0    0  0.42665910661E+02  0.16321068089E+02 -0.77873899262E+02  0.90283450213E+02  0.00000000000E+00 0.  1.
          5    1    4    4  501    0  0.15904231050E+03  0.33631106164E+01  0.52442437113E+02  0.16755133139E+03  0.41800000000E+01 0.  1.
         -5    1    4    4    0  501  0.56895720714E+02  0.80579451417E+02 -0.96371096080E+01  0.99199381590E+02  0.41800000000E+01 0.  1.
</event>
<event>
11    1  0.7577197E-009  0.1429231E+03  0.7561462E-02  0.1104338E+00
         22   -1    0    0    0    0  0.00000000000E+00  0.00000000000E+00  0.44190965597E+03  0.44190965597E+03  0.00000000000E+00 0.  1.
         22   -1    0    0    0    0 -0.00000000000E+00 -0.00000000000E+00 -0.16925791165E+03  0.16925791165E+03  0.00000000000E+00 0. -1.
        -24    2    1    2    0    0  0.24251763338E+02 -0.66056306163E+02 -0.10569531680E+03  0.15088072170E+03  0.81497905367E+02 0.  0.
         25    2    1    2    0    0 -0.80405859697E+02  0.28794745637E+02  0.17927826329E+03  0.23469721338E+03  0.12509135314E+03 0.  0.
         24    2    1    2    0    0  0.56154096359E+02  0.37261560525E+02  0.19906879784E+03  0.22558963254E+03  0.81979202295E+02 0.  0.
        -11    1    5    5    0    0  0.35422242352E+02 -0.22489953388E+02  0.94255024993E+02  0.10317239453E+03  0.00000000000E+00 0.  1.
         12    1    5    5    0    0  0.20731854007E+02  0.59751513913E+02  0.10481377284E+03  0.12241723801E+03  0.00000000000E+00 0. -1.
         11    1    3    3    0    0  0.54223570165E+02 -0.36620457923E+02 -0.69155338266E+02  0.95203541482E+02  0.00000000000E+00 0. -1.
        -12    1    3    3    0    0 -0.29971806827E+02 -0.29435848239E+02 -0.36539978532E+02  0.55677180220E+02  0.00000000000E+00 0.  1.
          5    1    4    4  501    0 -0.85043668488E+02  0.63149217270E+02  0.90803454952E+02  0.13958147808E+03  0.41800000000E+01 0.  1.
         -5    1    4    4    0  501  0.46378087911E+01 -0.34354471633E+02  0.88474808335E+02  0.95115735299E+02  0.41800000000E+01 0.  1.
</event>
<event>
11    1  0.7577197E-009  0.1263782E+03  0.7561462E-02  0.1123801E+00
         22   -1    0    0    0    0  0.00000000000E+00  0.00000000000E+00  0.39118752438E+03  0.39118752438E+03  0.00000000000E+00 0.  1.
         22   -1    0    0    0    0 -0.00000000000E+00 -0.00000000000E+00 -0.16230596895E+03  0.16230596895E+03  0.00000000000E+00 0.  1.
         24    2    1    2    0    0 -0.73718792240E+01  0.14232343320E+02 -0.81205206995E+02  0.11499956420E+03  0.79835517925E+02 0.  0.
         25    2    1    2    0    0  0.48059304611E+02  0.72969636777E+01  0.17353478327E+02  0.13531952062E+03  0.12508911628E+03 0.  0.
        -24    2    1    2    0    0 -0.40687425387E+02 -0.21529306998E+02  0.29273328410E+03  0.30317440852E+03  0.64054419965E+02 0.  0.
        -11    1    3    3    0    0  0.46536818055E+01  0.46478541239E+02 -0.51602164328E+02  0.69603842662E+02  0.00000000000E+00 0.  1.
         12    1    3    3    0    0 -0.12025561030E+02 -0.32246197919E+02 -0.29603042668E+02  0.45395721533E+02  0.00000000000E+00 0. -1.
         11    1    5    5    0    0 -0.20993347490E+01 -0.35232412305E+02  0.97468833529E+02  0.10366245025E+03  0.00000000000E+00 0. -1.
        -12    1    5    5    0    0 -0.38588090638E+02  0.13703105308E+02  0.19526445057E+03  0.19951195827E+03  0.00000000000E+00 0.  1.
          5    1    4    4  501    0  0.77598954181E+01 -0.48163865890E+02 -0.24641702622E+02  0.54814777775E+02  0.41800000000E+01 0. -1.
         -5    1    4    4    0  501  0.40299409193E+02  0.55460829568E+02  0.41995180949E+02  0.80504742845E+02  0.41800000000E+01 0. -1.
</event>
<event>
11    1  0.7577197E-009  0.1507750E+03  0.7561462E-02  0.1096090E+00
         22   -1    0    0    0    0  0.00000000000E+00  0.00000000000E+00  0.28303932765E+04  0.28303932765E+04  0.00000000000E+00 0. -1.
         22   -1    0    0    0    0 -0.00000000000E+00 -0.00000000000E+00 -0.50146199627E+02  0.50146199627E+02  0.00000000000E+00 0. -1.
         24    2    1    2    0    0 -0.78817319209E+02 -0.20919591487E+02  0.44860227211E+02  0.12496904427E+03  0.83396780066E+02 0.  0.
         25    2    1    2    0    0  0.11333170371E+03 -0.63788513710E+01  0.78028333111E+03  0.79835728892E+03  0.12509004416E+03 0.  0.
        -24    2    1    2    0    0 -0.34514384504E+02  0.27298442858E+02  0.19551035186E+04  0.19572131430E+04  0.79480003222E+02 0.  0.
        -11    1    3    3    0    0 -0.19973321480E+02  0.15877969824E+02  0.49208883009E+02  0.55430656352E+02  0.00000000000E+00 0.  1.
         12    1    3    3    0    0 -0.58843997728E+02 -0.36797561311E+02 -0.43486557977E+01  0.69538387919E+02  0.00000000000E+00 0. -1.
         13    1    5    5    0    0 -0.19697680034E+02 -0.27386711535E+02  0.82703916043E+03  0.82772688941E+03  0.00000000000E+00 0. -1.
        -14    1    5    5    0    0 -0.14816704470E+02  0.54685154393E+02  0.11280643581E+04  0.11294862535E+04  0.00000000000E+00 0.  1.
          5    1    4    4  501    0  0.30499764111E+02 -0.51541073636E+02  0.15935409134E+03  0.17028774679E+03  0.41800000000E+01 0. -1.
         -5    1    4    4    0  501  0.82831939602E+02  0.45162222265E+02  0.62092923978E+03  0.62806954213E+03  0.41800000000E+01 0. -1.
</event>
<event>
11    1  0.7577197E-009  0.1732580E+03  0.7561462E-02  0.1075231E+00
         22   -1    0    0    0    0  0.00000000000E+00  0.00000000000E+00  0.63979182230E+03  0.63979182230E+03  0.00000000000E+00 0. -1.
         22   -1    0    0    0    0 -0.00000000000E+00 -0.00000000000E+00 -0.20265867254E+04  0.20265867254E+04  0.00000000000E+00 0. -1.
        -24    2    1    2    0    0  0.16460216782E+02 -0.11889089959E+03 -0.19798602142E+04  0.19851462091E+04  0.80950719501E+02 0.  0.
         25    2    1    2    0    0 -0.52876561555E+01  0.11011676488E+03  0.13955997428E+03  0.21743678026E+03  0.12509238894E+03 0.  0.
         24    2    1    2    0    0 -0.11172560627E+02  0.87741347141E+01  0.45350533678E+03  0.46379555838E+03  0.96111486987E+02 0.  0.
        -13    1    5    5    0    0 -0.10237412915E+02  0.28291072838E+02  0.41139839650E+02  0.50967399698E+02  0.00000000000E+00 0.  1.
         14    1    5    5    0    0 -0.93514771196E+00 -0.19516938124E+02  0.41236549713E+03  0.41282815868E+03  0.00000000000E+00 0. -1.
         13    1    3    3    0    0 -0.31428763684E+02 -0.53438956272E+02 -0.10100737485E+04  0.10119745385E+04  0.00000000000E+00 0. -1.
        -14    1    3    3    0    0  0.47888980467E+02 -0.65451943320E+02 -0.96978646567E+03  0.97317167053E+03  0.00000000000E+00 0.  1.
          5    1    4    4  501    0 -0.47328850594E+02  0.52303472634E+02  0.12744843137E+02  0.71802345190E+02  0.41800000000E+01 0. -1.
         -5    1    4    4    0  501  0.42041194439E+02  0.57813292244E+02  0.12681513114E+03  0.14563443506E+03  0.41800000000E+01 0. -1.
</event>
<event>
11    1  0.7577197E-009  0.1671219E+03  0.7561462E-02  0.1080564E+00
         22   -1    0    0    0    0  0.00000000000E+00  0.00000000000E+00  0.24575413117E+03  0.24575413117E+03  0.00000000000E+00 0.  1.
         22   -1    0    0    0    0 -0.00000000000E+00 -0.00000000000E+00 -0.90476046507E+03  0.90476046507E+03  0.00000000000E+00 0. -1.
        -24    2    1    2    0    0  0.65596308489E+02 -0.98516715239E+02 -0.71141413573E+03  0.72513605752E+03  0.75523576005E+02 0.  0.
         25    2    1    2    0    0 -0.94551497995E+02  0.17525345406E+02 -0.13207653522E+03  0.20576473342E+03  0.12509113022E+03 0.  0.
         24    2    1    2    0    0  0.28955189505E+02  0.80991369834E+02  0.18448433705E+03  0.21961380529E+03  0.82448455855E+02 0.  0.
        -11    1    5    5    0    0 -0.22534410671E+02  0.22153144978E+02  0.98273112991E+02  0.10322870838E+03  0.00000000000E+00 0.  1.
         12    1    5    5    0    0  0.51489600177E+02  0.58838224855E+02  0.86211224057E+02  0.11638509692E+03  0.00000000000E+00 0. -1.
         11    1    3    3    0    0  0.44367939044E+02 -0.54528708938E+02 -0.21226697994E+03  0.22360493038E+03  0.00000000000E+00 0. -1.
        -12    1    3    3    0    0  0.21228369445E+02 -0.43988006301E+02 -0.49914715578E+03  0.50153112714E+03  0.00000000000E+00 0.  1.
          5    1    4    4  501    0 -0.39164117865E+02 -0.25405636041E+02 -0.12700799384E+03  0.13538012177E+03  0.41800000000E+01 0.  1.
         -5    1    4    4    0  501 -0.55387380130E+02  0.42930981446E+02 -0.50685413817E+01  0.70384611651E+02  0.41800000000E+01 0.  1.
</event>
<event>
11    1  0.7577197E-009  0.1458689E+03  0.7561462E-02  0.1101176E+00
         22   -1    0    0    0    0  0.00000000000E+00  0.00000000000E+00  0.41219999433E+03  0.41219999433E+03  0.00000000000E+00 0.  1.
         22   -1    0    0    0    0 -0.00000000000E+00 -0.00000000000E+00 -0.23001133726E+04  0.23001133726E+04  0.00000000000E+00 0.  1.
        -24    2    1    2    0    0  0.17169702046E+02 -0.72909707516E+02 -0.22487384214E+04  0.22514380371E+04  0.80858661231E+02 0.  0.
         25    2    1    2    0    0  0.10971895272E+02 -0.17005536559E+02  0.70774659807E+02  0.14513582866E+03  0.12508311449E+03 0.  0.
         24    2    1    2    0    0 -0.28141597318E+02  0.89915244075E+02  0.29005038332E+03  0.31573950112E+03  0.81764950227E+02 0.  0.
        -11    1    5    5    0    0  0.22085465760E+02  0.62388954041E+02  0.17786562818E+03  0.18977969088E+03  0.00000000000E+00 0.  1.
         12    1    5    5    0    0 -0.50227063078E+02  0.27526290034E+02  0.11218475515E+03  0.12595981024E+03  0.00000000000E+00 0. -1.
         11    1    3    3    0    0 -0.26418668871E+01 -0.67689341462E+02 -0.90064048839E+03  0.90318443063E+03  0.00000000000E+00 0. -1.
        -12    1    3    3    0    0  0.19811568933E+02 -0.52203660540E+01 -0.13480979330E+04  0.13482536065E+04  0.00000000000E+00 0.  1.
          5    1    4    4  501    0  0.24718889025E+02  0.47624597130E+02  0.89676797207E+01  0.54562050969E+02  0.41800000000E+01 0.  1.
         -5    1    4    4    0  501 -0.13746993753E+02 -0.64630133689E+02  0.61806980086E+02  0.90573777691E+02  0.41800000000E+01 0.  1.
</event>
<event>
11    1  0.7577197E-009  0.1461331E+03  0.7561462E-02  0.1100897E+00
         22   -1    0    0    0    0  0.00000000000E+00  0.00000000000E+00  0.54518502329E+03  0.54518502329E+03  0.00000000000E+00 0. -1.
         22   -1    0    0    0    0 -0.00000000000E+00 -0.00000000000E+00 -0.23066271913E+03  0.23066271913E+03  0.00000000000E+00 0.  1.
        -24    2    1    2    0    0 -0.96861438368E+01 -0.16421257076E+02 -0.14421637384E+03  0.16615965512E+03  0.80294392328E+02 0.  0.
         25    2    1    2    0    0  0.42673366231E+02 -0.52576914316E+02  0.50129156008E+01  0.14233877948E+03  0.12509936338E+03 0.  0.
         24    2    1    2    0    0 -0.32987222394E+02  0.68998171392E+02  0.45372576240E+03  0.46734930781E+03  0.81849884254E+02 0.  0.
        -11    1    5    5    0    0  0.19215338574E+02  0.33033466460E+02  0.84752278520E+02  0.92969822294E+02  0.00000000000E+00 0.  1.
         12    1    5    5    0    0 -0.52202560969E+02  0.35964704932E+02  0.36897348388E+03  0.37437948552E+03  0.00000000000E+00 0. -1.
         13    1    3    3    0    0  0.22043980864E+02  0.16829252032E+02 -0.21415777474E+02  0.35039924959E+02  0.00000000000E+00 0. -1.
        -14    1    3    3    0    0 -0.31730124701E+02 -0.33250509108E+02 -0.12280059636E+03  0.13111973016E+03  0.00000000000E+00 0.  1.
          5    1    4    4  501    0  0.23728824011E+02 -0.83967922740E+02 -0.29109132905E+02  0.92078679164E+02  0.41800000000E+01 0.  1.
         -5    1    4    4    0  501  0.18944542220E+02  0.31391008423E+02  0.34122048506E+02  0.50260100318E+02  0.41800000000E+01 0.  1.
</event>
<event>
11    1  0.7577197E-009  0.1702343E+03  0.7561462E-02  0.1077828E+00
         22   -1    0    0    0    0  0.00000000000E+00  0.00000000000E+00  0.78559824584E+03  0.78559824584E+03  0.00000000000E+00 0.  1.
         22   -1    0    0    0    0 -0.00000000000E+00 -0.00000000000E+00 -0.29930954834E+03  0.29930954834E+03  0.00000000000E+00 0. -1.
         24    2    1    2    0    0 -0.45287388429E+01 -0.52174216074E+02 -0.23594226299E+03  0.25483506134E+03  0.80805313720E+02 0.  0.
         25    2    1    2    0    0 -0.95076130960E+02  0.10383927988E+03  0.14800057380E+03  0.23952805203E+03  0.12508977233E+03 0.  0.
        -24    2    1    2    0    0  0.99604869803E+02 -0.51665063806E+02  0.57423038669E+03  0.59054468081E+03  0.80075427692E+02 0.  0.
        -13    1    3    3    0    0 -0.40945205660E+02 -0.15205952240E+02 -0.92463483873E+02  0.10226058234E+03  0.00000000000E+00 0.  1.
         14    1    3    3    0    0  0.36416466817E+02 -0.36968263834E+02 -0.14347877912E+03  0.15257447901E+03  0.00000000000E+00 0. -1.
         11    1    5    5    0    0  0.17179814396E+00 -0.20075976407E+02  0.28082575795E+02  0.34521086405E+02  0.00000000000E+00 0. -1.
        -12    1    5    5    0    0  0.99433071659E+02 -0.31589087400E+02  0.54614781090E+03  0.55602359440E+03  0.00000000000E+00 0.  1.
          5    1    4    4  501    0  0.30112735530E+02  0.21562242947E+02  0.40852078107E+02  0.55299835874E+02  0.41800000000E+01 0. -1.
         -5    1    4    4    0  501 -0.12518886649E+03  0.82277036933E+02  0.10714849569E+03  0.18422821616E+03  0.41800000000E+01 0. -1.
</event>
<event>
11    1  0.7577197E-009  0.1722987E+03  0.7561462E-02  0.1076048E+00
         22   -1    0    0    0    0  0.00000000000E+00  0.00000000000E+00  0.11466700625E+04  0.11466700625E+04  0.00000000000E+00 0. -1.
         22   -1    0    0    0    0 -0.00000000000E+00 -0.00000000000E+00 -0.12067741525E+03  0.12067741525E+03  0.00000000000E+00 0. -1.
         24    2    1    2    0    0  0.14270153909E+02 -0.16120431094E+02 -0.62520781667E+02  0.10729327157E+03  0.84495516993E+02 0.  0.
         25    2    1    2    0    0  0.92831384518E+02 -0.41717815895E+02  0.18637506947E+03  0.24645677336E+03  0.12508889839E+03 0.  0.
        -24    2    1    2    0    0 -0.10710153843E+03  0.57838246989E+02  0.90213835949E+03  0.91359743287E+03  0.77399272158E+02 0.  0.
        -11    1    3    3    0    0  0.34851881264E+02  0.23657090323E+02 -0.25970576819E+02  0.49485173643E+02  0.00000000000E+00 0.  1.
         12    1    3    3    0    0 -0.20581727355E+02 -0.39777521417E+02 -0.36550204848E+02  0.57808097923E+02  0.00000000000E+00 0. -1.
         13    1    5    5    0    0 -0.80547991717E+02  0.72990978742E+02  0.78691196191E+03  0.79438409963E+03  0.00000000000E+00 0. -1.
        -14    1    5    5    0    0 -0.26553546710E+02 -0.15152731753E+02  0.11522639759E+03  0.11921333324E+03  0.00000000000E+00 0.  1.
          5    1    4    4  501    0 -0.11640387254E+02 -0.28887592671E+02 -0.10679337571E+01  0.31442081805E+02  0.41800000000E+01 0. -1.
         -5    1    4    4    0  501  0.10447177177E+03 -0.12830223224E+02  0.18744300322E+03  0.21501469155E+03  0.41800000000E+01 0. -1.
</event>
<event>
11    1  0.7577197E-009  0.1375289E+03  0.7561462E-02  0.1110350E+00
         22   -1    0    0    0    0  0.00000000000E+00  0.00000000000E+00  0.87437732956E+02  0.87437732956E+02  0.00000000000E+00 0.  1.
         22   -1    0    0    0    0 -0.00000000000E+00 -0.00000000000E+00 -0.44938682763E+03  0.44938682763E+03  0.00000000000E+00 0.  1.
         24    2    1    2    0    0 -0.43450380764E+02  0.50602272480E+01 -0.25238544386E+03  0.26924634436E+03  0.82955651961E+02 0.  0.
         25    2    1    2    0    0 -0.18425752626E+02  0.30528048813E+02 -0.85008027371E+02  0.15538831979E+03  0.12509074741E+03 0.  0.
        -24    2    1    2    0    0  0.61876133390E+02 -0.35588276061E+02 -0.24555623442E+02  0.11218989643E+03  0.82996463427E+02 0.  0.
        -11    1    3    3    0    0  0.17036336412E+01  0.24805138968E+01 -0.20006378305E+03  0.20008641284E+03  0.00000000000E+00 0.  1.
         12    1    3    3    0    0 -0.45154014405E+02  0.25797133512E+01 -0.52321660813E+02  0.69159931522E+02  0.00000000000E+00 0. -1.
         11    1    5    5    0    0 -0.18578352196E+02 -0.17084604609E+01 -0.15812299568E+02  0.24456140846E+02  0.00000000000E+00 0. -1.
        -12    1    5    5    0    0  0.80454485586E+02 -0.33879815601E+02 -0.87433238746E+01  0.87733755581E+02  0.00000000000E+00 0.  1.
          5    1    4    4  501    0 -0.62001929386E+02  0.27726993515E+02 -0.10396634143E+02  0.68837401306E+02  0.41800000000E+01 0. -1.
         -5    1    4    4    0  501  0.43576176760E+02  0.28010552983E+01 -0.74611393229E+02  0.86550918489E+02  0.41800000000E+01 0. -1.
</event>
<event>
11    1  0.7577197E-009  0.2500515E+03  0.7561462E-02  0.1023872E+00
         22   -1    0    0    0    0  0.00000000000E+00  0.00000000000E+00  0.67166541781E+03  0.67166541781E+03  0.00000000000E+00 0. -1.
         22   -1    0    0    0    0 -0.00000000000E+00 -0.00000000000E+00 -0.95875736676E+03  0.95875736676E+03  0.00000000000E+00 0.  1.
        -24    2    1    2    0    0 -0.14058156625E+02 -0.18538114390E+02 -0.86962560126E+03  0.87368736106E+03  0.80867948314E+02 0.  0.
         25    2    1    2    0    0  0.22125399716E+03 -0.24299204170E+02  0.30711827497E+03  0.39939134994E+03  0.12509209808E+03 0.  0.
         24    2    1    2    0    0 -0.20719584053E+03  0.42837318560E+02  0.27541537734E+03  0.35734407357E+03  0.84118991015E+02 0.  0.
        -11    1    5    5    0    0 -0.77285896780E+02  0.28857457840E+02  0.49055706428E+02  0.95980857713E+02  0.00000000000E+00 0.  1.
         12    1    5    5    0    0 -0.12990994375E+03  0.13979860720E+02  0.22635967091E+03  0.26136321586E+03  0.00000000000E+00 0. -1.
         11    1    3    3    0    0  0.57578494921E+01 -0.14974847713E+02 -0.31782059849E+02  0.35601941282E+02  0.00000000000E+00 0. -1.
        -12    1    3    3    0    0 -0.19816006117E+02 -0.35632666764E+01 -0.83784354141E+03  0.83808541978E+03  0.00000000000E+00 0.  1.
          5    1    4    4  501    0  0.97677688117E+02  0.49487375996E+02  0.15619177955E+03  0.19079642433E+03  0.41800000000E+01 0. -1.
         -5    1    4    4    0  501  0.12357630904E+03 -0.73786580166E+02  0.15092649542E+03  0.20859492561E+03  0.41800000000E+01 0. -1.
</event>
<event>
11    1  0.7577197E-009  0.1475846E+03  0.7561462E-02  0.1099373E+00
         22   -1    0    0    0    0  0.00000000000E+00  0.00000000000E+00  0.48201000026E+03  0.48201000026E+03  0.00000000000E+00 0.  1.
         22   -1    0    0    0    0 -0.00000000000E+00 -0.00000000000E+00 -0.10412432727E+04  0.10412432727E+04  0.00000000000E+00 0. -1.
         24    2    1    2    0    0 -0.48926768098E+02  0.58615017622E+02 -0.94548290399E+03  0.95198023528E+03  0.80615741109E+02 0.  0.
         25    2    1    2    0    0  0.10400233265E+03 -0.98926349182E+02  0.21442313558E+02  0.19160091252E+03  0.12509288193E+03 0.  0.
        -24    2    1    2    0    0 -0.55075564553E+02  0.40311331560E+02  0.36480731800E+03  0.37967212513E+03  0.80051371451E+02 0.  0.
        -13    1    3    3    0    0  0.14766889957E+02  0.33377874325E+02 -0.19575528404E+03  0.19912878938E+03  0.00000000000E+00 0.  1.
         14    1    3    3    0    0 -0.63693658055E+02  0.25237143296E+02 -0.74972761995E+03  0.75285144590E+03  0.00000000000E+00 0. -1.
         13    1    5    5    0    0 -0.57930101326E+02 -0.39811957540E+01  0.16277942603E+03  0.17282617885E+03  0.00000000000E+00 0. -1.
        -14    1    5    5    0    0  0.28545367731E+01  0.44292527314E+02  0.20202789198E+03  0.20684594628E+03  0.00000000000E+00 0.  1.
          5    1    4    4  501    0 -0.73485521778E+01 -0.75804620039E+02  0.31702768472E+01  0.76340452538E+02  0.41800000000E+01 0.  1.
         -5    1    4    4    0  501  0.11135088483E+03 -0.23121729143E+02  0.18272036711E+02  0.11526045999E+03  0.41800000000E+01 0.  1.
</event>
<event>
11    1  0.7577197E-009  0.1479348E+03  0.7561462E-02  0.1099008E+00
         22   -1    0    0    0    0  0.00000000000E+00  0.00000000000E+00  0.16686892529E+04  0.16686892529E+04  0.00000000000E+00 0. -1.
         22   -1    0    0    0    0 -0.00000000000E+00 -0.00000000000E+00 -0.11212802521E+03  0.11212802521E+03  0.00000000000E+00 0.  1.
         24    2    1    2    0    0  0.16584840897E+02 -0.64957222857E+02 -0.55105987422E+02  0.11878325688E+03  0.81106686015E+02 0.  0.
         25    2    1    2    0    0 -0.19351770537E+02  0.13768196902E+03  0.36058653909E+03  0.40620468012E+03  0.12509506132E+03 0.  0.
        -24    2    1    2    0    0  0.27669296405E+01 -0.72724746161E+02  0.12510806760E+04  0.12558293411E+04  0.81289184176E+02 0.  0.
        -11    1    3    3    0    0  0.32776333656E+02 -0.69916499786E+02 -0.63415306298E+02  0.99920498714E+02  0.00000000000E+00 0.  1.
         12    1    3    3    0    0 -0.16191492760E+02  0.49592769297E+01  0.83093188758E+01  0.18862758166E+02  0.00000000000E+00 0. -1.
         13    1    5    5    0    0 -0.18792902657E+02 -0.70870346854E+02  0.11557577169E+04  0.11580810331E+04  0.00000000000E+00 0. -1.
        -14    1    5    5    0    0  0.21559832298E+02 -0.18543993067E+01  0.95322959160E+02  0.97748307958E+02  0.00000000000E+00 0.  1.
          5    1    4    4  501    0 -0.42413214645E+02  0.15282373760E+03  0.31631138107E+03  0.35387050986E+03  0.41800000000E+01 0. -1.
         -5    1    4    4    0  501  0.23061444107E+02 -0.15141768580E+02  0.44275158012E+02  0.52334170262E+02  0.41800000000E+01 0. -1.
</event>
<event>
11    1  0.7577197E-009  0.1407883E+03  0.7561462E-02  0.1106681E+00
         22   -1    0    0    0    0  0.00000000000E+00  0.00000000000E+00  0.11193864580E+04  0.11193864580E+04  0.00000000000E+00 0. -1.
         22   -1    0    0    0    0 -0.00000000000E+00 -0.00000000000E+00 -0.11186294334E+04  0.11186294334E+04  0.00000000000E+00 0.  1.
         24    2    1    2    0    0  0.32358598858E+02  0.12263866447E+02 -0.81526565341E+03  0.82003388021E+03  0.81240370029E+02 0.  0.
         25    2    1    2    0    0 -0.94482940829E+01 -0.72666335264E+02 -0.28092695719E+03  0.31612903901E+03  0.12509175626E+03 0.  0.
        -24    2    1    2    0    0 -0.22910304775E+02  0.60402468817E+02  0.10969496352E+04  0.11018529722E+04  0.81290404279E+02 0.  0.
        -13    1    3    3    0    0  0.15352005373E+02  0.31936853681E+02 -0.73073370004E+03  0.73159236400E+03  0.00000000000E+00 0.  1.
         14    1    3    3    0    0  0.17006593484E+02 -0.19672987234E+02 -0.84531953371E+02  0.88441516210E+02  0.00000000000E+00 0. -1.
         11    1    5    5    0    0 -0.23310062959E+02  0.71361271893E+02  0.58643870108E+03  0.59122427241E+03  0.00000000000E+00 0. -1.
        -12    1    5    5    0    0  0.39975818453E+00 -0.10958803075E+02  0.51051093415E+03  0.51062869979E+03  0.00000000000E+00 0.  1.
          5    1    4    4  501    0 -0.44116695224E+02 -0.91076872675E+02 -0.16438943828E+03  0.19308712891E+03  0.41800000000E+01 0. -1.
         -5    1    4    4    0  501  0.34668401141E+02  0.18410537411E+02 -0.11653751892E+03  0.12304191010E+03  0.41800000000E+01 0. -1.
</event>
<event>
11    1  0.7577197E-009  0.1511469E+03  0.7561462E-02  0.1095713E+00
         22   -1    0    0    0    0  0.00000000000E+00  0.00000000000E+00  0.22259253024E+04  0.22259253024E+04  0.00000000000E+00 0. -1.
         22   -1    0    0    0    0 -0.00000000000E+00 -0.00000000000E+00 -0.44503217441E+03  0.44503217441E+03  0.00000000000E+00 0.  1.
         24    2    1    2    0    0  0.55605484954E+02 -0.25355228589E+02 -0.42427323244E+03  0.43551175318E+03  0.76992556934E+02 0.  0.
         25    2    1    2    0    0 -0.69226889036E+01 -0.52587216445E+02  0.34193528320E+03  0.36794144465E+03  0.12509128603E+03 0.  0.
        -24    2    1    2    0    0 -0.48682796051E+02  0.77942445034E+02  0.18632310773E+04  0.18675042790E+04  0.86586058273E+02 0.  0.
        -11    1    3    3    0    0  0.27391112791E+02 -0.13301621619E+02 -0.38235128561E+03  0.38356187480E+03  0.00000000000E+00 0.  1.
         12    1    3    3    0    0  0.28214372163E+02 -0.12053606970E+02 -0.41921946833E+02  0.51949878381E+02  0.00000000000E+00 0. -1.
         13    1    5    5    0    0 -0.61204985233E+02  0.87274621452E+02  0.14187438862E+04  0.14227428174E+04  0.00000000000E+00 0. -1.
        -14    1    5    5    0    0  0.12522189182E+02 -0.93321764185E+01  0.44448719104E+03  0.44476146162E+03  0.00000000000E+00 0.  1.
          5    1    4    4  501    0  0.43124753744E+02 -0.98697840028E+01  0.43049153181E+02  0.61869693804E+02  0.41800000000E+01 0.  1.
         -5    1    4    4    0  501 -0.50047442647E+02 -0.42717432442E+02  0.29888613001E+03  0.30607175084E+03  0.41800000000E+01 0.  1.
</event>
<event>
11    1  0.7577197E-009  0.1396126E+03  0.7561462E-02  0.1107992E+00
         22   -1    0    0    0    0  0.00000000000E+00  0.00000000000E+00  0.20745385805E+03  0.20745385805E+03  0.00000000000E+00 0.  1.
         22   -1    0    0    0    0 -0.00000000000E+00 -0.00000000000E+00 -0.56554578031E+03  0.56554578031E+03  0.00000000000E+00 0.  1.
        -24    2    1    2    0    0 -0.20844376747E+02  0.60157031280E+02 -0.43044000487E+03  0.44256222094E+03  0.80804487236E+02 0.  0.
         25    2    1    2    0    0 -0.33547563192E+02 -0.61442159161E+02 -0.68894606672E+02  0.15904159956E+03  0.12508871109E+03 0.  0.
         24    2    1    2    0    0  0.54391939939E+02  0.12851278803E+01  0.14124268928E+03  0.17139581786E+03  0.80417003316E+02 0.  0.
        -11    1    5    5    0    0 -0.20252701916E+01 -0.23872232709E+02  0.83388469922E+02  0.86761870253E+02  0.00000000000E+00 0.  1.
         12    1    5    5    0    0  0.56417210130E+02  0.25157360589E+02  0.57854219355E+02  0.84633947609E+02  0.00000000000E+00 0. -1.
         13    1    3    3    0    0  0.10842966015E+02  0.43569597229E+02 -0.93415915102E+02  0.10364561211E+03  0.00000000000E+00 0. -1.
        -14    1    3    3    0    0 -0.31687342762E+02  0.16587434052E+02 -0.33702408977E+03  0.33891660883E+03  0.00000000000E+00 0.  1.
          5    1    4    4  501    0  0.43207841011E+02 -0.33326245119E+02 -0.51947740425E+02  0.75455922722E+02  0.41800000000E+01 0. -1.
         -5    1    4    4    0  501 -0.76755404202E+02 -0.28115914041E+02 -0.16946866247E+02  0.83585676837E+02  0.41800000000E+01 0. -1.
</event>
<event>
11    1  0.7577197E-009  0.1282429E+03  0.7561462E-02  0.1121447E+00
         22   -1    0    0    0    0  0.00000000000E+00  0.00000000000E+00  0.12205866348E+03  0.12205866348E+03  0.00000000000E+00 0. -1.
         22   -1    0    0    0    0 -0.00000000000E+00 -0.00000000000E+00 -0.14566251956E+04  0.14566251956E+04  0.00000000000E+00 0. -1.
         24    2    1    2    0    0  0.15462814526E+02 -0.23230139916E+02 -0.13561193022E+04  0.13587671966E+04  0.80062442312E+02 0.  0.
         25    2    1    2    0    0 -0.39017719456E+02  0.26883360275E+02  0.28881545209E+01  0.13380458475E+03  0.12510087118E+03 0.  0.
        -24    2    1    2    0    0  0.23554904930E+02 -0.36532203590E+01  0.18664615513E+02  0.86112077810E+02  0.80614778467E+02 0.  0.
        -13    1    3    3    0    0 -0.27410897391E+02 -0.78450452697E+01 -0.23505188561E+03  0.23677476842E+03  0.00000000000E+00 0.  1.
         14    1    3    3    0    0  0.42873711917E+02 -0.15385094646E+02 -0.11210674166E+04  0.11219924281E+04  0.00000000000E+00 0. -1.
         13    1    5    5    0    0 -0.17014276755E+02 -0.26479491252E+02  0.23545437030E+02  0.39306954542E+02  0.00000000000E+00 0. -1.
        -14    1    5    5    0    0  0.40569181684E+02  0.22826270893E+02 -0.48808215172E+01  0.46805123267E+02  0.00000000000E+00 0.  1.
          5    1    4    4  501    0 -0.68344031816E+02 -0.20528583694E+02  0.21888091823E+02  0.74758881726E+02  0.41800000000E+01 0. -1.
         -5    1    4    4    0  501  0.29326312360E+02  0.47411943969E+02 -0.18999937302E+02  0.59045703019E+02  0.41800000000E+01 0. -1.
</event>
<event>
11    1  0.7577197E-009  0.1492014E+03  0.7561462E-02  0.1097698E+00
         22   -1    0    0    0    0  0.00000000000E+00  0.00000000000E+00  0.65192028103E+03  0.65192028103E+03  0.00000000000E+00 0.  1.
         22   -1    0    0    0    0 -0.00000000000E+00 -0.00000000000E+00 -0.15651191665E+03  0.15651191665E+03  0.00000000000E+00 0. -1.
        -24    2    1    2    0    0  0.38832783313E+02  0.63738075046E+02 -0.48773868599E+02  0.12112729365E+03  0.81990266127E+02 0.  0.
         25    2    1    2    0    0 -0.51232758076E+02 -0.84139633728E+02  0.24887607201E+02  0.16115718663E+03  0.12509185563E+03 0.  0.
         24    2    1    2    0    0  0.12399974763E+02  0.20401558683E+02  0.51929462578E+03  0.52614771739E+03  0.81206706543E+02 0.  0.
        -11    1    5    5    0    0  0.20441027111E+02  0.25217679816E+02  0.51467571245E+03  0.51569841570E+03  0.00000000000E+00 0.  1.
         12    1    5    5    0    0 -0.80410523480E+01 -0.48161211336E+01  0.46189133235E+01  0.10449301696E+02  0.00000000000E+00 0. -1.
         13    1    3    3    0    0  0.20764561499E+02 -0.37540007721E+01 -0.46679363411E+02  0.51227165688E+02  0.00000000000E+00 0. -1.
        -14    1    3    3    0    0  0.18068221815E+02  0.67492075818E+02 -0.20945051886E+01  0.69900127966E+02  0.00000000000E+00 0.  1.
          5    1    4    4  501    0 -0.61408155841E+01 -0.30219481619E+02 -0.49664712318E+02  0.58608725758E+02  0.41800000000E+01 0.  1.
         -5    1    4    4    0  501 -0.45091942492E+02 -0.53920152109E+02  0.74552319519E+02  0.10254846087E+03  0.41800000000E+01 0.  1.
</event>
<event>
11    1  0.7577197E-009  0.2518461E+03  0.7561462E-02  0.1022920E+00
         22   -1    0    0    0    0  0.00000000000E+00  0.00000000000E+00  0.31553467728E+04  0.31553467728E+04  0.00000000000E+00 0. -1.
         22   -1    0    0    0    0 -0.00000000000E+00 -0.00000000000E+00 -0.65641506017E+02  0.65641506017E+02  0.00000000000E+00 0.  1.
         24    2    1    2    0    0 -0.17539515125E+03 -0.12608974142E+03  0.21698252863E+03  0.31641609455E+03  0.79847637326E+02 0.  0.
         25    2    1    2    0    0  0.18991989013E+03  0.12910792356E+03  0.11278417367E+04  0.11577624087E+04  0.12509353033E+03 0.  0.
        -24    2    1    2    0    0 -0.14524738880E+02 -0.30181821438E+01  0.17448810014E+04  0.17468097755E+04  0.80713105242E+02 0.  0.
        -11    1    3    3    0    0 -0.15369726627E+03 -0.94201424567E+02  0.13306905783E+03  0.22406278629E+03  0.00000000000E+00 0.  1.
         12    1    3    3    0    0 -0.21697884980E+02 -0.31888316853E+02  0.83913470801E+02  0.92353308258E+02  0.00000000000E+00 0. -1.
         13    1    5    5    0    0 -0.39660699653E+02  0.19915873986E+02  0.12334218864E+04  0.12342200626E+04  0.00000000000E+00 0. -1.
        -14    1    5    5    0    0  0.25135960773E+02 -0.22934056130E+02  0.51145911505E+03  0.51258971295E+03  0.00000000000E+00 0.  1.
          5    1    4    4  501    0  0.19807644662E+03  0.11339505210E+03  0.11061206201E+04  0.11294303941E+04  0.41800000000E+01 0.  1.
         -5    1    4    4    0  501 -0.81565564863E+01  0.15712871462E+02  0.21721116606E+02  0.28332014576E+02  0.41800000000E+01 0.  1.
</event>
<event>
11    1  0.7577197E-009  0.1628685E+03  0.7561462E-02  0.1084410E+00
         22   -1    0    0    0    0  0.00000000000E+00  0.00000000000E+00  0.98671680007E+03  0.98671680007E+03  0.00000000000E+00 0. -1.
         22   -1    0    0    0    0 -0.00000000000E+00 -0.00000000000E+00 -0.19111282693E+03  0.19111282693E+03  0.00000000000E+00 0.  1.
         24    2    1    2    0    0  0.27943293152E+02  0.28610026073E+02 -0.13321719828E+03  0.16027970444E+03  0.79645467637E+02 0.  0.
         25    2    1    2    0    0 -0.10301466259E+03  0.43497367169E+02  0.14655768976E+03  0.22278375748E+03  0.12509757995E+03 0.  0.
        -24    2    1    2    0    0  0.75071369443E+02 -0.72107393241E+02  0.78226348166E+03  0.79476616507E+03  0.94243916140E+02 0.  0.
        -13    1    3    3    0    0  0.14832501998E+02  0.56386550971E+02 -0.90851989433E+02  0.10795151796E+03  0.00000000000E+00 0.  1.
         14    1    3    3    0    0  0.13110791154E+02 -0.27776524898E+02 -0.42365208845E+02  0.52328186483E+02  0.00000000000E+00 0. -1.
         13    1    5    5    0    0  0.29042984745E+02 -0.69945339944E+02  0.65599813115E+03  0.66035550547E+03  0.00000000000E+00 0. -1.
        -14    1    5    5    0    0  0.46028384697E+02 -0.21620532976E+01  0.12626535052E+03  0.13441065960E+03  0.00000000000E+00 0.  1.
          5    1    4    4  501    0 -0.57207006698E+02  0.39530333798E+01 -0.67702537741E+01  0.57892804599E+02  0.41800000000E+01 0. -1.
         -5    1    4    4    0  501 -0.45807655897E+02  0.39544333789E+02  0.15332794354E+03  0.16489095288E+03  0.41800000000E+01 0. -1.
</event>
<event>
11    1  0.7577197E-009  0.1554453E+03  0.7561462E-02  0.1091441E+00
         22   -1    0    0    0    0  0.00000000000E+00  0.00000000000E+00  0.26412359103E+03  0.26412359103E+03  0.00000000000E+00 0. -1.
         22   -1    0    0    0    0 -0.00000000000E+00 -0.00000000000E+00 -0.69486069628E+03  0.69486069628E+03  0.00000000000E+00 0. -1.
         24    2    1    2    0    0 -0.88715254210E+01  0.13060371790E+02 -0.44664177190E+03  0.45351203694E+03  0.77039067828E+02 0.  0.
         25    2    1    2    0    0 -0.75968522503E+02 -0.49846645277E+02 -0.20279257405E+03  0.25500428478E+03  0.12508578141E+03 0.  0.
        -24    2    1    2    0    0  0.84840047924E+02  0.36786273487E+02  0.21869724069E+03  0.25046796558E+03  0.79716090269E+02 0.  0.
        -11    1    3    3    0    0 -0.98666845360E+01 -0.11697979846E+02 -0.40327784323E+03  0.40356810211E+03  0.00000000000E+00 0.  1.
         12    1    3    3    0    0  0.99515911496E+00  0.24758351637E+02 -0.43363928668E+02  0.49943934837E+02  0.00000000000E+00 0. -1.
         13    1    5    5    0    0  0.62834552457E+02  0.62231682065E+02  0.15686115324E+03  0.18007327572E+03  0.00000000000E+00 0. -1.
        -14    1    5    5    0    0  0.22005495467E+02 -0.25445408578E+02  0.61836087456E+02  0.70394689859E+02  0.00000000000E+00 0.  1.
          5    1    4    4  501    0 -0.10916845776E+03 -0.22863016017E+02 -0.14704114641E+03  0.18460509421E+03  0.41800000000E+01 0.  1.
         -5    1    4    4    0  501  0.33199935258E+02 -0.26983629260E+02 -0.55751427646E+02  0.70399190576E+02  0.41800000000E+01 0.  1.
</event>
<event>
11    1  0.7577197E-009  0.1480785E+03  0.7561462E-02  0.1098858E+00
         22   -1    0    0    0    0  0.00000000000E+00  0.00000000000E+00  0.79615983657E+02  0.79615983657E+02  0.00000000000E+00 0. -1.
         22   -1    0    0    0    0 -0.00000000000E+00 -0.00000000000E+00 -0.99619927378E+03  0.99619927378E+03  0.00000000000E+00 0. -1.
        -24    2    1    2    0    0 -0.66138285791E+02 -0.32302510754E+02 -0.60044895120E+03  0.61056753920E+03  0.82680420163E+02 0.  0.
         25    2    1    2    0    0  0.81057654381E+02  0.58882624774E+02 -0.34276408423E+03  0.37838108394E+03  0.12509004920E+03 0.  0.
         24    2    1    2    0    0 -0.14919368591E+02 -0.26580114021E+02  0.26629745308E+02  0.86866634301E+02  0.76860775426E+02 0.  0.
        -11    1    5    5    0    0  0.11440116792E+02  0.12085484918E+02 -0.16349310368E+02  0.23328848395E+02  0.00000000000E+00 0.  1.
         12    1    5    5    0    0 -0.26359485383E+02 -0.38665598939E+02  0.42979055677E+02  0.63537785906E+02  0.00000000000E+00 0. -1.
         13    1    3    3    0    0 -0.34609383528E+02 -0.50584983618E+01 -0.50752234247E+03  0.50872617972E+03  0.00000000000E+00 0. -1.
        -14    1    3    3    0    0 -0.31528902263E+02 -0.27244012392E+02 -0.92926608736E+02  0.10184135948E+03  0.00000000000E+00 0.  1.
          5    1    4    4  501    0  0.46476195392E+01 -0.31127309264E+02 -0.28576982979E+02  0.42715642399E+02  0.41800000000E+01 0. -1.
         -5    1    4    4    0  501  0.76410034842E+02  0.90009934038E+02 -0.31418710125E+03  0.33566544154E+03  0.41800000000E+01 0. -1.
</event>
<event>
11    1  0.7577197E-009  0.1537277E+03  0.7561462E-02  0.1093130E+00
         22   -1    0    0    0    0  0.00000000000E+00  0.00000000000E+00  0.31151521738E+03  0.31151521738E+03  0.00000000000E+00 0. -1.
         22   -1    0    0    0    0 -0.00000000000E+00 -0.00000000000E+00 -0.12912853606E+04  0.12912853606E+04  0.00000000000E+00 0. -1.
         24    2    1    2    0    0  0.84202687434E+01 -0.71659186505E+02 -0.12035423666E+04  0.12084725879E+04  0.81766910053E+02 0.  0.
         25    2    1    2    0    0 -0.95833050559E+02  0.62906851587E+02  0.38694188522E+02  0.17402912463E+03  0.12509056895E+03 0.  0.
        -24    2    1    2    0    0  0.87412781815E+02  0.87523349181E+01  0.18507803482E+03  0.22029886549E+03  0.80994526811E+02 0.  0.
        -11    1    3    3    0    0  0.26551809306E+02 -0.38955963635E+01 -0.13566561052E+03  0.13829436766E+03  0.00000000000E+00 0.  1.
         12    1    3    3    0    0 -0.18131540563E+02 -0.67763590142E+02 -0.10678767561E+04  0.10701782202E+04  0.00000000000E+00 0. -1.
         13    1    5    5    0    0  0.90221734580E+02 -0.20012877779E+01  0.10081381579E+03  0.13530481144E+03  0.00000000000E+00 0. -1.
        -14    1    5    5    0    0 -0.28089527641E+01  0.10753622696E+02  0.84264219022E+02  0.84994054052E+02  0.00000000000E+00 0.  1.
          5    1    4    4  501    0 -0.12186101681E+03  0.62552352099E+02  0.13740837223E+02  0.13772867232E+03  0.41800000000E+01 0.  1.
         -5    1    4    4    0  501  0.26027966253E+02  0.35449948763E+00  0.24953351299E+02  0.36300452314E+02  0.41800000000E+01 0.  1.
</event>
<event>
11    1  0.7577197E-009  0.1340167E+03  0.7561462E-02  0.1114430E+00
         22   -1    0    0    0    0  0.00000000000E+00  0.00000000000E+00  0.14530461726E+04  0.14530461726E+04  0.00000000000E+00 0. -1.
         22   -1    0    0    0    0 -0.00000000000E+00 -0.00000000000E+00 -0.16615342468E+03  0.16615342468E+03  0.00000000000E+00 0. -1.
         24    2    1    2    0    0  0.46889415336E+02  0.15695326631E+02 -0.12905198108E+03  0.15982479250E+03  0.80278203317E+02 0.  0.
         25    2    1    2    0    0 -0.79955011997E+02  0.15924218673E+02  0.26367050823E+03  0.30301100054E+03  0.12508854806E+03 0.  0.
        -24    2    1    2    0    0  0.33065596662E+02 -0.31619545304E+02  0.11522742208E+04  0.11563638043E+04  0.85721867599E+02 0.  0.
        -11    1    3    3    0    0  0.30122348788E+00 -0.25893539364E+02 -0.15355067443E+02  0.30105551192E+02  0.00000000000E+00 0.  1.
         12    1    3    3    0    0  0.46588191848E+02  0.41588865995E+02 -0.11369691364E+03  0.12971924131E+03  0.00000000000E+00 0. -1.
         13    1    5    5    0    0 -0.13692161663E+02 -0.45785646693E+02  0.62963100862E+03  0.63144200664E+03  0.00000000000E+00 0. -1.
        -14    1    5    5    0    0  0.46757758325E+02  0.14166101389E+02  0.52264321218E+03  0.52492179764E+03  0.00000000000E+00 0.  1.
          5    1    4    4  501    0  0.13853620406E+01  0.34765386109E+02  0.10784241679E+02  0.36665018313E+02  0.41800000000E+01 0.  1.
         -5    1    4    4    0  501 -0.81340374038E+02 -0.18841167436E+02  0.25288626655E+03  0.26634598223E+03  0.41800000000E+01 0.  1.
</event>
<event>
11    1  0.7577197E-009  0.1874626E+03  0.7561462E-02  0.1063761E+00
         22   -1    0    0    0    0  0.00000000000E+00  0.00000000000E+00  0.19881221328E+03  0.19881221328E+03  0.00000000000E+00 0.  1.
         22   -1    0    0    0    0 -0.00000000000E+00 -0.00000000000E+00 -0.16368971483E+04  0.16368971483E+04  0.00000000000E+00 0.  1.
         24    2    1    2    0    0 -0.45679373022E+02 -0.84053844227E+02 -0.97254281402E+03  0.98014875853E+03  0.75501058835E+02 0.  0.
         25    2    1    2    0    0 -0.24141503953E+02  0.20142724407E+03 -0.59760930907E+03  0.64338170536E+03  0.12508951051E+03 0.  0.
        -24    2    1    2    0    0  0.69820876975E+02 -0.11737339985E+03  0.13206718806E+03  0.21217889770E+03  0.94481070145E+02 0.  0.
        -11    1    3    3    0    0 -0.48051011208E+02 -0.62352861395E+02 -0.42866855518E+03  0.43583656249E+03  0.00000000000E+00 0.  1.
         12    1    3    3    0    0  0.23716381858E+01 -0.21700982832E+02 -0.54387425884E+03  0.54431219604E+03  0.00000000000E+00 0. -1.
         11    1    5    5    0    0  0.28160186828E+02  0.14790260249E+01 -0.19558233704E+01  0.28266745218E+02  0.00000000000E+00 0. -1.
        -12    1    5    5    0    0  0.41660690147E+02 -0.11885242587E+03  0.13402301143E+03  0.18391215249E+03  0.00000000000E+00 0.  1.
          5    1    4    4  501    0 -0.32331122919E+02  0.97629903043E+02 -0.13828983927E+03  0.17239040438E+03  0.41800000000E+01 0. -1.
         -5    1    4    4    0  501  0.81896189668E+01  0.10379734103E+03 -0.45931946980E+03  0.47099130098E+03  0.41800000000E+01 0. -1.
</event>
<event>
11    1  0.7577197E-009  0.1370640E+03  0.7561462E-02  0.1110882E+00
         22   -1    0    0    0    0  0.00000000000E+00  0.00000000000E+00  0.28531284701E+03  0.28531284701E+03  0.00000000000E+00 0. -1.
         22   -1    0    0    0    0 -0.00000000000E+00 -0.00000000000E+00 -0.40827514895E+03  0.40827514895E+03  0.00000000000E+00 0. -1.
        -24    2    1    2    0    0 -0.44010874695E+02 -0.31512575761E+02 -0.24257311930E+03  0.26137024667E+03  0.80886884696E+02 0.  0.
         25    2    1    2    0    0  0.71493830819E+02  0.37046251811E+01 -0.11288283475E+03  0.18307150621E+03  0.12509016712E+03 0.  0.
         24    2    1    2    0    0 -0.27482956124E+02  0.27807950580E+02  0.23249365210E+03  0.24914624308E+03  0.80572682584E+02 0.  0.
        -11    1    5    5    0    0 -0.47096630758E+02 -0.17554537539E+01  0.82489347462E+02  0.95003508837E+02  0.00000000000E+00 0.  1.
         12    1    5    5    0    0  0.19613674633E+02  0.29563404334E+02  0.15000430464E+03  0.15414273424E+03  0.00000000000E+00 0. -1.
         13    1    3    3    0    0 -0.33375061853E+02 -0.39435800726E+02 -0.63748774276E+02  0.82054758267E+02  0.00000000000E+00 0. -1.
        -14    1    3    3    0    0 -0.10635812841E+02  0.79232249648E+01 -0.17882434502E+03  0.17931548840E+03  0.00000000000E+00 0.  1.
          5    1    4    4  501    0  0.26740093820E+02 -0.47524687399E+02 -0.99612529580E+02  0.11363871250E+03  0.41800000000E+01 0. -1.
         -5    1    4    4    0  501  0.44753736998E+02  0.51229312580E+02 -0.13270305175E+02  0.69432793708E+02  0.41800000000E+01 0. -1.
</event>
<event>
11    1  0.7577197E-009  0.2542015E+03  0.7561462E-02  0.1021685E+00
         22   -1    0    0    0    0  0.00000000000E+00  0.00000000000E+00  0.75249405871E+03  0.75249405871E+03  0.00000000000E+00 0. -1.
         22   -1    0    0    0    0 -0.00000000000E+00 -0.00000000000E+00 -0.68906193370E+03  0.68906193370E+03  0.00000000000E+00 0. -1.
         24    2    1    2    0    0  0.71293189457E+02  0.55218739140E+02 -0.53750638922E+03  0.55092276439E+03  0.80442189548E+02 0.  0.
         25    2    1    2    0    0 -0.26910058547E+03  0.25816855585E+02  0.60451157654E+02  0.30394429153E+03  0.12508459041E+03 0.  0.
        -24    2    1    2    0    0  0.19780739601E+03 -0.81035594725E+02  0.54048735657E+03  0.58668893648E+03  0.79892377882E+02 0.  0.
        -11    1    3    3    0    0  0.57746339477E+02  0.52872273463E+02 -0.22720481035E+03  0.24031675528E+03  0.00000000000E+00 0.  1.
         12    1    3    3    0    0  0.13546849980E+02  0.23464656775E+01 -0.31030157887E+03  0.31060600911E+03  0.00000000000E+00 0. -1.
         11    1    5    5    0    0  0.20545081999E+03 -0.79655925981E+02  0.52481414009E+03  0.56919679165E+03  0.00000000000E+00 0. -1.
        -12    1    5    5    0    0 -0.76434239827E+01 -0.13796687441E+01  0.15673216481E+02  0.17492144834E+02  0.00000000000E+00 0.  1.
          5    1    4    4  501    0 -0.11360554439E+03  0.17765451372E+02  0.89156774543E+02  0.14556178697E+03  0.41800000000E+01 0.  1.
         -5    1    4    4    0  501 -0.15549504108E+03  0.80514042130E+01 -0.28705616889E+02  0.15838250456E+03  0.41800000000E+01 0.  1.
</event>
<event>
11    1  0.7577197E-009  0.1468713E+03  0.7561462E-02  0.1100119E+00
         22   -1    0    0    0    0  0.00000000000E+00  0.00000000000E+00  0.17104589429E+04  0.17104589429E+04  0.00000000000E+00 0.  1.
         22   -1    0    0    0    0 -0.00000000000E+00 -0.00000000000E+00 -0.48355316306E+02  0.48355316306E+02  0.00000000000E+00 0. -1.
         24    2    1    2    0    0 -0.71814268558E+02  0.56357032052E+02  0.10981977330E+03  0.16396947801E+03  0.80574207308E+02 0.  0.
         25    2    1    2    0    0  0.56545315241E+02 -0.88481811793E+01  0.22085652585E+03  0.26019445220E+03  0.12509150635E+03 0.  0.
        -24    2    1    2    0    0  0.15268953318E+02 -0.47508850873E+02  0.13314273274E+04  0.13346503290E+04  0.78118759210E+02 0.  0.
        -11    1    3    3    0    0 -0.54548462784E+02  0.23783592498E+02  0.11222338490E+03  0.12702473059E+03  0.00000000000E+00 0.  1.
         12    1    3    3    0    0 -0.17265805774E+02  0.32573439554E+02 -0.24036116009E+01  0.36944747422E+02  0.00000000000E+00 0. -1.
         13    1    5    5    0    0 -0.21731241248E+02  0.39220887038E+01  0.16073059460E+03  0.16224041934E+03  0.00000000000E+00 0. -1.
        -14    1    5    5    0    0  0.37000194566E+02 -0.51430939576E+02  0.11706967328E+04  0.11724099096E+04  0.00000000000E+00 0.  1.
          5    1    4    4  501    0  0.76282164760E+02 -0.34811273205E+02  0.20901766234E+03  0.22524797219E+03  0.41800000000E+01 0. -1.
         -5    1    4    4    0  501 -0.19736849519E+02  0.25963092026E+02  0.11838863504E+02  0.34946480017E+02  0.41800000000E+01 0. -1.
</event>
<event>
11    1  0.7577197E-009  0.1389346E+03  0.7561462E-02  0.1108754E+00
         22   -1    0    0    0    0  0.00000000000E+00  0.00000000000E+00  0.13486684859E+03  0.13486684859E+03  0.00000000000E+00 0. -1.
         22   -1    0    0    0    0 -0.00000000000E+00 -0.00000000000E+00 -0.15666379818E+04  0.15666379818E+04  0.00000000000E+00 0.  1.
        -24    2    1    2    0    0 -0.30867730111E+02  0.10333753172E+02 -0.93537565348E+03  0.93943348901E+03  0.80920108413E+02 0.  0.
         25    2    1    2    0    0  0.66988001767E+02  0.37732489076E+02 -0.60024927023E+03  0.61794615411E+03  0.12508848810E+03 0.  0.
         24    2    1    2    0    0 -0.36120271656E+02 -0.48066242248E+02  0.10385379048E+03  0.14412518728E+03  0.79821188565E+02 0.  0.
        -11    1    5    5    0    0 -0.66600549636E+01  0.22191794567E+02  0.17977903009E+02  0.29326388711E+02  0.00000000000E+00 0.  1.
         12    1    5    5    0    0 -0.29460216692E+02 -0.70258036815E+02  0.85875887473E+02  0.11479879857E+03  0.00000000000E+00 0. -1.
         13    1    3    3    0    0 -0.20289220121E+02  0.29165040740E+02 -0.16621551177E+03  0.16997013975E+03  0.00000000000E+00 0. -1.
        -14    1    3    3    0    0 -0.10578509990E+02 -0.18831287569E+02 -0.76916014171E+03  0.76946334926E+03  0.00000000000E+00 0.  1.
          5    1    4    4  501    0 -0.28260999265E+01  0.53688922925E+02 -0.11033673792E+03  0.12280942725E+03  0.41800000000E+01 0.  1.
         -5    1    4    4    0  501  0.69814101694E+02 -0.15956433849E+02 -0.48991253231E+03  0.49513672686E+03  0.41800000000E+01 0.  1.
</event>
<event>
11    1  0.7577197E-009  0.1322276E+03  0.7561462E-02  0.1116562E+00
         22   -1    0    0    0    0  0.00000000000E+00  0.00000000000E+00  0.26734440330E+03  0.26734440330E+03  0.00000000000E+00 0. -1.
         22   -1    0    0    0    0 -0.00000000000E+00 -0.00000000000E+00 -0.14958589024E+04  0.14958589024E+04  0.00000000000E+00 0. -1.
         24    2    1    2    0    0  0.21777591707E+02  0.84923610790E+01 -0.12423135115E+04  0.12451892132E+04  0.81283037149E+02 0.  0.
         25    2    1    2    0    0  0.21571847422E+02 -0.12631541126E+02 -0.22712922120E+03  0.26049882072E+03  0.12508817705E+03 0.  0.
        -24    2    1    2    0    0 -0.43349439130E+02  0.41391800468E+01  0.24092823362E+03  0.25751527175E+03  0.79821016935E+02 0.  0.
        -11    1    3    3    0    0 -0.13095400941E+02  0.73400193698E+00 -0.35474531377E+02  0.37821563440E+02  0.00000000000E+00 0.  1.
         12    1    3    3    0    0  0.34872992648E+02  0.77583591420E+01 -0.12068389801E+04  0.12073676497E+04  0.00000000000E+00 0. -1.
         11    1    5    5    0    0  0.46751709742E+01  0.19352000019E+02  0.16622688980E+03  0.16741486201E+03  0.00000000000E+00 0. -1.
        -12    1    5    5    0    0 -0.48024610104E+02 -0.15212819973E+02  0.74701343821E+02  0.90100409743E+02  0.00000000000E+00 0.  1.
          5    1    4    4  501    0  0.27555183688E+02 -0.62900341748E+02 -0.17344746131E+03  0.18659377099E+03  0.41800000000E+01 0.  1.
         -5    1    4    4    0  501 -0.59833362661E+01  0.50268800622E+02 -0.53681759898E+02  0.73905049723E+02  0.41800000000E+01 0.  1.
</event>
<event>
11    1  0.7577197E-009  0.1734535E+03  0.7561462E-02  0.1075065E+00
         22   -1    0    0    0    0  0.00000000000E+00  0.00000000000E+00  0.56621159862E+03  0.56621159862E+03  0.00000000000E+00 0.  1.
         22   -1    0    0    0    0 -0.00000000000E+00 -0.00000000000E+00 -0.33303843062E+03  0.33303843062E+03  0.00000000000E+00 0. -1.
        -24    2    1    2    0    0 -0.11541967477E+03 -0.34350133257E+02 -0.24963974232E+03  0.28726307014E+03  0.75487996016E+02 0.  0.
         25    2    1    2    0    0  0.10482683796E+03  0.61300818781E+02  0.65513531903E+02  0.18624176427E+03  0.12509002981E+03 0.  0.
         24    2    1    2    0    0  0.10592836820E+02 -0.26950685524E+02  0.41729937842E+03  0.42574519483E+03  0.79256873852E+02 0.  0.
        -13    1    5    5    0    0 -0.23422897277E+02 -0.20197102601E+02  0.33517221654E+03  0.33659615240E+03  0.00000000000E+00 0.  1.
         14    1    5    5    0    0  0.34015734096E+02 -0.67535829226E+01  0.82127161876E+02  0.89149042430E+02  0.00000000000E+00 0. -1.
         13    1    3    3    0    0 -0.98439536951E+02 -0.50104614112E+02 -0.23552040604E+03  0.26013588075E+03  0.00000000000E+00 0. -1.
        -14    1    3    3    0    0 -0.16980137823E+02  0.15754480855E+02 -0.14119336278E+02  0.27127189394E+02  0.00000000000E+00 0.  1.
          5    1    4    4  501    0  0.42863447468E+02  0.75610644884E+02  0.82897381514E+02  0.12018191632E+03  0.41800000000E+01 0. -1.
         -5    1    4    4    0  501  0.61963390488E+02 -0.14309826103E+02 -0.17383849611E+02  0.66059847949E+02  0.41800000000E+01 0. -1.
</event>
<event>
11    1  0.7577197E-009  0.1643921E+03  0.7561462E-02  0.1083018E+00
         22   -1    0    0    0    0  0.00000000000E+00  0.00000000000E+00  0.32247486596E+04  0.32247486596E+04  0.00000000000E+00 0.  1.
         22   -1    0    0    0    0 -0.00000000000E+00 -0.00000000000E+00 -0.82009497332E+02  0.82009497332E+02  0.00000000000E+00 0. -1.
        -24    2    1    2    0    0 -0.81302242413E+02 -0.67119200047E+02  0.17383425972E+02  0.13341927987E+03  0.79896677700E+02 0.  0.
         25    2    1    2    0    0  0.83141860009E+02  0.74495389421E+02  0.27638494963E+03  0.32326319235E+03  0.12509324210E+03 0.  0.
         24    2    1    2    0    0 -0.18396175961E+01 -0.73761893741E+01  0.28489707866E+04  0.28500756847E+04  0.78987802141E+02 0.  0.
        -11    1    5    5    0    0 -0.49173531860E+01 -0.31730537989E+01  0.28371716260E+04  0.28371776617E+04  0.00000000000E+00 0.  1.
         12    1    5    5    0    0  0.30777355899E+01 -0.42031355752E+01  0.11799160636E+02  0.12898022978E+02  0.00000000000E+00 0. -1.
         11    1    3    3    0    0 -0.82844224396E+02 -0.24751505876E+02  0.25729552273E+02  0.90209824405E+02  0.00000000000E+00 0. -1.
        -12    1    3    3    0    0  0.15419819835E+01 -0.42367694171E+02 -0.83461263013E+01  0.43209455470E+02  0.00000000000E+00 0.  1.
          5    1    4    4  501    0  0.13280977263E+02 -0.20563975133E+02  0.14302242306E+03  0.14516248595E+03  0.41800000000E+01 0.  1.
         -5    1    4    4    0  501  0.69860882746E+02  0.95059364554E+02  0.13336252657E+03  0.17810070640E+03  0.41800000000E+01 0.  1.
</event>
<event>
11    1  0.9140275E-009  0.1681524E+03  0.7561462E-02  0.1079651E+00
         22   -1    0    0    0    0  0.00000000000E+00  0.00000000000E+00  0.43845452512E+03  0.43845452512E+03  0.00000000000E+00 0.  1.
         22   -1    0    0    0    0 -0.00000000000E+00 -0.00000000000E+00 -0.15202241819E+04  0.15202241819E+04  0.00000000000E+00 0. -1.
        -24    2    1    2    0    0  0.63266892676E+02 -0.71044112375E+02 -0.12852766606E+04  0.12913036608E+04  0.80492761916E+02 0.  0.
         25    2    1    2    0    0 -0.96204339201E+02 -0.38992808031E+02 -0.18997791359E+03  0.25003089103E+03  0.12509246523E+03 0.  0.
         24    2    1    2    0    0  0.32937446525E+02  0.11003692041E+03  0.39348491740E+03  0.41734415512E+03  0.78439558582E+02 0.  0.
        -13    1    5    5    0    0 -0.12269285484E+02  0.81821737048E+02  0.28004444800E+03  0.29201065884E+03  0.00000000000E+00 0.  1.
         14    1    5    5    0    0  0.45206732010E+02  0.28215183359E+02  0.11344046940E+03  0.12533349628E+03  0.00000000000E+00 0. -1.
         11    1    3    3    0    0  0.73416544759E+02 -0.80831698438E+02 -0.11884138867E+04  0.11934200093E+04  0.00000000000E+00 0. -1.
        -12    1    3    3    0    0 -0.10149652083E+02  0.97875860627E+01 -0.96862773843E+02  0.97883651520E+02  0.00000000000E+00 0.  1.
          5    1    4    4  501    0 -0.71367717983E+02  0.37204742950E+02 -0.77097854763E+02  0.11153069388E+03  0.41800000000E+01 0. -1.
         -5    1    4    4    0  501 -0.24836621218E+02 -0.76197550981E+02 -0.11288005883E+03  0.13850019715E+03  0.41800000000E+01 0. -1.
</event>
<event>
11    1  0.7577197E-009  0.1361697E+03  0.7561462E-02  0.1111913E+00
         22   -1    0    0    0    0  0.00000000000E+00  0.00000000000E+00  0.96287743332E+02  0.96287743332E+02  0.00000000000E+00 0. -1.
         22   -1    0    0    0    0 -0.00000000000E+00 -0.00000000000E+00 -0.57909219690E+03  0.57909219690E+03  0.00000000000E+00 0.  1.
        -24    2    1    2    0    0 -0.39125633774E+00 -0.88945850705E+01 -0.41027172145E+03  0.41820213216E+03  0.80565943182E+02 0.  0.
         25    2    1    2    0    0 -0.40170119101E+02 -0.29161574146E+02 -0.78413187840E+02  0.15575644811E+03  0.12508959680E+03 0.  0.
         24    2    1    2    0    0  0.40561375439E+02  0.38056159216E+02  0.58804557168E+01  0.10142135996E+03  0.84606241286E+02 0.  0.
        -13    1    5    5    0    0  0.31326713834E+02 -0.12872068004E+02 -0.24136197249E+02  0.41588569968E+02  0.00000000000E+00 0.  1.
         14    1    5    5    0    0  0.92346616045E+01  0.50928227220E+02  0.30016652966E+02  0.59832789990E+02  0.00000000000E+00 0. -1.
         13    1    3    3    0    0  0.99446507331E+01  0.34148857636E+02 -0.14748869468E+03  0.15171669524E+03  0.00000000000E+00 0. -1.
        -14    1    3    3    0    0 -0.10335907071E+02 -0.43043442706E+02 -0.26278302676E+03  0.26648543692E+03  0.00000000000E+00 0.  1.
          5    1    4    4  501    0 -0.12178225628E+02  0.48335881312E+02 -0.16735606915E+02  0.52746749099E+02  0.41800000000E+01 0.  1.
         -5    1    4    4    0  501 -0.27991893473E+02 -0.77497455458E+02 -0.61677580925E+02  0.10300969902E+03  0.41800000000E+01 0.  1.
</event>
<event>
11    1  0.7577197E-009  0.1418121E+03  0.7561462E-02  0.1105552E+00
         22   -1    0    0    0    0  0.00000000000E+00  0.00000000000E+00  0.89964863505E+02  0.89964863505E+02  0.00000000000E+00 0. -1.
         22   -1    0    0    0    0 -0.00000000000E+00 -0.00000000000E+00 -0.21631247354E+04  0.21631247354E+04  0.00000000000E+00 0. -1.
         24    2    1    2    0    0 -0.62275327189E+01  0.63181162455E+02 -0.17755413412E+04  0.17785229523E+04  0.81032070187E+02 0.  0.
         25    2    1    2    0    0 -0.20302849196E+02  0.47460037517E+01 -0.33570421400E+03  0.35885941594E+03  0.12509208958E+03 0.  0.
        -24    2    1    2    0    0  0.26530381915E+02 -0.67927166207E+02  0.38085683311E+02  0.11570723057E+03  0.81361433488E+02 0.  0.
        -13    1    3    3    0    0 -0.20652779261E+02 -0.37670925449E+01 -0.14167772169E+03  0.14322466652E+03  0.00000000000E+00 0.  1.
         14    1    3    3    0    0  0.14425246542E+02  0.66948255000E+02 -0.16338636195E+04  0.16352982858E+04  0.00000000000E+00 0. -1.
         11    1    5    5    0    0  0.18417953598E+02 -0.17733471981E+02  0.56191407530E+02  0.61734684930E+02  0.00000000000E+00 0. -1.
        -12    1    5    5    0    0  0.81124283165E+01 -0.50193694226E+02 -0.18105724219E+02  0.53972545639E+02  0.00000000000E+00 0.  1.
          5    1    4    4  501    0 -0.47480422888E+01  0.96008004303E+00 -0.34132512119E+03  0.34138508523E+03  0.41800000000E+01 0. -1.
         -5    1    4    4    0  501 -0.15554806907E+02  0.37859237086E+01  0.56209071933E+01  0.17474330714E+02  0.41800000000E+01 0. -1.
</event>
<event>
11    1  0.7577197E-009  0.3333018E+03  0.7561462E-02  0.9870056E-01
         22   -1    0    0    0    0  0.00000000000E+00  0.00000000000E+00  0.24709248431E+04  0.24709248431E+04  0.00000000000E+00 0. -1.
         22   -1    0    0    0    0 -0.00000000000E+00 -0.00000000000E+00 -0.10460071413E+03  0.10460071413E+03  0.00000000000E+00 0. -1.
         24    2    1    2    0    0  0.29781930665E+03  0.51228006504E+02  0.22996445058E+03  0.38836947460E+03  0.81403637553E+02 0.  0.
         25    2    1    2    0    0 -0.34481388515E+03 -0.49245718315E+02  0.17787011885E+04  0.18167949289E+04  0.12507653474E+03 0.  0.
        -24    2    1    2    0    0  0.46994578504E+02 -0.19822881881E+01  0.35765848996E+03  0.37036115380E+03  0.83877106098E+02 0.  0.
        -13    1    3    3    0    0  0.11061294674E+03  0.49801297363E+02  0.59228027033E+02  0.13499389761E+03  0.00000000000E+00 0.  1.
         14    1    3    3    0    0  0.18720635991E+03  0.14267091403E+01  0.17073642355E+03  0.25337557699E+03  0.00000000000E+00 0. -1.
         11    1    5    5    0    0  0.16723642942E+02  0.25130986372E+02  0.28903821969E+03  0.29061028741E+03  0.00000000000E+00 0. -1.
        -12    1    5    5    0    0  0.30270935562E+02 -0.27113274560E+02  0.68620270270E+02  0.79750866385E+02  0.00000000000E+00 0.  1.
          5    1    4    4  501    0 -0.28180143242E+02  0.52491896083E+01  0.44638954190E+02  0.53214500804E+02  0.41800000000E+01 0.  1.
         -5    1    4    4    0  501 -0.31663374191E+03 -0.54494907924E+02  0.17340622343E+04  0.17635804281E+04  0.41800000000E+01 0.  1.
</event>
<event>
11    1  0.7577197E-009  0.1611916E+03  0.7561462E-02  0.1085962E+00
         22   -1    0    0    0    0  0.00000000000E+00  0.00000000000E+00  0.10424805341E+04  0.10424805341E+04  0.00000000000E+00 0.  1.
         22   -1    0    0    0    0 -0.00000000000E+00 -0.00000000000E+00 -0.25236779277E+03  0.25236779277E+03  0.00000000000E+00 0.  1.
         24    2    1    2    0    0 -0.72758832779E+02  0.77680212497E+02 -0.19217797293E+03  0.23788294594E+03  0.91257106740E+02 0.  0.
         25    2    1    2    0    0  0.35636919724E+02 -0.62499936805E+02  0.11625980401E+03  0.18531249158E+03  0.12509254718E+03 0.  0.
        -24    2    1    2    0    0  0.37121913054E+02 -0.15180275692E+02  0.86603091022E+03  0.87165288931E+03  0.90336840762E+02 0.  0.
        -11    1    3    3    0    0 -0.48982181384E+02  0.64220369634E+02 -0.54300596838E+02  0.97324533320E+02  0.00000000000E+00 0.  1.
         12    1    3    3    0    0 -0.23776651395E+02  0.13459842863E+02 -0.13787737609E+03  0.14055841262E+03  0.00000000000E+00 0. -1.
         13    1    5    5    0    0 -0.10456182882E+01 -0.38345835048E+02  0.17376888811E+03  0.17795258598E+03  0.00000000000E+00 0. -1.
        -14    1    5    5    0    0  0.38167531343E+02  0.23165559356E+02  0.69226202211E+03  0.69370030333E+03  0.00000000000E+00 0.  1.
          5    1    4    4  501    0  0.81290687018E+01 -0.48349798398E+02  0.13850233074E+03  0.14698351194E+03  0.41800000000E+01 0. -1.
         -5    1    4    4    0  501  0.27507851023E+02 -0.14150138407E+02 -0.22242526729E+02  0.38328979638E+02  0.41800000000E+01 0. -1.
</event>
<event>
11    1  0.7577197E-009  0.1297062E+03  0.7561462E-02  0.1119631E+00
         22   -1    0    0    0    0  0.00000000000E+00  0.00000000000E+00  0.16611373643E+03  0.16611373643E+03  0.00000000000E+00 0. -1.
         22   -1    0    0    0    0 -0.00000000000E+00 -0.00000000000E+00 -0.26304259466E+03  0.26304259466E+03  0.00000000000E+00 0. -1.
        -24    2    1    2    0    0 -0.17543287643E+02 -0.33372772198E+02 -0.14239606489E+03  0.16578202509E+03  0.76062682571E+02 0.  0.
         25    2    1    2    0    0  0.48777523556E+02  0.24985757559E+02 -0.38972658024E+02  0.14201598391E+03  0.12508451833E+03 0.  0.
         24    2    1    2    0    0 -0.31234235912E+02  0.83870146395E+01  0.84439864692E+02  0.12135832210E+03  0.80943388154E+02 0.  0.
        -11    1    5    5    0    0  0.10077179755E+02  0.32292110227E+02  0.14780677084E+02  0.36916098789E+02  0.00000000000E+00 0.  1.
         12    1    5    5    0    0 -0.41311415667E+02 -0.23905095587E+02  0.69659187607E+02  0.84442223310E+02  0.00000000000E+00 0. -1.
         11    1    3    3    0    0  0.91992000902E+01 -0.18124356303E+02 -0.13159869737E+03  0.13315905798E+03  0.00000000000E+00 0. -1.
        -12    1    3    3    0    0 -0.26742487734E+02 -0.15248415895E+02 -0.10797367528E+02  0.32622967109E+02  0.00000000000E+00 0.  1.
          5    1    4    4  501    0  0.33141661891E+02 -0.43967954774E+02 -0.44578648489E+02  0.70966746445E+02  0.41800000000E+01 0.  1.
         -5    1    4    4    0  501  0.15635861665E+02  0.68953712333E+02  0.56059904651E+01  0.71049237460E+02  0.41800000000E+01 0.  1.
</event>
<event>
11    1  0.7577197E-009  0.1349600E+03  0.7561462E-02  0.1113321E+00
         22   -1    0    0    0    0  0.00000000000E+00  0.00000000000E+00  0.13478466080E+03  0.13478466080E+03  0.00000000000E+00 0.  1.
         22   -1    0    0    0    0 -0.00000000000E+00 -0.00000000000E+00 -0.13069027449E+04  0.13069027449E+04  0.00000000000E+00 0.  1.
        -24    2    1    2    0    0 -0.20889813393E+02  0.49167270983E+02 -0.11537398877E+04  0.11577580906E+04  0.80213858220E+02 0.  0.
         25    2    1    2    0    0  0.16380992942E+02 -0.21775781345E+01 -0.99023737207E+02  0.16039414464E+03  0.12508997692E+03 0.  0.
         24    2    1    2    0    0  0.45088204504E+01 -0.46989692849E+02  0.80645540817E+02  0.12353517045E+03  0.80801450408E+02 0.  0.
        -13    1    5    5    0    0  0.36877191921E+02 -0.13793779795E+02  0.62246222840E+02  0.73653159490E+02  0.00000000000E+00 0.  1.
         14    1    5    5    0    0 -0.32368371471E+02 -0.33195913054E+02  0.18399317976E+02  0.49882010957E+02  0.00000000000E+00 0. -1.
         13    1    3    3    0    0 -0.43334361898E+02  0.13683857929E+02 -0.35224827177E+03  0.35516750957E+03  0.00000000000E+00 0. -1.
        -14    1    3    3    0    0  0.22444548506E+02  0.35483413055E+02 -0.80149161595E+03  0.80259058106E+03  0.00000000000E+00 0.  1.
          5    1    4    4  501    0 -0.38472413473E+02 -0.27153585181E+02 -0.86673731908E+02  0.98728172217E+02  0.41800000000E+01 0.  1.
         -5    1    4    4    0  501  0.54853406415E+02  0.24976007046E+02 -0.12350005300E+02  0.61665972418E+02  0.41800000000E+01 0.  1.
</event>
<event>
11    1  0.7577197E-009  0.1747007E+03  0.7561462E-02  0.1074012E+00
         22   -1    0    0    0    0  0.00000000000E+00  0.00000000000E+00  0.25587161482E+04  0.25587161482E+04  0.00000000000E+00 0.  1.
         22   -1    0    0    0    0 -0.00000000000E+00 -0.00000000000E+00 -0.24987941905E+02  0.24987941905E+02  0.00000000000E+00 0.  1.
        -24    2    1    2    0    0 -0.34538922361E+00  0.87700716704E+01  0.26434635907E+03  0.27657658010E+03  0.80861447274E+02 0.  0.
         25    2    1    2    0    0 -0.57659101978E+02  0.99912117668E+02  0.43914291082E+03  0.47095796797E+03  0.12509159915E+03 0.  0.
         24    2    1    2    0    0  0.58004491202E+02 -0.10868218934E+03  0.18302389364E+04  0.18361695421E+04  0.81041245511E+02 0.  0.
        -11    1    5    5    0    0  0.46691088697E+02 -0.10439000587E+03  0.17995709766E+04  0.18032007739E+04  0.00000000000E+00 0.  1.
         12    1    5    5    0    0  0.11313402505E+02 -0.42921834672E+01  0.30667959830E+02  0.32968768180E+02  0.00000000000E+00 0. -1.
         11    1    3    3    0    0 -0.55426302406E+01  0.41947316090E+02  0.19485925165E+03  0.19940016557E+03  0.00000000000E+00 0. -1.
        -12    1    3    3    0    0  0.51972410169E+01 -0.33177244420E+02  0.69487107419E+02  0.77176414525E+02  0.00000000000E+00 0.  1.
          5    1    4    4  501    0 -0.70633099399E+02  0.47625370389E+02  0.11970885807E+03  0.14698603245E+03  0.41800000000E+01 0. -1.
         -5    1    4    4    0  501  0.12973997420E+02  0.52286747280E+02  0.31943405275E+03  0.32397193552E+03  0.41800000000E+01 0. -1.
</event>
<event>
11    1  0.7577197E-009  0.1493612E+03  0.7561462E-02  0.1097533E+00
         22   -1    0    0    0    0  0.00000000000E+00  0.00000000000E+00  0.18306502229E+04  0.18306502229E+04  0.00000000000E+00 0. -1.
         22   -1    0    0    0    0 -0.00000000000E+00 -0.00000000000E+00 -0.55506448645E+03  0.55506448645E+03  0.00000000000E+00 0.  1.
        -24    2    1    2    0    0 -0.78431951432E+02  0.86521423870E+01 -0.48877496985E+03  0.50152972054E+03  0.80029112545E+02 0.  0.
         25    2    1    2    0    0  0.15130073283E+03 -0.29804720745E+02  0.11161058194E+03  0.22778204005E+03  0.12508997817E+03 0.  0.
         24    2    1    2    0    0 -0.72868781396E+02  0.21152578358E+02  0.16527501244E+04  0.16564029488E+04  0.79564214394E+02 0.  0.
        -11    1    5    5    0    0  0.74530491183E+01  0.25757402794E+02  0.27446822368E+03  0.27577490377E+03  0.00000000000E+00 0.  1.
         12    1    5    5    0    0 -0.80321830514E+02 -0.46048244365E+01  0.13782819007E+04  0.13806280450E+04  0.00000000000E+00 0. -1.
         13    1    3    3    0    0  0.81159006484E+01 -0.19643668245E+02 -0.85389616272E+02  0.87995045954E+02  0.00000000000E+00 0. -1.
        -14    1    3    3    0    0 -0.86547852081E+02  0.28295810632E+02 -0.40338535358E+03  0.41353467458E+03  0.00000000000E+00 0.  1.
          5    1    4    4  501    0  0.15031735762E+03 -0.28946964465E+02  0.43037051478E+02  0.15906883716E+03  0.41800000000E+01 0. -1.
         -5    1    4    4    0  501  0.98337520401E+00 -0.85775627953E+00  0.68573530458E+02  0.68713202896E+02  0.41800000000E+01 0. -1.
</event>
<event>
11    1  0.7577197E-009  0.1302071E+03  0.7561462E-02  0.1119015E+00
         22   -1    0    0    0    0  0.00000000000E+00  0.00000000000E+00  0.33359098273E+02  0.33359098273E+02  0.00000000000E+00 0.  1.
         22   -1    0    0    0    0 -0.00000000000E+00 -0.00000000000E+00 -0.22407419603E+04  0.22407419603E+04  0.00000000000E+00 0.  1.
         24    2    1    2    0    0  0.45005236263E+01 -0.41085730423E+02 -0.15503817781E+04  0.15530229115E+04  0.80549449124E+02 0.  0.
         25    2    1    2    0    0  0.30934485245E+02  0.26685981053E+02 -0.59905210670E+03  0.61333460571E+03  0.12508728173E+03 0.  0.
        -24    2    1    2    0    0 -0.35435008871E+02  0.14399749370E+02 -0.57948977181E+02  0.10774354135E+03  0.82386856413E+02 0.  0.
        -11    1    3    3    0    0 -0.30377958878E+02 -0.20668365707E+02 -0.11542851027E+04  0.11548697329E+04  0.00000000000E+00 0.  1.
         12    1    3    3    0    0  0.34878482504E+02 -0.20417364716E+02 -0.39609667541E+03  0.39815317855E+03  0.00000000000E+00 0. -1.
         11    1    5    5    0    0  0.15190101163E+02 -0.11698908361E+02 -0.45595654444E+02  0.49462787369E+02  0.00000000000E+00 0. -1.
        -12    1    5    5    0    0 -0.50625110034E+02  0.26098657731E+02 -0.12353322737E+02  0.58280753976E+02  0.00000000000E+00 0.  1.
          5    1    4    4  501    0  0.40279706276E+02 -0.39725350017E+02 -0.37990525779E+03  0.38411721580E+03  0.41800000000E+01 0.  1.
         -5    1    4    4    0  501 -0.93452210313E+01  0.66411331070E+02 -0.21914684891E+03  0.22921738991E+03  0.41800000000E+01 0.  1.
</event>
<event>
11    1  0.7937509E-009  0.7229908E+03  0.7561462E-02  0.8999094E-01
         22   -1    0    0    0    0  0.00000000000E+00  0.00000000000E+00  0.97484187370E+03  0.97484187370E+03  0.00000000000E+00 0.  1.
         22   -1    0    0    0    0 -0.00000000000E+00 -0.00000000000E+00 -0.15842228416E+04  0.15842228416E+04  0.00000000000E+00 0.  1.
         24    2    1    2    0    0  0.12217664679E+03 -0.25259782513E+03 -0.20448368405E+03  0.35629755289E+03  0.80009842335E+02 0.  0.
         25    2    1    2    0    0 -0.33400672638E+03  0.89501271172E+03 -0.93266908923E+03  0.13409430380E+04  0.12509337978E+03 0.  0.
        -24    2    1    2    0    0  0.21183007959E+03 -0.64241488659E+03  0.52777180539E+03  0.86182412443E+03  0.81417895809E+02 0.  0.
        -11    1    3    3    0    0  0.16384841418E+02 -0.11669846772E+03 -0.10223388370E+03  0.15600885351E+03  0.00000000000E+00 0.  1.
         12    1    3    3    0    0  0.10579180537E+03 -0.13589935741E+03 -0.10224980035E+03  0.20028869938E+03  0.00000000000E+00 0. -1.
         13    1    5    5    0    0  0.48446023209E+02 -0.27293038247E+03  0.20659584400E+03  0.34571643524E+03  0.00000000000E+00 0. -1.
        -14    1    5    5    0    0  0.16338405638E+03 -0.36948450412E+03  0.32117596140E+03  0.51610768919E+03  0.00000000000E+00 0.  1.
          5    1    4    4  501    0 -0.12625110996E+03  0.46392490642E+03 -0.40571802349E+03  0.62911862836E+03  0.41800000000E+01 0. -1.
         -5    1    4    4    0  501 -0.20775561642E+03  0.43108780530E+03 -0.52695106574E+03  0.71182440961E+03  0.41800000000E+01 0. -1.
</event>
<event>
11    1  0.7577197E-009  0.1301712E+03  0.7561462E-02  0.1119059E+00
         22   -1    0    0    0    0  0.00000000000E+00  0.00000000000E+00  0.65371043423E+03  0.65371043423E+03  0.00000000000E+00 0. -1.
         22   -1    0    0    0    0 -0.00000000000E+00 -0.00000000000E+00 -0.20742010565E+03  0.20742010565E+03  0.00000000000E+00 0.  1.
         24    2    1    2    0    0  0.31958806656E+02  0.15957040644E+02 -0.14610923910E+03  0.16979807879E+03  0.78787596366E+02 0.  0.
         25    2    1    2    0    0 -0.36474853349E+02 -0.50188777865E+02  0.60215043030E+02  0.15205916571E+03  0.12508721006E+03 0.  0.
        -24    2    1    2    0    0  0.45160466938E+01  0.34231737222E+02  0.53218452466E+03  0.53927329538E+03  0.80019449583E+02 0.  0.
        -11    1    3    3    0    0 -0.48936985170E+01  0.42807858691E+01 -0.12610210832E+03  0.12626961287E+03  0.00000000000E+00 0.  1.
         12    1    3    3    0    0  0.36852505173E+02  0.11676254775E+02 -0.20007130786E+02  0.43528465920E+02  0.00000000000E+00 0. -1.
         11    1    5    5    0    0  0.25875565126E+02  0.48771100451E+02  0.44281549798E+03  0.44624402558E+03  0.00000000000E+00 0. -1.
        -12    1    5    5    0    0 -0.21359518432E+02 -0.14539363229E+02  0.89369026671E+02  0.93029269796E+02  0.00000000000E+00 0.  1.
          5    1    4    4  501    0 -0.32951795159E+02  0.30054733630E+02  0.55734924956E+02  0.71504979390E+02  0.41800000000E+01 0. -1.
         -5    1    4    4    0  501 -0.35230581905E+01 -0.80243511495E+02  0.44801180745E+01  0.80554186323E+02  0.41800000000E+01 0. -1.
</event>
<event>
11    1  0.7577197E-009  0.1919487E+03  0.7561462E-02  0.1060368E+00
         22   -1    0    0    0    0  0.00000000000E+00  0.00000000000E+00  0.20837359870E+03  0.20837359870E+03  0.00000000000E+00 0.  1.
         22   -1    0    0    0    0 -0.00000000000E+00 -0.00000000000E+00 -0.43267972133E+03  0.43267972133E+03  0.00000000000E+00 0. -1.
         24    2    1    2    0    0  0.21399053822E+02  0.97188421806E+01 -0.23869406448E+03  0.25323771191E+03  0.81253350181E+02 0.  0.
         25    2    1    2    0    0 -0.13611374946E+03 -0.88276589526E+02 -0.55516235077E+02  0.21224941949E+03  0.12509218468E+03 0.  0.
        -24    2    1    2    0    0  0.11471469563E+03  0.78557747346E+02  0.69904176925E+02  0.17556618863E+03  0.81277989488E+02 0.  0.
        -11    1    3    3    0    0 -0.60186195826E+01 -0.32958733181E+02 -0.83808924398E+02  0.90257618423E+02  0.00000000000E+00 0.  1.
         12    1    3    3    0    0  0.27417673405E+02  0.42677575362E+02 -0.15488514008E+03  0.16298009349E+03  0.00000000000E+00 0. -1.
         13    1    5    5    0    0  0.95006302798E+02  0.73480569966E+02  0.20116642184E+02  0.12177960021E+03  0.00000000000E+00 0. -1.
        -14    1    5    5    0    0  0.19708392836E+02  0.50771773800E+01  0.49787534741E+02  0.53786588421E+02  0.00000000000E+00 0.  1.
          5    1    4    4  501    0 -0.15003905234E+03 -0.10462950142E+03 -0.50317754050E+02  0.18975879049E+03  0.41800000000E+01 0.  1.
         -5    1    4    4    0  501  0.13925302886E+02  0.16352911896E+02 -0.51984810269E+01  0.22490629002E+02  0.41800000000E+01 0.  1.
</event>
<event>
11    1  0.7577197E-009  0.1560010E+03  0.7561462E-02  0.1090900E+00
         22   -1    0    0    0    0  0.00000000000E+00  0.00000000000E+00  0.10610215386E+03  0.10610215386E+03  0.00000000000E+00 0.  1.
         22   -1    0    0    0    0 -0.00000000000E+00 -0.00000000000E+00 -0.22125393676E+04  0.22125393676E+04  0.00000000000E+00 0. -1.
        -24    2    1    2    0    0 -0.24427877217E+02 -0.87531251430E+02 -0.18100520917E+04  0.18140637341E+04  0.79247810780E+02 0.  0.
         25    2    1    2    0    0  0.33627065732E+02  0.11039062755E+03 -0.36171308659E+03  0.39975104281E+03  0.12509064320E+03 0.  0.
         24    2    1    2    0    0 -0.91991885146E+01 -0.22859376120E+02  0.65327964620E+02  0.10482674449E+03  0.78190327108E+02 0.  0.
        -11    1    5    5    0    0  0.34135422287E+02 -0.80338908540E+01  0.19914298025E+02  0.40328026517E+02  0.00000000000E+00 0.  1.
         12    1    5    5    0    0 -0.43334610801E+02 -0.14825485266E+02  0.45413666595E+02  0.64498717973E+02  0.00000000000E+00 0. -1.
         13    1    3    3    0    0 -0.48765802476E+02 -0.78890418084E+02 -0.12619697921E+04  0.12653732879E+04  0.00000000000E+00 0. -1.
        -14    1    3    3    0    0  0.24337925258E+02 -0.86408333466E+01 -0.54808229961E+03  0.54869044620E+03  0.00000000000E+00 0.  1.
          5    1    4    4  501    0 -0.32807246269E+02  0.92452526046E+02 -0.17421320670E+03  0.19997874579E+03  0.41800000000E+01 0. -1.
         -5    1    4    4    0  501  0.66434312001E+02  0.17938101505E+02 -0.18749987989E+03  0.19977229701E+03  0.41800000000E+01 0. -1.
</event>
<event>
11    1  0.7577197E-009  0.1371504E+03  0.7561462E-02  0.1110783E+00
         22   -1    0    0    0    0  0.00000000000E+00  0.00000000000E+00  0.22041611677E+03  0.22041611677E+03  0.00000000000E+00 0.  1.
         22   -1    0    0    0    0 -0.00000000000E+00 -0.00000000000E+00 -0.55271056250E+03  0.55271056250E+03  0.00000000000E+00 0. -1.
         24    2    1    2    0    0 -0.41208297637E+00 -0.67455200311E+01 -0.44354428971E+03  0.45094240458E+03  0.81066907315E+02 0.  0.
         25    2    1    2    0    0  0.10906539318E+02  0.61069307840E+02 -0.37418378572E+02  0.14455065946E+03  0.12508535140E+03 0.  0.
        -24    2    1    2    0    0 -0.10494456341E+02 -0.54323787809E+02  0.14866822254E+03  0.17763361523E+03  0.79939060113E+02 0.  0.
        -13    1    3    3    0    0 -0.12242009200E+01  0.21894371925E+02 -0.34391788614E+02  0.40787955501E+02  0.00000000000E+00 0.  1.
         14    1    3    3    0    0  0.81211794366E+00 -0.28639891956E+02 -0.40915250109E+03  0.41015444908E+03  0.00000000000E+00 0. -1.
         13    1    5    5    0    0  0.32000515768E+02 -0.26316745160E+02  0.39774674836E+02  0.57433690840E+02  0.00000000000E+00 0. -1.
        -14    1    5    5    0    0 -0.42494972109E+02 -0.28007042648E+02  0.10889354771E+03  0.12019992439E+03  0.00000000000E+00 0.  1.
          5    1    4    4  501    0  0.59714667674E+02  0.53247541957E+02 -0.48591944079E+02  0.93700542631E+02  0.41800000000E+01 0. -1.
         -5    1    4    4    0  501 -0.48808128356E+02  0.78217658824E+01  0.11173565507E+02  0.50850116827E+02  0.41800000000E+01 0. -1.
</event>
<event>
11    1  0.7577197E-009  0.1390305E+03  0.7561462E-02  0.1108646E+00
         22   -1    0    0    0    0  0.00000000000E+00  0.00000000000E+00  0.82532791823E+03  0.82532791823E+03  0.00000000000E+00 0.  1.
         22   -1    0    0    0    0 -0.00000000000E+00 -0.00000000000E+00 -0.83173990068E+02  0.83173990068E+02  0.00000000000E+00 0. -1.
        -24    2    1    2    0    0  0.53129409296E+02 -0.30740807204E+02 -0.27491780136E+02  0.10565324618E+03  0.81480544258E+02 0.  0.
         25    2    1    2    0    0 -0.40451530860E+02  0.36884755368E+02  0.38398276881E+03  0.40753752526E+03  0.12508899322E+03 0.  0.
         24    2    1    2    0    0 -0.12677878436E+02 -0.61439481645E+01  0.38566293948E+03  0.39531113686E+03  0.85653460702E+02 0.  0.
        -13    1    5    5    0    0 -0.31400073856E+02 -0.59806940547E+01  0.36858804585E+03  0.36997145955E+03  0.00000000000E+00 0.  1.
         14    1    5    5    0    0  0.18722195420E+02 -0.16325410986E+00  0.17074893633E+02  0.25339677303E+02  0.00000000000E+00 0. -1.
         11    1    3    3    0    0 -0.15172695111E+01 -0.41947315201E+02 -0.26921742537E+02  0.49866417362E+02  0.00000000000E+00 0. -1.
        -12    1    3    3    0    0  0.54646678807E+02  0.11206507998E+02 -0.57003759963E+00  0.55786828813E+02  0.00000000000E+00 0.  1.
          5    1    4    4  501    0 -0.76787865857E+02 -0.94839069965E+01  0.21870024932E+03  0.23202067211E+03  0.41800000000E+01 0.  1.
         -5    1    4    4    0  501  0.36336334997E+02  0.46368662365E+02  0.16528251950E+03  0.17551685316E+03  0.41800000000E+01 0.  1.
</event>
<event>
11    1  0.7577197E-009  0.2312710E+03  0.7561462E-02  0.1034378E+00
         22   -1    0    0    0    0  0.00000000000E+00  0.00000000000E+00  0.82526928940E+03  0.82526928940E+03  0.00000000000E+00 0.  1.
         22   -1    0    0    0    0 -0.00000000000E+00 -0.00000000000E+00 -0.11461349039E+04  0.11461349039E+04  0.00000000000E+00 0.  1.
         24    2    1    2    0    0 -0.11590039097E+03 -0.11584281724E+03 -0.78815762602E+03  0.80965032378E+03  0.86537531806E+02 0.  0.
         25    2    1    2    0    0  0.30553465369E+03  0.11063956109E+03 -0.24142948091E+03  0.42370441759E+03  0.12507878378E+03 0.  0.
        -24    2    1    2    0    0 -0.18963426272E+03  0.52032561430E+01  0.70872149247E+03  0.73804945187E+03  0.80265883453E+02 0.  0.
        -11    1    3    3    0    0 -0.11810046965E+03 -0.66813269675E+02 -0.60514886797E+03  0.62017488368E+03  0.00000000000E+00 0.  1.
         12    1    3    3    0    0  0.22000786736E+01 -0.49029547561E+02 -0.18300875805E+03  0.18947544010E+03  0.00000000000E+00 0. -1.
         11    1    5    5    0    0 -0.13997312063E+03 -0.15991872482E+02  0.38738125888E+03  0.41220438403E+03  0.00000000000E+00 0. -1.
        -12    1    5    5    0    0 -0.49661142090E+02  0.21195128625E+02  0.32134023359E+03  0.32584506784E+03  0.00000000000E+00 0.  1.
          5    1    4    4  501    0  0.17939298648E+03  0.18101605665E+01 -0.14827643897E+03  0.23278422419E+03  0.41800000000E+01 0.  1.
         -5    1    4    4    0  501  0.12614166721E+03  0.10882940053E+03 -0.93153041944E+02  0.19092019340E+03  0.41800000000E+01 0.  1.
</event>
<event>
11    1  0.7577197E-009  0.1444451E+03  0.7561462E-02  0.1102694E+00
         22   -1    0    0    0    0  0.00000000000E+00  0.00000000000E+00  0.22395013071E+03  0.22395013071E+03  0.00000000000E+00 0.  1.
         22   -1    0    0    0    0 -0.00000000000E+00 -0.00000000000E+00 -0.78843990523E+03  0.78843990523E+03  0.00000000000E+00 0.  1.
        -24    2    1    2    0    0 -0.68802907120E+02  0.23454702503E+02 -0.59924922431E+03  0.60889560140E+03  0.79813892731E+02 0.  0.
         25    2    1    2    0    0  0.82283968520E+02  0.38127302457E+02 -0.13505469585E+03  0.20521065957E+03  0.12508917324E+03 0.  0.
         24    2    1    2    0    0 -0.13481061400E+02 -0.61582004960E+02  0.16981414564E+03  0.19828377497E+03  0.80656859625E+02 0.  0.
        -11    1    5    5    0    0 -0.16812658959E+02 -0.62749509965E+02  0.17793817495E+03  0.18942587101E+03  0.00000000000E+00 0.  1.
         12    1    5    5    0    0  0.33315975590E+01  0.11675050058E+01 -0.81240293134E+01  0.88579039574E+01  0.00000000000E+00 0. -1.
         13    1    3    3    0    0 -0.75320025045E+02  0.16435994029E+02 -0.30843065796E+03  0.31791935902E+03  0.00000000000E+00 0. -1.
        -14    1    3    3    0    0  0.65171179245E+01  0.70187084738E+01 -0.29081856635E+03  0.29097624238E+03  0.00000000000E+00 0.  1.
          5    1    4    4  501    0  0.10581442392E+03  0.43047883983E+02 -0.13955763473E+03  0.18039849899E+03  0.41800000000E+01 0. -1.
         -5    1    4    4    0  501 -0.23530455403E+02 -0.49205815260E+01  0.45029388857E+01  0.24812160580E+02  0.41800000000E+01 0. -1.
</event>
<event>
11    1  0.7577197E-009  0.1586572E+03  0.7561462E-02  0.1088347E+00
         22   -1    0    0    0    0  0.00000000000E+00  0.00000000000E+00  0.23504952236E+04  0.23504952236E+04  0.00000000000E+00 0.  1.
         22   -1    0    0    0    0 -0.00000000000E+00 -0.00000000000E+00 -0.17153066937E+03  0.17153066937E+03  0.00000000000E+00 0. -1.
        -24    2    1    2    0    0  0.67945155252E+02 -0.65410961858E+02 -0.12170458653E+03  0.17354835281E+03  0.80074255084E+02 0.  0.
         25    2    1    2    0    0 -0.11790263131E+03  0.93978962452E+02  0.39242177442E+03  0.43860615827E+03  0.12508971653E+03 0.  0.
         24    2    1    2    0    0  0.49957476059E+02 -0.28568000593E+02  0.19082473663E+04  0.19098713819E+04  0.53747596373E+02 0.  0.
        -11    1    5    5    0    0  0.41280808799E+02 -0.43385075412E+02  0.12954163534E+04  0.12967998683E+04  0.00000000000E+00 0.  1.
         12    1    5    5    0    0  0.86766672604E+01  0.14817074819E+02  0.61283101295E+03  0.61307151352E+03  0.00000000000E+00 0. -1.
         13    1    3    3    0    0  0.70664782508E+02 -0.78108632348E+02 -0.12117091407E+03  0.16055173730E+03  0.00000000000E+00 0. -1.
        -14    1    3    3    0    0 -0.27196272565E+01  0.12697670490E+02 -0.53367245568E+00  0.12996615505E+02  0.00000000000E+00 0.  1.
          5    1    4    4  501    0 -0.10403207092E+03  0.11732306001E+03  0.26237132837E+03  0.30568539144E+03  0.41800000000E+01 0. -1.
         -5    1    4    4    0  501 -0.13870560388E+02 -0.23344097560E+02  0.13005044605E+03  0.13292076683E+03  0.41800000000E+01 0. -1.
</event>
<event>
11    1  0.7577197E-009  0.1336215E+03  0.7561462E-02  0.1114898E+00
         22   -1    0    0    0    0  0.00000000000E+00  0.00000000000E+00  0.29513310085E+04  0.29513310085E+04  0.00000000000E+00 0. -1.
         22   -1    0    0    0    0 -0.00000000000E+00 -0.00000000000E+00 -0.25929883271E+03  0.25929883271E+03  0.00000000000E+00 0.  1.
        -24    2    1    2    0    0  0.83351012671E+01  0.28459076580E+02 -0.20048054076E+03  0.22073093016E+03  0.87466012550E+02 0.  0.
         25    2    1    2    0    0  0.36762976819E+02 -0.14401059058E+02  0.41820964136E+02  0.13767818485E+03  0.12508949827E+03 0.  0.
         24    2    1    2    0    0 -0.45098078086E+02 -0.14058017522E+02  0.28506917525E+04  0.28522207262E+04  0.80548986261E+02 0.  0.
        -13    1    5    5    0    0 -0.18325776533E+02  0.86814148957E+01  0.15751448922E+03  0.15881440541E+03  0.00000000000E+00 0.  1.
         14    1    5    5    0    0 -0.26772301553E+02 -0.22739432418E+02  0.26931772632E+04  0.26934063208E+04  0.00000000000E+00 0. -1.
         13    1    3    3    0    0 -0.24639875206E+02  0.36631320311E+01 -0.11748786127E+02  0.27542257749E+02  0.00000000000E+00 0. -1.
        -14    1    3    3    0    0  0.32974976474E+02  0.24795944549E+02 -0.18873175464E+03  0.19318867241E+03  0.00000000000E+00 0.  1.
          5    1    4    4  501    0  0.16498285843E+02  0.17764029112E+02 -0.40227486344E+02  0.47153761500E+02  0.41800000000E+01 0. -1.
         -5    1    4    4    0  501  0.20264690976E+02 -0.32165088170E+02  0.82048450480E+02  0.90524423353E+02  0.41800000000E+01 0. -1.
</event>
<event>
11    1  0.7577197E-009  0.1488767E+03  0.7561462E-02  0.1098032E+00
         22   -1    0    0    0    0  0.00000000000E+00  0.00000000000E+00  0.93970356992E+03  0.93970356992E+03  0.00000000000E+00 0. -1.
         22   -1    0    0    0    0 -0.00000000000E+00 -0.00000000000E+00 -0.17948995901E+04  0.17948995901E+04  0.00000000000E+00 0.  1.
        -24    2    1    2    0    0  0.35074144076E+02  0.73044798160E+02 -0.17628761512E+04  0.17666207597E+04  0.81552720362E+02 0.  0.
         25    2    1    2    0    0  0.18014008815E+01 -0.59598784882E+02  0.14620041974E+03  0.20143654948E+03  0.12508741156E+03 0.  0.
         24    2    1    2    0    0 -0.36875544958E+02 -0.13446013278E+02  0.76147971126E+03  0.76654585081E+03  0.78743822975E+02 0.  0.
        -11    1    5    5    0    0  0.11188258505E+02 -0.19402696642E+02  0.72852631684E+02  0.76217765047E+02  0.00000000000E+00 0.  1.
         12    1    5    5    0    0 -0.48063803462E+02  0.59566833640E+01  0.68862707957E+03  0.69032808577E+03  0.00000000000E+00 0. -1.
         11    1    3    3    0    0 -0.72390155043E+01  0.39831772428E+02 -0.29565563852E+03  0.29841452717E+03  0.00000000000E+00 0. -1.
        -12    1    3    3    0    0  0.42313159580E+02  0.33213025733E+02 -0.14672205127E+04  0.14682062326E+04  0.00000000000E+00 0.  1.
          5    1    4    4  501    0 -0.38165914932E+02  0.21588060374E+02  0.71698203761E+02  0.84147407778E+02  0.41800000000E+01 0. -1.
         -5    1    4    4    0  501  0.39967315813E+02 -0.81186845256E+02  0.74502215978E+02  0.11728914170E+03  0.41800000000E+01 0. -1.
</event>
<event>
11    1  0.7577197E-009  0.1290635E+03  0.7561462E-02  0.1120425E+00
         22   -1    0    0    0    0  0.00000000000E+00  0.00000000000E+00  0.53643589225E+03  0.53643589225E+03  0.00000000000E+00 0. -1.
         22   -1    0    0    0    0 -0.00000000000E+00 -0.00000000000E+00 -0.35145221683E+03  0.35145221683E+03  0.00000000000E+00 0. -1.
        -24    2    1    2    0    0 -0.32574476100E+02 -0.85012151680E+00 -0.24230862992E+03  0.25723356233E+03  0.79961329743E+02 0.  0.
         25    2    1    2    0    0  0.27024790385E+02 -0.14703824096E+02 -0.55918380813E+02  0.14043171601E+03  0.12509060641E+03 0.  0.
         24    2    1    2    0    0  0.55496857151E+01  0.15553945613E+02  0.48321068615E+03  0.49022283074E+03  0.80951419627E+02 0.  0.
        -11    1    5    5    0    0 -0.43778162409E+01 -0.13710050462E+02  0.14277637009E+02  0.20272683031E+02  0.00000000000E+00 0.  1.
         12    1    5    5    0    0  0.99275019560E+01  0.29263996074E+02  0.46893304914E+03  0.46995014771E+03  0.00000000000E+00 0. -1.
         13    1    3    3    0    0 -0.34976605359E+02 -0.88573403220E+01 -0.24560963327E+03  0.24824565928E+03  0.00000000000E+00 0. -1.
        -14    1    3    3    0    0  0.24021292592E+01  0.80072188052E+01  0.33010033489E+01  0.89879030414E+01  0.00000000000E+00 0.  1.
          5    1    4    4  501    0 -0.22648783376E+02 -0.58242720098E+02 -0.27526193167E+02  0.68413050971E+02  0.41800000000E+01 0.  1.
         -5    1    4    4    0  501  0.49673573761E+02  0.43538896002E+02 -0.28392187645E+02  0.72018665043E+02  0.41800000000E+01 0.  1.
</event>
<event>
11    1  0.7577197E-009  0.3271368E+03  0.7561462E-02  0.9893183E-01
         22   -1    0    0    0    0  0.00000000000E+00  0.00000000000E+00  0.25476043060E+04  0.25476043060E+04  0.00000000000E+00 0. -1.
         22   -1    0    0    0    0 -0.00000000000E+00 -0.00000000000E+00 -0.22782302011E+03  0.22782302011E+03  0.00000000000E+00 0.  1.
        -24    2    1    2    0    0 -0.20975536324E+03  0.17565945968E+03  0.23090409529E+02  0.28579944847E+03  0.79338512430E+02 0.  0.
         25    2    1    2    0    0  0.32107643578E+03 -0.21228633388E+03  0.34220938721E+03  0.53000931856E+03  0.12508816049E+03 0.  0.
         24    2    1    2    0    0 -0.11132107254E+03  0.36626874207E+02  0.19544814892E+04  0.19596185591E+04  0.79831676335E+02 0.  0.
        -11    1    5    5    0    0 -0.29152646643E+02  0.14106441874E+02  0.16720893742E+03  0.17031646210E+03  0.00000000000E+00 0.  1.
         12    1    5    5    0    0 -0.82168425899E+02  0.22520432333E+02  0.17872725517E+04  0.17893020970E+04  0.00000000000E+00 0. -1.
         11    1    3    3    0    0 -0.10458679667E+02  0.20404045734E+01 -0.15367719560E+02  0.18700642654E+02  0.00000000000E+00 0. -1.
        -12    1    3    3    0    0 -0.19929668357E+03  0.17361905510E+03  0.38458129089E+02  0.26709880582E+03  0.00000000000E+00 0.  1.
          5    1    4    4  501    0  0.22067265417E+03 -0.17657639486E+03  0.17742640846E+03  0.33372630454E+03  0.41800000000E+01 0.  1.
         -5    1    4    4    0  501  0.10040378161E+03 -0.35709939020E+02  0.16478297875E+03  0.19628301401E+03  0.41800000000E+01 0.  1.
</event>
<event>
11    1  0.7577197E-009  0.1547949E+03  0.7561462E-02  0.1092078E+00
         22   -1    0    0    0    0  0.00000000000E+00  0.00000000000E+00  0.65647909835E+03  0.65647909835E+03  0.00000000000E+00 0.  1.
         22   -1    0    0    0    0 -0.00000000000E+00 -0.00000000000E+00 -0.15032360738E+04  0.15032360738E+04  0.00000000000E+00 0.  1.
         24    2    1    2    0    0  0.70420034758E+02 -0.57513451437E+02 -0.14433337369E+04  0.14487651482E+04  0.86263551007E+02 0.  0.
         25    2    1    2    0    0 -0.83157837782E+02  0.60696098282E+02  0.67251069404E+02  0.17541165999E+03  0.12508917537E+03 0.  0.
        -24    2    1    2    0    0  0.12737803025E+02 -0.31826468447E+01  0.52932569202E+03  0.53553836396E+03  0.80269983004E+02 0.  0.
        -11    1    3    3    0    0  0.60754545149E+02 -0.52079211927E+02 -0.14256400996E+04  0.14278841173E+04  0.00000000000E+00 0.  1.
         12    1    3    3    0    0  0.96654896092E+01 -0.54342395099E+01 -0.17693637344E+02  0.20881030887E+02  0.00000000000E+00 0. -1.
         13    1    5    5    0    0 -0.26315304313E+02  0.74027187306E+01  0.83077203217E+02  0.87459231531E+02  0.00000000000E+00 0. -1.
        -14    1    5    5    0    0  0.39053107338E+02 -0.10585365575E+02  0.44624848880E+03  0.44807913242E+03  0.00000000000E+00 0.  1.
          5    1    4    4  501    0 -0.28702307666E+02  0.69735780287E+02 -0.14277264189E+02  0.76864908706E+02  0.41800000000E+01 0.  1.
         -5    1    4    4    0  501 -0.54455530116E+02 -0.90396820052E+01  0.81528333593E+02  0.98546751288E+02  0.41800000000E+01 0.  1.
</event>
<event>
11    1  0.7577197E-009  0.2300879E+03  0.7561462E-02  0.1035076E+00
         22   -1    0    0    0    0  0.00000000000E+00  0.00000000000E+00  0.20560593622E+04  0.20560593622E+04  0.00000000000E+00 0. -1.
         22   -1    0    0    0    0 -0.00000000000E+00 -0.00000000000E+00 -0.18601232174E+03  0.18601232174E+03  0.00000000000E+00 0.  1.
         24    2    1    2    0    0 -0.10076269306E+03  0.17258311263E+03 -0.90589648156E+02  0.24138351538E+03  0.10060549721E+03 0.  0.
         25    2    1    2    0    0  0.46681047629E+02 -0.14247689747E+03  0.49840506829E+03  0.53529161399E+03  0.12510281125E+03 0.  0.
        -24    2    1    2    0    0  0.54081645428E+02 -0.30106215159E+02  0.14622316203E+04  0.14653965546E+04  0.73719346962E+02 0.  0.
        -11    1    3    3    0    0 -0.11475864484E+03  0.16885477207E+03 -0.96402891690E+02  0.22577643398E+03  0.00000000000E+00 0.  1.
         12    1    3    3    0    0  0.13995951779E+02  0.37283405608E+01  0.58132435345E+01  0.15607081403E+02  0.00000000000E+00 0. -1.
         13    1    5    5    0    0  0.20639634395E+02 -0.33661677197E+02  0.12405717948E+04  0.12412000166E+04  0.00000000000E+00 0. -1.
        -14    1    5    5    0    0  0.33442011033E+02  0.35554620386E+01  0.22165982553E+03  0.22419653803E+03  0.00000000000E+00 0.  1.
          5    1    4    4  501    0  0.40902414268E+02 -0.33999887549E+02  0.33374178452E+03  0.33797936473E+03  0.41800000000E+01 0. -1.
         -5    1    4    4    0  501  0.57786333609E+01 -0.10847700992E+03  0.16466328377E+03  0.19731224926E+03  0.41800000000E+01 0. -1.
</event>
<event>
11    1  0.7577197E-009  0.1280499E+03  0.7561462E-02  0.1121688E+00
         22   -1    0    0    0    0  0.00000000000E+00  0.00000000000E+00  0.93030406504E+03  0.93030406504E+03  0.00000000000E+00 0. -1.
         22   -1    0    0    0    0 -0.00000000000E+00 -0.00000000000E+00 -0.34041486668E+03  0.34041486668E+03  0.00000000000E+00 0. -1.
         24    2    1    2    0    0  0.19909801582E+02 -0.15767396868E+02 -0.25857262945E+03  0.27182487850E+03  0.79899617435E+02 0.  0.
         25    2    1    2    0    0 -0.33374094555E+02  0.30994289867E+02 -0.13126190349E+02  0.13376810233E+03  0.12508849722E+03 0.  0.
        -24    2    1    2    0    0  0.13464292973E+02 -0.15226893000E+02  0.86158801816E+03  0.86512595089E+03  0.75470871316E+02 0.  0.
        -11    1    3    3    0    0  0.75068538367E+01 -0.28104561721E+01  0.37782819732E+01  0.88615423652E+01  0.00000000000E+00 0.  1.
         12    1    3    3    0    0  0.12402947745E+02 -0.12956940696E+02 -0.26235091143E+03  0.26296333613E+03  0.00000000000E+00 0. -1.
         11    1    5    5    0    0 -0.14186987889E+01 -0.35199866754E+02  0.74844428621E+03  0.74927290948E+03  0.00000000000E+00 0. -1.
        -12    1    5    5    0    0  0.14882991762E+02  0.19972973754E+02  0.11314373195E+03  0.11585304141E+03  0.00000000000E+00 0.  1.
          5    1    4    4  501    0 -0.29837767205E+02  0.35624732537E+02  0.51069278338E+02  0.69173387297E+02  0.41800000000E+01 0. -1.
         -5    1    4    4    0  501 -0.35363273500E+01 -0.46304426697E+01 -0.64195468687E+02  0.64594715035E+02  0.41800000000E+01 0. -1.
</event>
<event>
11    1  0.7577197E-009  0.1438203E+03  0.7561462E-02  0.1103366E+00
         22   -1    0    0    0    0  0.00000000000E+00  0.00000000000E+00  0.97378695232E+02  0.97378695232E+02  0.00000000000E+00 0.  1.
         22   -1    0    0    0    0 -0.00000000000E+00 -0.00000000000E+00 -0.77869946926E+03  0.77869946926E+03  0.00000000000E+00 0.  1.
        -24    2    1    2    0    0 -0.69240100670E+02  0.11202294182E+02 -0.51674505743E+03  0.52795066674E+03  0.82381849907E+02 0.  0.
         25    2    1    2    0    0  0.77091989582E+02  0.17427460228E+02 -0.20564735200E+03  0.25334880736E+03  0.12509154079E+03 0.  0.
         24    2    1    2    0    0 -0.78518889115E+01 -0.28629754410E+02  0.41071635395E+02  0.94778690403E+02  0.80092483564E+02 0.  0.
        -13    1    5    5    0    0 -0.20469311948E+02 -0.12275134885E+02  0.61351939563E+02  0.65831088068E+02  0.00000000000E+00 0.  1.
         14    1    5    5    0    0  0.12617423036E+02 -0.16354619524E+02 -0.20280304168E+02  0.28947602336E+02  0.00000000000E+00 0. -1.
         11    1    3    3    0    0  0.60607727592E+01 -0.20082661807E+02 -0.51405514970E+02  0.55520926154E+02  0.00000000000E+00 0. -1.
        -12    1    3    3    0    0 -0.75300873429E+02  0.31284955988E+02 -0.46533954246E+03  0.47242974058E+03  0.00000000000E+00 0.  1.
          5    1    4    4  501    0  0.30018100858E+02 -0.26096425869E+02 -0.22637782516E+01  0.40058793220E+02  0.41800000000E+01 0. -1.
         -5    1    4    4    0  501  0.47073888724E+02  0.43523886097E+02 -0.20338357375E+03  0.21329001414E+03  0.41800000000E+01 0. -1.
</event>
<event>
11    1  0.7577197E-009  0.1847294E+03  0.7561462E-02  0.1065880E+00
         22   -1    0    0    0    0  0.00000000000E+00  0.00000000000E+00  0.22156178611E+04  0.22156178611E+04  0.00000000000E+00 0.  1.
         22   -1    0    0    0    0 -0.00000000000E+00 -0.00000000000E+00 -0.78822745379E+02  0.78822745379E+02  0.00000000000E+00 0.  1.
         24    2    1    2    0    0 -0.24404110539E+02 -0.15745460148E+02  0.17505019707E+02  0.87137861550E+02  0.80268929693E+02 0.  0.
         25    2    1    2    0    0  0.48548714079E+02  0.14801662405E+03  0.20401610449E+03  0.28554616409E+03  0.12509253495E+03 0.  0.
        -24    2    1    2    0    0 -0.24144603539E+02 -0.13227116390E+03  0.19152739915E+04  0.19217565808E+04  0.82433432019E+02 0.  0.
        -13    1    3    3    0    0 -0.44941341766E+02 -0.34182220508E+02  0.45411928757E+01  0.56646013375E+02  0.00000000000E+00 0.  1.
         14    1    3    3    0    0  0.20537231227E+02  0.18436760360E+02  0.12963826831E+02  0.30491848175E+02  0.00000000000E+00 0. -1.
         11    1    5    5    0    0 -0.16742016325E+02 -0.54771594795E+01  0.72440946397E+02  0.74551895358E+02  0.00000000000E+00 0. -1.
        -12    1    5    5    0    0 -0.74025872141E+01 -0.12679400442E+03  0.18428330451E+04  0.18472046855E+04  0.00000000000E+00 0.  1.
          5    1    4    4  501    0 -0.29159943379E+02 -0.21510932390E+01  0.41899744668E+02  0.51263929846E+02  0.41800000000E+01 0.  1.
         -5    1    4    4    0  501  0.77708657458E+02  0.15016771729E+03  0.16211635983E+03  0.23428223425E+03  0.41800000000E+01 0.  1.
</event>
<event>
11    1  0.7577197E-009  0.7527323E+03  0.7561462E-02  0.8958011E-01
         22   -1    0    0    0    0  0.00000000000E+00  0.00000000000E+00  0.71305874425E+03  0.71305874425E+03  0.00000000000E+00 0. -1.
         22   -1    0    0    0    0 -0.00000000000E+00 -0.00000000000E+00 -0.24527809415E+04  0.24527809415E+04  0.00000000000E+00 0. -1.
         24    2    1    2    0    0  0.24271316790E+02  0.18911174080E+02 -0.71132298614E+03  0.71643338838E+03  0.79684879614E+02 0.  0.
         25    2    1    2    0    0  0.35780624060E+03  0.62181252957E+03 -0.14249222349E+04  0.16002272787E+04  0.12509132810E+03 0.  0.
        -24    2    1    2    0    0 -0.38207755739E+03 -0.64072370365E+03  0.39652302377E+03  0.84917901866E+03  0.85815925566E+02 0.  0.
        -11    1    3    3    0    0  0.91417906933E+01  0.45321230898E+02 -0.56989410424E+03  0.57176645264E+03  0.00000000000E+00 0.  1.
         12    1    3    3    0    0  0.15129526096E+02 -0.26410056818E+02 -0.14142888190E+03  0.14466693574E+03  0.00000000000E+00 0. -1.
         11    1    5    5    0    0 -0.28955836952E+03 -0.48614310604E+03  0.34105889151E+03  0.66068172094E+03  0.00000000000E+00 0. -1.
        -12    1    5    5    0    0 -0.92519187865E+02 -0.15458059761E+03  0.55464132261E+02  0.18849729772E+03  0.00000000000E+00 0.  1.
          5    1    4    4  501    0  0.35035486295E+03  0.61575718217E+03 -0.14229619218E+04  0.15895733832E+04  0.41800000000E+01 0. -1.
         -5    1    4    4    0  501  0.74513776536E+01  0.60553473987E+01 -0.19603130352E+01  0.10653895450E+02  0.41800000000E+01 0. -1.
</event>
<event>
11    1  0.7577197E-009  0.1596007E+03  0.7561462E-02  0.1087453E+00
         22   -1    0    0    0    0  0.00000000000E+00  0.00000000000E+00  0.18726641891E+04  0.18726641891E+04  0.00000000000E+00 0. -1.
         22   -1    0    0    0    0 -0.00000000000E+00 -0.00000000000E+00 -0.35668291459E+03  0.35668291459E+03  0.00000000000E+00 0. -1.
         24    2    1    2    0    0 -0.40122867485E+02 -0.23442282938E+02 -0.33768065508E+03  0.35040360482E+03  0.81210075293E+02 0.  0.
         25    2    1    2    0    0  0.97778474568E+02  0.87390861875E+02  0.90804092583E+03  0.92595289589E+03  0.12511054952E+03 0.  0.
        -24    2    1    2    0    0 -0.57655607082E+02 -0.63948578936E+02  0.94562100373E+03  0.95299060294E+03  0.81107439995E+02 0.  0.
        -13    1    3    3    0    0 -0.20168428943E+02  0.10836538970E+02 -0.20436380791E+02  0.30689440573E+02  0.00000000000E+00 0.  1.
         14    1    3    3    0    0 -0.19954438542E+02 -0.34278821908E+02 -0.31724427429E+03  0.31971416425E+03  0.00000000000E+00 0. -1.
         11    1    5    5    0    0 -0.83859795841E+00 -0.57077513302E+02  0.59470140893E+03  0.59743477598E+03  0.00000000000E+00 0. -1.
        -12    1    5    5    0    0 -0.56817009124E+02 -0.68710656349E+01  0.35091959480E+03  0.35555582695E+03  0.00000000000E+00 0.  1.
          5    1    4    4  501    0  0.56915206795E+02  0.11524444531E+03  0.72426290099E+03  0.73559149335E+03  0.41800000000E+01 0.  1.
         -5    1    4    4    0  501  0.40863267772E+02 -0.27853583438E+02  0.18377802484E+03  0.19036140254E+03  0.41800000000E+01 0.  1.
</event>
<event>
11    1  0.7577197E-009  0.1370444E+03  0.7561462E-02  0.1110904E+00
         22   -1    0    0    0    0  0.00000000000E+00  0.00000000000E+00  0.23750137714E+04  0.23750137714E+04  0.00000000000E+00 0. -1.
         22   -1    0    0    0    0 -0.00000000000E+00 -0.00000000000E+00 -0.12592659505E+04  0.12592659505E+04  0.00000000000E+00 0.  1.
         24    2    1    2    0    0 -0.35383277477E+02  0.44692868301E+02 -0.10441828279E+04  0.10488690166E+04  0.80987697162E+02 0.  0.
         25    2    1    2    0    0  0.57021503823E+02 -0.12250790160E+02 -0.18942055343E+03  0.23436953352E+03  0.12508956161E+03 0.  0.
        -24    2    1    2    0    0 -0.21638226346E+02 -0.32442078141E+02  0.23493512022E+04  0.23510411717E+04  0.80142488601E+02 0.  0.
        -13    1    3    3    0    0 -0.23555194360E+02  0.26064053260E+02 -0.98625593707E+03  0.98688142928E+03  0.00000000000E+00 0.  1.
         14    1    3    3    0    0 -0.11828083117E+02  0.18628815041E+02 -0.57926890850E+02  0.61987587335E+02  0.00000000000E+00 0. -1.
         11    1    5    5    0    0 -0.16008711205E+02 -0.16811804508E+02  0.22622878844E+04  0.22624069898E+04  0.00000000000E+00 0. -1.
        -12    1    5    5    0    0 -0.56295151416E+01 -0.15630273633E+02  0.87063317872E+02  0.88634181969E+02  0.00000000000E+00 0.  1.
          5    1    4    4  501    0  0.74840590721E+02  0.34136209680E+02 -0.83443944397E+02  0.11724657388E+03  0.41800000000E+01 0.  1.
         -5    1    4    4    0  501 -0.17819086898E+02 -0.46386999840E+02 -0.10597660903E+03  0.11712295963E+03  0.41800000000E+01 0.  1.
</event>
<event>
11    1  0.7577197E-009  0.1398811E+03  0.7561462E-02  0.1107691E+00
         22   -1    0    0    0    0  0.00000000000E+00  0.00000000000E+00  0.87919159068E+03  0.87919159068E+03  0.00000000000E+00 0. -1.
         22   -1    0    0    0    0 -0.00000000000E+00 -0.00000000000E+00 -0.62056700969E+03  0.62056700969E+03  0.00000000000E+00 0.  1.
         24    2    1    2    0    0 -0.50853946633E+02  0.20042014852E+02 -0.46991313246E+03  0.47955151476E+03  0.78507942329E+02 0.  0.
         25    2    1    2    0    0 -0.46934469890E+01 -0.50489877238E+02 -0.11078257871E+03  0.17461945141E+03  0.12509163408E+03 0.  0.
        -24    2    1    2    0    0  0.55547393622E+02  0.30447862386E+02  0.83932029217E+03  0.84558763420E+03  0.80915443585E+02 0.  0.
        -11    1    3    3    0    0 -0.22802202811E+01 -0.19891063747E+02 -0.25069137443E+03  0.25148960025E+03  0.00000000000E+00 0.  1.
         12    1    3    3    0    0 -0.48573726351E+02  0.39933078598E+02 -0.21922175803E+03  0.22806191452E+03  0.00000000000E+00 0. -1.
         13    1    5    5    0    0  0.61191287191E+02  0.42270213498E+02  0.81078501900E+03  0.81418885501E+03  0.00000000000E+00 0. -1.
        -14    1    5    5    0    0 -0.56438935694E+01 -0.11822351112E+02  0.28535273163E+02  0.31398779195E+02  0.00000000000E+00 0.  1.
          5    1    4    4  501    0  0.47850924839E+02  0.15081576453E+02 -0.48864608403E+02  0.70159727128E+02  0.41800000000E+01 0.  1.
         -5    1    4    4    0  501 -0.52544371828E+02 -0.65571453691E+02 -0.61917970309E+02  0.10445972428E+03  0.41800000000E+01 0.  1.
</event>
<event>
11    1  0.7577197E-009  0.3154406E+03  0.7561462E-02  0.9938602E-01
         22   -1    0    0    0    0  0.00000000000E+00  0.00000000000E+00  0.31193581782E+03  0.31193581782E+03  0.00000000000E+00 0.  1.
         22   -1    0    0    0    0 -0.00000000000E+00 -0.00000000000E+00 -0.10422669940E+04  0.10422669940E+04  0.00000000000E+00 0.  1.
        -24    2    1    2    0    0  0.25486725294E+03  0.17697418613E+03 -0.58137409110E+03  0.66340890013E+03  0.76409134236E+02 0.  0.
         25    2    1    2    0    0 -0.95583457596E+01 -0.33356767768E+03 -0.15906671523E+03  0.39026836055E+03  0.12509362809E+03 0.  0.
         24    2    1    2    0    0 -0.24530890718E+03  0.15659349155E+03  0.10109630157E+02  0.30052555112E+03  0.74265878575E+02 0.  0.
        -11    1    5    5    0    0 -0.10630272310E+03  0.10851751062E+03 -0.91534312605E+01  0.15218444189E+03  0.00000000000E+00 0.  1.
         12    1    5    5    0    0 -0.13900618408E+03  0.48075980932E+02  0.19263061418E+02  0.14834110923E+03  0.00000000000E+00 0. -1.
         13    1    3    3    0    0  0.33188737900E+02  0.32620017989E+02 -0.15315691301E+03  0.16007060286E+03  0.00000000000E+00 0. -1.
        -14    1    3    3    0    0  0.22167851504E+03  0.14435416814E+03 -0.42821717808E+03  0.50333829726E+03  0.00000000000E+00 0.  1.
          5    1    4    4  501    0  0.31365987789E+02 -0.29747013354E+03 -0.11689639827E+03  0.32117681402E+03  0.41800000000E+01 0. -1.
         -5    1    4    4    0  501 -0.40924333549E+02 -0.36097544139E+02 -0.42170316958E+02  0.69091546528E+02  0.41800000000E+01 0. -1.
</event>
<event>
11    1  0.7577197E-009  0.1286929E+03  0.7561462E-02  0.1120885E+00
         22   -1    0    0    0    0  0.00000000000E+00  0.00000000000E+00  0.54863045050E+03  0.54863045050E+03  0.00000000000E+00 0.  1.
         22   -1    0    0    0    0 -0.00000000000E+00 -0.00000000000E+00 -0.21957182139E+03  0.21957182139E+03  0.00000000000E+00 0. -1.
        -24    2    1    2    0    0  0.82617684770E+01  0.10660383256E+02 -0.15897854886E+03  0.17810692386E+03  0.79158049101E+02 0.  0.
         25    2    1    2    0    0  0.13870978933E+02 -0.31048739538E+02  0.45469614572E+02  0.13737385200E+03  0.12509061148E+03 0.  0.
         24    2    1    2    0    0 -0.22132747410E+02  0.20388356282E+02  0.44256756340E+03  0.45272149603E+03  0.90471880786E+02 0.  0.
        -11    1    5    5    0    0 -0.54154005817E+02  0.29780606368E+02  0.27416163861E+03  0.28104118016E+03  0.00000000000E+00 0.  1.
         12    1    5    5    0    0  0.32021258407E+02 -0.93922500853E+01  0.16840592479E+03  0.17168031587E+03  0.00000000000E+00 0. -1.
         13    1    3    3    0    0  0.23382239153E+02  0.38183739167E+02 -0.11981639972E+03  0.12790893904E+03  0.00000000000E+00 0. -1.
        -14    1    3    3    0    0 -0.15120470676E+02 -0.27523355911E+02 -0.39162149140E+02  0.50197984814E+02  0.00000000000E+00 0.  1.
          5    1    4    4  501    0 -0.37053458845E+02  0.29775277452E+02  0.30230085607E+02  0.56487666225E+02  0.41800000000E+01 0.  1.
         -5    1    4    4    0  501  0.50924437777E+02 -0.60824016990E+02  0.15239528964E+02  0.80886185772E+02  0.41800000000E+01 0.  1.
</event>
<event>
11    1  0.7577197E-009  0.2660257E+03  0.7561462E-02  0.1015692E+00
         22   -1    0    0    0    0  0.00000000000E+00  0.00000000000E+00  0.11870617828E+04  0.11870617828E+04  0.00000000000E+00 0. -1.
         22   -1    0    0    0    0 -0.00000000000E+00 -0.00000000000E+00 -0.19823370608E+04  0.19823370608E+04  0.00000000000E+00 0. -1.
        -24    2    1    2    0    0 -0.16880796685E+03  0.12087958269E+01 -0.18618603298E+04  0.18711867512E+04  0.79488232843E+02 0.  0.
         25    2    1    2    0    0  0.37907037950E+03  0.17539326039E+02  0.30164268770E+03  0.50063764894E+03  0.12509102256E+03 0.  0.
         24    2    1    2    0    0 -0.21026241265E+03 -0.18748121866E+02  0.76494236415E+03  0.79757444350E+03  0.80164819067E+02 0.  0.
        -13    1    5    5    0    0 -0.15281920592E+02 -0.26540939055E+02  0.10922818280E+03  0.11344053271E+03  0.00000000000E+00 0.  1.
         14    1    5    5    0    0 -0.19498049206E+03  0.77928171895E+01  0.65571418135E+03  0.68413391080E+03  0.00000000000E+00 0. -1.
         11    1    3    3    0    0 -0.15902104475E+03 -0.76193020239E+01 -0.13810777611E+04  0.13902235535E+04  0.00000000000E+00 0. -1.
        -12    1    3    3    0    0 -0.97869220938E+01  0.88280978508E+01 -0.48078256870E+03  0.48096319768E+03  0.00000000000E+00 0.  1.
          5    1    4    4  501    0  0.16309014285E+03 -0.54237440069E+02  0.13111395428E+03  0.21621386636E+03  0.41800000000E+01 0.  1.
         -5    1    4    4    0  501  0.21598023665E+03  0.71776766108E+02  0.17052873342E+03  0.28442378258E+03  0.41800000000E+01 0.  1.
</event>
<event>
11    1  0.7577197E-009  0.1726704E+03  0.7561462E-02  0.1075731E+00
         22   -1    0    0    0    0  0.00000000000E+00  0.00000000000E+00  0.12527542054E+04  0.12527542054E+04  0.00000000000E+00 0.  1.
         22   -1    0    0    0    0 -0.00000000000E+00 -0.00000000000E+00 -0.23977226240E+03  0.23977226240E+03  0.00000000000E+00 0.  1.
         24    2    1    2    0    0 -0.30413015767E+02  0.38051857613E+02 -0.15538346241E+03  0.18179251069E+03  0.80818321926E+02 0.  0.
         25    2    1    2    0    0 -0.89704576767E+02 -0.20615378741E+02  0.24309224737E+02  0.15719465434E+03  0.12508923220E+03 0.  0.
        -24    2    1    2    0    0  0.12011759253E+03 -0.17436478872E+02  0.11440561807E+04  0.11535393028E+04  0.84000664527E+02 0.  0.
        -13    1    3    3    0    0 -0.56576093039E+02  0.32466917759E+02 -0.12709865686E+03  0.14286015410E+03  0.00000000000E+00 0.  1.
         14    1    3    3    0    0  0.26163077272E+02  0.55849398544E+01 -0.28284805545E+02  0.38932356598E+02  0.00000000000E+00 0. -1.
         11    1    5    5    0    0  0.29731280585E+02  0.20601354432E+01  0.66345552717E+03  0.66412455891E+03  0.00000000000E+00 0. -1.
        -12    1    5    5    0    0  0.90386311949E+02 -0.19496614315E+02  0.48060065351E+03  0.48941474386E+03  0.00000000000E+00 0.  1.
          5    1    4    4  501    0 -0.80052685383E+02 -0.34104910821E+02  0.67846054809E+02  0.11041801000E+03  0.41800000000E+01 0.  1.
         -5    1    4    4    0  501 -0.96518913837E+01  0.13489532080E+02 -0.43536830072E+02  0.46776644341E+02  0.41800000000E+01 0.  1.
</event>
<event>
11    1  0.7577197E-009  0.1545750E+03  0.7561462E-02  0.1092294E+00
         22   -1    0    0    0    0  0.00000000000E+00  0.00000000000E+00  0.22471495735E+03  0.22471495735E+03  0.00000000000E+00 0.  1.
         22   -1    0    0    0    0 -0.00000000000E+00 -0.00000000000E+00 -0.80161842358E+03  0.80161842358E+03  0.00000000000E+00 0. -1.
        -24    2    1    2    0    0  0.43374348614E+02  0.77491962465E+02 -0.66024496112E+03  0.67102671896E+03  0.80418346843E+02 0.  0.
         25    2    1    2    0    0 -0.10499797399E+03 -0.72239316325E+02 -0.52039479432E+02  0.18600947634E+03  0.12509326322E+03 0.  0.
         24    2    1    2    0    0  0.61623625379E+02 -0.52526461400E+01  0.13538097431E+03  0.16929718563E+03  0.80675072730E+02 0.  0.
        -13    1    5    5    0    0  0.11042928414E+01  0.12550442009E+02  0.91712448555E+02  0.92573788284E+02  0.00000000000E+00 0.  1.
         14    1    5    5    0    0  0.60519332538E+02 -0.17803088149E+02  0.43668525759E+02  0.76723397347E+02  0.00000000000E+00 0. -1.
         11    1    3    3    0    0  0.51318069983E+02  0.78251076845E+02 -0.65459323370E+03  0.66124812056E+03  0.00000000000E+00 0. -1.
        -12    1    3    3    0    0 -0.79437213694E+01 -0.75911438045E+00 -0.56517274135E+01  0.97785983962E+01  0.00000000000E+00 0.  1.
          5    1    4    4  501    0 -0.67944162623E+02  0.23720056934E+02 -0.34504382620E+01  0.72169441315E+02  0.41800000000E+01 0. -1.
         -5    1    4    4    0  501 -0.37053811370E+02 -0.95959373258E+02 -0.48589041170E+02  0.11384003503E+03  0.41800000000E+01 0. -1.
</event>
<event>
11    1  0.7577197E-009  0.1634562E+03  0.7561462E-02  0.1083871E+00
         22   -1    0    0    0    0  0.00000000000E+00  0.00000000000E+00  0.44433745833E+03  0.44433745833E+03  0.00000000000E+00 0.  1.
         22   -1    0    0    0    0 -0.00000000000E+00 -0.00000000000E+00 -0.46699571058E+03  0.46699571058E+03  0.00000000000E+00 0.  1.
         24    2    1    2    0    0  0.98577268304E+02 -0.48530681401E+02 -0.39158447164E+03  0.41434049322E+03  0.79164013451E+02 0.  0.
         25    2    1    2    0    0 -0.82604861510E+02 -0.47932807861E+02  0.70381533750E+02  0.17240049225E+03  0.12508897722E+03 0.  0.
        -24    2    1    2    0    0 -0.15972406794E+02  0.96463489262E+02  0.29854468564E+03  0.32459218344E+03  0.81675171799E+02 0.  0.
        -13    1    3    3    0    0  0.44462064242E+02  0.29387517774E+01 -0.25318793260E+03  0.25707905522E+03  0.00000000000E+00 0.  1.
         14    1    3    3    0    0  0.54115204062E+02 -0.51469433178E+02 -0.13839653904E+03  0.15726143800E+03  0.00000000000E+00 0. -1.
         11    1    5    5    0    0 -0.39351858586E+02  0.94933268233E+02  0.25877912624E+03  0.27843765975E+03  0.00000000000E+00 0. -1.
        -12    1    5    5    0    0  0.23379451792E+02  0.15302210292E+01  0.39765559397E+02  0.46154523685E+02  0.00000000000E+00 0.  1.
          5    1    4    4  501    0 -0.60415772441E+02 -0.45957336077E+02  0.10584176151E+03  0.13031536049E+03  0.41800000000E+01 0. -1.
         -5    1    4    4    0  501 -0.22189089069E+02 -0.19754717846E+01 -0.35460227763E+02  0.42085131763E+02  0.41800000000E+01 0. -1.
</event>
<event>
11    1  0.7577197E-009  0.1347147E+03  0.7561462E-02  0.1113608E+00
         22   -1    0    0    0    0  0.00000000000E+00  0.00000000000E+00  0.82326559228E+03  0.82326559228E+03  0.00000000000E+00 0.  1.
         22   -1    0    0    0    0 -0.00000000000E+00 -0.00000000000E+00 -0.90990606330E+03  0.90990606330E+03  0.00000000000E+00 0.  1.
         24    2    1    2    0    0  0.46349016760E+02 -0.16188917069E+02 -0.84119543246E+03  0.84650638731E+03  0.80950576091E+02 0.  0.
         25    2    1    2    0    0 -0.70037981150E+02  0.43293635127E+02  0.25675173421E+02  0.15194167608E+03  0.12508957092E+03 0.  0.
        -24    2    1    2    0    0  0.23688964390E+02 -0.27104718058E+02  0.72887978802E+03  0.73472359220E+03  0.85189076584E+02 0.  0.
        -13    1    3    3    0    0  0.30880538438E+02  0.31756556869E+02 -0.39466343460E+03  0.39714142716E+03  0.00000000000E+00 0.  1.
         14    1    3    3    0    0  0.15468478322E+02 -0.47945473938E+02 -0.44653199786E+03  0.44936496015E+03  0.00000000000E+00 0. -1.
         11    1    5    5    0    0  0.12909672791E+01  0.83085106155E+01  0.53164552203E+01  0.99479968473E+01  0.00000000000E+00 0. -1.
        -12    1    5    5    0    0  0.22397997111E+02 -0.35413228674E+02  0.72356333280E+03  0.72477559535E+03  0.00000000000E+00 0.  1.
          5    1    4    4  501    0 -0.40670258088E+02 -0.40851659141E+02 -0.39498172002E+01  0.57931005545E+02  0.41800000000E+01 0.  1.
         -5    1    4    4    0  501 -0.29367723062E+02  0.84145294268E+02  0.29624990622E+02  0.94010670536E+02  0.41800000000E+01 0.  1.
</event>
<event>
11    1  0.7577197E-009  0.1488032E+03  0.7561462E-02  0.1098108E+00
         22   -1    0    0    0    0  0.00000000000E+00  0.00000000000E+00  0.46437992256E+03  0.46437992256E+03  0.00000000000E+00 0. -1.
         22   -1    0    0    0    0 -0.00000000000E+00 -0.00000000000E+00 -0.64186854911E+03  0.64186854911E+03  0.00000000000E+00 0.  1.
        -24    2    1    2    0    0  0.49151791282E+02 -0.41185930514E+02 -0.57049156236E+03  0.57970325196E+03  0.80517440014E+02 0.  0.
         25    2    1    2    0    0 -0.12151423427E+03  0.20630413577E+02  0.76731160130E+02  0.19164084370E+03  0.12508884420E+03 0.  0.
         24    2    1    2    0    0  0.72362442983E+02  0.20555516937E+02  0.31627177568E+03  0.33490437602E+03  0.80462740147E+02 0.  0.
        -11    1    5    5    0    0 -0.16689448054E+02 -0.46958350622E+01  0.58623024381E+02  0.61133031422E+02  0.00000000000E+00 0.  1.
         12    1    5    5    0    0  0.89051891037E+02  0.25251351999E+02  0.25764875130E+03  0.27377134459E+03  0.00000000000E+00 0. -1.
         13    1    3    3    0    0  0.11075053940E+02 -0.49271392640E+02 -0.17049065037E+03  0.17781279149E+03  0.00000000000E+00 0. -1.
        -14    1    3    3    0    0  0.38076737342E+02  0.80854621255E+01 -0.40000091199E+03  0.40189046047E+03  0.00000000000E+00 0.  1.
          5    1    4    4  501    0 -0.90333732900E+02 -0.45901760187E+02  0.52242280621E+02  0.11407840800E+03  0.41800000000E+01 0.  1.
         -5    1    4    4    0  501 -0.31180501366E+02  0.66532173764E+02  0.24488879509E+02  0.77562435694E+02  0.41800000000E+01 0.  1.
</event>
<event>
11    1  0.7577197E-009  0.2088352E+03  0.7561462E-02  0.1048446E+00
         22   -1    0    0    0    0  0.00000000000E+00  0.00000000000E+00  0.68460699612E+03  0.68460699612E+03  0.00000000000E+00 0. -1.
         22   -1    0    0    0    0 -0.00000000000E+00 -0.00000000000E+00 -0.13842180033E+04  0.13842180033E+04  0.00000000000E+00 0.  1.
         24    2    1    2    0    0  0.50200978593E+02 -0.37173088416E+01 -0.11581586833E+04  0.11621779518E+04  0.82414192573E+02 0.  0.
         25    2    1    2    0    0 -0.19564595948E+03 -0.73396972638E+02 -0.13991342052E+03  0.28086792011E+03  0.12508623526E+03 0.  0.
        -24    2    1    2    0    0  0.14544498088E+03  0.77114281479E+02  0.59846109666E+03  0.62577912756E+03  0.79642811360E+02 0.  0.
        -13    1    3    3    0    0  0.68072263998E+02 -0.10388330335E+01 -0.10712114763E+04  0.10733726936E+04  0.00000000000E+00 0.  1.
         14    1    3    3    0    0 -0.17871285405E+02 -0.26784758080E+01 -0.86947206994E+02  0.88805258170E+02  0.00000000000E+00 0. -1.
         11    1    5    5    0    0  0.12384400744E+03  0.81590064893E+02  0.40937068415E+03  0.43540628603E+03  0.00000000000E+00 0. -1.
        -12    1    5    5    0    0  0.21600973442E+02 -0.44757834135E+01  0.18909041251E+03  0.19037284154E+03  0.00000000000E+00 0.  1.
          5    1    4    4  501    0 -0.13345922635E+03 -0.27583617429E+01 -0.12960380762E+03  0.18610102903E+03  0.41800000000E+01 0. -1.
         -5    1    4    4    0  501 -0.62186733129E+02 -0.70638610895E+02 -0.10309612902E+02  0.94766891078E+02  0.41800000000E+01 0. -1.
</event>
<event>
11    1  0.7577197E-009  0.1393956E+03  0.7561462E-02  0.1108235E+00
         22   -1    0    0    0    0  0.00000000000E+00  0.00000000000E+00  0.18106064427E+04  0.18106064427E+04  0.00000000000E+00 0. -1.
         22   -1    0    0    0    0 -0.00000000000E+00 -0.00000000000E+00 -0.89978944073E+03  0.89978944073E+03  0.00000000000E+00 0. -1.
        -24    2    1    2    0    0 -0.45254441576E+02  0.40967342220E+02 -0.87212816732E+03  0.87769830042E+03  0.77591743905E+02 0.  0.
         25    2    1    2    0    0  0.93931109248E+02 -0.60975219727E+02  0.27740778091E+03  0.32426109448E+03  0.12509656181E+03 0.  0.
         24    2    1    2    0    0 -0.48676667673E+02  0.20007877508E+02  0.15055373884E+04  0.15084364886E+04  0.77253342900E+02 0.  0.
        -11    1    5    5    0    0  0.17306544610E+02  0.77220933715E+01  0.64781020483E+03  0.64808734650E+03  0.00000000000E+00 0.  1.
         12    1    5    5    0    0 -0.65983212283E+02  0.12285784136E+02  0.85772718359E+03  0.86034914207E+03  0.00000000000E+00 0. -1.
         13    1    3    3    0    0 -0.56028728585E+02  0.44524327037E+02 -0.84822761428E+03  0.85124128175E+03  0.00000000000E+00 0. -1.
        -14    1    3    3    0    0  0.10774287010E+02 -0.35569848170E+01 -0.23900553037E+02  0.26457018672E+02  0.00000000000E+00 0.  1.
          5    1    4    4  501    0  0.49278944811E+02  0.30430441719E+02  0.15207872186E+03  0.16278770294E+03  0.41800000000E+01 0.  1.
         -5    1    4    4    0  501  0.44652164438E+02 -0.91405661447E+02  0.12532905905E+03  0.16147339154E+03  0.41800000000E+01 0.  1.
</event>
<event>
11    1  0.7577197E-009  0.1752016E+03  0.7561462E-02  0.1073592E+00
         22   -1    0    0    0    0  0.00000000000E+00  0.00000000000E+00  0.46475937834E+03  0.46475937834E+03  0.00000000000E+00 0.  1.
         22   -1    0    0    0    0 -0.00000000000E+00 -0.00000000000E+00 -0.20013611730E+04  0.20013611730E+04  0.00000000000E+00 0.  1.
         24    2    1    2    0    0  0.27376647347E+02  0.33020703970E+02 -0.19021488617E+04  0.19043276411E+04  0.80334456976E+02 0.  0.
         25    2    1    2    0    0 -0.10477794906E+03 -0.11986311953E+03  0.38964494439E+02  0.20618306554E+03  0.12509052186E+03 0.  0.
        -24    2    1    2    0    0  0.77401301716E+02  0.86842415555E+02  0.32658257257E+03  0.35560984470E+03  0.79180921284E+02 0.  0.
        -11    1    3    3    0    0  0.31711205786E+02  0.45740522252E+02 -0.18351810853E+04  0.18360248941E+04  0.00000000000E+00 0.  1.
         12    1    3    3    0    0 -0.43345584392E+01 -0.12719818282E+02 -0.66967776427E+02  0.68302747043E+02  0.00000000000E+00 0. -1.
         11    1    5    5    0    0  0.25970951488E+02  0.81332864146E+02  0.16244847177E+03  0.18351847616E+03  0.00000000000E+00 0. -1.
        -12    1    5    5    0    0  0.51430350228E+02  0.55095514096E+01  0.16413410080E+03  0.17209136855E+03  0.00000000000E+00 0.  1.
          5    1    4    4  501    0 -0.22714986865E+02 -0.38708605610E+02 -0.44771002719E+02  0.63531424201E+02  0.41800000000E+01 0. -1.
         -5    1    4    4    0  501 -0.82062962198E+02 -0.81154513916E+02  0.83735497158E+02  0.14265164134E+03  0.41800000000E+01 0. -1.
</event>
<event>
11    1  0.7577197E-009  0.1656649E+03  0.7561462E-02  0.1081867E+00
         22   -1    0    0    0    0  0.00000000000E+00  0.00000000000E+00  0.10001302695E+03  0.10001302695E+03  0.00000000000E+00 0.  1.
         22   -1    0    0    0    0 -0.00000000000E+00 -0.00000000000E+00 -0.14692406285E+04  0.14692406285E+04  0.00000000000E+00 0. -1.
        -24    2    1    2    0    0  0.48015920473E+02  0.10381118111E+03 -0.11935794311E+04  0.12017010177E+04  0.79819719613E+02 0.  0.
         25    2    1    2    0    0 -0.47549121019E+01 -0.80778657954E+02 -0.21822183189E+03  0.26423071186E+03  0.12509716386E+03 0.  0.
         24    2    1    2    0    0 -0.43261008371E+02 -0.23032523156E+02  0.42573661454E+02  0.10332192589E+03  0.80379672504E+02 0.  0.
        -13    1    5    5    0    0  0.46311392925E+01  0.17184751883E+00  0.49445856728E+02  0.49662558636E+02  0.00000000000E+00 0.  1.
         14    1    5    5    0    0 -0.47892147664E+02 -0.23204370674E+02 -0.68721952741E+01  0.53659367254E+02  0.00000000000E+00 0. -1.
         11    1    3    3    0    0  0.27137474733E+02  0.11247326006E+03 -0.10496412512E+04  0.10559987845E+04  0.00000000000E+00 0. -1.
        -12    1    3    3    0    0  0.20878445740E+02 -0.86620789522E+01 -0.14393817988E+03  0.14570223312E+03  0.00000000000E+00 0.  1.
          5    1    4    4  501    0  0.47903106044E+02 -0.82033759478E+02 -0.12474347772E+03  0.15685232831E+03  0.41800000000E+01 0.  1.
         -5    1    4    4    0  501 -0.52658018146E+02  0.12551015242E+01 -0.93478354166E+02  0.10737838354E+03  0.41800000000E+01 0.  1.
</event>
<event>
11    1  0.7577197E-009  0.3171183E+03  0.7561462E-02  0.9931958E-01
         22   -1    0    0    0    0  0.00000000000E+00  0.00000000000E+00  0.79524619264E+03  0.79524619264E+03  0.00000000000E+00 0.  1.
         22   -1    0    0    0    0 -0.00000000000E+00 -0.00000000000E+00 -0.21932186199E+03  0.21932186199E+03  0.00000000000E+00 0.  1.
         24    2    1    2    0    0 -0.10951667332E+03  0.45894534570E+01  0.42734660993E+01  0.13711680225E+03  0.82266579654E+02 0.  0.
         25    2    1    2    0    0 -0.71048562943E+02  0.24963171344E+03  0.97502585847E+02  0.30416711689E+03  0.12508792946E+03 0.  0.
        -24    2    1    2    0    0  0.18056523627E+03 -0.25422116690E+03  0.47414827871E+03  0.57328413549E+03  0.81276709801E+02 0.  0.
        -11    1    3    3    0    0 -0.24645109294E+02 -0.35223320919E+02 -0.29712531323E+01  0.43091670817E+02  0.00000000000E+00 0.  1.
         12    1    3    3    0    0 -0.84871564029E+02  0.39812774376E+02  0.72447192316E+01  0.94025131432E+02  0.00000000000E+00 0. -1.
         11    1    5    5    0    0  0.25340548240E+02 -0.23959208985E+01  0.26704416361E+02  0.36891864621E+02  0.00000000000E+00 0. -1.
        -12    1    5    5    0    0  0.15522468803E+03 -0.25182524600E+03  0.44744386235E+03  0.53639227087E+03  0.00000000000E+00 0.  1.
          5    1    4    4  501    0 -0.29474008102E+02  0.22909428839E+03  0.11012828802E+03  0.25592698636E+03  0.41800000000E+01 0.  1.
         -5    1    4    4    0  501 -0.41574554841E+02  0.20537425054E+02 -0.12625702170E+02  0.48240130528E+02  0.41800000000E+01 0.  1.
</event>
<event>
11    1  0.7577197E-009  0.1315010E+03  0.7561462E-02  0.1117438E+00
         22   -1    0    0    0    0  0.00000000000E+00  0.00000000000E+00  0.53736665772E+04  0.53736665772E+04  0.00000000000E+00 0. -1.
         22   -1    0    0    0    0 -0.00000000000E+00 -0.00000000000E+00 -0.81202295870E+02  0.81202295870E+02  0.00000000000E+00 0.  1.
        -24    2    1    2    0    0 -0.49198334098E+01 -0.40017297256E+02 -0.49936196698E+02  0.10347951628E+03  0.81171409430E+02 0.  0.
         25    2    1    2    0    0  0.22657069639E+02  0.47603904270E+02  0.11201536223E+04  0.11283493000E+04  0.12509408782E+03 0.  0.
         24    2    1    2    0    0 -0.17737236230E+02 -0.75866070133E+01  0.42222468557E+04  0.42230400568E+04  0.79540204678E+02 0.  0.
        -11    1    5    5    0    0  0.15939370092E+02 -0.20590267714E+02  0.55025624258E+03  0.55087199525E+03  0.00000000000E+00 0.  1.
         12    1    5    5    0    0 -0.33676606321E+02  0.13003660701E+02  0.36719906131E+04  0.36721680615E+04  0.00000000000E+00 0. -1.
         11    1    3    3    0    0 -0.23212522115E+02 -0.65098579385E+01  0.14826617429E+02  0.28302438370E+02  0.00000000000E+00 0. -1.
        -12    1    3    3    0    0  0.18292688705E+02 -0.33507439318E+02 -0.64762814127E+02  0.75177077912E+02  0.00000000000E+00 0.  1.
          5    1    4    4  501    0 -0.20355258400E+02 -0.19051797630E+02  0.71080876790E+03  0.71136761556E+03  0.41800000000E+01 0.  1.
         -5    1    4    4    0  501  0.43012328039E+02  0.66655701900E+02  0.40934485439E+03  0.41698168446E+03  0.41800000000E+01 0.  1.
</event>
<event>
11    1  0.7577197E-009  0.1366008E+03  0.7561462E-02  0.1111415E+00
         22   -1    0    0    0    0  0.00000000000E+00  0.00000000000E+00  0.11965880426E+04  0.11965880426E+04  0.00000000000E+00 0.  1.
         22   -1    0    0    0    0 -0.00000000000E+00 -0.00000000000E+00 -0.28260293823E+03  0.28260293823E+03  0.00000000000E+00 0. -1.
         24    2    1    2    0    0 -0.42836755790E+02 -0.34471603691E+02 -0.16382237552E+03  0.18936489629E+03  0.77446847046E+02 0.  0.
         25    2    1    2    0    0  0.66918466481E+02 -0.12862247249E+01 -0.55986185525E+02  0.15249081283E+03  0.12505702498E+03 0.  0.
        -24    2    1    2    0    0 -0.24081710690E+02  0.35757828416E+02  0.11337936654E+04  0.11373352717E+04  0.78644093668E+02 0.  0.
        -11    1    3    3    0    0 -0.31086507309E+01 -0.10306991886E+02  0.66570375838E+01  0.12657564556E+02  0.00000000000E+00 0.  1.
         12    1    3    3    0    0 -0.39728105059E+02 -0.24164611805E+02 -0.17047941311E+03  0.17670733173E+03  0.00000000000E+00 0. -1.
         11    1    5    5    0    0  0.15947658136E+02 -0.54124254456E+01  0.70169496630E+02  0.72162181276E+02  0.00000000000E+00 0. -1.
        -12    1    5    5    0    0 -0.40029368826E+02  0.41170253862E+02  0.10636241687E+04  0.10651730904E+04  0.00000000000E+00 0.  1.
          5    1    4    4  501    0  0.56958649111E+02 -0.51996805488E+02 -0.63644343652E+02  0.10008011975E+03  0.41800000000E+01 0.  1.
         -5    1    4    4    0  501  0.99598173700E+01  0.50710580763E+02  0.76581581265E+01  0.52410693081E+02  0.41800000000E+01 0.  1.
</event>
<event>
11    1  0.7577197E-009  0.1288866E+03  0.7561462E-02  0.1120645E+00
         22   -1    0    0    0    0  0.00000000000E+00  0.00000000000E+00  0.98740218693E+02  0.98740218693E+02  0.00000000000E+00 0.  1.
         22   -1    0    0    0    0 -0.00000000000E+00 -0.00000000000E+00 -0.10453685241E+04  0.10453685241E+04  0.00000000000E+00 0. -1.
         24    2    1    2    0    0 -0.30650466810E+02  0.19076826326E+00 -0.85475173154E+03  0.85939341924E+03  0.83767768071E+02 0.  0.
         25    2    1    2    0    0  0.34833566369E+02 -0.23635583905E+02 -0.13664227520E+03  0.18997501902E+03  0.12508948120E+03 0.  0.
        -24    2    1    2    0    0 -0.41830995592E+01  0.23444815642E+02  0.44765701332E+02  0.94740304530E+02  0.80028742239E+02 0.  0.
        -13    1    3    3    0    0 -0.34455268762E+02  0.18065687128E+02 -0.16987577712E+03  0.17427367629E+03  0.00000000000E+00 0.  1.
         14    1    3    3    0    0  0.38048019522E+01 -0.17874918865E+02 -0.68487595442E+03  0.68511974295E+03  0.00000000000E+00 0. -1.
         11    1    5    5    0    0 -0.74575160893E+01  0.12702741844E+02 -0.22308323416E+02  0.26732667099E+02  0.00000000000E+00 0. -1.
        -12    1    5    5    0    0  0.32744165301E+01  0.10742073798E+02  0.67074024748E+02  0.68007637431E+02  0.00000000000E+00 0.  1.
          5    1    4    4  501    0  0.38003616456E+02  0.65549009196E+00 -0.15463593615E+03  0.15929359585E+03  0.41800000000E+01 0.  1.
         -5    1    4    4    0  501 -0.31700500865E+01 -0.24291073997E+02  0.17993660944E+02  0.30681423169E+02  0.41800000000E+01 0.  1.
</event>
<event>
11    1  0.9561246E-009  0.1307346E+03  0.7561462E-02  0.1118370E+00
         22   -1    0    0    0    0  0.00000000000E+00  0.00000000000E+00  0.14460545231E+04  0.14460545231E+04  0.00000000000E+00 0. -1.
         22   -1    0    0    0    0 -0.00000000000E+00 -0.00000000000E+00 -0.24775428686E+04  0.24775428686E+04  0.00000000000E+00 0.  1.
         24    2    1    2    0    0  0.90555256782E+01 -0.13712294275E+03 -0.23145171487E+04  0.23197810054E+04  0.74226529024E+02 0.  0.
         25    2    1    2    0    0  0.32853211655E+01  0.32834635329E+02 -0.13079675413E+03  0.18396236344E+03  0.12508178789E+03 0.  0.
        -24    2    1    2    0    0 -0.12340846844E+02  0.10428830742E+03  0.14138255572E+04  0.14198540229E+04  0.77809975886E+02 0.  0.
        -11    1    3    3    0    0 -0.28191541237E+01 -0.73267157828E+02 -0.17507680109E+04  0.17523026714E+04  0.00000000000E+00 0.  1.
         12    1    3    3    0    0  0.11874679802E+02 -0.63855784922E+02 -0.56374913775E+03  0.56747833404E+03  0.00000000000E+00 0. -1.
         11    1    5    5    0    0 -0.39750043017E+02  0.83104946568E+02  0.85311494396E+03  0.85807435906E+03  0.00000000000E+00 0. -1.
        -12    1    5    5    0    0  0.27409196173E+02  0.21183360853E+02  0.56071061327E+03  0.56177966379E+03  0.00000000000E+00 0.  1.
          5    1    4    4  501    0 -0.48495732932E+02 -0.18843860175E+02 -0.77147326037E+02  0.93145635934E+02  0.41800000000E+01 0.  1.
         -5    1    4    4    0  501  0.51781054097E+02  0.51678495504E+02 -0.53649428091E+02  0.90816727509E+02  0.41800000000E+01 0.  1.
</event>
<event>
11    1  0.7577197E-009  0.1624087E+03  0.7561462E-02  0.1084833E+00
         22   -1    0    0    0    0  0.00000000000E+00  0.00000000000E+00  0.77939120428E+02  0.77939120428E+02  0.00000000000E+00 0.  1.
         22   -1    0    0    0    0 -0.00000000000E+00 -0.00000000000E+00 -0.70582908886E+03  0.70582908886E+03  0.00000000000E+00 0.  1.
        -24    2    1    2    0    0 -0.10107334400E+03  0.97013266482E+02 -0.35121562906E+03  0.38636162040E+03  0.79344116854E+02 0.  0.
         25    2    1    2    0    0 -0.11733243316E+01 -0.70884016630E+02 -0.19186889264E+03  0.23976491497E+03  0.12509045521E+03 0.  0.
         24    2    1    2    0    0  0.10224666833E+03 -0.26129249851E+02 -0.84805446729E+02  0.15764167392E+03  0.80757753055E+02 0.  0.
        -11    1    5    5    0    0  0.55631364600E+02 -0.54428494262E+02 -0.42913536635E+02  0.88875651004E+02  0.00000000000E+00 0.  1.
         12    1    5    5    0    0  0.46615303731E+02  0.28299244411E+02 -0.41891910094E+02  0.68766022914E+02  0.00000000000E+00 0. -1.
         13    1    3    3    0    0  0.59899622103E+01  0.38214724829E+02 -0.92434936674E+02  0.10020210756E+03  0.00000000000E+00 0. -1.
        -14    1    3    3    0    0 -0.10706330621E+03  0.58798541653E+02 -0.25878069239E+03  0.28615951284E+03  0.00000000000E+00 0.  1.
          5    1    4    4  501    0 -0.55751494426E+02 -0.56080982491E+01 -0.98295687434E+02  0.11322188156E+03  0.41800000000E+01 0.  1.
         -5    1    4    4    0  501  0.54578170094E+02 -0.65275918381E+02 -0.93573205207E+02  0.12654303341E+03  0.41800000000E+01 0.  1.
</event>
<event>
11    1  0.7577197E-009  0.3629445E+03  0.7561462E-02  0.9765899E-01
         22   -1    0    0    0    0  0.00000000000E+00  0.00000000000E+00  0.13427839788E+04  0.13427839788E+04  0.00000000000E+00 0.  1.
         22   -1    0    0    0    0 -0.00000000000E+00 -0.00000000000E+00 -0.12374684488E+04  0.12374684488E+04  0.00000000000E+00 0.  1.
        -24    2    1    2    0    0  0.33600091170E+03 -0.43135607897E+02 -0.10816338252E+04  0.11362248201E+04  0.79484695654E+02 0.  0.
         25    2    1    2    0    0 -0.35899963471E+03  0.40955583007E+02  0.16162370787E+03  0.41512362314E+03  0.12508917635E+03 0.  0.
         24    2    1    2    0    0  0.22998723009E+02  0.21800248906E+01  0.10253256474E+04  0.10289039843E+04  0.82565320270E+02 0.  0.
        -13    1    5    5    0    0  0.82053310399E+01  0.28790804791E+02  0.87572666921E+03  0.87623823077E+03  0.00000000000E+00 0.  1.
         14    1    5    5    0    0  0.14793391969E+02 -0.26610779901E+02  0.14959897815E+03  0.15266575358E+03  0.00000000000E+00 0. -1.
         11    1    3    3    0    0  0.12360863994E+03 -0.46183869915E+02 -0.49623959851E+03  0.51348396746E+03  0.00000000000E+00 0. -1.
        -12    1    3    3    0    0  0.21239227175E+03  0.30482620177E+01 -0.58539422664E+03  0.62274085267E+03  0.00000000000E+00 0.  1.
          5    1    4    4  501    0 -0.13862959032E+03 -0.23990944340E+02  0.11241524335E+03  0.18013436113E+03  0.41800000000E+01 0. -1.
         -5    1    4    4    0  501 -0.22037004439E+03  0.64946527347E+02  0.49208464525E+02  0.23498926201E+03  0.41800000000E+01 0. -1.
</event>
<event>
11    1  0.7577197E-009  0.1516299E+03  0.7561462E-02  0.1095225E+00
         22   -1    0    0    0    0  0.00000000000E+00  0.00000000000E+00  0.10042885928E+04  0.10042885928E+04  0.00000000000E+00 0.  1.
         22   -1    0    0    0    0 -0.00000000000E+00 -0.00000000000E+00 -0.78614128702E+03  0.78614128702E+03  0.00000000000E+00 0. -1.
         24    2    1    2    0    0 -0.24145917810E+02 -0.32785310481E+02 -0.62647118678E+03  0.63306851856E+03  0.81557951141E+02 0.  0.
         25    2    1    2    0    0  0.54303862607E+02 -0.48000097203E+02 -0.11831954887E+03  0.18681731116E+03  0.12509305847E+03 0.  0.
        -24    2    1    2    0    0 -0.30157944797E+02  0.80785407684E+02  0.96293804143E+03  0.97054405010E+03  0.85266041501E+02 0.  0.
        -13    1    3    3    0    0 -0.30476322647E+02  0.17172118629E+02 -0.15408877523E+03  0.15800961538E+03  0.00000000000E+00 0.  1.
         14    1    3    3    0    0  0.63304048371E+01 -0.49957429110E+02 -0.47238241155E+03  0.47505890318E+03  0.00000000000E+00 0. -1.
         13    1    5    5    0    0 -0.32924825239E+02  0.49321452029E+02  0.25117266114E+03  0.25807819639E+03  0.00000000000E+00 0. -1.
        -14    1    5    5    0    0  0.27668804416E+01  0.31463955655E+02  0.71176538029E+03  0.71246585371E+03  0.00000000000E+00 0.  1.
          5    1    4    4  501    0 -0.25904092727E+01 -0.65149004030E+02 -0.10819853136E+03  0.12639421480E+03  0.41800000000E+01 0.  1.
         -5    1    4    4    0  501  0.56894271879E+02  0.17148906828E+02 -0.10121017508E+02  0.60423096358E+02  0.41800000000E+01 0.  1.
</event>
<event>
11    1  0.7577197E-009  0.1350032E+03  0.7561462E-02  0.1113270E+00
         22   -1    0    0    0    0  0.00000000000E+00  0.00000000000E+00  0.12917739486E+04  0.12917739486E+04  0.00000000000E+00 0. -1.
         22   -1    0    0    0    0 -0.00000000000E+00 -0.00000000000E+00 -0.37196034282E+03  0.37196034282E+03  0.00000000000E+00 0. -1.
         24    2    1    2    0    0  0.44572222602E+02  0.23067442603E+02 -0.33788408621E+03  0.35069760851E+03  0.79400043869E+02 0.  0.
         25    2    1    2    0    0 -0.47538375761E+02  0.29061627626E+02  0.15779850427E+03  0.20893201312E+03  0.12509093805E+03 0.  0.
        -24    2    1    2    0    0  0.29661531587E+01 -0.52129070229E+02  0.10998991877E+04  0.11041046698E+04  0.80886715268E+02 0.  0.
        -11    1    3    3    0    0 -0.34405548388E+01  0.37593454351E+02 -0.20926767159E+03  0.21264539403E+03  0.00000000000E+00 0.  1.
         12    1    3    3    0    0  0.48012777441E+02 -0.14526011748E+02 -0.12861641461E+03  0.13805221448E+03  0.00000000000E+00 0. -1.
         11    1    5    5    0    0  0.32093252700E+02 -0.57458191151E+02  0.68705941919E+03  0.69020436545E+03  0.00000000000E+00 0. -1.
        -12    1    5    5    0    0 -0.29127099541E+02  0.53291209212E+01  0.41283976854E+03  0.41390030435E+03  0.00000000000E+00 0.  1.
          5    1    4    4  501    0  0.36345228480E+00  0.32324633055E+01 -0.21171435608E+02  0.21823908960E+02  0.41800000000E+01 0. -1.
         -5    1    4    4    0  501 -0.47901828046E+02  0.25829164321E+02  0.17896993988E+03  0.18710810416E+03  0.41800000000E+01 0. -1.
</event>
<event>
11    1  0.7577197E-009  0.1528844E+03  0.7561462E-02  0.1093967E+00
         22   -1    0    0    0    0  0.00000000000E+00  0.00000000000E+00  0.14978862266E+04  0.14978862266E+04  0.00000000000E+00 0.  1.
         22   -1    0    0    0    0 -0.00000000000E+00 -0.00000000000E+00 -0.35300115351E+02  0.35300115351E+02  0.00000000000E+00 0. -1.
         24    2    1    2    0    0  0.18816574209E+02  0.58834723188E+01  0.74302509769E+02  0.11104771405E+03  0.80137713506E+02 0.  0.
         25    2    1    2    0    0 -0.90258959531E+01 -0.92324736240E+02  0.44381668854E+03  0.47034637337E+03  0.12508850544E+03 0.  0.
        -24    2    1    2    0    0 -0.97906782561E+01  0.86441263921E+02  0.94446691296E+03  0.95179225455E+03  0.79516015140E+02 0.  0.
        -11    1    3    3    0    0 -0.46518723131E+01 -0.33394615554E+02  0.46739728670E+02  0.57631957282E+02  0.00000000000E+00 0.  1.
         12    1    3    3    0    0  0.23468446522E+02  0.39278087872E+02  0.27562781099E+02  0.53415756767E+02  0.00000000000E+00 0. -1.
         13    1    5    5    0    0  0.24375989167E+02  0.53435920594E+01  0.11536296133E+03  0.11803116398E+03  0.00000000000E+00 0. -1.
        -14    1    5    5    0    0 -0.34166667423E+02  0.81097671862E+02  0.82910395163E+03  0.83376109057E+03  0.00000000000E+00 0.  1.
          5    1    4    4  501    0 -0.38720564261E+01 -0.30573316904E+02  0.38009352975E+03  0.38136371653E+03  0.41800000000E+01 0. -1.
         -5    1    4    4    0  501 -0.51538395271E+01 -0.61751419336E+02  0.63723158792E+02  0.88982656840E+02  0.41800000000E+01 0. -1.
</event>
<event>
11    1  0.7577197E-009  0.1420642E+03  0.7561462E-02  0.1105275E+00
         22   -1    0    0    0    0  0.00000000000E+00  0.00000000000E+00  0.24494664832E+04  0.24494664832E+04  0.00000000000E+00 0. -1.
         22   -1    0    0    0    0 -0.00000000000E+00 -0.00000000000E+00 -0.28419642193E+03  0.28419642193E+03  0.00000000000E+00 0. -1.
         24    2    1    2    0    0  0.71571206980E+02 -0.54368231886E+01 -0.20576488081E+03  0.23521968893E+03  0.88527505167E+02 0.  0.
         25    2    1    2    0    0 -0.41861927942E+02  0.32929386092E+02  0.10697542472E+02  0.13636555303E+03  0.12507742066E+03 0.  0.
        -24    2    1    2    0    0 -0.29709279038E+02 -0.27492562904E+02  0.23603373996E+04  0.23620776632E+04  0.81115748390E+02 0.  0.
        -13    1    3    3    0    0  0.71769978281E+02  0.22820374914E+01 -0.73586270860E+02  0.10281574168E+03  0.00000000000E+00 0.  1.
         14    1    3    3    0    0 -0.19877130075E+00 -0.77188606800E+01 -0.13217860995E+03  0.13240394725E+03  0.00000000000E+00 0. -1.
         11    1    5    5    0    0 -0.19081286086E+02  0.17956239108E+02  0.16502129133E+04  0.16504209103E+04  0.00000000000E+00 0. -1.
        -12    1    5    5    0    0 -0.10627992953E+02 -0.45448802012E+02  0.71012448639E+03  0.71165675294E+03  0.00000000000E+00 0.  1.
          5    1    4    4  501    0 -0.57757666216E+02  0.25682487012E+02  0.57924052072E+02  0.85838256938E+02  0.41800000000E+01 0.  1.
         -5    1    4    4    0  501  0.15895738275E+02  0.72468990805E+01 -0.47226509600E+02  0.50527296094E+02  0.41800000000E+01 0.  1.
</event>
<event>
11    1  0.7577197E-009  0.1323590E+03  0.7561462E-02  0.1116404E+00
         22   -1    0    0    0    0  0.00000000000E+00  0.00000000000E+00  0.74361033434E+03  0.74361033434E+03  0.00000000000E+00 0. -1.
         22   -1    0    0    0    0 -0.00000000000E+00 -0.00000000000E+00 -0.56129608950E+03  0.56129608950E+03  0.00000000000E+00 0.  1.
         24    2    1    2    0    0  0.38734596561E+02 -0.37151575940E+02 -0.53669005777E+03  0.54300096894E+03  0.62715433498E+02 0.  0.
         25    2    1    2    0    0 -0.31413916271E+02  0.72435112791E+02  0.30772721789E+03  0.34143450194E+03  0.12509116190E+03 0.  0.
        -24    2    1    2    0    0 -0.73206802895E+01 -0.35283536851E+02  0.41127708471E+03  0.42047095296E+03  0.79677233535E+02 0.  0.
        -11    1    3    3    0    0  0.55876355703E+02 -0.23496663314E+02 -0.39864204208E+03  0.40322417838E+03  0.00000000000E+00 0.  1.
         12    1    3    3    0    0 -0.17141759142E+02 -0.13654912627E+02 -0.13804801568E+03  0.13977679056E+03  0.00000000000E+00 0. -1.
         11    1    5    5    0    0 -0.42966291708E+01 -0.59894343676E+02  0.23947817430E+03  0.24689185769E+03  0.00000000000E+00 0. -1.
        -12    1    5    5    0    0 -0.30240511187E+01  0.24610806825E+02  0.17179891041E+03  0.17357909527E+03  0.00000000000E+00 0.  1.
          5    1    4    4  501    0  0.11641129158E+02  0.96916117708E+02  0.19012160380E+03  0.21375674583E+03  0.41800000000E+01 0. -1.
         -5    1    4    4    0  501 -0.43055045429E+02 -0.24481004917E+02  0.11760561409E+03  0.12767775611E+03  0.41800000000E+01 0. -1.
</event>
<event>
11    1  0.7577197E-009  0.1324474E+03  0.7561462E-02  0.1116298E+00
         22   -1    0    0    0    0  0.00000000000E+00  0.00000000000E+00  0.16581578824E+04  0.16581578824E+04  0.00000000000E+00 0.  1.
         22   -1    0    0    0    0 -0.00000000000E+00 -0.00000000000E+00 -0.86580620572E+03  0.86580620572E+03  0.00000000000E+00 0.  1.
         24    2    1    2    0    0  0.21806480391E+02  0.37893004816E+02 -0.85178513407E+03  0.85666154119E+03  0.80122900069E+02 0.  0.
         25    2    1    2    0    0  0.64194908020E+01 -0.19503877783E+02  0.38758917859E+03  0.40779141149E+03  0.12508738070E+03 0.  0.
        -24    2    1    2    0    0 -0.28225971193E+02 -0.18389127032E+02  0.12565476322E+04  0.12595111355E+04  0.79507754117E+02 0.  0.
        -13    1    3    3    0    0  0.35516327382E+02  0.35373391472E+01 -0.16199815127E+03  0.16588346299E+03  0.00000000000E+00 0.  1.
         14    1    3    3    0    0 -0.13709846991E+02  0.34355665668E+02 -0.68978698281E+03  0.69077807820E+03  0.00000000000E+00 0. -1.
         13    1    5    5    0    0  0.40981300385E-01  0.14712010831E+02  0.48564646879E+02  0.50744160932E+02  0.00000000000E+00 0. -1.
        -14    1    5    5    0    0 -0.28266952493E+02 -0.33101137863E+02  0.12079829853E+04  0.12087669745E+04  0.00000000000E+00 0.  1.
          5    1    4    4  501    0  0.27194350822E+02  0.15542992812E+02  0.35234432107E+03  0.35375854807E+03  0.41800000000E+01 0.  1.
         -5    1    4    4    0  501 -0.20774860020E+02 -0.35046870595E+02  0.35244857518E+02  0.54032863414E+02  0.41800000000E+01 0.  1.
</event>
<event>
11    1  0.7577197E-009  0.1294025E+03  0.7561462E-02  0.1120005E+00
         22   -1    0    0    0    0  0.00000000000E+00  0.00000000000E+00  0.38309961042E+03  0.38309961042E+03  0.00000000000E+00 0. -1.
         22   -1    0    0    0    0 -0.00000000000E+00 -0.00000000000E+00 -0.29619304535E+04  0.29619304535E+04  0.00000000000E+00 0.  1.
        -24    2    1    2    0    0 -0.18943560376E+02 -0.17864688652E+02 -0.24132550821E+04  0.24147030061E+04  0.79451310609E+02 0.  0.
         25    2    1    2    0    0  0.13128944949E+02 -0.14994434015E+02 -0.53561760948E+03  0.55038843827E+03  0.12507600551E+03 0.  0.
         24    2    1    2    0    0  0.58146154271E+01  0.32859122667E+02  0.37004184855E+03  0.37993861951E+03  0.79428289805E+02 0.  0.
        -11    1    5    5    0    0 -0.16706152686E+02 -0.21532937535E+02  0.11251757926E+03  0.11577119063E+03  0.00000000000E+00 0.  1.
         12    1    5    5    0    0  0.22520768113E+02  0.54392060202E+02  0.25752426929E+03  0.26416742888E+03  0.00000000000E+00 0. -1.
         11    1    3    3    0    0 -0.41211450224E+01 -0.31842610420E+01 -0.93121920354E+01  0.10669595830E+02  0.00000000000E+00 0. -1.
        -12    1    3    3    0    0 -0.14822415353E+02 -0.14680427610E+02 -0.24039428901E+04  0.24040334103E+04  0.00000000000E+00 0.  1.
          5    1    4    4  501    0 -0.11320790562E+01  0.52823040289E+02 -0.30414188871E+03  0.30872530842E+03  0.41800000000E+01 0.  1.
         -5    1    4    4    0  501  0.14261024005E+02 -0.67817474304E+02 -0.23147572076E+03  0.24166312985E+03  0.41800000000E+01 0.  1.
</event>
<event>
11    1  0.7577197E-009  0.1668131E+03  0.7561462E-02  0.1080839E+00
         22   -1    0    0    0    0  0.00000000000E+00  0.00000000000E+00  0.11330524862E+04  0.11330524862E+04  0.00000000000E+00 0.  1.
         22   -1    0    0    0    0 -0.00000000000E+00 -0.00000000000E+00 -0.11946640736E+03  0.11946640736E+03  0.00000000000E+00 0.  1.
        -24    2    1    2    0    0 -0.69579612860E+02  0.47128465483E+01 -0.61730235332E+02  0.12257924831E+03  0.79696403398E+02 0.  0.
         25    2    1    2    0    0  0.10114807074E+03 -0.10294310558E+03  0.41672214610E+03  0.45840272360E+03  0.12508994662E+03 0.  0.
         24    2    1    2    0    0 -0.31568457883E+02  0.98230259029E+02  0.65859416811E+03  0.67153692169E+03  0.81054349680E+02 0.  0.
        -13    1    5    5    0    0 -0.59192740153E+02  0.64020046711E+02  0.42936070846E+03  0.43812437142E+03  0.00000000000E+00 0.  1.
         14    1    5    5    0    0  0.27624282270E+02  0.34210212317E+02  0.22923345965E+03  0.23341255027E+03  0.00000000000E+00 0. -1.
         11    1    3    3    0    0 -0.69944686799E+02  0.18147405156E+02 -0.14797416912E+02  0.73760091327E+02  0.00000000000E+00 0. -1.
        -12    1    3    3    0    0  0.36507393855E+00 -0.13434558608E+02 -0.46932818421E+02  0.48819156987E+02  0.00000000000E+00 0.  1.
          5    1    4    4  501    0  0.70850699319E+02 -0.12574515418E+03  0.37515544544E+03  0.40198351464E+03  0.41800000000E+01 0.  1.
         -5    1    4    4    0  501  0.30297371425E+02  0.22802048603E+02  0.41566700662E+02  0.56419208960E+02  0.41800000000E+01 0.  1.
</event>
<event>
11    1  0.7577197E-009  0.4960701E+03  0.7561462E-02  0.9402346E-01
         22   -1    0    0    0    0  0.00000000000E+00  0.00000000000E+00  0.21266754512E+04  0.21266754512E+04  0.00000000000E+00 0.  1.
         22   -1    0    0    0    0 -0.00000000000E+00 -0.00000000000E+00 -0.36417411938E+03  0.36417411938E+03  0.00000000000E+00 0.  1.
        -24    2    1    2    0    0 -0.23025871025E+02 -0.91836243349E+02 -0.37951321773E+02  0.13108228020E+03  0.82329672842E+02 0.  0.
         25    2    1    2    0    0 -0.22712651526E+03 -0.33018364660E+03 -0.68803016127E+02  0.42542788946E+03  0.12508932685E+03 0.  0.
         24    2    1    2    0    0  0.25015238628E+03  0.42201988995E+03  0.18692556697E+04  0.19343394009E+04  0.82916556027E+02 0.  0.
        -13    1    5    5    0    0  0.13745771547E+03  0.29689584925E+03  0.11499912732E+04  0.11956260692E+04  0.00000000000E+00 0.  1.
         14    1    5    5    0    0  0.11269467081E+03  0.12512404070E+03  0.71926439654E+03  0.73871333176E+03  0.00000000000E+00 0. -1.
         11    1    3    3    0    0 -0.22791318859E+02  0.89743384754E+01 -0.10097639351E+02  0.26494250072E+02  0.00000000000E+00 0. -1.
        -12    1    3    3    0    0 -0.23455216619E+00 -0.10081058182E+03 -0.27853682422E+02  0.10458803013E+03  0.00000000000E+00 0.  1.
          5    1    4    4  501    0 -0.20071415909E+03 -0.19632933671E+03 -0.68041478621E+02  0.28892645660E+03  0.41800000000E+01 0.  1.
         -5    1    4    4    0  501 -0.26412356168E+02 -0.13385430989E+03 -0.76153750581E+00  0.13650143286E+03  0.41800000000E+01 0.  1.
</event>
<event>
11    1  0.7577197E-009  0.1304258E+03  0.7561462E-02  0.1118747E+00
         22   -1    0    0    0    0  0.00000000000E+00  0.00000000000E+00  0.25255726601E+03  0.25255726601E+03  0.00000000000E+00 0. -1.
         22   -1    0    0    0    0 -0.00000000000E+00 -0.00000000000E+00 -0.40383527328E+03  0.40383527328E+03  0.00000000000E+00 0.  1.
         24    2    1    2    0    0  0.70212882624E+01  0.41306380233E+02 -0.32706279937E+03  0.33916364662E+03  0.79412775535E+02 0.  0.
         25    2    1    2    0    0  0.28429710475E+02 -0.20758378785E+02  0.12507323400E+02  0.13054761721E+03  0.12508832277E+03 0.  0.
        -24    2    1    2    0    0 -0.35450998737E+02 -0.20548001448E+02  0.16327746870E+03  0.18668127547E+03  0.80693079954E+02 0.  0.
        -11    1    3    3    0    0  0.11431526051E+02  0.62982527359E+02 -0.19435376541E+03  0.20462371482E+03  0.00000000000E+00 0.  1.
         12    1    3    3    0    0 -0.44102377888E+01 -0.21676147126E+02 -0.13270903397E+03  0.13453993180E+03  0.00000000000E+00 0. -1.
         11    1    5    5    0    0 -0.21436861632E+02  0.29558370110E+02  0.86969539167E+02  0.94323576178E+02  0.00000000000E+00 0. -1.
        -12    1    5    5    0    0 -0.14014137105E+02 -0.50106371558E+02  0.76307929528E+02  0.92357699291E+02  0.00000000000E+00 0.  1.
          5    1    4    4  501    0  0.17291955510E+02 -0.54340237319E+02  0.52051185710E+02  0.77321869165E+02  0.41800000000E+01 0. -1.
         -5    1    4    4    0  501  0.11137754965E+02  0.33581858535E+02 -0.39543862310E+02  0.53225748042E+02  0.41800000000E+01 0. -1.
</event>
<event>
11    1  0.7577197E-009  0.1341097E+03  0.7561462E-02  0.1114320E+00
         22   -1    0    0    0    0  0.00000000000E+00  0.00000000000E+00  0.43329375591E+03  0.43329375591E+03  0.00000000000E+00 0. -1.
         22   -1    0    0    0    0 -0.00000000000E+00 -0.00000000000E+00 -0.21788321778E+04  0.21788321778E+04  0.00000000000E+00 0.  1.
         24    2    1    2    0    0  0.21110173352E+02 -0.44267547173E+02 -0.20679074704E+04  0.20700634709E+04  0.80723057965E+02 0.  0.
         25    2    1    2    0    0 -0.28921132053E+01  0.24652580504E+02 -0.66334284094E+02  0.14374933394E+03  0.12509004644E+03 0.  0.
        -24    2    1    2    0    0 -0.18218060146E+02  0.19614966669E+02  0.38870333258E+03  0.39831312893E+03  0.82743116261E+02 0.  0.
        -13    1    3    3    0    0  0.33978840505E+02  0.17933866775E+01 -0.14140477688E+04  0.14144570939E+04  0.00000000000E+00 0.  1.
         14    1    3    3    0    0 -0.12868667153E+02 -0.46060933851E+02 -0.65385970159E+03  0.65560637701E+03  0.00000000000E+00 0. -1.
         11    1    5    5    0    0 -0.32345703938E+02  0.23211093373E+02  0.80906793718E+02  0.90171551437E+02  0.00000000000E+00 0. -1.
        -12    1    5    5    0    0  0.14127643791E+02 -0.35961267039E+01  0.30779653886E+03  0.30814157750E+03  0.00000000000E+00 0.  1.
          5    1    4    4  501    0 -0.21369010623E+02  0.66316219706E+02 -0.89841005883E+01  0.70375152394E+02  0.41800000000E+01 0.  1.
         -5    1    4    4    0  501  0.18476897418E+02 -0.41663639202E+02 -0.57350183506E+02  0.73374181549E+02  0.41800000000E+01 0.  1.
</event>
<event>
11    1  0.7577197E-009  0.7997137E+03  0.7561462E-02  0.8897023E-01
         22   -1    0    0    0    0  0.00000000000E+00  0.00000000000E+00  0.28979308057E+04  0.28979308057E+04  0.00000000000E+00 0. -1.
         22   -1    0    0    0    0 -0.00000000000E+00 -0.00000000000E+00 -0.15375791739E+04  0.15375791739E+04  0.00000000000E+00 0. -1.
         24    2    1    2    0    0  0.83688735518E+02 -0.57935041005E+03 -0.98969056582E+03  0.11526191157E+04  0.79954409982E+02 0.  0.
         25    2    1    2    0    0 -0.12545263249E+03  0.12795023634E+04  0.65842556922E+03  0.14498404546E+04  0.12509377551E+03 0.  0.
        -24    2    1    2    0    0  0.41763896969E+02 -0.70015195332E+03  0.16916166284E+04  0.18330504093E+04  0.80932100276E+02 0.  0.
        -11    1    3    3    0    0 -0.13767205076E+02 -0.63142478333E+02 -0.90217659275E+02  0.11097627923E+03  0.00000000000E+00 0.  1.
         12    1    3    3    0    0  0.97455940594E+02 -0.51620793171E+03 -0.89947290655E+03  0.10416428365E+04  0.00000000000E+00 0. -1.
         11    1    5    5    0    0  0.60277296028E+02 -0.53598205664E+03  0.12427985390E+04  0.13547908790E+04  0.00000000000E+00 0. -1.
        -12    1    5    5    0    0 -0.18513399059E+02 -0.16416989668E+03  0.44881808944E+03  0.47825953031E+03  0.00000000000E+00 0.  1.
          5    1    4    4  501    0 -0.21622634725E+02  0.77138795618E+03  0.42644465259E+03  0.88169123359E+03  0.41800000000E+01 0. -1.
         -5    1    4    4    0  501 -0.10382999776E+03  0.50811440718E+03  0.23198091663E+03  0.56814922098E+03  0.41800000000E+01 0. -1.
</event>
<event>
11    1  0.7577197E-009  0.1461818E+03  0.7561462E-02  0.1100845E+00
         22   -1    0    0    0    0  0.00000000000E+00  0.00000000000E+00  0.51114004158E+02  0.51114004158E+02  0.00000000000E+00 0.  1.
         22   -1    0    0    0    0 -0.00000000000E+00 -0.00000000000E+00 -0.28985275990E+04  0.28985275990E+04  0.00000000000E+00 0.  1.
         24    2    1    2    0    0 -0.30525981989E+02 -0.26334199202E+01 -0.23302241590E+04  0.23317541713E+04  0.78702691067E+02 0.  0.
         25    2    1    2    0    0  0.72039122000E+02 -0.58071392193E+02 -0.47919784706E+03  0.50382505464E+03  0.12508871797E+03 0.  0.
        -24    2    1    2    0    0 -0.41513140012E+02  0.60704812114E+02 -0.37991588777E+02  0.11406237724E+03  0.78475792938E+02 0.  0.
        -11    1    3    3    0    0 -0.22132668751E+02 -0.28626038883E+02 -0.20215661240E+04  0.20218899324E+04  0.00000000000E+00 0.  1.
         12    1    3    3    0    0 -0.83933132372E+01  0.25992618963E+02 -0.30865803499E+03  0.30986423883E+03  0.00000000000E+00 0. -1.
         13    1    5    5    0    0 -0.18437814366E+02 -0.17151109597E+02 -0.16351822342E+02  0.30024917201E+02  0.00000000000E+00 0. -1.
        -14    1    5    5    0    0 -0.23075325645E+02  0.77855921711E+02 -0.21639766435E+02  0.84037460042E+02  0.00000000000E+00 0.  1.
          5    1    4    4  501    0  0.99733656328E+02 -0.18728358472E+02 -0.25493204183E+03  0.27441824278E+03  0.41800000000E+01 0. -1.
         -5    1    4    4    0  501 -0.27694534328E+02 -0.39343033721E+02 -0.22426580523E+03  0.22940681186E+03  0.41800000000E+01 0. -1.
</event>
<event>
11    1  0.7577197E-009  0.1831443E+03  0.7561462E-02  0.1067127E+00
         22   -1    0    0    0    0  0.00000000000E+00  0.00000000000E+00  0.19569275822E+03  0.19569275822E+03  0.00000000000E+00 0.  1.
         22   -1    0    0    0    0 -0.00000000000E+00 -0.00000000000E+00 -0.10777166367E+04  0.10777166367E+04  0.00000000000E+00 0. -1.
        -24    2    1    2    0    0  0.66368127620E+02  0.11623058501E+03 -0.94398829596E+03  0.95712991508E+03  0.84080284104E+02 0.  0.
         25    2    1    2    0    0 -0.10038861240E+03 -0.95144607514E+02 -0.28334088194E+02  0.18862874392E+03  0.12509041786E+03 0.  0.
         24    2    1    2    0    0  0.34020484778E+02 -0.21085977492E+02  0.90298505648E+02  0.12765073596E+03  0.80863331845E+02 0.  0.
        -13    1    5    5    0    0  0.56186482284E+02  0.45012213425E+01  0.57196415463E+02  0.80303248545E+02  0.00000000000E+00 0.  1.
         14    1    5    5    0    0 -0.22165997507E+02 -0.25587198835E+02  0.33102090185E+02  0.47347487413E+02  0.00000000000E+00 0. -1.
         11    1    3    3    0    0  0.62912706581E+02  0.26599880776E+02 -0.39503692775E+03  0.40089866125E+03  0.00000000000E+00 0. -1.
        -12    1    3    3    0    0  0.34554210383E+01  0.89630704230E+02 -0.54895136821E+03  0.55623125382E+03  0.00000000000E+00 0.  1.
          5    1    4    4  501    0 -0.44712797928E+02  0.24540143217E+02 -0.23915357899E+02  0.56487783379E+02  0.41800000000E+01 0.  1.
         -5    1    4    4    0  501 -0.55675814469E+02 -0.11968475073E+03 -0.44187302948E+01  0.13214096054E+03  0.41800000000E+01 0.  1.
</event>
<event>
11    1  0.7577197E-009  0.1399124E+03  0.7561462E-02  0.1107656E+00
         22   -1    0    0    0    0  0.00000000000E+00  0.00000000000E+00  0.46738505894E+03  0.46738505894E+03  0.00000000000E+00 0.  1.
         22   -1    0    0    0    0 -0.00000000000E+00 -0.00000000000E+00 -0.15596851379E+03  0.15596851379E+03  0.00000000000E+00 0. -1.
        -24    2    1    2    0    0  0.35105491921E+02  0.50416068780E+02 -0.96606350751E+02  0.14010798280E+03  0.80766851399E+02 0.  0.
         25    2    1    2    0    0 -0.73359651380E+02 -0.36920835801E+02  0.15962770165E+03  0.21879892548E+03  0.12508868891E+03 0.  0.
         24    2    1    2    0    0  0.38254159460E+02 -0.13495232979E+02  0.24839519426E+03  0.26444666445E+03  0.81156415492E+02 0.  0.
        -13    1    5    5    0    0 -0.10257343589E+02 -0.10138421388E+02  0.17972405097E+03  0.18030178918E+03  0.00000000000E+00 0.  1.
         14    1    5    5    0    0  0.48511503049E+02 -0.33568115904E+01  0.68671143293E+02  0.84144875264E+02  0.00000000000E+00 0. -1.
         11    1    3    3    0    0  0.62531845445E+01  0.65053434838E+02 -0.81317709826E+02  0.10432459745E+03  0.00000000000E+00 0. -1.
        -12    1    3    3    0    0  0.28852307376E+02 -0.14637366058E+02 -0.15288640925E+02  0.35783385354E+02  0.00000000000E+00 0.  1.
          5    1    4    4  501    0 -0.30497096325E+02 -0.52291804652E+02  0.89502829007E+01  0.61335843371E+02  0.41800000000E+01 0. -1.
         -5    1    4    4    0  501 -0.42862555056E+02  0.15370968851E+02  0.15067741874E+03  0.15746308211E+03  0.41800000000E+01 0. -1.
</event>
<event>
11    1  0.7577197E-009  0.2604598E+03  0.7561462E-02  0.1018470E+00
         22   -1    0    0    0    0  0.00000000000E+00  0.00000000000E+00  0.60079355212E+03  0.60079355212E+03  0.00000000000E+00 0.  1.
         22   -1    0    0    0    0 -0.00000000000E+00 -0.00000000000E+00 -0.89543182217E+03  0.89543182217E+03  0.00000000000E+00 0. -1.
         24    2    1    2    0    0  0.19449487478E+03 -0.91916754256E+02 -0.63010327691E+03  0.67030397370E+03  0.77461807067E+02 0.  0.
         25    2    1    2    0    0 -0.28852939718E+03  0.10295174403E+03 -0.12118626077E+03  0.35239413901E+03  0.12508894745E+03 0.  0.
        -24    2    1    2    0    0  0.94034522403E+02 -0.11034989771E+02  0.45665126762E+03  0.47352726158E+03  0.82057448399E+02 0.  0.
        -13    1    3    3    0    0  0.21329110603E+02  0.13280790560E+02 -0.90188937577E+02  0.93623473650E+02  0.00000000000E+00 0.  1.
         14    1    3    3    0    0  0.17316576417E+03 -0.10519754482E+03 -0.53991433934E+03  0.57668050005E+03  0.00000000000E+00 0. -1.
         11    1    5    5    0    0  0.18971560967E+02 -0.12109674502E+02  0.18912829636E+02  0.29398290204E+02  0.00000000000E+00 0. -1.
        -12    1    5    5    0    0  0.75062961436E+02  0.10746847310E+01  0.43773843799E+03  0.44412897138E+03  0.00000000000E+00 0.  1.
          5    1    4    4  501    0 -0.11627413763E+03  0.10754053924E+03 -0.53768925076E+02  0.16731172214E+03  0.41800000000E+01 0. -1.
         -5    1    4    4    0  501 -0.17225525955E+03 -0.45887952090E+01 -0.67417335689E+02  0.18508241687E+03  0.41800000000E+01 0. -1.
</event>
<event>
11    1  0.7577197E-009  0.1841184E+03  0.7561462E-02  0.1066359E+00
         22   -1    0    0    0    0  0.00000000000E+00  0.00000000000E+00  0.10610554707E+04  0.10610554707E+04  0.00000000000E+00 0.  1.
         22   -1    0    0    0    0 -0.00000000000E+00 -0.00000000000E+00 -0.20283751331E+03  0.20283751331E+03  0.00000000000E+00 0.  1.
         24    2    1    2    0    0 -0.12279330101E+03 -0.90276937439E+01 -0.80305629596E+02  0.16770403698E+03  0.80721470783E+02 0.  0.
         25    2    1    2    0    0  0.18424110334E+03 -0.51358964090E+02  0.10043743858E+03  0.24963338097E+03  0.12508644400E+03 0.  0.
        -24    2    1    2    0    0 -0.61447802330E+02  0.60386657834E+02  0.83808614836E+03  0.84655556602E+03  0.82737859731E+02 0.  0.
        -11    1    3    3    0    0 -0.10845844661E+03 -0.25651791242E+01 -0.96453000489E+02  0.14516540940E+03  0.00000000000E+00 0.  1.
         12    1    3    3    0    0 -0.14334854406E+02 -0.64625146197E+01  0.16147370893E+02  0.22538627571E+02  0.00000000000E+00 0. -1.
         11    1    5    5    0    0 -0.65800291598E+02  0.12705779871E+02  0.36935650435E+03  0.37538692375E+03  0.00000000000E+00 0. -1.
        -12    1    5    5    0    0  0.43524892680E+01  0.47680877963E+02  0.46872964402E+03  0.47116864228E+03  0.00000000000E+00 0.  1.
          5    1    4    4  501    0  0.13350279258E+02  0.23401969038E-01  0.66478453499E+02  0.67934436654E+02  0.41800000000E+01 0.  1.
         -5    1    4    4    0  501  0.17089082409E+03 -0.51382366059E+02  0.33958985084E+02  0.18169894432E+03  0.41800000000E+01 0.  1.
</event>
<event>
11    1  0.7577197E-009  0.3352898E+03  0.7561462E-02  0.9862713E-01
         22   -1    0    0    0    0  0.00000000000E+00  0.00000000000E+00  0.72312641060E+03  0.72312641060E+03  0.00000000000E+00 0. -1.
         22   -1    0    0    0    0 -0.00000000000E+00 -0.00000000000E+00 -0.28686554318E+03  0.28686554318E+03  0.00000000000E+00 0. -1.
        -24    2    1    2    0    0  0.68096242559E+02  0.14174794501E+02 -0.11087663477E+03  0.15486882521E+03  0.82781047553E+02 0.  0.
         25    2    1    2    0    0  0.92318251347E+02  0.27520977898E+03  0.21460249422E+03  0.38205412566E+03  0.12509213574E+03 0.  0.
         24    2    1    2    0    0 -0.16041449391E+03 -0.28938457348E+03  0.33253500797E+03  0.47306900292E+03  0.61143346116E+02 0.  0.
        -11    1    5    5    0    0 -0.63126847361E+01 -0.56210177368E+02  0.65039789381E+02  0.86195175219E+02  0.00000000000E+00 0.  1.
         12    1    5    5    0    0 -0.15410180917E+03 -0.23317439612E+03  0.26749521859E+03  0.38687382770E+03  0.00000000000E+00 0. -1.
         13    1    3    3    0    0  0.60797543397E+02 -0.94941513466E+01 -0.11435238127E+03  0.12985741140E+03  0.00000000000E+00 0. -1.
        -14    1    3    3    0    0  0.72986991620E+01  0.23668945848E+02  0.34757465015E+01  0.25011413809E+02  0.00000000000E+00 0.  1.
          5    1    4    4  501    0  0.45538300502E+02  0.10514114064E+02  0.25796471040E+02  0.53546369861E+02  0.41800000000E+01 0.  1.
         -5    1    4    4    0  501  0.46779950845E+02  0.26469566492E+03  0.18880602318E+03  0.32850775580E+03  0.41800000000E+01 0.  1.
</event>
<event>
11    1  0.7577197E-009  0.1719962E+03  0.7561462E-02  0.1076307E+00
         22   -1    0    0    0    0  0.00000000000E+00  0.00000000000E+00  0.76772524698E+03  0.76772524698E+03  0.00000000000E+00 0. -1.
         22   -1    0    0    0    0 -0.00000000000E+00 -0.00000000000E+00 -0.47071985555E+03  0.47071985555E+03  0.00000000000E+00 0. -1.
        -24    2    1    2    0    0  0.10967097979E+03 -0.45565524162E+02 -0.35726071108E+03  0.38497860577E+03  0.80432396564E+02 0.  0.
         25    2    1    2    0    0 -0.77162266623E+02  0.10365425639E+03 -0.10875120800E+02  0.18018312047E+03  0.12509783528E+03 0.  0.
         24    2    1    2    0    0 -0.32508713165E+02 -0.58088732232E+02  0.66514122331E+03  0.67328337629E+03  0.80414803317E+02 0.  0.
        -11    1    5    5    0    0 -0.16049909622E+02 -0.45675071581E+02  0.14770683752E+03  0.15543848176E+03  0.00000000000E+00 0.  1.
         12    1    5    5    0    0 -0.16458803543E+02 -0.12413660651E+02  0.51743438579E+03  0.51784489452E+03  0.00000000000E+00 0. -1.
         11    1    3    3    0    0 -0.23378675374E+00 -0.17090267016E+02 -0.10394254319E+02  0.20004309680E+02  0.00000000000E+00 0. -1.
        -12    1    3    3    0    0  0.10990476654E+03 -0.28475257146E+02 -0.34686645676E+03  0.36497429609E+03  0.00000000000E+00 0.  1.
          5    1    4    4  501    0 -0.67709962346E+02  0.78203382607E+01 -0.40436488109E+02  0.79362325206E+02  0.41800000000E+01 0.  1.
         -5    1    4    4    0  501 -0.94523042766E+01  0.95833918134E+02  0.29561367309E+02  0.10082079527E+03  0.41800000000E+01 0.  1.
</event>
<event>
11    1  0.7577197E-009  0.1318539E+03  0.7561462E-02  0.1117012E+00
         22   -1    0    0    0    0  0.00000000000E+00  0.00000000000E+00  0.95117257924E+02  0.95117257924E+02  0.00000000000E+00 0.  1.
         22   -1    0    0    0    0 -0.00000000000E+00 -0.00000000000E+00 -0.11459994785E+04  0.11459994785E+04  0.00000000000E+00 0.  1.
        -24    2    1    2    0    0  0.18270053929E+02  0.38992611330E+02 -0.79218818308E+03  0.79734640035E+03  0.79655170109E+02 0.  0.
         25    2    1    2    0    0 -0.38697904002E+02 -0.42965648555E+00 -0.31023739337E+03  0.33673879607E+03  0.12509222261E+03 0.  0.
         24    2    1    2    0    0  0.20427850072E+02 -0.38562954845E+02  0.51543355844E+02  0.10703154003E+03  0.83033935747E+02 0.  0.
        -13    1    5    5    0    0  0.40742962139E+02 -0.47507125384E+02  0.56468547774E+02  0.84294797074E+02  0.00000000000E+00 0.  1.
         14    1    5    5    0    0 -0.20315112067E+02  0.89441705387E+01 -0.49251919303E+01  0.22736742961E+02  0.00000000000E+00 0. -1.
         11    1    3    3    0    0 -0.46150261385E+01 -0.13860181030E+01 -0.58514247443E+03  0.58516231500E+03  0.00000000000E+00 0. -1.
        -12    1    3    3    0    0  0.22885080068E+02  0.40378629433E+02 -0.20704570866E+03  0.21218408535E+03  0.00000000000E+00 0.  1.
          5    1    4    4  501    0 -0.57115310043E+02  0.28518224311E+02 -0.73294716576E+02  0.97288414712E+02  0.41800000000E+01 0.  1.
         -5    1    4    4    0  501  0.18417406041E+02 -0.28947880796E+02 -0.23694267679E+03  0.23945038136E+03  0.41800000000E+01 0.  1.
</event>
<event>
11    1  0.7577197E-009  0.2828237E+03  0.7561462E-02  0.1007735E+00
         22   -1    0    0    0    0  0.00000000000E+00  0.00000000000E+00  0.97291103893E+03  0.97291103893E+03  0.00000000000E+00 0. -1.
         22   -1    0    0    0    0 -0.00000000000E+00 -0.00000000000E+00 -0.41368732795E+03  0.41368732795E+03  0.00000000000E+00 0. -1.
        -24    2    1    2    0    0  0.18492041400E+03  0.38257490065E+01 -0.12802048048E+03  0.23925584852E+03  0.81510255538E+02 0.  0.
         25    2    1    2    0    0 -0.11955631828E+03 -0.25267289416E+03 -0.94404719805E+02  0.32046830182E+03  0.12510146549E+03 0.  0.
         24    2    1    2    0    0 -0.65364095716E+02  0.24884714515E+03  0.78164891127E+03  0.82687421654E+03  0.80923314534E+02 0.  0.
        -11    1    5    5    0    0 -0.24848076197E+02  0.21611798430E+03  0.62212101044E+03  0.65905914883E+03  0.00000000000E+00 0.  1.
         12    1    5    5    0    0 -0.40516019519E+02  0.32729160855E+02  0.15952790083E+03  0.16781506771E+03  0.00000000000E+00 0. -1.
         13    1    3    3    0    0  0.17253232095E+03 -0.19144684396E+02 -0.12281455841E+03  0.21264368429E+03  0.00000000000E+00 0. -1.
        -14    1    3    3    0    0  0.12388093052E+02  0.22970433403E+02 -0.52059220747E+01  0.26612164227E+02  0.00000000000E+00 0.  1.
          5    1    4    4  501    0 -0.50952095360E+02 -0.58820976960E+02  0.25982649170E+02  0.82149825381E+02  0.41800000000E+01 0.  1.
         -5    1    4    4    0  501 -0.68604222924E+02 -0.19385191720E+03 -0.12038736898E+03  0.23831847644E+03  0.41800000000E+01 0.  1.
</event>
<event>
11    1  0.7577197E-009  0.1316925E+03  0.7561462E-02  0.1117207E+00
         22   -1    0    0    0    0  0.00000000000E+00  0.00000000000E+00  0.60975867554E+03  0.60975867554E+03  0.00000000000E+00 0.  1.
         22   -1    0    0    0    0 -0.00000000000E+00 -0.00000000000E+00 -0.23343893135E+04  0.23343893135E+04  0.00000000000E+00 0. -1.
         24    2    1    2    0    0  0.49066895190E+02  0.19742908322E+02 -0.17137147359E+04  0.17156505954E+04  0.61979246686E+02 0.  0.
         25    2    1    2    0    0 -0.20250931156E+02 -0.49305620853E+02 -0.60886591759E+03  0.62386403425E+03  0.12508990035E+03 0.  0.
        -24    2    1    2    0    0 -0.28815964034E+02  0.29562712531E+02  0.59795001548E+03  0.60463335939E+03  0.79579925365E+02 0.  0.
        -11    1    3    3    0    0  0.17242090198E+02 -0.21089636297E+02 -0.40690388745E+03  0.40781470799E+03  0.00000000000E+00 0.  1.
         12    1    3    3    0    0  0.31824804992E+02  0.40832544619E+02 -0.13068108484E+04  0.13078358874E+04  0.00000000000E+00 0. -1.
         13    1    5    5    0    0  0.27991067017E+01 -0.19621548600E+02  0.53509831823E+02  0.57062617094E+02  0.00000000000E+00 0. -1.
        -14    1    5    5    0    0 -0.31615070736E+02  0.49184261131E+02  0.54444018366E+03  0.54757074230E+03  0.00000000000E+00 0.  1.
          5    1    4    4  501    0 -0.87316661267E+01 -0.55877582479E+02 -0.60721919352E+03  0.60986159708E+03  0.41800000000E+01 0.  1.
         -5    1    4    4    0  501 -0.11519265029E+02  0.65719616256E+01 -0.16467240659E+01  0.14002437165E+02  0.41800000000E+01 0.  1.
</event>
<event>
11    1  0.7577197E-009  0.1383025E+03  0.7561462E-02  0.1109469E+00
         22   -1    0    0    0    0  0.00000000000E+00  0.00000000000E+00  0.17550959446E+04  0.17550959446E+04  0.00000000000E+00 0.  1.
         22   -1    0    0    0    0 -0.00000000000E+00 -0.00000000000E+00 -0.27373672449E+03  0.27373672449E+03  0.00000000000E+00 0. -1.
        -24    2    1    2    0    0  0.33897147533E+02 -0.50786696503E+02 -0.23995632995E+03  0.26038605762E+03  0.80582588499E+02 0.  0.
         25    2    1    2    0    0 -0.88699401442E+01  0.20614485953E+02  0.15978296550E+03  0.20416225268E+03  0.12509195213E+03 0.  0.
         24    2    1    2    0    0 -0.25027207389E+02  0.30172210550E+02  0.15615325846E+04  0.15642843588E+04  0.84052478520E+02 0.  0.
        -11    1    5    5    0    0 -0.45790122486E+02  0.42160899149E+02  0.13427722921E+04  0.13442141590E+04  0.00000000000E+00 0.  1.
         12    1    5    5    0    0  0.20762915097E+02 -0.11988688599E+02  0.21876029242E+03  0.22007019980E+03  0.00000000000E+00 0. -1.
         11    1    3    3    0    0  0.11143790111E+01 -0.34174777467E+02 -0.21057669155E+03  0.21333471419E+03  0.00000000000E+00 0. -1.
        -12    1    3    3    0    0  0.32782768522E+02 -0.16611919035E+02 -0.29379638394E+02  0.47051343426E+02  0.00000000000E+00 0.  1.
          5    1    4    4  501    0  0.35212522064E+02  0.57524104283E+02  0.10342539208E+03  0.12354443901E+03  0.41800000000E+01 0.  1.
         -5    1    4    4    0  501 -0.44082462208E+02 -0.36909618330E+02  0.56357573423E+02  0.80617813675E+02  0.41800000000E+01 0.  1.
</event>
<event>
11    1  0.7577197E-009  0.1296804E+03  0.7561462E-02  0.1119662E+00
         22   -1    0    0    0    0  0.00000000000E+00  0.00000000000E+00  0.41121220309E+03  0.41121220309E+03  0.00000000000E+00 0.  1.
         22   -1    0    0    0    0 -0.00000000000E+00 -0.00000000000E+00 -0.30207889567E+03  0.30207889567E+03  0.00000000000E+00 0.  1.
         24    2    1    2    0    0  0.31205195930E+01  0.13512478931E+02 -0.25979719934E+03  0.27257901113E+03  0.81316712896E+02 0.  0.
         25    2    1    2    0    0  0.30377316403E+02 -0.20222088557E+02  0.12038004572E+03  0.17739930953E+03  0.12508974937E+03 0.  0.
        -24    2    1    2    0    0 -0.33497835996E+02  0.67096096267E+01  0.24855046104E+03  0.26331277809E+03  0.79932243473E+02 0.  0.
        -13    1    3    3    0    0  0.28155443574E+02 -0.19411008240E+02 -0.17404780227E+03  0.17737574163E+03  0.00000000000E+00 0.  1.
         14    1    3    3    0    0 -0.25034923981E+02  0.32923487171E+02 -0.85749397065E+02  0.95203269498E+02  0.00000000000E+00 0. -1.
         11    1    5    5    0    0 -0.31952406987E+02 -0.29464626617E+02  0.81310125053E+02  0.92197922807E+02  0.00000000000E+00 0. -1.
        -12    1    5    5    0    0 -0.15454290093E+01  0.36174236244E+02  0.16724033599E+03  0.17111485529E+03  0.00000000000E+00 0.  1.
          5    1    4    4  501    0  0.32582506364E+02 -0.70245807844E+02  0.89500561346E+02  0.11842261660E+03  0.41800000000E+01 0.  1.
         -5    1    4    4    0  501 -0.22051899608E+01  0.50023719287E+02  0.30879484373E+02  0.58976692932E+02  0.41800000000E+01 0.  1.
</event>
<event>
11    1  0.7577197E-009  0.1379728E+03  0.7561462E-02  0.1109843E+00
         22   -1    0    0    0    0  0.00000000000E+00  0.00000000000E+00  0.51705320126E+02  0.51705320126E+02  0.00000000000E+00 0.  1.
         22   -1    0    0    0    0 -0.00000000000E+00 -0.00000000000E+00 -0.45247446844E+04  0.45247446844E+04  0.00000000000E+00 0.  1.
        -24    2    1    2    0    0  0.23066593559E+02  0.23294011786E+02 -0.40023796841E+04  0.40033766142E+04  0.83105359177E+02 0.  0.
         25    2    1    2    0    0 -0.29151722196E+02  0.36983114161E+02 -0.45101395117E+03  0.47040271844E+03  0.12509020639E+03 0.  0.
         24    2    1    2    0    0  0.60851286363E+01 -0.60277125947E+02 -0.19645729035E+02  0.10267067190E+03  0.80529196551E+02 0.  0.
        -11    1    5    5    0    0 -0.29739404116E+02  0.87489402711E+00 -0.32779537639E+01  0.29932299905E+02  0.00000000000E+00 0.  1.
         12    1    5    5    0    0  0.35824532752E+02 -0.61152019974E+02 -0.16367775272E+02  0.72738372000E+02  0.00000000000E+00 0. -1.
         13    1    3    3    0    0  0.20005067490E+02 -0.19228205240E+02 -0.52284484220E+03  0.52358061043E+03  0.00000000000E+00 0. -1.
        -14    1    3    3    0    0  0.30615260692E+01  0.42522217025E+02 -0.34795348419E+04  0.34797960038E+04  0.00000000000E+00 0.  1.
          5    1    4    4  501    0 -0.71996446984E+02  0.21351365335E+02 -0.17300522242E+03  0.18864688857E+03  0.41800000000E+01 0. -1.
         -5    1    4    4    0  501  0.42844724788E+02  0.15631748826E+02 -0.27800872874E+03  0.28175582988E+03  0.41800000000E+01 0. -1.
</event>
<event>
11    1  0.7577197E-009  0.1446149E+03  0.7561462E-02  0.1102512E+00
         22   -1    0    0    0    0  0.00000000000E+00  0.00000000000E+00  0.38364891201E+03  0.38364891201E+03  0.00000000000E+00 0.  1.
         22   -1    0    0    0    0 -0.00000000000E+00 -0.00000000000E+00 -0.57086094739E+03  0.57086094739E+03  0.00000000000E+00 0.  1.
         24    2    1    2    0    0  0.11678108545E+02 -0.30922528591E+02 -0.46182445904E+03  0.47118768607E+03  0.87426675251E+02 0.  0.
         25    2    1    2    0    0 -0.28652413429E+02 -0.41992277467E+02 -0.47881185106E+02  0.14326242809E+03  0.12508878148E+03 0.  0.
        -24    2    1    2    0    0  0.16974304884E+02  0.72914806058E+02  0.32249360876E+03  0.34005974524E+03  0.77677581565E+02 0.  0.
        -13    1    3    3    0    0 -0.31810665353E+02  0.10401057365E+01 -0.89902045837E+02  0.95369691704E+02  0.00000000000E+00 0.  1.
         14    1    3    3    0    0  0.43488773898E+02 -0.31962634327E+02 -0.37192241320E+03  0.37581799437E+03  0.00000000000E+00 0. -1.
         11    1    5    5    0    0  0.66673634634E+00 -0.16739278169E+02  0.51175967101E+02  0.53848190125E+02  0.00000000000E+00 0. -1.
        -12    1    5    5    0    0  0.16307568538E+02  0.89654084227E+02  0.27131764166E+03  0.28621155512E+03  0.00000000000E+00 0.  1.
          5    1    4    4  501    0 -0.66115626974E+02 -0.26776273411E+02  0.10397516517E+02  0.72206825838E+02  0.41800000000E+01 0.  1.
         -5    1    4    4    0  501  0.37463213545E+02 -0.15216004056E+02 -0.58278701623E+02  0.71055602252E+02  0.41800000000E+01 0.  1.
</event>
<event>
11    1  0.7577197E-009  0.1746582E+03  0.7561462E-02  0.1074048E+00
         22   -1    0    0    0    0  0.00000000000E+00  0.00000000000E+00  0.20254387007E+04  0.20254387007E+04  0.00000000000E+00 0.  1.
         22   -1    0    0    0    0 -0.00000000000E+00 -0.00000000000E+00 -0.23818815325E+03  0.23818815325E+03  0.00000000000E+00 0.  1.
        -24    2    1    2    0    0  0.37415621624E+02 -0.36514263501E+02 -0.12937132301E+03  0.16164788682E+03  0.81608087326E+02 0.  0.
         25    2    1    2    0    0  0.78016409192E+02  0.77734420676E+02 -0.12698793705E+02  0.16714443857E+03  0.12508718449E+03 0.  0.
         24    2    1    2    0    0 -0.11543203082E+03 -0.41220157174E+02  0.19293206642E+04  0.19348345286E+04  0.79263942861E+02 0.  0.
        -13    1    5    5    0    0 -0.12185407452E+03 -0.22409258687E+02  0.15245823999E+04  0.15296084742E+04  0.00000000000E+00 0.  1.
         14    1    5    5    0    0  0.64220437056E+01 -0.18810898488E+02  0.40473826429E+03  0.40522605436E+03  0.00000000000E+00 0. -1.
         11    1    3    3    0    0  0.54038047334E+02 -0.24316358992E+02 -0.43958273319E+02  0.73781607922E+02  0.00000000000E+00 0. -1.
        -12    1    3    3    0    0 -0.16622425710E+02 -0.12197904509E+02 -0.85413049686E+02  0.87866278899E+02  0.00000000000E+00 0.  1.
          5    1    4    4  501    0  0.38841514830E+02  0.10353355767E+03  0.16279856571E+02  0.11184975176E+03  0.41800000000E+01 0.  1.
         -5    1    4    4    0  501  0.39174894362E+02 -0.25799136997E+02 -0.28978650276E+02  0.55294686814E+02  0.41800000000E+01 0.  1.
</event>
<event>
11    1  0.7577197E-009  0.1363043E+03  0.7561462E-02  0.1111757E+00
         22   -1    0    0    0    0  0.00000000000E+00  0.00000000000E+00  0.24166810287E+03  0.24166810287E+03  0.00000000000E+00 0.  1.
         22   -1    0    0    0    0 -0.00000000000E+00 -0.00000000000E+00 -0.14842335378E+04  0.14842335378E+04  0.00000000000E+00 0.  1.
         24    2    1    2    0    0  0.38840486671E+02  0.37319879493E+02 -0.12739236059E+04  0.12776251636E+04  0.80890964328E+02 0.  0.
         25    2    1    2    0    0 -0.73781229974E+02 -0.51429310847E+01 -0.17197515931E+03  0.22515144474E+03  0.12509035938E+03 0.  0.
        -24    2    1    2    0    0  0.34940743303E+02 -0.32176948408E+02  0.20333333034E+03  0.22312503230E+03  0.78639209424E+02 0.  0.
        -11    1    3    3    0    0  0.10295261332E+02 -0.22573553420E+02 -0.58178706642E+03  0.58231584933E+03  0.00000000000E+00 0.  1.
         12    1    3    3    0    0  0.28545225339E+02  0.59893432912E+02 -0.69213653951E+03  0.69530931427E+03  0.00000000000E+00 0. -1.
         13    1    5    5    0    0  0.29352049705E+01  0.20263705118E+02  0.16030814138E+02  0.26004233795E+02  0.00000000000E+00 0. -1.
        -14    1    5    5    0    0  0.32005538333E+02 -0.52440653526E+02  0.18730251620E+03  0.19712079850E+03  0.00000000000E+00 0.  1.
          5    1    4    4  501    0  0.31319007762E+02 -0.30785063328E+01 -0.77513598612E+02  0.83762687506E+02  0.41800000000E+01 0.  1.
         -5    1    4    4    0  501 -0.10510023774E+03 -0.20644247520E+01 -0.94461560696E+02  0.14138875723E+03  0.41800000000E+01 0.  1.
</event>
<event>
11    1  0.7577197E-009  0.1310239E+03  0.7561462E-02  0.1118017E+00
         22   -1    0    0    0    0  0.00000000000E+00  0.00000000000E+00  0.18346894044E+03  0.18346894044E+03  0.00000000000E+00 0.  1.
         22   -1    0    0    0    0 -0.00000000000E+00 -0.00000000000E+00 -0.13524032947E+04  0.13524032947E+04  0.00000000000E+00 0. -1.
         24    2    1    2    0    0 -0.14128782607E+02 -0.19288332909E+02 -0.90544522808E+03  0.90928194935E+03  0.79943355357E+02 0.  0.
         25    2    1    2    0    0 -0.27501389962E+01  0.54096671655E+02 -0.42262299955E+03  0.44406284405E+03  0.12509035365E+03 0.  0.
        -24    2    1    2    0    0  0.16878921603E+02 -0.34808338746E+02  0.15913387339E+03  0.18252744171E+03  0.80598752327E+02 0.  0.
        -13    1    3    3    0    0  0.41183413811E+01  0.21137807228E+02 -0.86639179134E+02  0.89275500509E+02  0.00000000000E+00 0.  1.
         14    1    3    3    0    0 -0.18247123988E+02 -0.40426140137E+02 -0.81880604895E+03  0.82000644884E+03  0.00000000000E+00 0. -1.
         11    1    5    5    0    0  0.18089437224E+02 -0.46553764397E+02  0.43323268062E+02  0.66116459934E+02  0.00000000000E+00 0. -1.
        -12    1    5    5    0    0 -0.12105156206E+01  0.11745425651E+02  0.11581060533E+03  0.11641098178E+03  0.00000000000E+00 0.  1.
          5    1    4    4  501    0 -0.20175790154E+02  0.22156749016E+02 -0.13209160679E+02  0.33014214532E+02  0.41800000000E+01 0. -1.
         -5    1    4    4    0  501  0.17425651158E+02  0.31939922639E+02 -0.40941383887E+03  0.41104862952E+03  0.41800000000E+01 0. -1.
</event>
<event>
11    1  0.7577197E-009  0.1423757E+03  0.7561462E-02  0.1104934E+00
         22   -1    0    0    0    0  0.00000000000E+00  0.00000000000E+00  0.10717779740E+04  0.10717779740E+04  0.00000000000E+00 0. -1.
         22   -1    0    0    0    0 -0.00000000000E+00 -0.00000000000E+00 -0.54645381118E+02  0.54645381118E+02  0.00000000000E+00 0.  1.
        -24    2    1    2    0    0  0.89689179611E+01  0.16988770372E+02  0.14133070585E+02  0.84826154055E+02  0.81404378994E+02 0.  0.
         25    2    1    2    0    0 -0.58314126197E+02  0.31275184650E+02  0.31252588198E+03  0.34307281699E+03  0.12509139206E+03 0.  0.
         24    2    1    2    0    0  0.49345208236E+02 -0.48263955022E+02  0.69047364031E+03  0.69852438406E+03  0.80113096492E+02 0.  0.
        -13    1    5    5    0    0  0.12967688380E+02 -0.54315985330E+02  0.56474135501E+03  0.56749553766E+03  0.00000000000E+00 0.  1.
         14    1    5    5    0    0  0.36377519856E+02  0.60520303081E+01  0.12573228530E+03  0.13102884640E+03  0.00000000000E+00 0. -1.
         11    1    3    3    0    0 -0.34457633467E+02 -0.14749916988E+01 -0.30092662115E+01  0.34620222238E+02  0.00000000000E+00 0. -1.
        -12    1    3    3    0    0  0.43426551428E+02  0.18463762071E+02  0.17142336796E+02  0.50205931817E+02  0.00000000000E+00 0.  1.
          5    1    4    4  501    0 -0.19859797725E+02  0.76441177021E+02  0.14291530075E+03  0.16333989316E+03  0.41800000000E+01 0. -1.
         -5    1    4    4    0  501 -0.38454328472E+02 -0.45165992371E+02  0.16961058123E+03  0.17973292383E+03  0.41800000000E+01 0. -1.
</event>
<event>
11    1  0.7577197E-009  0.1332612E+03  0.7561462E-02  0.1115326E+00
         22   -1    0    0    0    0  0.00000000000E+00  0.00000000000E+00  0.14457261674E+03  0.14457261674E+03  0.00000000000E+00 0. -1.
         22   -1    0    0    0    0 -0.00000000000E+00 -0.00000000000E+00 -0.58337065298E+03  0.58337065298E+03  0.00000000000E+00 0.  1.
        -24    2    1    2    0    0  0.36943678818E+02  0.27373046106E+02 -0.35565024960E+03  0.36727639457E+03  0.79314128064E+02 0.  0.
         25    2    1    2    0    0 -0.48251036682E+02 -0.10198225783E+02 -0.18359895786E+03  0.22757107849E+03  0.12509137496E+03 0.  0.
         24    2    1    2    0    0  0.11307357865E+02 -0.17174820324E+02  0.10045117123E+03  0.13309579666E+03  0.84860017036E+02 0.  0.
        -13    1    5    5    0    0 -0.29585319374E+02  0.66684249304E+01  0.11692412181E+02  0.32503407761E+02  0.00000000000E+00 0.  1.
         14    1    5    5    0    0  0.40892677238E+02 -0.23843245254E+02  0.88758759048E+02  0.10059238890E+03  0.00000000000E+00 0. -1.
         13    1    3    3    0    0  0.10026610328E+01 -0.15377786022E+02 -0.13168549611E+02  0.20270479298E+02  0.00000000000E+00 0. -1.
        -14    1    3    3    0    0  0.35941017785E+02  0.42750832129E+02 -0.34248169999E+03  0.34700591528E+03  0.00000000000E+00 0.  1.
          5    1    4    4  501    0 -0.44448316623E+02  0.11147619468E+02 -0.35267811589E+01  0.46150112197E+02  0.41800000000E+01 0.  1.
         -5    1    4    4    0  501 -0.38027200593E+01 -0.21345845250E+02 -0.18007217670E+03  0.18142096630E+03  0.41800000000E+01 0.  1.
</event>
<event>
11    1  0.7577197E-009  0.1620097E+03  0.7561462E-02  0.1085202E+00
         22   -1    0    0    0    0  0.00000000000E+00  0.00000000000E+00  0.81783614873E+02  0.81783614873E+02  0.00000000000E+00 0. -1.
         22   -1    0    0    0    0 -0.00000000000E+00 -0.00000000000E+00 -0.19287382944E+04  0.19287382944E+04  0.00000000000E+00 0. -1.
        -24    2    1    2    0    0 -0.23444279238E+02 -0.26954666826E+02 -0.16539014934E+04  0.16562297681E+04  0.80191687198E+02 0.  0.
         25    2    1    2    0    0 -0.49312401831E+02  0.97182308829E+02 -0.11735329678E+03  0.20321260814E+03  0.12508978263E+03 0.  0.
         24    2    1    2    0    0  0.72756681069E+02 -0.70227642003E+02 -0.75699889413E+02  0.15107953306E+03  0.82880007906E+02 0.  0.
        -13    1    5    5    0    0  0.43738280941E+02  0.87574023798E+01 -0.39101151293E+02  0.59318035609E+02  0.00000000000E+00 0.  1.
         14    1    5    5    0    0  0.29018400128E+02 -0.78985044382E+02 -0.36598738120E+02  0.91761497449E+02  0.00000000000E+00 0. -1.
         13    1    3    3    0    0  0.16193354168E+02 -0.35070865246E+02 -0.11707592826E+04  0.11713963839E+04  0.00000000000E+00 0. -1.
        -14    1    3    3    0    0 -0.39637633406E+02  0.81161984202E+01 -0.48314221072E+03  0.48483338421E+03  0.00000000000E+00 0.  1.
          5    1    4    4  501    0 -0.20136562532E+01 -0.22241551896E+02 -0.56737653618E+02  0.61117715765E+02  0.41800000000E+01 0. -1.
         -5    1    4    4    0  501 -0.47298745578E+02  0.11942386072E+03 -0.60615643158E+02  0.14209489237E+03  0.41800000000E+01 0. -1.
</event>
<event>
11    1  0.7577197E-009  0.1526756E+03  0.7561462E-02  0.1094176E+00
         22   -1    0    0    0    0  0.00000000000E+00  0.00000000000E+00  0.59679678252E+02  0.59679678252E+02  0.00000000000E+00 0.  1.
         22   -1    0    0    0    0 -0.00000000000E+00 -0.00000000000E+00 -0.21083388413E+04  0.21083388413E+04  0.00000000000E+00 0.  1.
         24    2    1    2    0    0  0.35194081270E+02  0.76085638510E+02 -0.16443545397E+04  0.16481941169E+04  0.74928947667E+02 0.  0.
         25    2    1    2    0    0 -0.16057722037E+02 -0.13393192617E+03 -0.37085892255E+03  0.41398037334E+03  0.12509115790E+03 0.  0.
        -24    2    1    2    0    0 -0.19136359233E+02  0.57846287664E+02 -0.33445700850E+02  0.10584402931E+03  0.79824497458E+02 0.  0.
        -11    1    3    3    0    0  0.26846751502E+02  0.10139333169E+02 -0.10016923141E+04  0.10021033111E+04  0.00000000000E+00 0.  1.
         12    1    3    3    0    0  0.83473297676E+01  0.65946305341E+02 -0.64266222558E+03  0.64609080576E+03  0.00000000000E+00 0. -1.
         11    1    5    5    0    0  0.10012204895E+02  0.27592946555E+02 -0.52161054529E+02  0.59853074742E+02  0.00000000000E+00 0. -1.
        -12    1    5    5    0    0 -0.29148564128E+02  0.30253341108E+02  0.18715353679E+02  0.45990954570E+02  0.00000000000E+00 0.  1.
          5    1    4    4  501    0  0.21695214905E+02  0.16451787476E+02 -0.75557975993E+02  0.80422781580E+02  0.41800000000E+01 0. -1.
         -5    1    4    4    0  501 -0.37752936942E+02 -0.15038371365E+03 -0.29530094656E+03  0.33355759176E+03  0.41800000000E+01 0. -1.
</event>
<event>
11    1  0.7577197E-009  0.1526070E+03  0.7561462E-02  0.1094244E+00
         22   -1    0    0    0    0  0.00000000000E+00  0.00000000000E+00  0.33404548201E+03  0.33404548201E+03  0.00000000000E+00 0.  1.
         22   -1    0    0    0    0 -0.00000000000E+00 -0.00000000000E+00 -0.17464528811E+04  0.17464528811E+04  0.00000000000E+00 0.  1.
        -24    2    1    2    0    0  0.28811682625E+02  0.85553329242E+02 -0.15726365345E+04  0.15772076312E+04  0.79049079311E+02 0.  0.
         25    2    1    2    0    0 -0.73714815516E+02 -0.21686498867E+02 -0.12728604284E+03  0.19430145107E+03  0.12508852436E+03 0.  0.
         24    2    1    2    0    0  0.44903132891E+02 -0.63866830375E+02  0.28751517829E+03  0.30898928084E+03  0.81939822806E+02 0.  0.
        -13    1    5    5    0    0  0.43092153186E+02 -0.76348906232E+02  0.28183591258E+03  0.29515685791E+03  0.00000000000E+00 0.  1.
         14    1    5    5    0    0  0.18109797047E+01  0.12482075857E+02  0.56792657070E+01  0.13832422932E+02  0.00000000000E+00 0. -1.
         13    1    3    3    0    0  0.50286052925E+02  0.26954956313E+02 -0.67752252998E+03  0.67992060964E+03  0.00000000000E+00 0. -1.
        -14    1    3    3    0    0 -0.21474370300E+02  0.58598372928E+02 -0.89511400453E+03  0.89728702152E+03  0.00000000000E+00 0.  1.
          5    1    4    4  501    0  0.41464957762E+01  0.18672771102E+02  0.16649356434E+02  0.25700958689E+02  0.41800000000E+01 0. -1.
         -5    1    4    4    0  501 -0.77861311292E+02 -0.40359269969E+02 -0.14393539927E+03  0.16860049238E+03  0.41800000000E+01 0. -1.
</event>
<event>
11    1  0.7577197E-009  0.1736894E+03  0.7561462E-02  0.1074865E+00
         22   -1    0    0    0    0  0.00000000000E+00  0.00000000000E+00  0.25189441067E+04  0.25189441067E+04  0.00000000000E+00 0. -1.
         22   -1    0    0    0    0 -0.00000000000E+00 -0.00000000000E+00 -0.93468270790E+02  0.93468270790E+02  0.00000000000E+00 0. -1.
         24    2    1    2    0    0 -0.15472024498E+02 -0.10926354994E+03  0.83165540083E+01  0.14115747038E+03  0.87626248842E+02 0.  0.
         25    2    1    2    0    0  0.77081242136E+02  0.18814924797E+03  0.54842335581E+03  0.59812926190E+03  0.12509508121E+03 0.  0.
        -24    2    1    2    0    0 -0.61609217638E+02 -0.78885698030E+02  0.18687359261E+04  0.18731256452E+04  0.80044189243E+02 0.  0.
        -11    1    3    3    0    0 -0.35682570632E+02 -0.84096763450E+02  0.36433515191E+02  0.98350965928E+02  0.00000000000E+00 0.  1.
         12    1    3    3    0    0  0.20210546134E+02 -0.25166786486E+02 -0.28116961183E+02  0.42806504450E+02  0.00000000000E+00 0. -1.
         11    1    5    5    0    0 -0.33873024600E+02 -0.49867442563E+02  0.47478332451E+03  0.47859518265E+03  0.00000000000E+00 0. -1.
        -12    1    5    5    0    0 -0.27736193038E+02 -0.29018255468E+02  0.13939526016E+04  0.13945304626E+04  0.00000000000E+00 0.  1.
          5    1    4    4  501    0 -0.17078181153E+02 -0.74384533595E+01  0.24940033469E+02  0.31408160235E+02  0.41800000000E+01 0. -1.
         -5    1    4    4    0  501  0.94159423290E+02  0.19558770133E+03  0.52348332234E+03  0.56672110166E+03  0.41800000000E+01 0. -1.
</event>
<event>
11    1  0.7577197E-009  0.1274323E+03  0.7561462E-02  0.1122465E+00
         22   -1    0    0    0    0  0.00000000000E+00  0.00000000000E+00  0.14038153803E+04  0.14038153803E+04  0.00000000000E+00 0. -1.
         22   -1    0    0    0    0 -0.00000000000E+00 -0.00000000000E+00 -0.29986999065E+03  0.29986999065E+03  0.00000000000E+00 0.  1.
         24    2    1    2    0    0 -0.15819104768E+02 -0.81280244490E+01 -0.20990300755E+03  0.22534005096E+03  0.80015980486E+02 0.  0.
         25    2    1    2    0    0  0.34283932946E+02 -0.75414988723E+01 -0.28754252414E+02  0.13306440605E+03  0.12508823631E+03 0.  0.
        -24    2    1    2    0    0 -0.18464828178E+02  0.15669523321E+02  0.13426026496E+04  0.13452809139E+04  0.81316534646E+02 0.  0.
        -13    1    3    3    0    0  0.29994174127E+02 -0.14758953891E+02 -0.11482399047E+03  0.11959107822E+03  0.00000000000E+00 0.  1.
         14    1    3    3    0    0 -0.45813278895E+02  0.66309294420E+01 -0.95079017074E+02  0.10574897274E+03  0.00000000000E+00 0. -1.
         13    1    5    5    0    0  0.54002346582E+01  0.10526722289E+02  0.12302345762E+04  0.12302914642E+04  0.00000000000E+00 0. -1.
        -14    1    5    5    0    0 -0.23865062836E+02  0.51428010327E+01  0.11236807342E+03  0.11498944974E+03  0.00000000000E+00 0.  1.
          5    1    4    4  501    0  0.31361226121E+02  0.16423201781E+02  0.43807031209E+02  0.56478105881E+02  0.41800000000E+01 0.  1.
         -5    1    4    4    0  501  0.29227068247E+01 -0.23964700653E+02 -0.72561283623E+02  0.76586300169E+02  0.41800000000E+01 0.  1.
</event>
<event>
11    1  0.7577197E-009  0.2103046E+03  0.7561462E-02  0.1047467E+00
         22   -1    0    0    0    0  0.00000000000E+00  0.00000000000E+00  0.80460391276E+03  0.80460391276E+03  0.00000000000E+00 0.  1.
         22   -1    0    0    0    0 -0.00000000000E+00 -0.00000000000E+00 -0.10534869564E+04  0.10534869564E+04  0.00000000000E+00 0. -1.
         24    2    1    2    0    0 -0.21986083056E+02  0.16224266193E+03 -0.90135309452E+03  0.91951738338E+03  0.79175426397E+02 0.  0.
         25    2    1    2    0    0  0.23699186114E+02 -0.25525817307E+03  0.11027068106E+02  0.28545819027E+03  0.12508555400E+03 0.  0.
        -24    2    1    2    0    0 -0.17131030582E+01  0.93015511144E+02  0.64144298278E+03  0.65311529549E+03  0.80347177945E+02 0.  0.
        -11    1    3    3    0    0  0.36373143256E+01  0.32154834328E+02 -0.63828187764E+02  0.71562566887E+02  0.00000000000E+00 0.  1.
         12    1    3    3    0    0 -0.25623397382E+02  0.13008782760E+03 -0.83752490675E+03  0.84795481649E+03  0.00000000000E+00 0. -1.
         13    1    5    5    0    0 -0.37987324712E+02  0.55708134765E+02  0.28339650531E+03  0.29130741895E+03  0.00000000000E+00 0. -1.
        -14    1    5    5    0    0  0.36274221653E+02  0.37307376380E+02  0.35804647748E+03  0.36180787654E+03  0.00000000000E+00 0.  1.
          5    1    4    4  501    0 -0.45644023570E+02 -0.52990654394E+02  0.14579069080E+02  0.71564013275E+02  0.41800000000E+01 0. -1.
         -5    1    4    4    0  501  0.69343209684E+02 -0.20226751868E+03 -0.35520009733E+01  0.21389417700E+03  0.41800000000E+01 0. -1.
</event>
<event>
11    1  0.7577197E-009  0.2151124E+03  0.7561462E-02  0.1044323E+00
         22   -1    0    0    0    0  0.00000000000E+00  0.00000000000E+00  0.48725495885E+03  0.48725495885E+03  0.00000000000E+00 0. -1.
         22   -1    0    0    0    0 -0.00000000000E+00 -0.00000000000E+00 -0.16541107244E+04  0.16541107244E+04  0.00000000000E+00 0. -1.
         24    2    1    2    0    0 -0.10443394162E+03 -0.19415421944E+02 -0.15099845963E+04  0.15158530844E+04  0.80459216399E+02 0.  0.
         25    2    1    2    0    0  0.57244129263E+02  0.18856557876E+03  0.55307679183E+01  0.23348178752E+03  0.12509711380E+03 0.  0.
        -24    2    1    2    0    0  0.47189812359E+02 -0.16915015681E+03  0.33759806283E+03  0.39203081138E+03  0.94218103894E+02 0.  0.
        -13    1    3    3    0    0 -0.33498751798E+00 -0.15580721648E+02 -0.55602517083E+02  0.57745224994E+02  0.00000000000E+00 0.  1.
         14    1    3    3    0    0 -0.10409895410E+03 -0.38347002962E+01 -0.14543820793E+04  0.14581078594E+04  0.00000000000E+00 0. -1.
         11    1    5    5    0    0  0.56916708456E+01 -0.14936113209E+03  0.28750896800E+03  0.32404096898E+03  0.00000000000E+00 0. -1.
        -12    1    5    5    0    0  0.41498141513E+02 -0.19789024728E+02  0.50089094834E+02  0.67989842403E+02  0.00000000000E+00 0.  1.
          5    1    4    4  501    0  0.91942383386E+02  0.89733864205E+02  0.76212384220E+00  0.12854423939E+03  0.41800000000E+01 0.  1.
         -5    1    4    4    0  501 -0.34698254123E+02  0.98831714553E+02  0.47686440761E+01  0.10493754813E+03  0.41800000000E+01 0.  1.
</event>
<event>
11    1  0.7577197E-009  0.4661391E+03  0.7561462E-02  0.9472539E-01
         22   -1    0    0    0    0  0.00000000000E+00  0.00000000000E+00  0.11590809371E+04  0.11590809371E+04  0.00000000000E+00 0.  1.
         22   -1    0    0    0    0 -0.00000000000E+00 -0.00000000000E+00 -0.21525336618E+04  0.21525336618E+04  0.00000000000E+00 0.  1.
         24    2    1    2    0    0  0.37487130448E+03  0.25548559021E+03 -0.20603685531E+04  0.21112837505E+04  0.81234962219E+02 0.  0.
         25    2    1    2    0    0 -0.24318578247E+03 -0.24451464630E+03  0.55256868105E+03  0.66325606588E+03  0.12509885933E+03 0.  0.
        -24    2    1    2    0    0 -0.13168552202E+03 -0.10970943916E+02  0.51434714727E+03  0.53707478244E+03  0.80217801700E+02 0.  0.
        -11    1    3    3    0    0  0.23740374651E+03  0.18015734871E+03 -0.15046471717E+04  0.15338775442E+04  0.00000000000E+00 0.  1.
         12    1    3    3    0    0  0.13746755797E+03  0.75328241500E+02 -0.55572138132E+03  0.57740620634E+03  0.00000000000E+00 0. -1.
         11    1    5    5    0    0 -0.10176189355E+03 -0.18189627542E+02  0.47977183443E+03  0.49078239439E+03  0.00000000000E+00 0. -1.
        -12    1    5    5    0    0 -0.29923628460E+02  0.72186836260E+01  0.34575312841E+02  0.46292388053E+02  0.00000000000E+00 0.  1.
          5    1    4    4  501    0 -0.17540400999E+03 -0.18332973907E+03  0.49204674538E+03  0.55362788224E+03  0.41800000000E+01 0. -1.
         -5    1    4    4    0  501 -0.67781772474E+02 -0.61184907229E+02  0.60521935664E+02  0.10962818364E+03  0.41800000000E+01 0. -1.
</event>
<event>
11    1  0.7577197E-009  0.2580866E+03  0.7561462E-02  0.1019677E+00
         22   -1    0    0    0    0  0.00000000000E+00  0.00000000000E+00  0.14127567454E+04  0.14127567454E+04  0.00000000000E+00 0.  1.
         22   -1    0    0    0    0 -0.00000000000E+00 -0.00000000000E+00 -0.33639803296E+03  0.33639803296E+03  0.00000000000E+00 0. -1.
         24    2    1    2    0    0 -0.20986400425E+03  0.81032769864E+02 -0.21787464561E+03  0.32356537296E+03  0.81338670442E+02 0.  0.
         25    2    1    2    0    0  0.21177232592E+03 -0.89032883802E+02  0.20061198128E+03  0.32964918402E+03  0.12509614330E+03 0.  0.
        -24    2    1    2    0    0 -0.19083216683E+01  0.80001139386E+01  0.10936213768E+04  0.10959402214E+04  0.70778595533E+02 0.  0.
        -11    1    3    3    0    0 -0.23350118327E+02 -0.18448814845E+01  0.20678453166E+01  0.23513987280E+02  0.00000000000E+00 0.  1.
         12    1    3    3    0    0 -0.18651388593E+03  0.82877651348E+02 -0.21994249093E+03  0.30005138568E+03  0.00000000000E+00 0. -1.
         13    1    5    5    0    0  0.96023335967E+01  0.57206788158E+01  0.26581995133E+02  0.28836321573E+02  0.00000000000E+00 0. -1.
        -14    1    5    5    0    0 -0.11510655265E+02  0.22794351228E+01  0.10670393817E+04  0.10671038998E+04  0.00000000000E+00 0.  1.
          5    1    4    4  501    0  0.21115996473E+03 -0.58541064082E+02  0.13561063524E+03  0.25772718848E+03  0.41800000000E+01 0.  1.
         -5    1    4    4    0  501  0.61236118604E+00 -0.30491819721E+02  0.65001346039E+02  0.71921995543E+02  0.41800000000E+01 0.  1.
</event>
<event>
11    1  0.7577197E-009  0.1497129E+03  0.7561462E-02  0.1097172E+00
         22   -1    0    0    0    0  0.00000000000E+00  0.00000000000E+00  0.15611005849E+04  0.15611005849E+04  0.00000000000E+00 0.  1.
         22   -1    0    0    0    0 -0.00000000000E+00 -0.00000000000E+00 -0.78170614979E+02  0.78170614979E+02  0.00000000000E+00 0. -1.
         24    2    1    2    0    0  0.37946594262E+01  0.57916470530E+02 -0.25672827224E+02  0.10300607659E+03  0.81132242408E+02 0.  0.
         25    2    1    2    0    0 -0.82669731620E+02 -0.63334464228E+02  0.62756568158E+03  0.64833043873E+03  0.12509250261E+03 0.  0.
        -24    2    1    2    0    0  0.78875072194E+02  0.54179936979E+01  0.88103711555E+03  0.88793468453E+03  0.77142552176E+02 0.  0.
        -13    1    3    3    0    0 -0.23423954703E+02  0.29650365360E+02  0.20031065951E+02  0.42767621199E+02  0.00000000000E+00 0.  1.
         14    1    3    3    0    0  0.27218614129E+02  0.28266105170E+02 -0.45703893176E+02  0.60238455392E+02  0.00000000000E+00 0. -1.
         11    1    5    5    0    0 -0.42948650163E+01  0.23982654740E+02  0.15309512219E+03  0.15502170826E+03  0.00000000000E+00 0. -1.
        -12    1    5    5    0    0  0.83169937210E+02 -0.18564661042E+02  0.72794199336E+03  0.73291297627E+03  0.00000000000E+00 0.  1.
          5    1    4    4  501    0 -0.50949693888E+02  0.30717289529E+02  0.17162418179E+03  0.18169137393E+03  0.41800000000E+01 0.  1.
         -5    1    4    4    0  501 -0.31720037733E+02 -0.94051753757E+02  0.45594149978E+03  0.46663906480E+03  0.41800000000E+01 0.  1.
</event>
<event>
11    1  0.7577197E-009  0.1285058E+03  0.7561462E-02  0.1121119E+00
         22   -1    0    0    0    0  0.00000000000E+00  0.00000000000E+00  0.87885936338E+03  0.87885936338E+03  0.00000000000E+00 0. -1.
         22   -1    0    0    0    0 -0.00000000000E+00 -0.00000000000E+00 -0.26727956497E+03  0.26727956497E+03  0.00000000000E+00 0.  1.
         24    2    1    2    0    0 -0.29021788555E+02 -0.20475390258E+02 -0.24444978756E+03  0.25960503257E+03  0.79859679954E+02 0.  0.
         25    2    1    2    0    0  0.39853992131E+02 -0.77933217518E+01  0.37948796321E+03  0.40163124939E+03  0.12508984655E+03 0.  0.
        -24    2    1    2    0    0 -0.10832203576E+02  0.28268712010E+02  0.47654162275E+03  0.48490264640E+03  0.84393136898E+02 0.  0.
        -11    1    3    3    0    0  0.39547873992E+01 -0.45403758283E+02 -0.14179218532E+03  0.14893678332E+03  0.00000000000E+00 0.  1.
         12    1    3    3    0    0 -0.32976575954E+02  0.24928368024E+02 -0.10265760224E+03  0.11066824925E+03  0.00000000000E+00 0. -1.
         11    1    5    5    0    0  0.19739669778E+02  0.48163127415E+02  0.31696748776E+03  0.32121290401E+03  0.00000000000E+00 0. -1.
        -12    1    5    5    0    0 -0.30571873354E+02 -0.19894415405E+02  0.15957413499E+03  0.16368974239E+03  0.00000000000E+00 0.  1.
          5    1    4    4  501    0 -0.18684303391E+01 -0.20120427180E+01  0.35002039609E+03  0.35005612325E+03  0.41800000000E+01 0.  1.
         -5    1    4    4    0  501  0.41722422470E+02 -0.57812790338E+01  0.29467567127E+02  0.51575126141E+02  0.41800000000E+01 0.  1.
</event>
<event>
11    1  0.7577197E-009  0.1545091E+03  0.7561462E-02  0.1092358E+00
         22   -1    0    0    0    0  0.00000000000E+00  0.00000000000E+00  0.10596670717E+04  0.10596670717E+04  0.00000000000E+00 0. -1.
         22   -1    0    0    0    0 -0.00000000000E+00 -0.00000000000E+00 -0.20089112190E+03  0.20089112190E+03  0.00000000000E+00 0. -1.
         24    2    1    2    0    0  0.23817787863E+01 -0.97310497845E+02 -0.68874689463E+02  0.14472764865E+03  0.82020507033E+02 0.  0.
         25    2    1    2    0    0  0.42537103740E+02  0.76567337815E+02 -0.28231356674E+02  0.15528705591E+03  0.12508036544E+03 0.  0.
        -24    2    1    2    0    0 -0.44918882527E+02  0.20743160030E+02  0.95588199594E+03  0.96054348905E+03  0.80532102271E+02 0.  0.
        -11    1    3    3    0    0  0.54993639306E+01 -0.55725757419E+02  0.86868870668E+01  0.56666260248E+02  0.00000000000E+00 0.  1.
         12    1    3    3    0    0 -0.31175851443E+01 -0.41584740426E+02 -0.77561576530E+02  0.88061388402E+02  0.00000000000E+00 0. -1.
         13    1    5    5    0    0 -0.58739171248E+02  0.10678078761E+02  0.40309828779E+03  0.40749544933E+03  0.00000000000E+00 0. -1.
        -14    1    5    5    0    0  0.13820288722E+02  0.10065081269E+02  0.55278370815E+03  0.55304803972E+03  0.00000000000E+00 0.  1.
          5    1    4    4  501    0  0.59623530898E+02  0.23069811073E+02  0.33024623429E+02  0.72078289188E+02  0.41800000000E+01 0. -1.
         -5    1    4    4    0  501 -0.17086427157E+02  0.53497526741E+02 -0.61255980104E+02  0.83208766719E+02  0.41800000000E+01 0. -1.
</event>
<event>
11    1  0.7577197E-009  0.1567188E+03  0.7561462E-02  0.1090205E+00
         22   -1    0    0    0    0  0.00000000000E+00  0.00000000000E+00  0.12177101886E+04  0.12177101886E+04  0.00000000000E+00 0.  1.
         22   -1    0    0    0    0 -0.00000000000E+00 -0.00000000000E+00 -0.29628332473E+03  0.29628332473E+03  0.00000000000E+00 0.  1.
        -24    2    1    2    0    0 -0.89147329374E+02  0.16024667378E+02 -0.18504368638E+03  0.22129200904E+03  0.80777169394E+02 0.  0.
         25    2    1    2    0    0  0.10254758084E+03 -0.51736334373E+02 -0.12339790913E+02  0.17026832591E+03  0.12508548172E+03 0.  0.
         24    2    1    2    0    0 -0.13400251467E+02  0.35711666995E+02  0.11188103412E+04  0.11224331784E+04  0.81638045803E+02 0.  0.
        -11    1    5    5    0    0 -0.17784857098E+02  0.54651555333E+02  0.10260076583E+04  0.10276160804E+04  0.00000000000E+00 0.  1.
         12    1    5    5    0    0  0.43846056307E+01 -0.18939888339E+02  0.92802682880E+02  0.94817098070E+02  0.00000000000E+00 0. -1.
         11    1    3    3    0    0 -0.15963659287E+02 -0.19953078289E+02 -0.86800814881E+01  0.26987174096E+02  0.00000000000E+00 0. -1.
        -12    1    3    3    0    0 -0.73183670087E+02  0.35977745668E+02 -0.17636360490E+03  0.19430483494E+03  0.00000000000E+00 0.  1.
          5    1    4    4  501    0  0.94257092727E+02 -0.78597318223E+00 -0.49478257185E+02  0.10653913655E+03  0.41800000000E+01 0. -1.
         -5    1    4    4    0  501  0.82904881144E+01 -0.50950361191E+02  0.37138466272E+02  0.63729189354E+02  0.41800000000E+01 0. -1.
</event>
<event>
11    1  0.7577197E-009  0.1873865E+03  0.7561462E-02  0.1063820E+00
         22   -1    0    0    0    0  0.00000000000E+00  0.00000000000E+00  0.41635876278E+03  0.41635876278E+03  0.00000000000E+00 0. -1.
         22   -1    0    0    0    0 -0.00000000000E+00 -0.00000000000E+00 -0.85572021024E+03  0.85572021024E+03  0.00000000000E+00 0. -1.
        -24    2    1    2    0    0 -0.10095049698E+03 -0.96455747662E+02 -0.77482074777E+03  0.79131327910E+03  0.79591459449E+02 0.  0.
         25    2    1    2    0    0  0.91714621143E+02  0.10358847067E+03  0.63330968972E+02  0.19697858736E+03  0.12509040435E+03 0.  0.
         24    2    1    2    0    0  0.92358758410E+01 -0.71327230097E+01  0.27212833134E+03  0.28378710656E+03  0.79656236341E+02 0.  0.
        -11    1    5    5    0    0  0.17221013599E+02  0.15587453556E+02  0.20414439469E+02  0.30923799193E+02  0.00000000000E+00 0.  1.
         12    1    5    5    0    0 -0.79851377579E+01 -0.22720176565E+02  0.25171389187E+03  0.25286330736E+03  0.00000000000E+00 0. -1.
         11    1    3    3    0    0 -0.98925812957E+02 -0.10945200726E+03 -0.70713094861E+03  0.72235741627E+03  0.00000000000E+00 0. -1.
        -12    1    3    3    0    0 -0.20246840264E+01  0.12996259595E+02 -0.67689799157E+02  0.68955862831E+02  0.00000000000E+00 0.  1.
          5    1    4    4  501    0  0.12062654674E+03  0.71124524604E+02  0.62221618656E+02  0.15329208723E+03  0.41800000000E+01 0. -1.
         -5    1    4    4    0  501 -0.28911925597E+02  0.32463946067E+02  0.11093503155E+01  0.43686500135E+02  0.41800000000E+01 0. -1.
</event>
<event>
11    1  0.7577197E-009  0.2210621E+03  0.7561462E-02  0.1040554E+00
         22   -1    0    0    0    0  0.00000000000E+00  0.00000000000E+00  0.20980484637E+03  0.20980484637E+03  0.00000000000E+00 0.  1.
         22   -1    0    0    0    0 -0.00000000000E+00 -0.00000000000E+00 -0.63989549057E+03  0.63989549057E+03  0.00000000000E+00 0.  1.
        -24    2    1    2    0    0 -0.23148496024E+02 -0.36317797505E+01 -0.29438319831E+03  0.30615750716E+03  0.80758337352E+02 0.  0.
         25    2    1    2    0    0  0.17070200768E+03 -0.97921166022E+02 -0.22850243602E+03  0.32648328119E+03  0.12510091706E+03 0.  0.
         24    2    1    2    0    0 -0.14755351165E+03  0.10155294577E+03  0.92794990135E+02  0.21705954859E+03  0.80118024475E+02 0.  0.
        -13    1    5    5    0    0 -0.13533498525E+03  0.98966313371E+02  0.10641507746E+03  0.19858010506E+03  0.00000000000E+00 0.  1.
         14    1    5    5    0    0 -0.12218526407E+02  0.25866324009E+01 -0.13620087324E+02  0.18479443538E+02  0.00000000000E+00 0. -1.
         13    1    3    3    0    0  0.32006561076E+01 -0.11242705023E+02 -0.12635064543E+01  0.11757510974E+02  0.00000000000E+00 0. -1.
        -14    1    3    3    0    0 -0.26349152131E+02  0.76109252723E+01 -0.29311969185E+03  0.29439999619E+03  0.00000000000E+00 0.  1.
          5    1    4    4  501    0  0.75098343304E+02 -0.10556424456E+03 -0.17101870789E+03  0.21458900658E+03  0.41800000000E+01 0. -1.
         -5    1    4    4    0  501  0.95603664373E+02  0.76430785365E+01 -0.57483728135E+02  0.11189427461E+03  0.41800000000E+01 0. -1.
</event>
<event>
11    1  0.7577197E-009  0.1578070E+03  0.7561462E-02  0.1089158E+00
         22   -1    0    0    0    0  0.00000000000E+00  0.00000000000E+00  0.93640174480E+03  0.93640174480E+03  0.00000000000E+00 0. -1.
         22   -1    0    0    0    0 -0.00000000000E+00 -0.00000000000E+00 -0.36256365917E+03  0.36256365917E+03  0.00000000000E+00 0. -1.
         24    2    1    2    0    0 -0.27085220657E+01  0.95386968131E+02 -0.32902978923E+03  0.35201025980E+03  0.80898770232E+02 0.  0.
         25    2    1    2    0    0 -0.34169405808E+02 -0.13196740875E+03  0.51178608821E+03  0.54420527858E+03  0.12510571485E+03 0.  0.
        -24    2    1    2    0    0  0.36877927874E+02  0.36580440618E+02  0.39108178666E+03  0.40274986558E+03  0.81020862563E+02 0.  0.
        -13    1    3    3    0    0  0.19647655986E+02  0.38921916985E+02 -0.49517808294E+02  0.65976960720E+02  0.00000000000E+00 0.  1.
         14    1    3    3    0    0 -0.22356178052E+02  0.56465051146E+02 -0.27951198094E+03  0.28603329908E+03  0.00000000000E+00 0. -1.
         11    1    5    5    0    0  0.12357722397E+02  0.37389455895E+02  0.36432921861E+03  0.36645117581E+03  0.00000000000E+00 0. -1.
        -12    1    5    5    0    0  0.24520205477E+02 -0.80901527693E+00  0.26752568042E+02  0.36298689772E+02  0.00000000000E+00 0.  1.
          5    1    4    4  501    0 -0.67872300763E+02 -0.68007934418E+02  0.39701671301E+03  0.40849904671E+03  0.41800000000E+01 0. -1.
         -5    1    4    4    0  501  0.33702894955E+02 -0.63959474331E+02  0.11476937520E+03  0.13570623187E+03  0.41800000000E+01 0. -1.
</event>
<event>
11    1  0.7577197E-009  0.1323842E+03  0.7561462E-02  0.1116374E+00
         22   -1    0    0    0    0  0.00000000000E+00  0.00000000000E+00  0.20251084431E+04  0.20251084431E+04  0.00000000000E+00 0.  1.
         22   -1    0    0    0    0 -0.00000000000E+00 -0.00000000000E+00 -0.30075726474E+02  0.30075726474E+02  0.00000000000E+00 0. -1.
        -24    2    1    2    0    0 -0.12904838418E+02 -0.41354889485E+02  0.10235169686E+03  0.13860177135E+03  0.82811952226E+02 0.  0.
         25    2    1    2    0    0  0.34365258790E+02  0.33284616616E+02  0.40573125693E+03  0.42726399438E+03  0.12509129198E+03 0.  0.
         24    2    1    2    0    0 -0.21460420373E+02  0.80702728693E+01  0.14869497628E+04  0.14893184038E+04  0.80771479429E+02 0.  0.
        -13    1    5    5    0    0 -0.48237873713E+02 -0.74275747517E+01  0.66604300193E+03  0.66782882668E+03  0.00000000000E+00 0.  1.
         14    1    5    5    0    0  0.26777453340E+02  0.15497847621E+02  0.82090676086E+03  0.82148957712E+03  0.00000000000E+00 0. -1.
         13    1    3    3    0    0  0.15178669586E+00  0.18118812094E+02 -0.15363709645E+01  0.18184466631E+02  0.00000000000E+00 0. -1.
        -14    1    3    3    0    0 -0.13056625113E+02 -0.59473701579E+02  0.10388806782E+03  0.12041730471E+03  0.00000000000E+00 0.  1.
          5    1    4    4  501    0  0.88686363152E+01 -0.31782071251E+02  0.29136453533E+02  0.44217169602E+02  0.41800000000E+01 0.  1.
         -5    1    4    4    0  501  0.25496622475E+02  0.65066687867E+02  0.37659480340E+03  0.38304682478E+03  0.41800000000E+01 0.  1.
</event>
<event>
11    1  0.7577197E-009  0.1475297E+03  0.7561462E-02  0.1099430E+00
         22   -1    0    0    0    0  0.00000000000E+00  0.00000000000E+00  0.80318354507E+03  0.80318354507E+03  0.00000000000E+00 0.  1.
         22   -1    0    0    0    0 -0.00000000000E+00 -0.00000000000E+00 -0.88468439576E+03  0.88468439576E+03  0.00000000000E+00 0.  1.
         24    2    1    2    0    0  0.71718516871E+02  0.34556169947E+02 -0.79588192229E+03  0.80401113223E+03  0.81658998162E+02 0.  0.
         25    2    1    2    0    0 -0.41689545869E+02 -0.46119560479E+02 -0.22631396344E+02  0.14150917560E+03  0.12509050557E+03 0.  0.
        -24    2    1    2    0    0 -0.30028971002E+02  0.11563390531E+02  0.73701246794E+03  0.74234763300E+03  0.82808086728E+02 0.  0.
        -13    1    3    3    0    0  0.58333188609E+02  0.35675500183E+02 -0.78090638823E+03  0.78389431009E+03  0.00000000000E+00 0.  1.
         14    1    3    3    0    0  0.13385328261E+02 -0.11193302360E+01 -0.14975534058E+02  0.20116822144E+02  0.00000000000E+00 0. -1.
         11    1    5    5    0    0 -0.10652866367E+02  0.17881242587E+02  0.40484857683E+02  0.45521929879E+02  0.00000000000E+00 0. -1.
        -12    1    5    5    0    0 -0.19376104635E+02 -0.63178520554E+01  0.69652761026E+03  0.69682570313E+03  0.00000000000E+00 0.  1.
          5    1    4    4  501    0 -0.29716934119E+02  0.69814660480E+01  0.45034354923E+02  0.54565580405E+02  0.41800000000E+01 0. -1.
         -5    1    4    4    0  501 -0.11972611750E+02 -0.53101026527E+02 -0.67665751267E+02  0.86943595192E+02  0.41800000000E+01 0. -1.
</event>
<event>
11    1  0.7577197E-009  0.1493336E+03  0.7561462E-02  0.1097562E+00
         22   -1    0    0    0    0  0.00000000000E+00  0.00000000000E+00  0.46748393543E+02  0.46748393543E+02  0.00000000000E+00 0.  1.
         22   -1    0    0    0    0 -0.00000000000E+00 -0.00000000000E+00 -0.28794568473E+04  0.28794568473E+04  0.00000000000E+00 0.  1.
         24    2    1    2    0    0  0.32308402811E+02 -0.73466875145E+02 -0.15175978427E+04  0.15217935200E+04  0.79442373214E+02 0.  0.
         25    2    1    2    0    0 -0.44695017449E+02  0.72077036049E+02 -0.13168819418E+04  0.13255258230E+04  0.12509162702E+03 0.  0.
        -24    2    1    2    0    0  0.12386614638E+02  0.13898390955E+01  0.17713307643E+01  0.78885897815E+02  0.77874818693E+02 0.  0.
        -13    1    3    3    0    0  0.14644231865E+02  0.13935246721E+00 -0.81468180810E+03  0.81481342735E+03  0.00000000000E+00 0.  1.
         14    1    3    3    0    0  0.17664170945E+02 -0.73606227612E+02 -0.70291603459E+03  0.70698009263E+03  0.00000000000E+00 0. -1.
         13    1    5    5    0    0  0.91711721855E+01 -0.31146774171E+02 -0.21333956085E+02  0.38850606466E+02  0.00000000000E+00 0. -1.
        -14    1    5    5    0    0  0.32154424528E+01  0.32536613267E+02  0.23105286849E+02  0.40035291349E+02  0.00000000000E+00 0.  1.
          5    1    4    4  501    0  0.27469313569E+02  0.69973491568E+02 -0.52876680418E+03  0.53409985800E+03  0.41800000000E+01 0.  1.
         -5    1    4    4    0  501 -0.72164331018E+02  0.21035444816E+01 -0.78811513765E+03  0.79142596505E+03  0.41800000000E+01 0.  1.
</event>
<event>
11    1  0.7577197E-009  0.1450408E+04  0.7561462E-02  0.8339409E-01
         22   -1    0    0    0    0  0.00000000000E+00  0.00000000000E+00  0.18594873382E+03  0.18594873382E+03  0.00000000000E+00 0. -1.
         22   -1    0    0    0    0 -0.00000000000E+00 -0.00000000000E+00 -0.28283095281E+04  0.28283095281E+04  0.00000000000E+00 0. -1.
        -24    2    1    2    0    0 -0.58473287700E+03 -0.23686154457E+03 -0.13909823742E+04  0.15294651536E+04  0.80098450605E+02 0.  0.
         25    2    1    2    0    0  0.64083133791E+03  0.25472818305E+03 -0.11053328935E+04  0.13088011423E+04  0.12509345977E+03 0.  0.
         24    2    1    2    0    0 -0.56098460915E+02 -0.17866638474E+02 -0.14604552656E+03  0.17599196610E+03  0.78597851209E+02 0.  0.
        -13    1    5    5    0    0 -0.67622630526E+02 -0.31842492688E+02 -0.89448215055E+02  0.11656649466E+03  0.00000000000E+00 0.  1.
         14    1    5    5    0    0  0.11524169611E+02  0.13975854214E+02 -0.56597311507E+02  0.59425471441E+02  0.00000000000E+00 0. -1.
         11    1    3    3    0    0 -0.26797280118E+03 -0.77213922376E+02 -0.54754643041E+03  0.61447416987E+03  0.00000000000E+00 0. -1.
        -12    1    3    3    0    0 -0.31676007582E+03 -0.15964762220E+03 -0.84343594383E+03  0.91499098370E+03  0.00000000000E+00 0.  1.
          5    1    4    4  501    0  0.51004450887E+03  0.19795565526E+03 -0.77189228414E+03  0.94613266151E+03  0.41800000000E+01 0.  1.
         -5    1    4    4    0  501  0.13078682904E+03  0.56772527792E+02 -0.33344060938E+03  0.36266848077E+03  0.41800000000E+01 0.  1.
</event>
<event>
11    1  0.7577197E-009  0.1425737E+03  0.7561462E-02  0.1104718E+00
         22   -1    0    0    0    0  0.00000000000E+00  0.00000000000E+00  0.67597379057E+03  0.67597379057E+03  0.00000000000E+00 0.  1.
         22   -1    0    0    0    0 -0.00000000000E+00 -0.00000000000E+00 -0.16644071054E+03  0.16644071054E+03  0.00000000000E+00 0.  1.
         24    2    1    2    0    0 -0.21989170965E+02  0.77011912371E+01 -0.12975184306E+03  0.15482790556E+03  0.81199184580E+02 0.  0.
         25    2    1    2    0    0 -0.32718646310E+02  0.43981793955E+02  0.26974028380E+03  0.30234298286E+03  0.12508617256E+03 0.  0.
        -24    2    1    2    0    0  0.54707817275E+02 -0.51682985192E+02  0.36954463929E+03  0.38524361269E+03  0.78646833794E+02 0.  0.
        -13    1    3    3    0    0 -0.45528773768E+02  0.24284846327E+02 -0.58658001924E+02  0.78124158822E+02  0.00000000000E+00 0.  1.
         14    1    3    3    0    0  0.23539602802E+02 -0.16583655090E+02 -0.71093841134E+02  0.76703746737E+02  0.00000000000E+00 0. -1.
         13    1    5    5    0    0  0.10368190577E+02  0.80154582629E+01  0.64393364630E+01  0.14601780751E+02  0.00000000000E+00 0. -1.
        -14    1    5    5    0    0  0.44339626698E+02 -0.59698443455E+02  0.36310530283E+03  0.37064183194E+03  0.00000000000E+00 0.  1.
          5    1    4    4  501    0  0.33952003860E+02 -0.12652559060E+02  0.14766186483E+03  0.15209971908E+03  0.41800000000E+01 0. -1.
         -5    1    4    4    0  501 -0.66670650170E+02  0.56634353015E+02  0.12207841897E+03  0.15024326378E+03  0.41800000000E+01 0. -1.
</event>
<event>
11    1  0.7577197E-009  0.1324711E+03  0.7561462E-02  0.1116269E+00
         22   -1    0    0    0    0  0.00000000000E+00  0.00000000000E+00  0.56615436306E+03  0.56615436306E+03  0.00000000000E+00 0.  1.
         22   -1    0    0    0    0 -0.00000000000E+00 -0.00000000000E+00 -0.21676381392E+04  0.21676381392E+04  0.00000000000E+00 0.  1.
        -24    2    1    2    0    0  0.40278132246E+02 -0.83438535375E+01 -0.16056682564E+04  0.16082574526E+04  0.81421965359E+02 0.  0.
         25    2    1    2    0    0  0.14984906707E+01  0.21675300684E+02 -0.54967695813E+03  0.56414840990E+03  0.12508639399E+03 0.  0.
         24    2    1    2    0    0 -0.41776622916E+02 -0.13331447147E+02  0.55386143835E+03  0.56138663980E+03  0.80432908386E+02 0.  0.
        -13    1    5    5    0    0  0.25738024893E+01 -0.80678626447E+01  0.42354149813E+03  0.42362615064E+03  0.00000000000E+00 0.  1.
         14    1    5    5    0    0 -0.44350425406E+02 -0.52635845019E+01  0.13031994022E+03  0.13776048916E+03  0.00000000000E+00 0. -1.
         13    1    3    3    0    0  0.43021237995E+02 -0.38954382329E+02 -0.85996589868E+03  0.86192204851E+03  0.00000000000E+00 0. -1.
        -14    1    3    3    0    0 -0.27431057496E+01  0.30610528791E+02 -0.74570235768E+03  0.74633540406E+03  0.00000000000E+00 0.  1.
          5    1    4    4  501    0 -0.57687543791E+02  0.31352639759E+02 -0.25081651623E+03  0.25930144223E+03  0.41800000000E+01 0.  1.
         -5    1    4    4    0  501  0.59186034462E+02 -0.96773390747E+01 -0.29886044189E+03  0.30484696767E+03  0.41800000000E+01 0.  1.
</event>
<event>
11    1  0.7577197E-009  0.1344522E+03  0.7561462E-02  0.1113916E+00
         22   -1    0    0    0    0  0.00000000000E+00  0.00000000000E+00  0.89239511615E+02  0.89239511615E+02  0.00000000000E+00 0. -1.
         22   -1    0    0    0    0 -0.00000000000E+00 -0.00000000000E+00 -0.93384537391E+03  0.93384537391E+03  0.00000000000E+00 0.  1.
         24    2    1    2    0    0  0.25782489737E+02  0.39328907421E+02 -0.60650162716E+03  0.61382805811E+03  0.82031466186E+02 0.  0.
         25    2    1    2    0    0 -0.21998158015E+02 -0.56021423615E+02 -0.28504321006E+03  0.31704804381E+03  0.12509001410E+03 0.  0.
        -24    2    1    2    0    0 -0.37843317219E+01  0.16692516194E+02  0.46938974918E+02  0.92208783601E+02  0.77499878345E+02 0.  0.
        -11    1    3    3    0    0  0.97023720368E+01  0.56735122773E+02 -0.25003199622E+03  0.25657164558E+03  0.00000000000E+00 0.  1.
         12    1    3    3    0    0  0.16080117700E+02 -0.17406215352E+02 -0.35646963094E+03  0.35725641254E+03  0.00000000000E+00 0. -1.
         11    1    5    5    0    0  0.72948452854E+01  0.16696940745E+02  0.66922960710E+02  0.69359103716E+02  0.00000000000E+00 0. -1.
        -12    1    5    5    0    0 -0.11079177007E+02 -0.44245513393E-02 -0.19983985792E+02  0.22849679886E+02  0.00000000000E+00 0.  1.
          5    1    4    4  501    0 -0.99515300334E+01 -0.95422567226E+02 -0.21848032746E+03  0.23865377679E+03  0.41800000000E+01 0. -1.
         -5    1    4    4    0  501 -0.12046627982E+02  0.39401143611E+02 -0.66562882596E+02  0.78394267029E+02  0.41800000000E+01 0. -1.
</event>
<event>
11    1  0.7577197E-009  0.2124585E+03  0.7561462E-02  0.1046047E+00
         22   -1    0    0    0    0  0.00000000000E+00  0.00000000000E+00  0.23824433578E+04  0.23824433578E+04  0.00000000000E+00 0.  1.
         22   -1    0    0    0    0 -0.00000000000E+00 -0.00000000000E+00 -0.69600419931E+02  0.69600419931E+02  0.00000000000E+00 0. -1.
         24    2    1    2    0    0  0.12447953030E+02 -0.29161128761E+02  0.97936680531E+02  0.13067564988E+03  0.80493534608E+02 0.  0.
         25    2    1    2    0    0  0.95684300481E+00  0.19805977321E+03  0.23182867062E+03  0.32957462426E+03  0.12508521545E+03 0.  0.
        -24    2    1    2    0    0 -0.13404796034E+02 -0.16889864445E+03  0.19830775867E+04  0.19917935035E+04  0.77059751715E+02 0.  0.
        -13    1    3    3    0    0  0.45858092125E+02 -0.10463528412E+02  0.64598575333E+02  0.79908860430E+02  0.00000000000E+00 0.  1.
         14    1    3    3    0    0 -0.33410139095E+02 -0.18697600350E+02  0.33338105198E+02  0.50766789454E+02  0.00000000000E+00 0. -1.
         11    1    5    5    0    0  0.17712610273E+02 -0.27798929150E+02  0.66573732475E+03  0.66655285056E+03  0.00000000000E+00 0. -1.
        -12    1    5    5    0    0 -0.31117406307E+02 -0.14109971530E+03  0.13173402619E+04  0.13252406530E+04  0.00000000000E+00 0.  1.
          5    1    4    4  501    0 -0.66242381486E+01  0.12104503191E+03  0.48676807312E+02  0.13070074311E+03  0.41800000000E+01 0.  1.
         -5    1    4    4    0  501  0.75810811534E+01  0.77014741304E+02  0.18315186331E+03  0.19887388115E+03  0.41800000000E+01 0.  1.
</event>
<event>
11    1  0.7577197E-009  0.1812560E+03  0.7561462E-02  0.1068631E+00
         22   -1    0    0    0    0  0.00000000000E+00  0.00000000000E+00  0.14559604478E+04  0.14559604478E+04  0.00000000000E+00 0.  1.
         22   -1    0    0    0    0 -0.00000000000E+00 -0.00000000000E+00 -0.38986640549E+03  0.38986640549E+03  0.00000000000E+00 0.  1.
        -24    2    1    2    0    0  0.11707975513E+03 -0.56147201684E+02 -0.35128534913E+03  0.38264994747E+03  0.78481898971E+02 0.  0.
         25    2    1    2    0    0 -0.19286831761E+03  0.46412623366E+02  0.72579718377E+03  0.76274588578E+03  0.12508962692E+03 0.  0.
         24    2    1    2    0    0  0.75788562482E+02  0.97345783184E+01  0.69158220762E+03  0.70043101999E+03  0.80492208668E+02 0.  0.
        -13    1    5    5    0    0  0.44295253582E+02 -0.33887707394E+02  0.29619099465E+03  0.30139600448E+03  0.00000000000E+00 0.  1.
         14    1    5    5    0    0  0.31493308900E+02  0.43622285713E+02  0.39539121297E+03  0.39903501552E+03  0.00000000000E+00 0. -1.
         11    1    3    3    0    0  0.16167171625E+02 -0.39531908326E+02 -0.57887000407E+02  0.71937848386E+02  0.00000000000E+00 0. -1.
        -12    1    3    3    0    0  0.10091258351E+03 -0.16615293358E+02 -0.29339834872E+03  0.31071209908E+03  0.00000000000E+00 0.  1.
          5    1    4    4  501    0 -0.23138190757E+02  0.19926599106E+02  0.20978735856E+02  0.37283038792E+02  0.41800000000E+01 0. -1.
         -5    1    4    4    0  501 -0.16973012686E+03  0.26486024259E+02  0.70481844791E+03  0.72546284699E+03  0.41800000000E+01 0. -1.
</event>
<event>
11    1  0.7577197E-009  0.1679679E+03  0.7561462E-02  0.1079814E+00
         22   -1    0    0    0    0  0.00000000000E+00  0.00000000000E+00  0.10894045723E+04  0.10894045723E+04  0.00000000000E+00 0. -1.
         22   -1    0    0    0    0 -0.00000000000E+00 -0.00000000000E+00 -0.48745441918E+03  0.48745441918E+03  0.00000000000E+00 0. -1.
         24    2    1    2    0    0 -0.10021286009E+03 -0.47773353559E+02 -0.39380382127E+03  0.41702872658E+03  0.80663489316E+02 0.  0.
         25    2    1    2    0    0  0.66817410266E+02  0.13965249813E+03  0.49611720261E+02  0.20512445248E+03  0.12508929477E+03 0.  0.
        -24    2    1    2    0    0  0.33395449823E+02 -0.91879144574E+02  0.94614225416E+03  0.95470581246E+03  0.81981644071E+02 0.  0.
        -13    1    3    3    0    0 -0.36160465386E+02 -0.38584368745E+02 -0.75268755975E+02  0.91987599134E+02  0.00000000000E+00 0.  1.
         14    1    3    3    0    0 -0.64052394703E+02 -0.91889848141E+01 -0.31853506529E+03  0.32504112744E+03  0.00000000000E+00 0. -1.
         11    1    5    5    0    0  0.24142289563E+02 -0.62919395035E+01  0.48216127435E+03  0.48280631016E+03  0.00000000000E+00 0. -1.
        -12    1    5    5    0    0  0.92531602599E+01 -0.85587205071E+02  0.46398097981E+03  0.47189950230E+03  0.00000000000E+00 0.  1.
          5    1    4    4  501    0 -0.63676473548E+01  0.94692945364E+02 -0.16798622613E+02  0.96472622833E+02  0.41800000000E+01 0. -1.
         -5    1    4    4    0  501  0.73185057620E+02  0.44959552770E+02  0.66410342873E+02  0.10865182964E+03  0.41800000000E+01 0. -1.
</event>
<event>
11    1  0.7577197E-009  0.1673510E+03  0.7561462E-02  0.1080360E+00
         22   -1    0    0    0    0  0.00000000000E+00  0.00000000000E+00  0.40628561538E+04  0.40628561538E+04  0.00000000000E+00 0.  1.
         22   -1    0    0    0    0 -0.00000000000E+00 -0.00000000000E+00 -0.54171524743E+03  0.54171524743E+03  0.00000000000E+00 0. -1.
        -24    2    1    2    0    0 -0.10313720741E+03  0.47054317704E+02 -0.46749435013E+03  0.48758814897E+03  0.79623132591E+02 0.  0.
         25    2    1    2    0    0  0.77595776467E+02 -0.48112291000E+02  0.30336525833E+02  0.15780958282E+03  0.12509061739E+03 0.  0.
         24    2    1    2    0    0  0.25541430947E+02  0.10579732954E+01  0.39582987307E+04  0.39591736694E+04  0.79207446631E+02 0.  0.
        -11    1    5    5    0    0 -0.13945434534E+02  0.30744111454E+02  0.16873092012E+04  0.16876468872E+04  0.00000000000E+00 0.  1.
         12    1    5    5    0    0  0.39486865480E+02 -0.29686138158E+02  0.22709895295E+04  0.22715267823E+04  0.00000000000E+00 0. -1.
         11    1    3    3    0    0  0.19002869598E+01  0.17018484404E+02 -0.16654939567E+03  0.16742742039E+03  0.00000000000E+00 0. -1.
        -12    1    3    3    0    0 -0.10503749437E+03  0.30035833300E+02 -0.30094495446E+03  0.32016072858E+03  0.00000000000E+00 0.  1.
          5    1    4    4  501    0  0.73690768252E+02 -0.49054488143E+02 -0.32732113951E+02  0.94475053936E+02  0.41800000000E+01 0.  1.
         -5    1    4    4    0  501  0.39050082155E+01  0.94219714329E+00  0.63068639785E+02  0.63334528883E+02  0.41800000000E+01 0.  1.
</event>
<event>
11    1  0.7577197E-009  0.1990379E+03  0.7561462E-02  0.1055206E+00
         22   -1    0    0    0    0  0.00000000000E+00  0.00000000000E+00  0.51434233621E+03  0.51434233621E+03  0.00000000000E+00 0.  1.
         22   -1    0    0    0    0 -0.00000000000E+00 -0.00000000000E+00 -0.41676227122E+03  0.41676227122E+03  0.00000000000E+00 0.  1.
        -24    2    1    2    0    0 -0.57811799782E+02 -0.94526881928E+02 -0.31306348979E+03  0.34106474525E+03  0.77710206629E+02 0.  0.
         25    2    1    2    0    0  0.65466715949E+02 -0.83831958654E+02  0.36855900404E+02  0.16828364890E+03  0.12508933169E+03 0.  0.
         24    2    1    2    0    0 -0.76549161675E+01  0.17835884058E+03  0.37378765438E+03  0.42175621329E+03  0.79313423375E+02 0.  0.
        -13    1    5    5    0    0  0.36626986531E+01  0.33902798890E+02  0.15931745673E+03  0.16292595604E+03  0.00000000000E+00 0.  1.
         14    1    5    5    0    0 -0.11317614821E+02  0.14445604169E+03  0.21447019765E+03  0.25883025725E+03  0.00000000000E+00 0. -1.
         11    1    3    3    0    0  0.16568745663E+01 -0.59737330887E+02 -0.93689810123E+02  0.11112638956E+03  0.00000000000E+00 0. -1.
        -12    1    3    3    0    0 -0.59468674348E+02 -0.34789551041E+02 -0.21937367966E+03  0.22993835570E+03  0.00000000000E+00 0.  1.
          5    1    4    4  501    0  0.26059646217E+02 -0.66345597670E+02  0.79943319628E+02  0.10718792023E+03  0.41800000000E+01 0.  1.
         -5    1    4    4    0  501  0.39407069732E+02 -0.17486360984E+02 -0.43087419224E+02  0.61095728662E+02  0.41800000000E+01 0.  1.
</event>
<event>
11    1  0.7577197E-009  0.2749594E+03  0.7561462E-02  0.1011384E+00
         22   -1    0    0    0    0  0.00000000000E+00  0.00000000000E+00  0.61723445545E+03  0.61723445545E+03  0.00000000000E+00 0.  1.
         22   -1    0    0    0    0 -0.00000000000E+00 -0.00000000000E+00 -0.40765892388E+03  0.40765892388E+03  0.00000000000E+00 0. -1.
         24    2    1    2    0    0  0.32726411706E+02  0.25095076002E+03 -0.28450119810E+03  0.39004595779E+03  0.84543571561E+02 0.  0.
         25    2    1    2    0    0 -0.20799003092E+02 -0.20775686842E+03  0.16813072297E+03  0.29582472922E+03  0.12509522576E+03 0.  0.
        -24    2    1    2    0    0 -0.11927408614E+02 -0.43193891597E+02  0.32594600670E+03  0.33902269232E+03  0.81777816523E+02 0.  0.
        -13    1    3    3    0    0 -0.28865430223E+02  0.78963971005E+02 -0.85649225007E+02  0.12001796334E+03  0.00000000000E+00 0.  1.
         14    1    3    3    0    0  0.61591841928E+02  0.17198678901E+03 -0.19885197309E+03  0.27002799446E+03  0.00000000000E+00 0. -1.
         13    1    5    5    0    0 -0.38287581363E+02 -0.52655560741E+02  0.23620511391E+03  0.24501306659E+03  0.00000000000E+00 0. -1.
        -14    1    5    5    0    0  0.26360172749E+02  0.94616691443E+01  0.89740892791E+02  0.94009625727E+02  0.00000000000E+00 0.  1.
          5    1    4    4  501    0  0.41644459530E+02 -0.14431305297E+03  0.13076307809E+03  0.19919079612E+03  0.41800000000E+01 0. -1.
         -5    1    4    4    0  501 -0.62443462621E+02 -0.63443815448E+02  0.37367644874E+02  0.96633933099E+02  0.41800000000E+01 0. -1.
</event>
<event>
11    1  0.7577197E-009  0.1283746E+03  0.7561462E-02  0.1121282E+00
         22   -1    0    0    0    0  0.00000000000E+00  0.00000000000E+00  0.71683616719E+03  0.71683616719E+03  0.00000000000E+00 0. -1.
         22   -1    0    0    0    0 -0.00000000000E+00 -0.00000000000E+00 -0.46645108251E+03  0.46645108251E+03  0.00000000000E+00 0. -1.
        -24    2    1    2    0    0  0.21669246173E+02 -0.18251106558E+02 -0.39714107830E+03  0.40641922663E+03  0.81565265771E+02 0.  0.
         25    2    1    2    0    0 -0.16719107462E+02  0.36731964504E+02  0.78101606974E+01  0.13167011339E+03  0.12508898585E+03 0.  0.
         24    2    1    2    0    0 -0.49501387112E+01 -0.18480857945E+02  0.63971600228E+03  0.64519790968E+03  0.81717397766E+02 0.  0.
        -13    1    5    5    0    0 -0.32089242752E+02 -0.31470710673E+01  0.11164494191E+03  0.11620764437E+03  0.00000000000E+00 0.  1.
         14    1    5    5    0    0  0.27139104040E+02 -0.15333786878E+02  0.52807106038E+03  0.52899026531E+03  0.00000000000E+00 0. -1.
         11    1    3    3    0    0  0.20788362476E+02 -0.47642215999E+01 -0.39098740626E+03  0.39156864746E+03  0.00000000000E+00 0. -1.
        -12    1    3    3    0    0  0.88088369716E+00 -0.13486884958E+02 -0.61536720381E+01  0.14850579165E+02  0.00000000000E+00 0.  1.
          5    1    4    4  501    0  0.15804405344E+02  0.66061600363E+02  0.38348967525E+02  0.78115491300E+02  0.41800000000E+01 0. -1.
         -5    1    4    4    0  501 -0.32523512807E+02 -0.29329635859E+02 -0.30538806828E+02  0.53554622092E+02  0.41800000000E+01 0. -1.
</event>
<event>
11    1  0.7577197E-009  0.2432927E+03  0.7561462E-02  0.1027534E+00
         22   -1    0    0    0    0  0.00000000000E+00  0.00000000000E+00  0.13139460225E+04  0.13139460225E+04  0.00000000000E+00 0.  1.
         22   -1    0    0    0    0 -0.00000000000E+00 -0.00000000000E+00 -0.63904249802E+02  0.63904249802E+02  0.00000000000E+00 0.  1.
        -24    2    1    2    0    0  0.17611689813E+02  0.13950417324E+02  0.19764726978E+03  0.21442143545E+03  0.80045755442E+02 0.  0.
         25    2    1    2    0    0 -0.20799904114E+03 -0.58189463025E+02  0.35266595669E+03  0.43205427288E+03  0.12509197808E+03 0.  0.
         24    2    1    2    0    0  0.19038735133E+03  0.44239045701E+02  0.69972854621E+03  0.73137456396E+03  0.84168151478E+02 0.  0.
        -11    1    5    5    0    0  0.17096437597E+03  0.65906291018E+02  0.61969263614E+03  0.64621313847E+03  0.00000000000E+00 0.  1.
         12    1    5    5    0    0  0.19422975358E+02 -0.21667245317E+02  0.80035910074E+02  0.85161425497E+02  0.00000000000E+00 0. -1.
         11    1    3    3    0    0 -0.10802170454E+02  0.25853517906E+02  0.17219806914E+03  0.17446279342E+03  0.00000000000E+00 0. -1.
        -12    1    3    3    0    0  0.28413860267E+02 -0.11903100581E+02  0.25449200646E+02  0.39958642022E+02  0.00000000000E+00 0.  1.
          5    1    4    4  501    0 -0.14868707661E+03  0.20878844582E+02  0.19964996311E+03  0.24984265663E+03  0.41800000000E+01 0. -1.
         -5    1    4    4    0  501 -0.59311964532E+02 -0.79068307607E+02  0.15301599358E+03  0.18221161625E+03  0.41800000000E+01 0. -1.
</event>
<event>
11    1  0.7577197E-009  0.1369889E+03  0.7561462E-02  0.1110968E+00
         22   -1    0    0    0    0  0.00000000000E+00  0.00000000000E+00  0.26420476119E+04  0.26420476119E+04  0.00000000000E+00 0.  1.
         22   -1    0    0    0    0 -0.00000000000E+00 -0.00000000000E+00 -0.30567433487E+02  0.30567433487E+02  0.00000000000E+00 0. -1.
         24    2    1    2    0    0  0.24852898812E+02 -0.15658806976E+02  0.10135631647E+03  0.13426301461E+03  0.83009574080E+02 0.  0.
         25    2    1    2    0    0 -0.25395728433E+02 -0.42054712541E+02  0.35500083803E+03  0.37959068468E+03  0.12509976428E+03 0.  0.
        -24    2    1    2    0    0  0.54282962130E+00  0.57713519516E+02  0.21551230239E+04  0.21587613461E+04  0.11119422741E+03 0.  0.
        -13    1    3    3    0    0 -0.13677610411E+02 -0.31048249200E+02  0.12427972019E+02  0.36132053546E+02  0.00000000000E+00 0.  1.
         14    1    3    3    0    0  0.38530509223E+02  0.15389442224E+02  0.88928344448E+02  0.98130961063E+02  0.00000000000E+00 0. -1.
         13    1    5    5    0    0  0.14157171262E+02 -0.30668629241E+02  0.78227388901E+03  0.78300282742E+03  0.00000000000E+00 0. -1.
        -14    1    5    5    0    0 -0.13614341641E+02  0.88382148757E+02  0.13728491349E+04  0.13757585187E+04  0.00000000000E+00 0.  1.
          5    1    4    4  501    0 -0.44417709522E+02 -0.16951679645E+02  0.34191402373E+03  0.34522885799E+03  0.41800000000E+01 0.  1.
         -5    1    4    4    0  501  0.19021981089E+02 -0.25103032895E+02  0.13086814300E+02  0.34361826692E+02  0.41800000000E+01 0.  1.
</event>
<event>
11    1  0.7577197E-009  0.1783818E+03  0.7561462E-02  0.1070959E+00
         22   -1    0    0    0    0  0.00000000000E+00  0.00000000000E+00  0.21895400186E+04  0.21895400186E+04  0.00000000000E+00 0. -1.
         22   -1    0    0    0    0 -0.00000000000E+00 -0.00000000000E+00 -0.94528681177E+03  0.94528681177E+03  0.00000000000E+00 0.  1.
         24    2    1    2    0    0  0.23641484092E+02  0.12377279375E+03 -0.89588919732E+03  0.90817320745E+03  0.79262201673E+02 0.  0.
         25    2    1    2    0    0 -0.79161815413E+01 -0.18533406812E+03  0.25675493849E+03  0.34056155316E+03  0.12509072836E+03 0.  0.
        -24    2    1    2    0    0 -0.15725302550E+02  0.61561274373E+02  0.18833874657E+04  0.18860920698E+04  0.78472123082E+02 0.  0.
        -11    1    3    3    0    0  0.50479594505E+02  0.55805790925E+02 -0.49320364136E+03  0.49891112196E+03  0.00000000000E+00 0.  1.
         12    1    3    3    0    0 -0.26838110413E+02  0.67967002822E+02 -0.40268555596E+03  0.40926208549E+03  0.00000000000E+00 0. -1.
         13    1    5    5    0    0 -0.12144276732E+02  0.54663392406E+02  0.18681309203E+04  0.18689699584E+04  0.00000000000E+00 0. -1.
        -14    1    5    5    0    0 -0.35810258180E+01  0.68978819669E+01  0.15256545398E+02  0.17122111407E+02  0.00000000000E+00 0.  1.
          5    1    4    4  501    0 -0.39501765791E+02 -0.48888455122E+02  0.15524827197E+03  0.16754094692E+03  0.41800000000E+01 0.  1.
         -5    1    4    4    0  501  0.31585584249E+02 -0.13644561300E+03  0.10150666652E+03  0.17302060625E+03  0.41800000000E+01 0.  1.
</event>
<event>
11    1  0.7577197E-009  0.1774739E+03  0.7561462E-02  0.1071705E+00
         22   -1    0    0    0    0  0.00000000000E+00  0.00000000000E+00  0.13776436755E+04  0.13776436755E+04  0.00000000000E+00 0. -1.
         22   -1    0    0    0    0 -0.00000000000E+00 -0.00000000000E+00 -0.27805513110E+03  0.27805513110E+03  0.00000000000E+00 0. -1.
         24    2    1    2    0    0 -0.49067554412E+02  0.11536532713E+03 -0.20657135892E+03  0.25470254882E+03  0.80528743018E+02 0.  0.
         25    2    1    2    0    0 -0.10881609413E+02 -0.14421396274E+03  0.15781001684E+03  0.24792842170E+03  0.12509366251E+03 0.  0.
        -24    2    1    2    0    0  0.59949163824E+02  0.28848635609E+02  0.11483498865E+04  0.11530678361E+04  0.80198670780E+02 0.  0.
        -11    1    3    3    0    0 -0.69539313274E+02  0.74499576978E+02 -0.12584414086E+03  0.16193409416E+03  0.00000000000E+00 0.  1.
         12    1    3    3    0    0  0.20471758863E+02  0.40865750151E+02 -0.80727218054E+02  0.92768454666E+02  0.00000000000E+00 0. -1.
         13    1    5    5    0    0 -0.69792106440E+00  0.35681770118E+02  0.65264405223E+03  0.65361910523E+03  0.00000000000E+00 0. -1.
        -14    1    5    5    0    0  0.60647084888E+02 -0.68331345089E+01  0.49570583426E+03  0.49944873086E+03  0.00000000000E+00 0.  1.
          5    1    4    4  501    0 -0.42251299735E+02 -0.12283180906E+03  0.60427542641E+02  0.14332405923E+03  0.41800000000E+01 0. -1.
         -5    1    4    4    0  501  0.31369690323E+02 -0.21382153682E+02  0.97382474194E+02  0.10460436247E+03  0.41800000000E+01 0. -1.
</event>
<event>
11    1  0.7577197E-009  0.1334562E+03  0.7561462E-02  0.1115094E+00
         22   -1    0    0    0    0  0.00000000000E+00  0.00000000000E+00  0.13502685105E+04  0.13502685105E+04  0.00000000000E+00 0.  1.
         22   -1    0    0    0    0 -0.00000000000E+00 -0.00000000000E+00 -0.49605194195E+03  0.49605194195E+03  0.00000000000E+00 0.  1.
        -24    2    1    2    0    0 -0.36553558931E+02 -0.18517333189E+02 -0.47107207600E+03  0.47978713528E+03  0.81288007108E+02 0.  0.
         25    2    1    2    0    0  0.58985580841E+02 -0.21882983058E+02  0.24374352851E+03  0.28109739580E+03  0.12508666810E+03 0.  0.
         24    2    1    2    0    0 -0.22432021911E+02  0.40400316247E+02  0.10815451160E+04  0.10854359213E+04  0.79346835043E+02 0.  0.
        -11    1    5    5    0    0 -0.81846469554E+01 -0.21171117305E+02  0.48978563924E+03  0.49031130627E+03  0.00000000000E+00 0.  1.
         12    1    5    5    0    0 -0.14247374955E+02  0.61571433551E+02  0.59175947676E+03  0.59512461507E+03  0.00000000000E+00 0. -1.
         11    1    3    3    0    0  0.69030699792E+01  0.73459572856E+01 -0.55129321847E+01  0.11489468432E+02  0.00000000000E+00 0. -1.
        -12    1    3    3    0    0 -0.43456628910E+02 -0.25863290474E+02 -0.46555914381E+03  0.46829766685E+03  0.00000000000E+00 0.  1.
          5    1    4    4  501    0  0.21996440786E+02 -0.38361257345E+02  0.23538532533E+03  0.23953946074E+03  0.41800000000E+01 0. -1.
         -5    1    4    4    0  501  0.36989140056E+02  0.16478274287E+02  0.83582031841E+01  0.41557935055E+02  0.41800000000E+01 0. -1.
</event>
<event>
11    1  0.8547124E-009  0.1655323E+03  0.7561462E-02  0.1081986E+00
         22   -1    0    0    0    0  0.00000000000E+00  0.00000000000E+00  0.20725813071E+04  0.20725813071E+04  0.00000000000E+00 0.  1.
         22   -1    0    0    0    0 -0.00000000000E+00 -0.00000000000E+00 -0.35542861659E+03  0.35542861659E+03  0.00000000000E+00 0. -1.
         24    2    1    2    0    0  0.19056653373E+02  0.90090527042E+02 -0.18311764670E+03  0.22052001066E+03  0.81348284982E+02 0.  0.
         25    2    1    2    0    0 -0.12627993411E+03 -0.74744513668E+02 -0.89893861403E+02  0.21274699620E+03  0.12508802498E+03 0.  0.
        -24    2    1    2    0    0  0.10722328074E+03 -0.15346013374E+02  0.19901641986E+04  0.19947429168E+04  0.80705853063E+02 0.  0.
        -13    1    3    3    0    0 -0.26392719140E+02  0.68004842872E+01 -0.31433310075E+02  0.41603788198E+02  0.00000000000E+00 0.  1.
         14    1    3    3    0    0  0.45449372513E+02  0.83290042754E+02 -0.15168433662E+03  0.17891622246E+03  0.00000000000E+00 0. -1.
         13    1    5    5    0    0  0.49697785356E+02  0.22955315794E+02  0.12938321847E+04  0.12949897831E+04  0.00000000000E+00 0. -1.
        -14    1    5    5    0    0  0.57525495379E+02 -0.38301329168E+02  0.69633201396E+03  0.69975313369E+03  0.00000000000E+00 0.  1.
          5    1    4    4  501    0 -0.12159797074E+03 -0.37141260146E+02 -0.14210084397E+02  0.12800366633E+03  0.41800000000E+01 0. -1.
         -5    1    4    4    0  501 -0.46819633646E+01 -0.37603253522E+02 -0.75683777006E+02  0.84743329875E+02  0.41800000000E+01 0. -1.
</event>
<event>
11    1  0.7577197E-009  0.1530906E+03  0.7561462E-02  0.1093762E+00
         22   -1    0    0    0    0  0.00000000000E+00  0.00000000000E+00  0.49128552312E+03  0.49128552312E+03  0.00000000000E+00 0. -1.
         22   -1    0    0    0    0 -0.00000000000E+00 -0.00000000000E+00 -0.17163644008E+03  0.17163644008E+03  0.00000000000E+00 0.  1.
         24    2    1    2    0    0  0.40434555528E+02  0.12401069111E+02 -0.47149993973E+02  0.10156635748E+03  0.79396871754E+02 0.  0.
         25    2    1    2    0    0  0.11684689528E+02 -0.85081739774E+02 -0.22885023965E+02  0.15345097880E+03  0.12509214268E+03 0.  0.
        -24    2    1    2    0    0 -0.52119245056E+02  0.72680670663E+02  0.38968410098E+03  0.40790462693E+03  0.80830628589E+02 0.  0.
        -13    1    3    3    0    0  0.19193583426E+02 -0.87852466335E+01 -0.63837499798E+02  0.67236898974E+02  0.00000000000E+00 0.  1.
         14    1    3    3    0    0  0.21240972102E+02  0.21186315745E+02  0.16687505825E+02  0.34329458506E+02  0.00000000000E+00 0. -1.
         11    1    5    5    0    0 -0.32164848490E+02 -0.89899522993E+01  0.15659542559E+03  0.16011721967E+03  0.00000000000E+00 0. -1.
        -12    1    5    5    0    0 -0.19954396566E+02  0.81670622962E+02  0.23308867540E+03  0.24778740726E+03  0.00000000000E+00 0.  1.
          5    1    4    4  501    0 -0.56791934757E+02 -0.38971344047E+02 -0.80800637957E+01  0.69475530521E+02  0.41800000000E+01 0. -1.
         -5    1    4    4    0  501  0.68476624285E+02 -0.46110395727E+02 -0.14804960170E+02  0.83975448276E+02  0.41800000000E+01 0. -1.
</event>
<event>
11    1  0.7577197E-009  0.1901858E+03  0.7561462E-02  0.1061689E+00
         22   -1    0    0    0    0  0.00000000000E+00  0.00000000000E+00  0.88621662568E+03  0.88621662568E+03  0.00000000000E+00 0. -1.
         22   -1    0    0    0    0 -0.00000000000E+00 -0.00000000000E+00 -0.84936914042E+03  0.84936914042E+03  0.00000000000E+00 0.  1.
         24    2    1    2    0    0  0.48382231234E+02  0.51450508262E+02 -0.75777742902E+03  0.76541439527E+03  0.81514228508E+02 0.  0.
         25    2    1    2    0    0  0.69043090533E+02  0.42288004599E+02 -0.87118938762E+01  0.14926197180E+03  0.12509202792E+03 0.  0.
        -24    2    1    2    0    0 -0.11742532177E+03 -0.93738512861E+02  0.80333680815E+03  0.82090939903E+03  0.77243764110E+02 0.  0.
        -11    1    3    3    0    0  0.66426665685E+02  0.57472164701E+02 -0.65831406870E+03  0.66414830022E+03  0.00000000000E+00 0.  1.
         12    1    3    3    0    0 -0.18044434451E+02 -0.60216564389E+01 -0.99463360315E+02  0.10126609505E+03  0.00000000000E+00 0. -1.
         13    1    5    5    0    0 -0.31505800789E+01 -0.43297015186E+02  0.23940218210E+03  0.24330631409E+03  0.00000000000E+00 0. -1.
        -14    1    5    5    0    0 -0.11427474169E+03 -0.50441497675E+02  0.56393462605E+03  0.57760308494E+03  0.00000000000E+00 0.  1.
          5    1    4    4  501    0  0.70870339866E+02  0.17870849858E+02 -0.58441258292E+02  0.93674038122E+02  0.41800000000E+01 0.  1.
         -5    1    4    4    0  501 -0.18272493330E+01  0.24417154741E+02  0.49729364416E+02  0.55587933682E+02  0.41800000000E+01 0.  1.
</event>
<event>
11    1  0.7577197E-009  0.2078492E+03  0.7561462E-02  0.1049108E+00
         22   -1    0    0    0    0  0.00000000000E+00  0.00000000000E+00  0.27534053671E+03  0.27534053671E+03  0.00000000000E+00 0. -1.
         22   -1    0    0    0    0 -0.00000000000E+00 -0.00000000000E+00 -0.21158945039E+04  0.21158945039E+04  0.00000000000E+00 0.  1.
         24    2    1    2    0    0 -0.11283197255E+03  0.11627484318E+03 -0.14804117778E+04  0.14913874932E+04  0.79791790695E+02 0.  0.
         25    2    1    2    0    0  0.10310485388E+03 -0.15016289655E+03 -0.60280499912E+03  0.64202901319E+03  0.12509148817E+03 0.  0.
        -24    2    1    2    0    0  0.97271186745E+01  0.33888053365E+02  0.24266280976E+03  0.25781853419E+03  0.79637556038E+02 0.  0.
        -11    1    3    3    0    0 -0.10405783805E+03  0.56335463558E+02 -0.10712887767E+04  0.10778039531E+04  0.00000000000E+00 0.  1.
         12    1    3    3    0    0 -0.87741345043E+01  0.59939379623E+02 -0.40912300111E+03  0.41358354018E+03  0.00000000000E+00 0. -1.
         11    1    5    5    0    0  0.18598426057E+02  0.22461560624E+02  0.24155636106E+03  0.24331029309E+03  0.00000000000E+00 0. -1.
        -12    1    5    5    0    0 -0.88713073825E+01  0.11426492741E+02  0.11064487058E+01  0.14508241099E+02  0.00000000000E+00 0.  1.
          5    1    4    4  501    0  0.95215610419E+02 -0.78152465418E+02 -0.50745697662E+03  0.52221056658E+03  0.41800000000E+01 0.  1.
         -5    1    4    4    0  501  0.78892434594E+01 -0.72010431128E+02 -0.95348022499E+02  0.11981844661E+03  0.41800000000E+01 0.  1.
</event>
<event>
11    1  0.7577197E-009  0.1712470E+03  0.7561462E-02  0.1076952E+00
         22   -1    0    0    0    0  0.00000000000E+00  0.00000000000E+00  0.15078262527E+04  0.15078262527E+04  0.00000000000E+00 0.  1.
         22   -1    0    0    0    0 -0.00000000000E+00 -0.00000000000E+00 -0.58965002195E+03  0.58965002195E+03  0.00000000000E+00 0. -1.
        -24    2    1    2    0    0  0.33020274575E+02  0.63308617252E+02 -0.49252567437E+03  0.50413729835E+03  0.80464626579E+02 0.  0.
         25    2    1    2    0    0 -0.72752729537E+02 -0.17042927661E+03  0.54385994417E+02  0.23010550584E+03  0.12510639252E+03 0.  0.
         24    2    1    2    0    0  0.39732454962E+02  0.10712065936E+03  0.13563159107E+04  0.13632334705E+04  0.75889009253E+02 0.  0.
        -13    1    5    5    0    0  0.27396547932E+02  0.11349347259E+03  0.10252269726E+04  0.10318535189E+04  0.00000000000E+00 0.  1.
         14    1    5    5    0    0  0.12335907030E+02 -0.63728132333E+01  0.33108893813E+03  0.33137995157E+03  0.00000000000E+00 0. -1.
         11    1    3    3    0    0 -0.15428360637E+02  0.42062373465E+02 -0.33460552318E+03  0.33759166713E+03  0.00000000000E+00 0. -1.
        -12    1    3    3    0    0  0.48448635212E+02  0.21246243788E+02 -0.15792015118E+03  0.16654563122E+03  0.00000000000E+00 0.  1.
          5    1    4    4  501    0 -0.43081835876E+02 -0.33014094566E+01  0.41122943869E+02  0.59795591805E+02  0.41800000000E+01 0. -1.
         -5    1    4    4    0  501 -0.29670893661E+02 -0.16712786715E+03  0.13263050547E+02  0.17030991404E+03  0.41800000000E+01 0. -1.
</event>
<event>
11    1  0.7577197E-009  0.1287024E+03  0.7561462E-02  0.1120874E+00
         22   -1    0    0    0    0  0.00000000000E+00  0.00000000000E+00  0.21121877448E+03  0.21121877448E+03  0.00000000000E+00 0. -1.
         22   -1    0    0    0    0 -0.00000000000E+00 -0.00000000000E+00 -0.24554521137E+03  0.24554521137E+03  0.00000000000E+00 0.  1.
         24    2    1    2    0    0  0.20045081325E+02  0.16327250948E+02 -0.16658722049E+03  0.18508014899E+03  0.76387008776E+02 0.  0.
         25    2    1    2    0    0 -0.19692478453E+02  0.17390884919E+02  0.22195656364E+02  0.12973142704E+03  0.12508940569E+03 0.  0.
        -24    2    1    2    0    0 -0.35260287220E+00 -0.33718135867E+02  0.11006512724E+03  0.14195240982E+03  0.83060925856E+02 0.  0.
        -11    1    3    3    0    0  0.22764565932E+02  0.34740110251E+02 -0.16005227661E+03  0.16535365726E+03  0.00000000000E+00 0.  1.
         12    1    3    3    0    0 -0.27194846066E+01 -0.18412859303E+02 -0.65349438804E+01  0.19726491724E+02  0.00000000000E+00 0. -1.
         13    1    5    5    0    0 -0.18072672608E+02  0.23249037740E+02  0.43905607689E+02  0.52866261808E+02  0.00000000000E+00 0. -1.
        -14    1    5    5    0    0  0.17720069735E+02 -0.56967173608E+02  0.66159519549E+02  0.89086148010E+02  0.00000000000E+00 0.  1.
          5    1    4    4  501    0 -0.72113106783E+02  0.20247395785E+02  0.15980543865E+02  0.76701417120E+02  0.41800000000E+01 0.  1.
         -5    1    4    4    0  501  0.52420628330E+02 -0.28565108654E+01  0.62151124992E+01  0.53030009921E+02  0.41800000000E+01 0.  1.
</event>
<event>
11    1  0.7577197E-009  0.1775866E+03  0.7561462E-02  0.1071612E+00
         22   -1    0    0    0    0  0.00000000000E+00  0.00000000000E+00  0.30622944424E+03  0.30622944424E+03  0.00000000000E+00 0. -1.
         22   -1    0    0    0    0 -0.00000000000E+00 -0.00000000000E+00 -0.53117458175E+03  0.53117458175E+03  0.00000000000E+00 0.  1.
        -24    2    1    2    0    0  0.10280840265E+03  0.60817097452E+02 -0.35401307160E+03  0.38236042621E+03  0.81277018050E+02 0.  0.
         25    2    1    2    0    0 -0.15231758245E+03 -0.50760625353E+02 -0.84308328010E+02  0.22030210517E+03  0.12509131210E+03 0.  0.
         24    2    1    2    0    0  0.49509179802E+02 -0.10056472099E+02  0.21337626210E+03  0.23474149461E+03  0.83796470990E+02 0.  0.
        -11    1    5    5    0    0 -0.42348739906E+01  0.19471874651E+02  0.99489307588E+01  0.22272612854E+02  0.00000000000E+00 0.  1.
         12    1    5    5    0    0  0.53744053793E+02 -0.29528346750E+02  0.20342733134E+03  0.21246888176E+03  0.00000000000E+00 0. -1.
         11    1    3    3    0    0  0.34328666297E+02 -0.11737175575E+02 -0.16157340064E+03  0.16559644445E+03  0.00000000000E+00 0. -1.
        -12    1    3    3    0    0  0.68479736352E+02  0.72554273028E+02 -0.19243967097E+03  0.21676398176E+03  0.00000000000E+00 0.  1.
          5    1    4    4  501    0 -0.73550491746E+02 -0.85857932685E+02 -0.69310702614E+02  0.13267518735E+03  0.41800000000E+01 0. -1.
         -5    1    4    4    0  501 -0.78767090705E+02  0.35097307331E+02 -0.14997625396E+02  0.87626917825E+02  0.41800000000E+01 0. -1.
</event>
<event>
11    1  0.7577197E-009  0.1885957E+03  0.7561462E-02  0.1062895E+00
         22   -1    0    0    0    0  0.00000000000E+00  0.00000000000E+00  0.11867898445E+04  0.11867898445E+04  0.00000000000E+00 0.  1.
         22   -1    0    0    0    0 -0.00000000000E+00 -0.00000000000E+00 -0.47137693908E+03  0.47137693908E+03  0.00000000000E+00 0.  1.
         24    2    1    2    0    0 -0.11343842500E+03 -0.80159236917E+02 -0.38685955835E+03  0.41872930593E+03  0.79875742427E+02 0.  0.
         25    2    1    2    0    0  0.70196830075E+02  0.19721830891E+03  0.17493171814E+03  0.30012282681E+03  0.12509975557E+03 0.  0.
        -24    2    1    2    0    0  0.43241594925E+02 -0.11705907199E+03  0.92734074567E+03  0.93931465086E+03  0.82331603137E+02 0.  0.
        -13    1    3    3    0    0 -0.86111152354E+02 -0.71645435147E+02 -0.19614161618E+03  0.22587548015E+03  0.00000000000E+00 0.  1.
         14    1    3    3    0    0 -0.27327272646E+02 -0.85138017706E+01 -0.19071794217E+03  0.19285382578E+03  0.00000000000E+00 0. -1.
         11    1    5    5    0    0  0.53748766361E+02 -0.36487872806E+02  0.31691811543E+03  0.32350793906E+03  0.00000000000E+00 0. -1.
        -12    1    5    5    0    0 -0.10507171436E+02 -0.80571199186E+02  0.61042263024E+03  0.61580671180E+03  0.00000000000E+00 0.  1.
          5    1    4    4  501    0  0.10438861955E+03  0.12002777228E+03  0.10818218349E+03  0.19241753359E+03  0.41800000000E+01 0. -1.
         -5    1    4    4    0  501 -0.34191789471E+02  0.77190536630E+02  0.66749534644E+02  0.10770529322E+03  0.41800000000E+01 0. -1.
</event>
<event>
11    1  0.7577197E-009  0.1322548E+03  0.7561462E-02  0.1116529E+00
         22   -1    0    0    0    0  0.00000000000E+00  0.00000000000E+00  0.25123583570E+04  0.25123583570E+04  0.00000000000E+00 0.  1.
         22   -1    0    0    0    0 -0.00000000000E+00 -0.00000000000E+00 -0.23483355364E+03  0.23483355364E+03  0.00000000000E+00 0.  1.
         24    2    1    2    0    0 -0.19123502766E+02 -0.42732087519E+02 -0.18679540750E+03  0.21006338243E+03  0.83918774513E+02 0.  0.
         25    2    1    2    0    0  0.15702128199E+02 -0.17204917503E+01  0.76394990302E+02  0.14743727070E+03  0.12510810257E+03 0.  0.
        -24    2    1    2    0    0  0.34213745665E+01  0.44452579270E+02  0.23879252206E+04  0.23896912575E+04  0.80310083883E+02 0.  0.
        -13    1    3    3    0    0  0.14898174307E+02 -0.56535084918E+02 -0.12841329325E+03  0.14109622712E+03  0.00000000000E+00 0.  1.
         14    1    3    3    0    0 -0.34021677073E+02  0.13802997399E+02 -0.58382114244E+02  0.68967155311E+02  0.00000000000E+00 0. -1.
         11    1    5    5    0    0 -0.25429098243E+02  0.38344028061E+02  0.70100186463E+03  0.70251015490E+03  0.00000000000E+00 0. -1.
        -12    1    5    5    0    0  0.28850472810E+02  0.61085512085E+01  0.16869233559E+04  0.16871811026E+04  0.00000000000E+00 0.  1.
          5    1    4    4  501    0  0.40024093689E+01 -0.61814381239E+02  0.53449710532E+02  0.81923018527E+02  0.41800000000E+01 0. -1.
         -5    1    4    4    0  501  0.11699718830E+02  0.60093889488E+02  0.22945279770E+02  0.65514252177E+02  0.41800000000E+01 0. -1.
</event>
<event>
11    1  0.2185020E-008  0.2019531E+03  0.7561462E-02  0.1053151E+00
         22   -1    0    0    0    0  0.00000000000E+00  0.00000000000E+00  0.10834111650E+04  0.10834111650E+04  0.00000000000E+00 0.  1.
         22   -1    0    0    0    0 -0.00000000000E+00 -0.00000000000E+00 -0.18889308405E+04  0.18889308405E+04  0.00000000000E+00 0. -1.
         24    2    1    2    0    0  0.97887017183E+02  0.42621945746E+02 -0.12678278146E+04  0.12748023868E+04  0.79594343079E+02 0.  0.
         25    2    1    2    0    0 -0.18757489074E+03  0.87809887399E+02 -0.58600478854E+03  0.63399057715E+03  0.12509006261E+03 0.  0.
        -24    2    1    2    0    0  0.89687873553E+02 -0.13043183315E+03  0.10483129277E+04  0.10635490415E+04  0.84381227039E+02 0.  0.
        -11    1    3    3    0    0 -0.10166753323E+02  0.16694742110E+02 -0.11692445270E+03  0.11854705786E+03  0.00000000000E+00 0.  1.
         12    1    3    3    0    0  0.10805377051E+03  0.25927203636E+02 -0.11509033619E+04  0.11562553290E+04  0.00000000000E+00 0. -1.
         13    1    5    5    0    0 -0.51695664274E+01 -0.41552234565E+02  0.41012420089E+03  0.41225619798E+03  0.00000000000E+00 0. -1.
        -14    1    5    5    0    0  0.94857439980E+02 -0.88879598581E+02  0.63818872683E+03  0.65129284352E+03  0.00000000000E+00 0.  1.
          5    1    4    4  501    0 -0.11198614650E+03 -0.16189704121E+02 -0.28310202849E+03  0.30490528769E+03  0.41800000000E+01 0.  1.
         -5    1    4    4    0  501 -0.75588744238E+02  0.10399959152E+03 -0.30290276004E+03  0.32908528945E+03  0.41800000000E+01 0.  1.
</event>
<event>
11    1  0.7577197E-009  0.1374963E+03  0.7561462E-02  0.1110387E+00
         22   -1    0    0    0    0  0.00000000000E+00  0.00000000000E+00  0.92272229264E+03  0.92272229264E+03  0.00000000000E+00 0. -1.
         22   -1    0    0    0    0 -0.00000000000E+00 -0.00000000000E+00 -0.47181754945E+03  0.47181754945E+03  0.00000000000E+00 0.  1.
         24    2    1    2    0    0 -0.48233114508E+02  0.30214404653E+02 -0.43421001153E+03  0.44498211446E+03  0.78939245578E+02 0.  0.
         25    2    1    2    0    0  0.70256647448E+02 -0.39527875796E+01  0.14414968549E+03  0.20341933578E+03  0.12509465737E+03 0.  0.
        -24    2    1    2    0    0 -0.22023532941E+02 -0.26261617074E+02  0.74096506923E+03  0.74613839185E+03  0.80737583771E+02 0.  0.
        -11    1    3    3    0    0 -0.65551255262E+02  0.15617606372E+02 -0.38443620300E+03  0.39029741335E+03  0.00000000000E+00 0.  1.
         12    1    3    3    0    0  0.17318140755E+02  0.14596798281E+02 -0.49773808536E+02  0.54684701110E+02  0.00000000000E+00 0. -1.
         13    1    5    5    0    0 -0.24849374668E+02 -0.54182679547E+02  0.51396678749E+03  0.51741193727E+03  0.00000000000E+00 0. -1.
        -14    1    5    5    0    0  0.28258417274E+01  0.27921062473E+02  0.22699828174E+03  0.22872645458E+03  0.00000000000E+00 0.  1.
          5    1    4    4  501    0 -0.17502595661E+02  0.11472498092E+02 -0.11334544247E+02  0.24164092382E+02  0.41800000000E+01 0.  1.
         -5    1    4    4    0  501  0.87759243109E+02 -0.15425285672E+02  0.15548422974E+03  0.17925524340E+03  0.41800000000E+01 0.  1.
</event>
<event>
11    1  0.7577197E-009  0.2141012E+03  0.7561462E-02  0.1044977E+00
         22   -1    0    0    0    0  0.00000000000E+00  0.00000000000E+00  0.20823630273E+04  0.20823630273E+04  0.00000000000E+00 0. -1.
         22   -1    0    0    0    0 -0.00000000000E+00 -0.00000000000E+00 -0.10173374728E+04  0.10173374728E+04  0.00000000000E+00 0.  1.
         24    2    1    2    0    0  0.93696677665E+02 -0.26730286413E+02 -0.99217122153E+03  0.10000508327E+04  0.78767757094E+02 0.  0.
         25    2    1    2    0    0 -0.14405441518E+03 -0.13345353639E+03  0.10789180932E+04  0.11037541290E+04  0.12508958603E+03 0.  0.
        -24    2    1    2    0    0  0.50357737519E+02  0.16018382280E+03  0.97827868286E+03  0.99589553840E+03  0.81141747825E+02 0.  0.
        -11    1    3    3    0    0  0.10794241266E+03 -0.22234383567E+02 -0.88845972708E+03  0.89526902041E+03  0.00000000000E+00 0.  1.
         12    1    3    3    0    0 -0.14245734997E+02 -0.44959028462E+01 -0.10371149445E+03  0.10478181230E+03  0.00000000000E+00 0. -1.
         11    1    5    5    0    0  0.49246753842E+02  0.16925189809E+03  0.90118358996E+03  0.91826102531E+03  0.00000000000E+00 0. -1.
        -12    1    5    5    0    0  0.11109836772E+01 -0.90680752892E+01  0.77095092897E+02  0.77634513092E+02  0.00000000000E+00 0.  1.
          5    1    4    4  501    0 -0.22293677242E+02 -0.56570810780E+02  0.12553998677E+03  0.13955294821E+03  0.41800000000E+01 0.  1.
         -5    1    4    4    0  501 -0.12176073794E+03 -0.76882725611E+02  0.95337810639E+03  0.96420118074E+03  0.41800000000E+01 0.  1.
</event>
<event>
11    1  0.7577197E-009  0.1594361E+03  0.7561462E-02  0.1087609E+00
         22   -1    0    0    0    0  0.00000000000E+00  0.00000000000E+00  0.23567417079E+03  0.23567417079E+03  0.00000000000E+00 0.  1.
         22   -1    0    0    0    0 -0.00000000000E+00 -0.00000000000E+00 -0.49350859232E+03  0.49350859232E+03  0.00000000000E+00 0.  1.
         24    2    1    2    0    0  0.69264788662E+02 -0.77742919639E+02 -0.36243533905E+03  0.38551524319E+03  0.80131487179E+02 0.  0.
         25    2    1    2    0    0 -0.83892202873E+02  0.20824475211E+02 -0.47833213328E+02  0.15939295237E+03  0.12508611632E+03 0.  0.
        -24    2    1    2    0    0  0.14627414211E+02  0.56918444427E+02  0.15243413084E+03  0.18427456755E+03  0.85248351520E+02 0.  0.
        -13    1    3    3    0    0  0.76143313684E+02 -0.89192220941E+02 -0.31107482328E+03  0.33244638992E+03  0.00000000000E+00 0.  1.
         14    1    3    3    0    0 -0.68785250225E+01  0.11449301302E+02 -0.51360515769E+02  0.53068853264E+02  0.00000000000E+00 0. -1.
         11    1    5    5    0    0  0.22846270579E+02 -0.17060901678E+02  0.33776397252E+02  0.44202618212E+02  0.00000000000E+00 0. -1.
        -12    1    5    5    0    0 -0.82188563676E+01  0.73979346106E+02  0.11865773359E+03  0.14007194934E+03  0.00000000000E+00 0.  1.
          5    1    4    4  501    0 -0.29160676189E+02  0.30816859772E+02  0.37940529944E+02  0.57069957898E+02  0.41800000000E+01 0.  1.
         -5    1    4    4    0  501 -0.54731526683E+02 -0.99923845612E+01 -0.85773743272E+02  0.10232299447E+03  0.41800000000E+01 0.  1.
</event>
<event>
11    1  0.7577197E-009  0.3284574E+03  0.7561462E-02  0.9888183E-01
         22   -1    0    0    0    0  0.00000000000E+00  0.00000000000E+00  0.32725772192E+03  0.32725772192E+03  0.00000000000E+00 0.  1.
         22   -1    0    0    0    0 -0.00000000000E+00 -0.00000000000E+00 -0.41549975281E+03  0.41549975281E+03  0.00000000000E+00 0.  1.
         24    2    1    2    0    0  0.11916901167E+03 -0.49450088706E+02 -0.18650194877E+03  0.23960885045E+03  0.77348947660E+02 0.  0.
         25    2    1    2    0    0  0.68293260710E+02 -0.88227790893E+02 -0.93089455329E+02  0.19173281685E+03  0.12509082228E+03 0.  0.
        -24    2    1    2    0    0 -0.18746227238E+03  0.13767787960E+03  0.19134937321E+03  0.31141580742E+03  0.79170198850E+02 0.  0.
        -13    1    3    3    0    0  0.12963035883E+03 -0.45071674281E+02 -0.18058312325E+03  0.22681655618E+03  0.00000000000E+00 0.  1.
         14    1    3    3    0    0 -0.10461347161E+02 -0.43784144256E+01 -0.59188255243E+01  0.12792294278E+02  0.00000000000E+00 0. -1.
         13    1    5    5    0    0 -0.74728969021E+01  0.39080214875E+02  0.39983801000E+02  0.56407550249E+02  0.00000000000E+00 0. -1.
        -14    1    5    5    0    0 -0.17998937548E+03  0.98597664725E+02  0.15136557221E+03  0.25500825717E+03  0.00000000000E+00 0.  1.
          5    1    4    4  501    0 -0.30063474383E+02  0.51578778922E+01 -0.26310142437E+02  0.40498298623E+02  0.41800000000E+01 0.  1.
         -5    1    4    4    0  501  0.98356735093E+02 -0.93385668785E+02 -0.66779312892E+02  0.15123451823E+03  0.41800000000E+01 0.  1.
</event>
<event>
11    1  0.7577197E-009  0.1757577E+03  0.7561462E-02  0.1073127E+00
         22   -1    0    0    0    0  0.00000000000E+00  0.00000000000E+00  0.51213509976E+03  0.51213509976E+03  0.00000000000E+00 0. -1.
         22   -1    0    0    0    0 -0.00000000000E+00 -0.00000000000E+00 -0.58813210002E+03  0.58813210002E+03  0.00000000000E+00 0. -1.
        -24    2    1    2    0    0  0.10878889144E+03 -0.56551500678E+02 -0.50417161424E+03  0.52613668688E+03  0.87164795354E+02 0.  0.
         25    2    1    2    0    0 -0.13909596061E+03  0.21836505764E+02  0.64916053149E+02  0.19919575114E+03  0.12506132125E+03 0.  0.
         24    2    1    2    0    0  0.30307069169E+02  0.34714994913E+02  0.36325856083E+03  0.37493476176E+03  0.80595559760E+02 0.  0.
        -11    1    5    5    0    0 -0.57918724800E+01 -0.17547193399E+02  0.26923981229E+02  0.32655023323E+02  0.00000000000E+00 0.  1.
         12    1    5    5    0    0  0.36098941649E+02  0.52262188312E+02  0.33633457960E+03  0.34227973844E+03  0.00000000000E+00 0. -1.
         13    1    3    3    0    0  0.84295900060E+02 -0.80206112150E+02 -0.38571172575E+03  0.40288007468E+03  0.00000000000E+00 0. -1.
        -14    1    3    3    0    0  0.24492991384E+02  0.23654611473E+02 -0.11845988848E+03  0.12325661220E+03  0.00000000000E+00 0.  1.
          5    1    4    4  501    0 -0.10599277099E+03  0.62846941558E+02  0.76463125168E+02  0.14508027942E+03  0.41800000000E+01 0. -1.
         -5    1    4    4    0  501 -0.33103189626E+02 -0.41010435794E+02 -0.11547072019E+02  0.54115471721E+02  0.41800000000E+01 0. -1.
</event>
<event>
11    1  0.7577197E-009  0.2047392E+03  0.7561462E-02  0.1051222E+00
         22   -1    0    0    0    0  0.00000000000E+00  0.00000000000E+00  0.47570889739E+03  0.47570889739E+03  0.00000000000E+00 0. -1.
         22   -1    0    0    0    0 -0.00000000000E+00 -0.00000000000E+00 -0.42930475962E+03  0.42930475962E+03  0.00000000000E+00 0.  1.
        -24    2    1    2    0    0 -0.37560282793E+02  0.15278429308E+03 -0.27799447751E+03  0.32975068083E+03  0.81858212314E+02 0.  0.
         25    2    1    2    0    0  0.28772660279E+02 -0.17908218173E+03 -0.15611725189E+02  0.22088453569E+03  0.12509179969E+03 0.  0.
         24    2    1    2    0    0  0.87876225131E+01  0.26297888652E+02  0.34001034047E+03  0.35437844050E+03  0.95959607168E+02 0.  0.
        -13    1    5    5    0    0 -0.24554536546E+02  0.47533319328E+01  0.20297081008E+02  0.32210105975E+02  0.00000000000E+00 0.  1.
         14    1    5    5    0    0  0.33342159060E+02  0.21544556719E+02  0.31971325946E+03  0.32216833453E+03  0.00000000000E+00 0. -1.
         13    1    3    3    0    0 -0.58397036739E+01 -0.43302684653E+01 -0.53028658857E+02  0.53524686119E+02  0.00000000000E+00 0. -1.
        -14    1    3    3    0    0 -0.31720579119E+02  0.15711456154E+03 -0.22496581865E+03  0.27622599471E+03  0.00000000000E+00 0.  1.
          5    1    4    4  501    0  0.13991056395E+02  0.16251170173E+02 -0.11975077689E+02  0.24914354832E+02  0.41800000000E+01 0. -1.
         -5    1    4    4    0  501  0.14781603884E+02 -0.19533335190E+03 -0.36366474994E+01  0.19597018086E+03  0.41800000000E+01 0. -1.
</event>
<event>
11    1  0.7577197E-009  0.1378245E+03  0.7561462E-02  0.1110012E+00
         22   -1    0    0    0    0  0.00000000000E+00  0.00000000000E+00  0.74861290178E+03  0.74861290178E+03  0.00000000000E+00 0.  1.
         22   -1    0    0    0    0 -0.00000000000E+00 -0.00000000000E+00 -0.88551294424E+03  0.88551294424E+03  0.00000000000E+00 0. -1.
        -24    2    1    2    0    0  0.47931057774E+01  0.17370370934E+02 -0.82556893799E+03  0.83000803997E+03  0.83812716195E+02 0.  0.
         25    2    1    2    0    0 -0.53391643216E+02 -0.47206541923E+02  0.41704855770E+02  0.14988714537E+03  0.12509091169E+03 0.  0.
         24    2    1    2    0    0  0.48598537439E+02  0.29836170989E+02  0.64696403976E+03  0.65423066067E+03  0.78760863935E+02 0.  0.
        -13    1    5    5    0    0  0.44364164152E+02  0.37227252491E+02  0.64150389398E+03  0.64411279555E+03  0.00000000000E+00 0.  1.
         14    1    5    5    0    0  0.42343732869E+01 -0.73910815020E+01  0.54601457720E+01  0.10117865128E+02  0.00000000000E+00 0. -1.
         13    1    3    3    0    0  0.27660003104E+02  0.43096208853E+02 -0.47395311302E+03  0.47671156094E+03  0.00000000000E+00 0. -1.
        -14    1    3    3    0    0 -0.22866897326E+02 -0.25725837919E+02 -0.35161582497E+03  0.35329647903E+03  0.00000000000E+00 0.  1.
          5    1    4    4  501    0 -0.86922052843E+02 -0.50929846675E+02  0.66397061127E+01  0.10104875383E+03  0.41800000000E+01 0.  1.
         -5    1    4    4    0  501  0.33530409627E+02  0.37233047519E+01  0.35065149657E+02  0.48838391543E+02  0.41800000000E+01 0.  1.
</event>
<event>
11    1  0.7577197E-009  0.1415601E+03  0.7561462E-02  0.1105829E+00
         22   -1    0    0    0    0  0.00000000000E+00  0.00000000000E+00  0.32973453780E+03  0.32973453780E+03  0.00000000000E+00 0.  1.
         22   -1    0    0    0    0 -0.00000000000E+00 -0.00000000000E+00 -0.11956385337E+04  0.11956385337E+04  0.00000000000E+00 0. -1.
        -24    2    1    2    0    0  0.10512546339E+02 -0.66771847575E+02 -0.11417686569E+04  0.11475358527E+04  0.92918642512E+02 0.  0.
         25    2    1    2    0    0 -0.30920715525E+02  0.13684925177E+02  0.64191489783E+02  0.14460591995E+03  0.12508779676E+03 0.  0.
         24    2    1    2    0    0  0.20408169185E+02  0.53086922398E+02  0.21167317114E+03  0.23323129890E+03  0.79728242852E+02 0.  0.
        -11    1    5    5    0    0 -0.17631388137E+02  0.49271897585E+02  0.16385726662E+03  0.17201101582E+03  0.00000000000E+00 0.  1.
         12    1    5    5    0    0  0.38039557322E+02  0.38150248123E+01  0.47815904518E+02  0.61220283080E+02  0.00000000000E+00 0. -1.
         13    1    3    3    0    0 -0.39525441326E+02 -0.39221764412E+02 -0.67304762763E+03  0.67534710807E+03  0.00000000000E+00 0. -1.
        -14    1    3    3    0    0  0.50037987665E+02 -0.27550083163E+02 -0.46872102922E+03  0.47218874460E+03  0.00000000000E+00 0.  1.
          5    1    4    4  501    0 -0.47657396154E+02  0.24970254900E+02 -0.20284337229E+02  0.57651259958E+02  0.41800000000E+01 0.  1.
         -5    1    4    4    0  501  0.16736680630E+02 -0.11285329722E+02  0.84475827012E+02  0.86954659995E+02  0.41800000000E+01 0.  1.
</event>
<event>
11    1  0.7577197E-009  0.2285952E+03  0.7561462E-02  0.1035963E+00
         22   -1    0    0    0    0  0.00000000000E+00  0.00000000000E+00  0.11810309791E+04  0.11810309791E+04  0.00000000000E+00 0.  1.
         22   -1    0    0    0    0 -0.00000000000E+00 -0.00000000000E+00 -0.33588551271E+03  0.33588551271E+03  0.00000000000E+00 0. -1.
        -24    2    1    2    0    0  0.11557481982E+03  0.97151988474E+02 -0.22953301288E+03  0.28553891172E+03  0.77788291297E+02 0.  0.
         25    2    1    2    0    0 -0.12151596278E+03 -0.27212175267E+03  0.32734505813E+03  0.46002028007E+03  0.12508994168E+03 0.  0.
         24    2    1    2    0    0  0.59411429530E+01  0.17496976420E+03  0.74733342119E+03  0.77135730006E+03  0.76387998791E+02 0.  0.
        -13    1    5    5    0    0  0.69270865272E+01  0.17477558355E+03  0.74914068737E+03  0.76928945047E+03  0.00000000000E+00 0.  1.
         14    1    5    5    0    0 -0.98594357412E+00  0.19418064673E+00 -0.18072661806E+01  0.20678495841E+01  0.00000000000E+00 0. -1.
         13    1    3    3    0    0  0.65511019667E+02  0.96631186035E+02 -0.18372219337E+03  0.21767665044E+03  0.00000000000E+00 0. -1.
        -14    1    3    3    0    0  0.50063800156E+02  0.52080243901E+00 -0.45810819515E+02  0.67862261279E+02  0.00000000000E+00 0.  1.
          5    1    4    4  501    0  0.15861216806E+02 -0.50617856655E+02  0.19591629898E+02  0.56701410679E+02  0.41800000000E+01 0.  1.
         -5    1    4    4    0  501 -0.13737717958E+03 -0.22150389602E+03  0.30775342823E+03  0.40331886939E+03  0.41800000000E+01 0.  1.
</event>
<event>
11    1  0.7577197E-009  0.1309965E+03  0.7561462E-02  0.1118051E+00
         22   -1    0    0    0    0  0.00000000000E+00  0.00000000000E+00  0.58690181612E+03  0.58690181612E+03  0.00000000000E+00 0.  1.
         22   -1    0    0    0    0 -0.00000000000E+00 -0.00000000000E+00 -0.36942140825E+03  0.36942140825E+03  0.00000000000E+00 0. -1.
         24    2    1    2    0    0  0.89252219676E+01  0.39007291644E+02 -0.30361467809E+03  0.31730049357E+03  0.83045180954E+02 0.  0.
         25    2    1    2    0    0 -0.17268952187E+02 -0.23451643567E+02  0.17347703327E+02  0.12960104415E+03  0.12508913437E+03 0.  0.
        -24    2    1    2    0    0  0.83437302197E+01 -0.15555648077E+02  0.50374738264E+03  0.50942168665E+03  0.73738953674E+02 0.  0.
        -13    1    3    3    0    0 -0.14666822628E+02  0.57110496023E+02 -0.15715550170E+03  0.16785284078E+03  0.00000000000E+00 0.  1.
         14    1    3    3    0    0  0.23592044595E+02 -0.18103204379E+02 -0.14645917639E+03  0.14944765279E+03  0.00000000000E+00 0. -1.
         13    1    5    5    0    0  0.92971978765E+01  0.27396033889E+02  0.28721357728E+03  0.28866696994E+03  0.00000000000E+00 0. -1.
        -14    1    5    5    0    0 -0.95346765682E+00 -0.42951681966E+02  0.21653380536E+03  0.22075471671E+03  0.00000000000E+00 0.  1.
          5    1    4    4  501    0  0.36775223646E+02 -0.53893654139E+02  0.12891995166E+01  0.65391723223E+02  0.41800000000E+01 0. -1.
         -5    1    4    4    0  501 -0.54044175833E+02  0.30442010572E+02  0.16058503810E+02  0.64209320926E+02  0.41800000000E+01 0. -1.
</event>
<event>
11    1  0.7577197E-009  0.1444399E+03  0.7561462E-02  0.1102699E+00
         22   -1    0    0    0    0  0.00000000000E+00  0.00000000000E+00  0.11954564190E+04  0.11954564190E+04  0.00000000000E+00 0. -1.
         22   -1    0    0    0    0 -0.00000000000E+00 -0.00000000000E+00 -0.94003153980E+03  0.94003153980E+03  0.00000000000E+00 0.  1.
        -24    2    1    2    0    0  0.41671110914E+02 -0.24297713298E+00 -0.73680031964E+03  0.74180749359E+03  0.75280183388E+02 0.  0.
         25    2    1    2    0    0 -0.30787406381E+02  0.71706880598E+02 -0.17082080563E+03  0.22564882857E+03  0.12509158678E+03 0.  0.
         24    2    1    2    0    0 -0.10883704533E+02 -0.71463903465E+02  0.11630460045E+04  0.11680316366E+04  0.79977191658E+02 0.  0.
        -11    1    5    5    0    0 -0.33475760761E+02 -0.25170917355E+02  0.82706038017E+03  0.82812020510E+03  0.00000000000E+00 0.  1.
         12    1    5    5    0    0  0.22592056229E+02 -0.46292986111E+02  0.33598562429E+03  0.33991143155E+03  0.00000000000E+00 0. -1.
         11    1    3    3    0    0  0.32416431120E+02 -0.16546874511E+02 -0.13815114309E+03  0.14286483962E+03  0.00000000000E+00 0. -1.
        -12    1    3    3    0    0  0.92546797942E+01  0.16303897378E+02 -0.59864917655E+03  0.59894265397E+03  0.00000000000E+00 0.  1.
          5    1    4    4  501    0 -0.40662962563E+02 -0.72320679766E+01 -0.51637130724E+01  0.41831993310E+02  0.41800000000E+01 0. -1.
         -5    1    4    4    0  501  0.98755561816E+01  0.78938948575E+02 -0.16565709255E+03  0.18381683526E+03  0.41800000000E+01 0. -1.
</event>
<event>
11    1  0.7577197E-009  0.1798163E+03  0.7561462E-02  0.1069791E+00
         22   -1    0    0    0    0  0.00000000000E+00  0.00000000000E+00  0.25257630483E+03  0.25257630483E+03  0.00000000000E+00 0.  1.
         22   -1    0    0    0    0 -0.00000000000E+00 -0.00000000000E+00 -0.64527059080E+03  0.64527059080E+03  0.00000000000E+00 0. -1.
        -24    2    1    2    0    0 -0.13753973434E+03 -0.27991148064E+02 -0.50594207872E+03  0.53126066402E+03  0.80992735643E+02 0.  0.
         25    2    1    2    0    0  0.80435312356E+02  0.28920007773E+02 -0.63578196230E+02  0.16430142152E+03  0.12508622527E+03 0.  0.
         24    2    1    2    0    0  0.57104421980E+02 -0.92885970933E+00  0.17682598898E+03  0.20228481010E+03  0.79937076680E+02 0.  0.
        -13    1    5    5    0    0 -0.17798428742E+02 -0.71224567852E+01  0.16809228589E+02  0.25496345270E+02  0.00000000000E+00 0.  1.
         14    1    5    5    0    0  0.74902850721E+02  0.61935970758E+01  0.16001676039E+03  0.17678846483E+03  0.00000000000E+00 0. -1.
         11    1    3    3    0    0 -0.70876133753E+02 -0.51807296510E+02 -0.33330882756E+03  0.34467694561E+03  0.00000000000E+00 0. -1.
        -12    1    3    3    0    0 -0.66663600583E+02  0.23816148446E+02 -0.17263325116E+03  0.18658371841E+03  0.00000000000E+00 0.  1.
          5    1    4    4  501    0 -0.21101536753E+02 -0.18057190561E+02 -0.41624490913E+02  0.50213619945E+02  0.41800000000E+01 0.  1.
         -5    1    4    4    0  501  0.10153684911E+03  0.46977198334E+02 -0.21953705317E+02  0.11408780157E+03  0.41800000000E+01 0.  1.
</event>
<event>
11    1  0.7577197E-009  0.1459677E+03  0.7561462E-02  0.1101072E+00
         22   -1    0    0    0    0  0.00000000000E+00  0.00000000000E+00  0.15291130021E+03  0.15291130021E+03  0.00000000000E+00 0. -1.
         22   -1    0    0    0    0 -0.00000000000E+00 -0.00000000000E+00 -0.11412882604E+04  0.11412882604E+04  0.00000000000E+00 0. -1.
        -24    2    1    2    0    0  0.30020575168E+02 -0.45400513169E+02 -0.88406478764E+03  0.88940477146E+03  0.80671291102E+02 0.  0.
         25    2    1    2    0    0 -0.93294754797E+02  0.52496384484E+01 -0.20311435685E+03  0.25619216593E+03  0.12509002337E+03 0.  0.
         24    2    1    2    0    0  0.63274179628E+02  0.40150874720E+02  0.98802184321E+02  0.14860262322E+03  0.81885001384E+02 0.  0.
        -13    1    5    5    0    0  0.34789569520E+02  0.54474291219E+02  0.27015698294E+02  0.70054339662E+02  0.00000000000E+00 0.  1.
         14    1    5    5    0    0  0.28484610108E+02 -0.14323416498E+02  0.71786486026E+02  0.78548283554E+02  0.00000000000E+00 0. -1.
         13    1    3    3    0    0  0.14277945373E+01  0.15815747956E+02 -0.43460831384E+03  0.43489833633E+03  0.00000000000E+00 0. -1.
        -14    1    3    3    0    0  0.28592780631E+02 -0.61216261124E+02 -0.44945647380E+03  0.45450643513E+03  0.00000000000E+00 0.  1.
          5    1    4    4  501    0 -0.88263229344E+02 -0.27973420276E+02 -0.63059319454E+02  0.11210200741E+03  0.41800000000E+01 0. -1.
         -5    1    4    4    0  501 -0.50315254529E+01  0.33223058724E+02 -0.14005503740E+03  0.14409015851E+03  0.41800000000E+01 0. -1.
</event>
<event>
11    1  0.7577197E-009  0.1486048E+03  0.7561462E-02  0.1098313E+00
         22   -1    0    0    0    0  0.00000000000E+00  0.00000000000E+00  0.38770006577E+03  0.38770006577E+03  0.00000000000E+00 0.  1.
         22   -1    0    0    0    0 -0.00000000000E+00 -0.00000000000E+00 -0.10839206349E+04  0.10839206349E+04  0.00000000000E+00 0.  1.
        -24    2    1    2    0    0  0.11969793816E+02  0.52510775260E+02 -0.87161354552E+03  0.87696827079E+03  0.80389786446E+02 0.  0.
         25    2    1    2    0    0 -0.87898842694E+02 -0.74583793556E+02 -0.16453259697E+03  0.23665852739E+03  0.12508930534E+03 0.  0.
         24    2    1    2    0    0  0.75929048878E+02  0.22073018296E+02  0.33992557336E+03  0.35799390249E+03  0.79735815026E+02 0.  0.
        -13    1    5    5    0    0  0.90733090926E+02  0.67874738223E+01  0.27865238884E+03  0.29313088782E+03  0.00000000000E+00 0.  1.
         14    1    5    5    0    0 -0.14804042048E+02  0.15285544474E+02  0.61273184518E+02  0.64863014668E+02  0.00000000000E+00 0. -1.
         11    1    3    3    0    0 -0.15542213551E+01  0.21751755112E+02 -0.48590993354E+02  0.53260107863E+02  0.00000000000E+00 0. -1.
        -12    1    3    3    0    0  0.13524015171E+02  0.30759020149E+02 -0.82302255217E+03  0.82370816293E+03  0.00000000000E+00 0.  1.
          5    1    4    4  501    0  0.14438187297E+02  0.20783548077E+02 -0.84092703368E+01  0.26992690690E+02  0.41800000000E+01 0.  1.
         -5    1    4    4    0  501 -0.10233702999E+03 -0.95367341633E+02 -0.15612332664E+03  0.20966583670E+03  0.41800000000E+01 0.  1.
</event>
<event>
11    1  0.7577197E-009  0.1494330E+03  0.7561462E-02  0.1097460E+00
         22   -1    0    0    0    0  0.00000000000E+00  0.00000000000E+00  0.57359284047E+03  0.57359284047E+03  0.00000000000E+00 0. -1.
         22   -1    0    0    0    0 -0.00000000000E+00 -0.00000000000E+00 -0.27233298051E+03  0.27233298051E+03  0.00000000000E+00 0. -1.
        -24    2    1    2    0    0 -0.79941964575E+02 -0.14403001386E+02 -0.21666637748E+03  0.24470367731E+03  0.79607828815E+02 0.  0.
         25    2    1    2    0    0  0.94607649901E+02 -0.37671163702E+02  0.14792758892E+03  0.21888263922E+03  0.12512919002E+03 0.  0.
         24    2    1    2    0    0 -0.14665685326E+02  0.52074165088E+02  0.36999864852E+03  0.38233950444E+03  0.79735160094E+02 0.  0.
        -11    1    5    5    0    0 -0.38787907588E+02  0.48522581436E+01  0.10392755160E+03  0.11103594988E+03  0.00000000000E+00 0.  1.
         12    1    5    5    0    0  0.24122222262E+02  0.47221906945E+02  0.26607109692E+03  0.27130355456E+03  0.00000000000E+00 0. -1.
         11    1    3    3    0    0 -0.39098148614E+02  0.32733456227E+02 -0.10737726835E+03  0.11886976966E+03  0.00000000000E+00 0. -1.
        -12    1    3    3    0    0 -0.40843815961E+02 -0.47136457613E+02 -0.10928910914E+03  0.12583390765E+03  0.00000000000E+00 0.  1.
          5    1    4    4  501    0  0.22106653088E+02 -0.59988874664E+02  0.12341226380E+03  0.13905189122E+03  0.41800000000E+01 0. -1.
         -5    1    4    4    0  501  0.72500996813E+02  0.22317710961E+02  0.24515325120E+02  0.79830748006E+02  0.41800000000E+01 0. -1.
</event>
<event>
11    1  0.7577197E-009  0.1338195E+03  0.7561462E-02  0.1114663E+00
         22   -1    0    0    0    0  0.00000000000E+00  0.00000000000E+00  0.12539719273E+04  0.12539719273E+04  0.00000000000E+00 0. -1.
         22   -1    0    0    0    0 -0.00000000000E+00 -0.00000000000E+00 -0.45349255470E+02  0.45349255470E+02  0.00000000000E+00 0.  1.
        -24    2    1    2    0    0 -0.87682944798E+01 -0.22622093710E+02  0.42075305498E+02  0.94095150782E+02  0.80591091046E+02 0.  0.
         25    2    1    2    0    0 -0.38583943328E+02  0.30749808146E+02  0.25002587131E+03  0.28389260387E+03  0.12509117803E+03 0.  0.
         24    2    1    2    0    0  0.47352237808E+02 -0.81277144352E+01  0.91652149500E+03  0.92133342810E+03  0.80841454523E+02 0.  0.
        -11    1    5    5    0    0  0.38490407206E+02  0.53402384879E+01  0.16039593657E+03  0.16503601444E+03  0.00000000000E+00 0.  1.
         12    1    5    5    0    0  0.88618306016E+01 -0.13467952923E+02  0.75612555843E+03  0.75629741366E+03  0.00000000000E+00 0. -1.
         13    1    3    3    0    0 -0.36051706573E+02 -0.37969050161E+02  0.21300243314E+02  0.56524991660E+02  0.00000000000E+00 0. -1.
        -14    1    3    3    0    0  0.27283412093E+02  0.15346956450E+02  0.20775062185E+02  0.37570159123E+02  0.00000000000E+00 0.  1.
          5    1    4    4  501    0 -0.60471041462E+02  0.17007229698E+02  0.45448263639E+02  0.77646698483E+02  0.41800000000E+01 0.  1.
         -5    1    4    4    0  501  0.21887098134E+02  0.13742578447E+02  0.20457760767E+03  0.20624590538E+03  0.41800000000E+01 0.  1.
</event>
<event>
11    1  0.7577197E-009  0.1441949E+03  0.7561462E-02  0.1102963E+00
         22   -1    0    0    0    0  0.00000000000E+00  0.00000000000E+00  0.23396853004E+03  0.23396853004E+03  0.00000000000E+00 0. -1.
         22   -1    0    0    0    0 -0.00000000000E+00 -0.00000000000E+00 -0.11580589403E+04  0.11580589403E+04  0.00000000000E+00 0. -1.
        -24    2    1    2    0    0  0.51814448134E+02  0.48352165136E+02 -0.10185918180E+04  0.10242245946E+04  0.80523658788E+02 0.  0.
         25    2    1    2    0    0 -0.86789275189E+02 -0.32557070488E+02 -0.77716141325E+02  0.17401510475E+03  0.12509643053E+03 0.  0.
         24    2    1    2    0    0  0.34974827055E+02 -0.15795094648E+02  0.17221754907E+03  0.19378777096E+03  0.80137958706E+02 0.  0.
        -11    1    5    5    0    0 -0.18152186355E+02  0.17261921691E+02  0.64820740345E+02  0.69492475771E+02  0.00000000000E+00 0.  1.
         12    1    5    5    0    0  0.53127013410E+02 -0.33057016339E+02  0.10739680872E+03  0.12429529519E+03  0.00000000000E+00 0. -1.
         11    1    3    3    0    0  0.54627851777E+02  0.32375341475E+02 -0.98368242545E+03  0.98572992197E+03  0.00000000000E+00 0. -1.
        -12    1    3    3    0    0 -0.28134036429E+01  0.15976823661E+02 -0.34909392526E+02  0.38494672630E+02  0.00000000000E+00 0.  1.
          5    1    4    4  501    0 -0.98774402962E+02 -0.10377866071E+02 -0.99343489531E+02  0.14053712711E+03  0.41800000000E+01 0. -1.
         -5    1    4    4    0  501  0.11985127773E+02 -0.22179204417E+02  0.21627348206E+02  0.33477977638E+02  0.41800000000E+01 0. -1.
</event>
<event>
11    1  0.7577197E-009  0.1368134E+03  0.7561462E-02  0.1111170E+00
         22   -1    0    0    0    0  0.00000000000E+00  0.00000000000E+00  0.35477641065E+03  0.35477641065E+03  0.00000000000E+00 0.  1.
         22   -1    0    0    0    0 -0.00000000000E+00 -0.00000000000E+00 -0.10661179655E+04  0.10661179655E+04  0.00000000000E+00 0. -1.
        -24    2    1    2    0    0  0.55355021007E+02 -0.77538994445E+01 -0.10190253014E+04  0.10237474949E+04  0.80759316498E+02 0.  0.
         25    2    1    2    0    0 -0.30458492844E+02 -0.36846348272E+02  0.95947812799E+02  0.16475882552E+03  0.12511640435E+03 0.  0.
         24    2    1    2    0    0 -0.24896528163E+02  0.44600247717E+02  0.21173593369E+03  0.23238805574E+03  0.81012860868E+02 0.  0.
        -13    1    5    5    0    0 -0.14177566297E+02  0.67331015244E+02  0.17335576885E+03  0.18651190737E+03  0.00000000000E+00 0.  1.
         14    1    5    5    0    0 -0.10718961866E+02 -0.22730767527E+02  0.38380164844E+02  0.45876148371E+02  0.00000000000E+00 0. -1.
         13    1    3    3    0    0  0.44505364921E+02 -0.31498952927E+02 -0.35076585839E+03  0.35497830773E+03  0.00000000000E+00 0. -1.
        -14    1    3    3    0    0  0.10849656086E+02  0.23745053483E+02 -0.66825944297E+03  0.66876918718E+03  0.00000000000E+00 0.  1.
          5    1    4    4  501    0  0.46763110110E+02 -0.66139187837E+00  0.46546330720E+02  0.66115499014E+02  0.41800000000E+01 0.  1.
         -5    1    4    4    0  501 -0.77221602954E+02 -0.36184956394E+02  0.49401482078E+02  0.98643326503E+02  0.41800000000E+01 0.  1.
</event>
<event>
11    1  0.7577197E-009  0.1405292E+03  0.7561462E-02  0.1106969E+00
         22   -1    0    0    0    0  0.00000000000E+00  0.00000000000E+00  0.46561319566E+03  0.46561319566E+03  0.00000000000E+00 0.  1.
         22   -1    0    0    0    0 -0.00000000000E+00 -0.00000000000E+00 -0.32437123610E+03  0.32437123610E+03  0.00000000000E+00 0. -1.
         24    2    1    2    0    0  0.54768806793E+02  0.11239157727E+02 -0.25601948379E+03  0.27317674072E+03  0.77159670346E+02 0.  0.
         25    2    1    2    0    0 -0.48402970928E+02  0.54253076199E+02  0.48209986751E+02  0.15249638205E+03  0.12507877455E+03 0.  0.
        -24    2    1    2    0    0 -0.63658358649E+01 -0.65492233926E+02  0.34905145660E+03  0.36431130899E+03  0.80969462955E+02 0.  0.
        -11    1    3    3    0    0  0.60079673718E+01  0.84043520764E+01  0.20444022675E+01  0.10531305066E+02  0.00000000000E+00 0.  1.
         12    1    3    3    0    0  0.48760839421E+02  0.28348056510E+01 -0.25806388606E+03  0.26264543566E+03  0.00000000000E+00 0. -1.
         11    1    5    5    0    0  0.19849014952E+02 -0.56337179003E+02  0.12491744250E+03  0.13846381684E+03  0.00000000000E+00 0. -1.
        -12    1    5    5    0    0 -0.26214850817E+02 -0.91550549232E+01  0.22413401410E+03  0.22584749215E+03  0.00000000000E+00 0.  1.
          5    1    4    4  501    0  0.14384856795E+02  0.71814962826E+02  0.47054785169E+02  0.87154679725E+02  0.41800000000E+01 0. -1.
         -5    1    4    4    0  501 -0.62787827723E+02 -0.17561886627E+02  0.11552015826E+01  0.65341702325E+02  0.41800000000E+01 0. -1.
</event>
<event>
11    1  0.7577197E-009  0.1314219E+03  0.7561462E-02  0.1117534E+00
         22   -1    0    0    0    0  0.00000000000E+00  0.00000000000E+00  0.86396478116E+03  0.86396478116E+03  0.00000000000E+00 0. -1.
         22   -1    0    0    0    0 -0.00000000000E+00 -0.00000000000E+00 -0.93933685031E+02  0.93933685031E+02  0.00000000000E+00 0. -1.
        -24    2    1    2    0    0  0.37971327524E+02  0.15905243158E+02 -0.50563102433E+02  0.10273595243E+03  0.79393010524E+02 0.  0.
         25    2    1    2    0    0 -0.27920198043E+02 -0.12123690764E+02  0.27628899855E+03  0.30481317175E+03  0.12509571383E+03 0.  0.
         24    2    1    2    0    0 -0.10051129481E+02 -0.37815523940E+01  0.54430520002E+03  0.55034934201E+03  0.80628296174E+02 0.  0.
        -13    1    5    5    0    0 -0.13724639651E+02  0.18081005330E+02  0.43615554731E+02  0.49169147865E+02  0.00000000000E+00 0.  1.
         14    1    5    5    0    0  0.36735101699E+01 -0.21862557724E+02  0.50068964529E+03  0.50118019415E+03  0.00000000000E+00 0. -1.
         13    1    3    3    0    0  0.11957668687E+02  0.46019058963E+02 -0.38422706002E+02  0.61131366456E+02  0.00000000000E+00 0. -1.
        -14    1    3    3    0    0  0.26013658837E+02 -0.30113815805E+02 -0.12140396430E+02  0.41604585972E+02  0.00000000000E+00 0.  1.
          5    1    4    4  501    0 -0.41593471291E+02  0.45528787886E+02  0.89205121175E+02  0.10852609559E+03  0.41800000000E+01 0.  1.
         -5    1    4    4    0  501  0.13673273248E+02 -0.57652478649E+02  0.18708387737E+03  0.19628707616E+03  0.41800000000E+01 0.  1.
</event>
<event>
11    1  0.7577197E-009  0.1494149E+03  0.7561462E-02  0.1097478E+00
         22   -1    0    0    0    0  0.00000000000E+00  0.00000000000E+00  0.29939400822E+03  0.29939400822E+03  0.00000000000E+00 0.  1.
         22   -1    0    0    0    0 -0.00000000000E+00 -0.00000000000E+00 -0.10077074829E+04  0.10077074829E+04  0.00000000000E+00 0.  1.
         24    2    1    2    0    0  0.22371565481E+02  0.12387427238E+03 -0.93828919207E+03  0.95018316739E+03  0.81339543443E+02 0.  0.
         25    2    1    2    0    0 -0.31077282674E+02 -0.11967018112E+02  0.73755134325E+02  0.14898349166E+03  0.12508898403E+03 0.  0.
        -24    2    1    2    0    0  0.87057171923E+01 -0.11190725427E+03  0.15622058307E+03  0.20793483208E+03  0.78949355585E+02 0.  0.
        -13    1    3    3    0    0  0.11401419011E+01  0.74567450558E+02 -0.28174486354E+03  0.29144771871E+03  0.00000000000E+00 0.  1.
         14    1    3    3    0    0  0.21231423580E+02  0.49306821823E+02 -0.65654432853E+03  0.65873544868E+03  0.00000000000E+00 0. -1.
         13    1    5    5    0    0  0.11080861351E+01 -0.11960764177E+03  0.11726855090E+03  0.16750859338E+03  0.00000000000E+00 0. -1.
        -14    1    5    5    0    0  0.75976310572E+01  0.77003875039E+01  0.38952032168E+02  0.40426238700E+02  0.00000000000E+00 0.  1.
          5    1    4    4  501    0  0.15343784948E+02 -0.41028331907E+02  0.82368766057E+02  0.93385447353E+02  0.41800000000E+01 0. -1.
         -5    1    4    4    0  501 -0.46421067622E+02  0.29061313795E+02 -0.86136317317E+01  0.55598044302E+02  0.41800000000E+01 0. -1.
</event>
<event>
11    1  0.7577197E-009  0.1259326E+03  0.7561462E-02  0.1124370E+00
         22   -1    0    0    0    0  0.00000000000E+00  0.00000000000E+00  0.14565040364E+02  0.14565040364E+02  0.00000000000E+00 0.  1.
         22   -1    0    0    0    0 -0.00000000000E+00 -0.00000000000E+00 -0.22097524329E+04  0.22097524329E+04  0.00000000000E+00 0.  1.
        -24    2    1    2    0    0 -0.17048731566E+02  0.13824560704E+01 -0.85442308420E+03  0.85842838801E+03  0.81042705377E+02 0.  0.
         25    2    1    2    0    0  0.42057069350E+00 -0.69688683414E+01 -0.10865436511E+04  0.10937428210E+04  0.12509001055E+03 0.  0.
         24    2    1    2    0    0  0.16628160872E+02  0.55864122710E+01 -0.25422065731E+03  0.27214626433E+03  0.95539221515E+02 0.  0.
        -13    1    5    5    0    0  0.23688655904E+02  0.69468530699E+01 -0.81882632025E+01  0.26008822356E+02  0.00000000000E+00 0.  1.
         14    1    5    5    0    0 -0.70604950311E+01 -0.13604407988E+01 -0.24603239411E+03  0.24613744197E+03  0.00000000000E+00 0. -1.
         13    1    3    3    0    0 -0.41080081801E+02  0.24547058320E+02 -0.41791974290E+03  0.42065073719E+03  0.00000000000E+00 0. -1.
        -14    1    3    3    0    0  0.24031350235E+02 -0.23164602249E+02 -0.43650334129E+03  0.43777765081E+03  0.00000000000E+00 0.  1.
          5    1    4    4  501    0  0.19161038287E+02 -0.10816679451E+02 -0.32232780302E+02  0.39250101510E+02  0.41800000000E+01 0.  1.
         -5    1    4    4    0  501 -0.18740467593E+02  0.38478111092E+01 -0.10543108708E+04  0.10544927195E+04  0.41800000000E+01 0.  1.
</event>
<event>
11    1  0.7577197E-009  0.1989941E+03  0.7561462E-02  0.1055237E+00
         22   -1    0    0    0    0  0.00000000000E+00  0.00000000000E+00  0.42885215644E+03  0.42885215644E+03  0.00000000000E+00 0. -1.
         22   -1    0    0    0    0 -0.00000000000E+00 -0.00000000000E+00 -0.45933713632E+03  0.45933713632E+03  0.00000000000E+00 0. -1.
         24    2    1    2    0    0 -0.96019115058E+01 -0.25067893761E+02 -0.34485859653E+03  0.35564816934E+03  0.82689616968E+02 0.  0.
         25    2    1    2    0    0  0.46573706989E+02  0.16903744174E+03  0.53909462503E+02  0.22202896859E+03  0.12509142996E+03 0.  0.
        -24    2    1    2    0    0 -0.36971795483E+02 -0.14396954798E+03  0.26046415414E+03  0.31051215483E+03  0.80511355074E+02 0.  0.
        -13    1    3    3    0    0 -0.12291061692E+02 -0.36908243244E+02 -0.66629428346E+02  0.77154191970E+02  0.00000000000E+00 0.  1.
         14    1    3    3    0    0  0.26891501859E+01  0.11840349483E+02 -0.27822916818E+03  0.27849397737E+03  0.00000000000E+00 0. -1.
         11    1    5    5    0    0  0.90288969921E+01 -0.11317216671E+03  0.18124806581E+03  0.21386987085E+03  0.00000000000E+00 0. -1.
        -12    1    5    5    0    0 -0.46000692475E+02 -0.30797381273E+02  0.79216088333E+02  0.96642283977E+02  0.00000000000E+00 0.  1.
          5    1    4    4  501    0 -0.68967831142E+01 -0.90470058805E+01 -0.18773407672E+02  0.22345629737E+02  0.41800000000E+01 0. -1.
         -5    1    4    4    0  501  0.53470490103E+02  0.17808444762E+03  0.72682870175E+02  0.19968333885E+03  0.41800000000E+01 0. -1.
</event>
